109
Mn_3_B3LYP.log	Energy: -2448674.9330010
Mn         0.15563       -0.02766       -0.09517
O          1.20527        0.65566        1.42484
H          2.07010        1.10825        1.35785
O          1.07881       -1.77002        0.05059
H          0.92232       -2.54803       -0.51977
O         -1.36320       -0.71868        1.26429
H         -2.14055       -0.22213        1.57790
O         -0.89400       -0.71100       -1.61517
H         -0.63271       -0.65123       -2.55614
O         -0.76755        1.71469       -0.24092
H         -0.61100        2.49273        0.32937
O          1.67446        0.66335       -1.45463
H          2.45183        0.16681       -1.76821
H          1.72585        1.53696       -1.88286
H          1.76804       -1.99748        0.70505
H          0.94396        0.59593        2.36580
H         -1.45684        1.94212       -0.89533
H         -1.41459       -1.59230        1.69249
H         -1.75882       -1.16360       -1.54817
O         -3.31402       -2.03203       -2.14311
H         -3.94912       -2.32098       -1.57465
H         -3.50406       -1.18773       -2.39016
O          0.84152       -2.26310       -3.93996
H          0.20641       -2.55205       -3.37150
H          0.65148       -1.41880       -4.18701
O         -3.16805        2.17170       -2.18465
H         -3.80315        1.88275       -1.61619
H         -3.35809        3.01600       -2.43171
O         -1.08719       -4.33751        0.26619
H         -1.72230       -4.62647        0.83464
H         -1.27723       -3.49321        0.01913
O          2.22929        1.62975       -3.72875
H          1.59418        1.34080       -3.16029
H          2.03925        2.47406       -3.97581
O         -3.83681        0.74977        1.82993
H         -4.47191        0.46082        2.39839
H         -4.02685        1.59408        1.58288
O          3.19658       -3.34212       -0.22559
H          2.56147       -3.63108        0.34287
H          3.00654       -2.49782       -0.47264
O          0.36986        4.41523       -0.77693
H         -0.26524        4.12628       -0.20847
H          0.17982        5.25953       -1.02398
O         -0.90134       -1.84990        3.88130
H         -1.53645       -2.13885        4.44976
H         -1.09138       -1.00559        3.63424
O          4.59043        0.73559       -0.10143
H          3.95532        0.44664        0.46703
H          4.40039        1.57990       -0.34849
O         -0.19129        3.11157        3.11028
H         -0.82639        2.82261        3.67874
H         -0.38133        3.95587        2.86322
O          2.77653       -0.28637        3.55366
H          2.14142       -0.57533        4.12212
H          2.58649        0.55793        3.30661
O         -4.82660       -2.76868       -3.37670
H         -5.46171       -3.05764       -2.80824
H         -5.01664       -1.92438       -3.62376
O          0.06759       -3.12207       -5.66524
H         -0.56751       -3.41102       -5.09679
H         -0.12245       -2.27777       -5.91230
O         -4.91422        2.23911       -3.68915
H         -5.54932        1.95015       -3.12069
H         -5.10426        3.08341       -3.93621
O         -2.46828       -5.93808       -0.77907
H         -3.10339       -6.22703       -0.21061
H         -2.65832       -5.09377       -1.02613
O          1.67651        1.56066       -6.06887
H          1.04141        1.27171       -5.50041
H          1.48647        2.40496       -6.31592
O         -6.45695        0.37782        1.01843
H         -7.09205        0.08887        1.58689
H         -6.64699        1.22212        0.77137
O          2.94844       -5.37958       -1.96604
H          2.31333       -5.66853       -1.39758
H          2.75840       -4.53528       -2.21310
O         -1.18973        5.62891       -3.10406
H         -1.82484        5.33996       -2.53560
H         -1.37977        6.47321       -3.35112
O         -3.50055       -4.00406        3.74612
H         -4.13566       -4.29301        4.31458
H         -3.69059       -3.15976        3.49906
O          5.53651       -0.09136       -3.31777
H          4.90140       -0.38031       -2.74931
H          5.34647        0.75294       -3.56483
O         -4.09004        4.66120        2.14132
H         -4.72515        4.37224        2.70978
H         -4.28008        5.50550        1.89426
O          2.37854       -5.18723        3.02017
H          1.74343       -5.47618        3.58863
H          2.18850       -4.34293        2.77312
O          3.56043        5.22590       -1.52799
H          2.92532        4.93694       -0.95953
H          3.37039        6.07020       -1.77505
O         -2.75371        0.46558        5.90524
H         -3.38882        0.17663        6.47370
H         -2.94375        1.30988        5.65819
O          6.12569       -1.34572        1.51573
H          5.49058       -1.63467        2.08419
H          5.93565       -0.50142        1.26868
O          0.78885        5.78101        2.94592
H          0.15374        5.49205        3.51438
H          0.59881        6.62531        2.69886
O          1.98642       -1.00884        6.09702
H          1.35131       -1.29779        6.66548
H          1.79638       -0.16453        5.84997
O          4.77818        2.77196        3.40870
H          4.14307        2.48301        3.97716
H          4.58814        3.61626        3.16165
