109
V_2_B3LYP.log	Energy: -2318957.5924481
V          0.15442       -0.01352       -0.10184
O          1.90832        1.21681        0.13658
H          2.14444        1.98968       -0.39510
O          1.23349       -1.28475       -1.46791
H          0.88855       -2.06804       -1.91872
O          0.79225       -1.24477        1.54856
H          0.57304       -1.11343        2.48155
O         -1.59946       -1.24387       -0.34023
H         -2.29732       -1.12840       -1.00008
O         -0.92464        1.25773        1.26422
H         -0.57966        2.04094        1.71511
O         -0.48341        1.21773       -1.75224
H         -0.26425        1.08636       -2.68522
H         -1.04327        2.00483       -1.69947
H          2.15425       -1.17919       -1.74507
H          2.60619        1.10126        0.79641
H         -1.84544        1.15226        1.54127
H          1.35216       -2.03183        1.49579
H         -1.83558       -2.01669        0.19151
O         -3.15580       -2.44566       -1.93953
H         -3.73092       -2.78452       -1.33587
H         -3.44783       -1.63504       -2.19957
O          0.92122       -2.27764       -3.91442
H          0.34610       -2.61651       -3.31075
H          0.62918       -1.46703       -4.17446
O         -3.47562        1.74571       -2.09629
H         -4.05074        1.40684       -1.49263
H         -3.76766        2.55632       -2.35633
O         -0.58993       -4.42000        0.42626
H         -1.16505       -4.75886        1.02992
H         -0.88196       -3.60938        0.16622
O          1.87935        1.74784       -3.86644
H          1.30423        1.40898       -3.26278
H          1.58732        2.55846       -4.12648
O         -3.81547        0.38302        1.97969
H         -4.39058        0.04415        2.58335
H         -4.10750        1.19363        1.71965
O          3.53384       -2.97946       -0.28278
H          2.95872       -3.31833        0.32088
H          3.24181       -2.16885       -0.54282
O         -0.15069        4.40330       -0.90720
H         -0.72581        4.06443       -0.30354
H         -0.44272        5.21391       -1.16724
O         -0.52843       -1.81740        3.96384
H         -1.10355       -2.15626        4.56751
H         -0.82046       -1.00678        3.70381
O          4.47401        1.22769       -0.32679
H          3.89889        0.88883        0.27687
H          4.18197        2.03831       -0.58683
O         -0.40202        3.16593        3.03368
H         -0.97713        2.82707        3.63734
H         -0.69405        3.97655        2.77364
O          2.93793        0.12665        3.43121
H          2.36282       -0.21221        4.03488
H          2.64590        0.93727        3.17117
O         -4.62822       -3.38011       -3.08456
H         -5.20334       -3.71898       -2.48090
H         -4.92026       -2.56950       -3.34460
O          0.17525       -3.26823       -5.58045
H         -0.39987       -3.60710       -4.97679
H         -0.11678       -2.45762       -5.84049
O         -5.27989        1.57641       -3.52218
H         -5.85501        1.23754       -2.91852
H         -5.57192        2.38702       -3.78222
O         -1.82875       -6.19272       -0.51423
H         -2.40387       -6.53159        0.08943
H         -2.12078       -5.38211       -0.77427
O          1.24032        1.54731       -6.17683
H          0.66520        1.20845       -5.57317
H          0.94828        2.35793       -6.43687
O         -6.41028       -0.29679        1.29644
H         -6.98540       -0.63565        1.90010
H         -6.70231        0.51383        1.03640
O          3.43917       -5.08417       -1.95707
H          2.86406       -5.42303       -1.35340
H          3.14714       -4.27355       -2.21710
O         -1.93029        5.36804       -3.19264
H         -2.50541        5.02917       -2.58898
H         -2.22232        6.17865       -3.45268
O         -2.87790       -4.24498        4.00117
H         -3.45302       -4.58384        4.60483
H         -3.16993       -3.43436        3.74113
O          5.37029        0.41059       -3.55987
H          4.79517        0.07173       -2.95621
H          5.07825        1.22121       -3.81990
O         -4.48477        4.25128        2.20085
H         -5.05989        3.91241        2.80451
H         -4.77681        5.06189        1.94081
O          3.06026       -4.80242        3.04305
H          2.48515       -5.14129        3.64671
H          2.76823       -3.99181        2.78301
O          2.89700        5.53328       -1.82137
H          2.32188        5.19442       -1.21770
H          2.60497        6.34390       -2.08140
O         -2.53843        0.34343        6.00829
H         -3.11355        0.00457        6.61195
H         -2.83047        1.15405        5.74825
O          6.29536       -0.62351        1.27316
H          5.72024       -0.96237        1.87683
H          6.00333        0.18711        1.01313
O          0.27039        5.91995        2.75653
H         -0.30473        5.58109        3.36019
H         -0.02164        6.73057        2.49649
O          2.33911       -0.59934        6.02529
H          1.76399       -0.93820        6.62895
H          2.04707        0.21128        5.76525
O          4.58272        3.37893        3.11755
H          4.00760        3.04007        3.72121
H          4.29068        4.18955        2.85751
