109
V_3_B3LYP.log	Energy: -2318840.1927244
V          0.15559       -0.00824       -0.10063
O         -0.70026        0.93344        1.50128
H         -1.32371        0.54173        2.14252
O         -1.15085        0.96126       -1.34117
H         -1.11241        0.98932       -2.31646
O          1.48087        1.53384       -0.32675
H          2.41187        1.54651       -0.03254
O          1.01163       -0.94988       -1.70244
H          0.84679       -1.86772       -1.99201
O          1.46195       -0.97784        1.13987
H          1.42348       -1.00599        2.11517
O         -1.16986       -1.55018        0.12546
H         -2.10080       -1.56273       -0.16891
H         -0.98408       -2.42596        0.51509
H         -1.95067        1.45386       -1.07485
H         -0.53511        1.85119        1.79096
H          2.26179       -1.47043        0.87353
H          1.29489        2.40960       -0.71634
H          1.63500       -0.55807       -2.34372
O         -3.06856       -2.51746       -1.98706
H         -3.63875       -2.87783       -1.39122
H         -3.38145       -1.71324       -2.24267
O          1.01819       -2.21617       -3.92566
H          0.44801       -2.57654       -3.32982
H          0.70530       -1.41196       -4.18127
O         -3.50658        1.66431       -2.11089
H         -4.07677        1.30394       -1.51505
H         -3.81947        2.46853       -2.36650
O         -0.46703       -4.43856        0.38362
H         -1.03722       -4.79893        0.97946
H         -0.77992       -3.63435        0.12800
O          1.86060        1.83438       -3.83529
H          1.29042        1.47401       -3.23945
H          1.54771        2.63860       -4.09090
O         -3.84109        0.25691        1.95031
H         -4.41127       -0.10346        2.54615
H         -4.15398        1.06113        1.69470
O          3.61966       -2.87506       -0.27800
H          3.04948       -3.23542        0.31784
H          3.30677       -2.07084       -0.53361
O         -0.26881        4.40499       -0.87097
H         -0.83899        4.04462       -0.27514
H         -0.58170        5.20920       -1.12659
O         -0.50910       -1.86629        3.94360
H         -1.07928       -2.22666        4.53944
H         -0.82199       -1.06208        3.68799
O          4.43969        1.35739       -0.27823
H          3.86951        0.99702        0.31761
H          4.12680        2.16160       -0.53384
O         -0.51729        3.12656        3.05696
H         -1.08748        2.76619        3.65280
H         -0.83018        3.93077        2.80135
O          2.90465        0.18024        3.45706
H          2.33446       -0.18012        4.05290
H          2.59176        0.98446        3.20145
O         -4.50419       -3.48341       -3.15250
H         -5.07438       -3.84378       -2.55666
H         -4.81708       -2.67919       -3.40811
O          0.31461       -3.21300       -5.60635
H         -0.25557       -3.57337       -5.01051
H          0.00172       -2.40878       -5.86196
O         -5.29342        1.45619       -3.55348
H         -5.86361        1.09582       -2.95764
H         -5.60631        2.26040       -3.80909
O         -1.64693       -6.23754       -0.58244
H         -2.21711       -6.59791        0.01340
H         -1.95982       -5.43333       -0.83805
O          1.24668        1.63595       -6.15266
H          0.67650        1.27558       -5.55682
H          0.93379        2.44017       -6.40827
O         -6.40970       -0.49050        1.23923
H         -6.97988       -0.85086        1.83507
H         -6.72259        0.31372        0.98362
O          3.59896       -4.96688       -1.97087
H          3.02877       -5.32725       -1.37504
H          3.28607       -4.16267       -2.22649
O         -2.05625        5.33862       -3.16319
H         -2.62644        4.97825       -2.56736
H         -2.36915        6.14283       -3.41881
O         -2.78855       -4.36001        3.94027
H         -3.35874       -4.72038        4.53611
H         -3.10144       -3.55580        3.68466
O          5.38563        0.59444       -3.51039
H          4.81545        0.23407       -2.91455
H          5.07274        1.39865       -3.76600
O         -4.62234        4.10246        2.19865
H         -5.19252        3.74210        2.79449
H         -4.93523        4.90668        1.94304
O          3.17082       -4.73977        3.02805
H          2.60064       -5.10014        3.62389
H          2.85793       -3.93555        2.77243
O          2.75285        5.62923       -1.74951
H          2.18266        5.26887       -1.15367
H          2.43996        6.43345       -2.00512
O         -2.59680        0.21848        5.98916
H         -3.16699       -0.14189        6.58500
H         -2.90970        1.02269        5.73355
O          6.29985       -0.45513        1.32138
H          5.72966       -0.81549        1.91722
H          5.98696        0.34909        1.06577
O          0.07850        5.90093        2.80897
H         -0.49168        5.54056        3.40481
H         -0.23439        6.70514        2.55336
O          2.30535       -0.58516        6.03968
H          1.73517       -0.94553        6.63552
H          1.99246        0.21905        5.78407
O          4.45847        3.48065        3.18508
H          3.88828        3.12028        3.78092
H          4.14557        4.28486        2.92947
