 Entering Gaussian System, Link 0=g16
 Input=Cr_3_B3LYP.com
 Output=Cr_3_B3LYP.log
 Initial command:
 /gpfs/fs1/soft/improv/software/custom-built/gaussian/g16/l1.exe "/scratch/Gau-192717.inp" -scrdir="/scratch/"
 Default CPUs for threads: 0-127
 Default linda workers: i183.lcrc.anl.gov
 Default is to use 128 SMP processors on each worker.
 Entering Link 1 = /gpfs/fs1/soft/improv/software/custom-built/gaussian/g16/l1.exe PID=    192718.
  
 Copyright (c) 1988-2021, Gaussian, Inc.  All Rights Reserved.
  
 This is part of the Gaussian(R) 16 program.  It is based on
 the Gaussian(R) 09 system (copyright 2009, Gaussian, Inc.),
 the Gaussian(R) 03 system (copyright 2003, Gaussian, Inc.),
 the Gaussian(R) 98 system (copyright 1998, Gaussian, Inc.),
 the Gaussian(R) 94 system (copyright 1995, Gaussian, Inc.),
 the Gaussian 92(TM) system (copyright 1992, Gaussian, Inc.),
 the Gaussian 90(TM) system (copyright 1990, Gaussian, Inc.),
 the Gaussian 88(TM) system (copyright 1988, Gaussian, Inc.),
 the Gaussian 86(TM) system (copyright 1986, Carnegie Mellon
 University), and the Gaussian 82(TM) system (copyright 1983,
 Carnegie Mellon University). Gaussian is a federally registered
 trademark of Gaussian, Inc.
  
 This software contains proprietary and confidential information,
 including trade secrets, belonging to Gaussian, Inc.
  
 This software is provided under written license and may be
 used, copied, transmitted, or stored only in accord with that
 written license.
  
 The following legend is applicable only to US Government
 contracts under FAR:
  
                    RESTRICTED RIGHTS LEGEND
  
 Use, reproduction and disclosure by the US Government is
 subject to restrictions as set forth in subparagraphs (a)
 and (c) of the Commercial Computer Software - Restricted
 Rights clause in FAR 52.227-19.
  
 Gaussian, Inc.
 340 Quinnipiac St., Bldg. 40, Wallingford CT 06492
  
  
 ---------------------------------------------------------------
 Warning -- This program may not be used in any manner that
 competes with the business of Gaussian, Inc. or will provide
 assistance to any competitor of Gaussian, Inc.  The licensee
 of this program is prohibited from giving any competitor of
 Gaussian, Inc. access to this program.  By using this program,
 the user acknowledges that Gaussian, Inc. is engaged in the
 business of creating and licensing software in the field of
 computational chemistry and represents and warrants to the
 licensee that it is not a competitor of Gaussian, Inc. and that
 it will not use this program in any manner prohibited above.
 ---------------------------------------------------------------
  

 Cite this work as:
 Gaussian 16, Revision C.02,
 M. J. Frisch, G. W. Trucks, H. B. Schlegel, G. E. Scuseria, 
 M. A. Robb, J. R. Cheeseman, G. Scalmani, V. Barone, 
 G. A. Petersson, H. Nakatsuji, X. Li, M. Caricato, A. V. Marenich, 
 J. Bloino, B. G. Janesko, R. Gomperts, B. Mennucci, H. P. Hratchian, 
 J. V. Ortiz, A. F. Izmaylov, J. L. Sonnenberg, D. Williams-Young, 
 F. Ding, F. Lipparini, F. Egidi, J. Goings, B. Peng, A. Petrone, 
 T. Henderson, D. Ranasinghe, V. G. Zakrzewski, J. Gao, N. Rega, 
 G. Zheng, W. Liang, M. Hada, M. Ehara, K. Toyota, R. Fukuda, 
 J. Hasegawa, M. Ishida, T. Nakajima, Y. Honda, O. Kitao, H. Nakai, 
 T. Vreven, K. Throssell, J. A. Montgomery, Jr., J. E. Peralta, 
 F. Ogliaro, M. J. Bearpark, J. J. Heyd, E. N. Brothers, K. N. Kudin, 
 V. N. Staroverov, T. A. Keith, R. Kobayashi, J. Normand, 
 K. Raghavachari, A. P. Rendell, J. C. Burant, S. S. Iyengar, 
 J. Tomasi, M. Cossi, J. M. Millam, M. Klene, C. Adamo, R. Cammi, 
 J. W. Ochterski, R. L. Martin, K. Morokuma, O. Farkas, 
 J. B. Foresman, and D. J. Fox, Gaussian, Inc., Wallingford CT, 2019.
 
 ******************************************
 Gaussian 16:  ES64L-G16RevC.02  7-Dec-2021
                23-May-2024 
 ******************************************
 %chk=Cr_3_B3LYP.chk
 SetSPE:  set environment variable "OMP_PROC_BIND" = "true"
 SetSPE:  set environment variable "OMP_PLACES" = "{0},{1},{2},{3},{4},{5},{6},{7},{8},{9},{10},{11},{12},{13},{14},{15},{16},{17},{18},{19},{20},{21},{22},{23},{24},{25},{26},{27},{28},{29},{30},{31},{32},{33},{34},{35},{36},{37},{38},{39},{40},{41},{42},{43},{44},{45},{46},{47},{48},{49},{50},{51},{52},{53},{54},{55},{56},{57},{58},{59},{60},{61},{62},{63},{64},{65},{66},{67},{68},{69},{70},{71},{72},{73},{74},{75},{76},{77},{78},{79},{80},{81},{82},{83},{84},{85},{86},{87},{88},{89},{90},{91},{92},{93},{94},{95},{96},{97},{98},{99},{100},{101},{102},{103},{104},{105},{106},{107},{108},{109},{110},{111},{112},{113},{114},{115},{116},{117},{118},{119},{120},{121},{122},{123},{124},{125},{126},{127}"
 SetLPE:    new flags="-opt 'Tsnet.Node.lindarsharg: ssh'  -nodelist 'i183.lcrc.anl.gov' -env GAUSS_MDEF=26843545600 -env GAUSS_EXEDIR="/gpfs/fs1/soft/improv/software/custom-built/gaussian/g16/bsd:/gpfs/fs1/soft/improv/software/custom-built/gaussian/g16" -env "OMP_PROC_BIND=true" -env "OMP_PLACES={0},{1},{2},{3},{4},{5},{6},{7},{8},{9},{10},{11},{12},{13},{14},{15},{16},{17},{18},{19},{20},{21},{22},{23},{24},{25},{26},{27},{28},{29},{30},{31},{32},{33},{34},{35},{36},{37},{38},{39},{40},{41},{42},{43},{44},{45},{46},{47},{48},{49},{50},{51},{52},{53},{54},{55},{56},{57},{58},{59},{60},{61},{62},{63},{64},{65},{66},{67},{68},{69},{70},{71},{72},{73},{74},{75},{76},{77},{78},{79},{80},{81},{82},{83},{84},{85},{86},{87},{88},{89},{90},{91},{92},{93},{94},{95},{96},{97},{98},{99},{100},{101},{102},{103},{104},{105},{106},{107},{108},{109},{110},{111},{112},{113},{114},{115},{116},{117},{118},{119},{120},{121},{122},{123},{124},{125},{126},{127}" -env GAUSS_ADEF="0,1,2,3,4,5,6,7,8,9,10,11,12,13,14,15,16,17,18,19,20,21,22,23,24,25,26,27,28,29,30,31,32,33,34,35,36,37,38,39,40,41,42,43,44,45,46,47,48,49,50,51,52,53,54,55,56,57,58,59,60,61,62,63,64,65,66,67,68,69,70,71,72,73,74,75,76,77,78,79,80,81,82,83,84,85,86,87,88,89,90,91,92,93,94,95,96,97,98,99,100,101,102,103,104,105,106,107,108,109,110,111,112,113,114,115,116,117,118,119,120,121,122,123,124,125,126,127""
 Will use up to    1 processors via Linda.
 ----------------------------------------------------------------------
 #p B3LYP empiricaldispersion=gd3 6-31+G(2df,p) opt=(cartesian,calcall,
 maxcycles=500) freq scf=(maxcycles=500,xqc,maxconventional=50)
 ----------------------------------------------------------------------
 1/6=500,10=4,18=10,26=3,38=1/1,3;
 2/12=2,17=6,18=5,29=2,40=1/2;
 3/5=1,6=6,7=114,11=2,25=1,30=1,71=2,74=-5,124=31,140=1/1,2,3;
 4//1;
 5/5=2,7=500,8=3,13=1,38=5,85=50/2,8;
 8/6=4,10=90,11=11/1;
 11/6=1,8=1,9=11,15=111,16=1/1,2,10;
 10/6=1/2;
 6/7=2,8=2,9=2,10=2,18=1,28=1/1;
 7/7=1,10=1,25=1/1,2,3,16;
 1/6=500,10=4,18=10,26=3/3(3);
 2/29=1/2;
 7/7=1,8=1,9=1,25=1,44=-1/16;
 99/12=1/99;
 2/29=1/2;
 3/5=1,6=6,7=114,11=2,25=1,30=1,71=2,74=-5,124=31,140=1/1,2,3;
 4/5=5,16=3,69=1/1;
 5/5=2,7=500,8=3,13=1,38=5,85=50/2,8;
 8/6=4,10=90,11=11/1;
 11/6=1,8=1,9=11,15=111,16=1/1,2,10;
 10/6=1/2;
 7/7=1,10=1,25=1/1,2,3,16;
 1/6=500,10=4,18=10,26=3/3(-8);
 2/29=1/2;
 6/7=2,8=2,9=2,10=2,18=1,19=2,28=1/1;
 7/7=1,8=1,9=1,25=1,44=-1/16;
 99/12=1/99;
 Leave Link    1 at Thu May 23 12:33:32 2024, MaxMem=           0 cpu:               5.3 elap:               0.1
 (Enter /gpfs/fs1/soft/improv/software/custom-built/gaussian/g16/l101.exe)
 -----
 Title
 -----
 Symbolic Z-matrix:
 Charge =  3 Multiplicity = 4
 Cr                   -0.79304   0.81881  -0.09491 
 O                    -1.20497   2.57394  -0.35687 
 H                    -2.12106   2.64974  -0.63312 
 O                     0.99012   1.19063  -0.05794 
 H                     1.42696   0.5998    0.55971 
 O                    -0.81752   1.03069   1.71365 
 H                    -1.02108   0.1906    2.13133 
 O                    -0.38507  -0.93351   0.17118 
 H                    -1.15682  -1.47369  -0.01433 
 O                    -2.57341   0.45178  -0.12186 
 H                    -2.77756  -0.08744  -0.88929 
 O                    -0.76966   0.60461  -1.90111 
 H                     0.09872   0.83457  -2.23949 
 H                    -0.96534  -0.30999  -2.11742 
 H                     1.12208   2.09943   0.22124 
 H                    -1.07671   3.0584    0.46184 
 H                    -2.81407  -0.02398   0.6765 
 H                     0.0422    1.33615   2.01181 
 H                    -0.11532  -1.06446   1.08312 
 
 ITRead=  0  0  0  0  0  0  0  0  0  0  0  0  0  0  0  0  0  0  0
 MicOpt= -1 -1 -1 -1 -1 -1 -1 -1 -1 -1 -1 -1 -1 -1 -1 -1 -1 -1 -1
 NAtoms=     19 NQM=       19 NQMF=       0 NMMI=      0 NMMIF=      0
                NMic=       0 NMicF=      0.
                    Isotopes and Nuclear Properties:
 (Nuclear quadrupole moments (NQMom) in fm**2, nuclear magnetic moments (NMagM)
  in nuclear magnetons)

  Atom         1           2           3           4           5           6           7           8           9          10
 IAtWgt=          52          16           1          16           1          16           1          16           1          16
 AtmWgt=  51.9405097  15.9949146   1.0078250  15.9949146   1.0078250  15.9949146   1.0078250  15.9949146   1.0078250  15.9949146
 NucSpn=           0           0           1           0           1           0           1           0           1           0
 AtZEff=  -0.0000000  -0.0000000  -0.0000000  -0.0000000  -0.0000000  -0.0000000  -0.0000000  -0.0000000  -0.0000000  -0.0000000
 NQMom=    0.0000000   0.0000000   0.0000000   0.0000000   0.0000000   0.0000000   0.0000000   0.0000000   0.0000000   0.0000000
 NMagM=    0.0000000   0.0000000   2.7928460   0.0000000   2.7928460   0.0000000   2.7928460   0.0000000   2.7928460   0.0000000
 AtZNuc=  24.0000000   8.0000000   1.0000000   8.0000000   1.0000000   8.0000000   1.0000000   8.0000000   1.0000000   8.0000000

  Atom        11          12          13          14          15          16          17          18          19
 IAtWgt=           1          16           1           1           1           1           1           1           1
 AtmWgt=   1.0078250  15.9949146   1.0078250   1.0078250   1.0078250   1.0078250   1.0078250   1.0078250   1.0078250
 NucSpn=           1           0           1           1           1           1           1           1           1
 AtZEff=  -0.0000000  -0.0000000  -0.0000000  -0.0000000  -0.0000000  -0.0000000  -0.0000000  -0.0000000  -0.0000000
 NQMom=    0.0000000   0.0000000   0.0000000   0.0000000   0.0000000   0.0000000   0.0000000   0.0000000   0.0000000
 NMagM=    2.7928460   0.0000000   2.7928460   2.7928460   2.7928460   2.7928460   2.7928460   2.7928460   2.7928460
 AtZNuc=   1.0000000   8.0000000   1.0000000   1.0000000   1.0000000   1.0000000   1.0000000   1.0000000   1.0000000
 Leave Link  101 at Thu May 23 12:33:33 2024, MaxMem= 26843545600 cpu:               0.4 elap:               0.0
 (Enter /gpfs/fs1/soft/improv/software/custom-built/gaussian/g16/l103.exe)

 GradGradGradGradGradGradGradGradGradGradGradGradGradGradGradGradGradGrad
 Berny optimization.
 Initialization pass.
 No Z-matrix variables, so optimization will use Cartesian coordinates.
 Trust Radius=3.00D-01 FncErr=1.00D-07 GrdErr=1.00D-06 EigMax=2.50D+02 EigMin=1.00D-04
 Number of steps in this run=    114 maximum allowed number of steps=    114.
 GradGradGradGradGradGradGradGradGradGradGradGradGradGradGradGradGradGrad

 Leave Link  103 at Thu May 23 12:33:33 2024, MaxMem= 26843545600 cpu:               0.4 elap:               0.1
 (Enter /gpfs/fs1/soft/improv/software/custom-built/gaussian/g16/l202.exe)
 ---------------------------------------------------------------------------------------------------
                            Z-MATRIX (ANGSTROMS AND DEGREES)
   CD    Cent   Atom    N1       Length/X        N2       Alpha/Y        N3        Beta/Z          J
 ---------------------------------------------------------------------------------------------------
      1      1  Cr       0  -0.793037          0.818805         -0.094905
      2      2  O        0  -1.204971          2.573941         -0.356874
      3      3  H        0  -2.121063          2.649743         -0.633122
      4      4  O        0   0.990122          1.190635         -0.057941
      5      5  H        0   1.426962          0.599798          0.559707
      6      6  O        0  -0.817519          1.030691          1.713650
      7      7  H        0  -1.021079          0.190602          2.131326
      8      8  O        0  -0.385068         -0.933506          0.171177
      9      9  H        0  -1.156817         -1.473692         -0.014327
     10     10  O        0  -2.573405          0.451778         -0.121857
     11     11  H        0  -2.777557         -0.087440         -0.889285
     12     12  O        0  -0.769659          0.604612         -1.901109
     13     13  H        0   0.098725          0.834573         -2.239490
     14     14  H        0  -0.965336         -0.309994         -2.117418
     15     15  H        0   1.122081          2.099426          0.221242
     16     16  H        0  -1.076711          3.058396          0.461841
     17     17  H        0  -2.814074         -0.023981          0.676500
     18     18  H        0   0.042204          1.336153          2.011809
     19     19  H        0  -0.115315         -1.064459          1.083123
 ---------------------------------------------------------------------------------------------------
                         Z-Matrix orientation:                         
 ---------------------------------------------------------------------
 Center     Atomic      Atomic             Coordinates (Angstroms)
 Number     Number       Type             X           Y           Z
 ---------------------------------------------------------------------
      1         24           0       -0.793037    0.818805   -0.094905
      2          8           0       -1.204971    2.573941   -0.356874
      3          1           0       -2.121063    2.649743   -0.633122
      4          8           0        0.990122    1.190635   -0.057941
      5          1           0        1.426962    0.599798    0.559707
      6          8           0       -0.817519    1.030691    1.713650
      7          1           0       -1.021079    0.190602    2.131326
      8          8           0       -0.385068   -0.933506    0.171177
      9          1           0       -1.156817   -1.473692   -0.014327
     10          8           0       -2.573405    0.451778   -0.121857
     11          1           0       -2.777557   -0.087440   -0.889285
     12          8           0       -0.769659    0.604612   -1.901109
     13          1           0        0.098725    0.834573   -2.239490
     14          1           0       -0.965336   -0.309994   -2.117418
     15          1           0        1.122081    2.099426    0.221242
     16          1           0       -1.076711    3.058396    0.461841
     17          1           0       -2.814074   -0.023981    0.676500
     18          1           0        0.042204    1.336153    2.011809
     19          1           0       -0.115315   -1.064459    1.083123
 ---------------------------------------------------------------------
                    Distance matrix (angstroms):
                    1          2          3          4          5
     1  Cr   0.000000
     2  O    1.821762   0.000000
     3  H    2.325008   0.959835   0.000000
     4  O    1.821889   2.611767   3.484150   0.000000
     5  H    2.324839   3.415322   4.267739   0.959899   0.000000
     6  O    1.821090   2.611285   3.134947   2.536076   2.560263
     7  H    2.324381   3.450400   3.859988   3.136540   2.937743
     8  O    1.818745   3.640503   4.062050   2.540791   2.405292
     9  H    2.322579   4.062387   4.279649   3.421971   3.362259
    10  O    1.818006   2.536025   2.301533   3.639880   4.060711
    11  H    2.321775   3.136788   2.826442   4.064482   4.499984
    12  O    1.819010   2.540161   2.759827   2.614866   3.298603
    13  H    2.322657   2.875634   3.286750   2.383386   3.107223
    14  H    2.322591   3.387332   3.506977   3.212032   3.703756
    15  H    2.325429   2.444290   3.398642   0.959822   1.567289
    16  H    2.325125   0.959918   1.567358   2.833814   3.510364
    17  H    2.321626   3.225876   3.056824   4.060370   4.288255
    18  H    2.324547   2.949275   3.660724   2.281137   2.137375
    19  H    2.322443   4.061883   4.556733   2.758526   2.328591
                    6          7          8          9         10
     6  O    0.000000
     7  H    0.960021   0.000000
     8  O    2.534622   2.347406   0.000000
     9  H    3.061530   2.718847   0.960108   0.000000
    10  O    2.605257   2.748593   2.606473   2.392848   0.000000
    11  H    3.444886   3.505227   2.750347   2.305222   0.959885
    12  O    3.640099   4.061422   2.609231   2.833582   2.538227
    13  H    4.062670   4.557707   3.028445   3.443229   3.430916
    14  H    4.061572   4.278496   2.441955   2.411193   2.673658
    15  H    2.670492   3.447487   3.387136   4.244531   4.060675
    16  H    2.397039   3.318813   4.061790   4.557738   3.061904
    17  H    2.484803   2.318921   2.642472   2.307685   0.960023
    18  H    0.959858   1.567527   2.953276   3.665802   3.489421
    19  H    2.297892   1.869309   0.959980   1.567353   3.129403
                   11         12         13         14         15
    11  H    0.000000
    12  O    2.352526   0.000000
    13  H    3.308498   0.959935   0.000000
    14  H    2.200452   0.959991   1.567533   0.000000
    15  H    4.606825   3.212091   2.949969   3.953725   0.000000
    16  H    3.822919   3.420362   3.691102   4.243941   2.410850
    17  H    1.567497   3.349453   4.210050   3.362383   4.495491
    18  H    4.288824   4.062660   4.281159   4.558009   2.225950
    19  H    3.454344   3.481323   3.833001   3.396353   3.504877
                   16         17         18         19
    16  H    0.000000
    17  H    3.544793   0.000000
    18  H    2.573032   3.433851   0.000000
    19  H    4.278809   2.920828   2.578800   0.000000
 Stoichiometry    CrH12O6(3+,4)
 Framework group  C1[X(CrH12O6)]
 Deg. of freedom    51
 Full point group                 C1      NOp   1
 Largest Abelian subgroup         C1      NOp   1
 Largest concise Abelian subgroup C1      NOp   1
                         Standard orientation:                         
 ---------------------------------------------------------------------
 Center     Atomic      Atomic             Coordinates (Angstroms)
 Number     Number       Type             X           Y           Z
 ---------------------------------------------------------------------
      1         24           0       -0.020685   -0.030482    0.009994
      2          8           0       -0.320844   -1.688023   -0.683750
      3          1           0       -1.137089   -1.680465   -1.188697
      4          8           0        1.254521   -0.678417    1.138405
      5          1           0        1.943144   -0.019792    1.254236
      6          8           0        1.297903    0.293995   -1.203435
      7          1           0        1.381609    1.240665   -1.339268
      8          8           0        0.280044    1.626266    0.697440
      9          1           0       -0.431883    2.215255    0.436555
     10          8           0       -1.286249    0.615324   -1.124214
     11          1           0       -2.035220    0.938006   -0.617955
     12          8           0       -1.338537   -0.351919    1.221911
     13          1           0       -0.971839   -0.815948    1.978009
     14          1           0       -1.717555    0.481353    1.511023
     15          1           0        1.635363   -1.477123    0.766536
     16          1           0        0.408500   -1.931252   -1.258500
     17          1           0       -0.915691    1.334609   -1.640895
     18          1           0        2.128750   -0.056695   -0.874745
     19          1           0        1.113633    1.965130    0.362982
 ---------------------------------------------------------------------
 Rotational constants (GHZ):           2.0397002           1.9739464           1.9252837
 Leave Link  202 at Thu May 23 12:33:33 2024, MaxMem= 26843545600 cpu:               0.5 elap:               0.0
 (Enter /gpfs/fs1/soft/improv/software/custom-built/gaussian/g16/l301.exe)
 Standard basis: 6-31+G(2df,p) (6D, 7F)
 Ernie: Thresh=  0.10000D-02 Tol=  0.10000D-05 Strict=F.
 There are   347 symmetry adapted cartesian basis functions of A   symmetry.
 There are   317 symmetry adapted basis functions of A   symmetry.
   317 basis functions,   514 primitive gaussians,   347 cartesian basis functions
    42 alpha electrons       39 beta electrons
       nuclear repulsion energy       734.4111157916 Hartrees.
 IExCor=  402 DFT=T Ex+Corr=B3LYP ExCW=0 ScaHFX=  0.200000
 ScaDFX=  0.800000  0.720000  1.000000  0.810000 ScalE2=  1.000000  1.000000
 IRadAn=      5 IRanWt=     -1 IRanGd=            0 ICorTp=0 IEmpDi=131
 NAtoms=   19 NActive=   19 NUniq=   19 SFac= 1.00D+00 NAtFMM=   60 NAOKFM=F Big=F
 Integral buffers will be    131072 words long.
 Raffenetti 2 integral format.
 Two-electron integral symmetry is turned on.
 R6Disp:  Grimme-D3 Dispersion energy=       -0.0191122562 Hartrees.
 Nuclear repulsion after empirical dispersion term =      734.3920035354 Hartrees.
 Leave Link  301 at Thu May 23 12:33:33 2024, MaxMem= 26843545600 cpu:               0.4 elap:               0.0
 (Enter /gpfs/fs1/soft/improv/software/custom-built/gaussian/g16/l302.exe)
 NPDir=0 NMtPBC=     1 NCelOv=     1 NCel=       1 NClECP=     1 NCelD=      1
         NCelK=      1 NCelE2=     1 NClLst=     1 CellRange=     0.0.
 One-electron integrals computed using PRISM.
 One-electron integral symmetry used in STVInt
 NBasis=   317 RedAO= T EigKep=  2.57D-05  NBF=   317
 NBsUse=   317 1.00D-06 EigRej= -1.00D+00 NBFU=   317
 Precomputing XC quadrature grid using
 IXCGrd= 4 IRadAn=           5 IRanWt=          -1 IRanGd=           0 AccXCQ= 0.00D+00.
 Generated NRdTot=       0 NPtTot=           0 NUsed=           0 NTot=          32
 NSgBfM=   347   346   347   347   347 MxSgAt=    19 MxSgA2=    19.
 Leave Link  302 at Thu May 23 12:33:34 2024, MaxMem= 26843545600 cpu:              21.8 elap:               0.3
 (Enter /gpfs/fs1/soft/improv/software/custom-built/gaussian/g16/l303.exe)
 DipDrv:  MaxL=1.
 Leave Link  303 at Thu May 23 12:33:34 2024, MaxMem= 26843545600 cpu:               1.0 elap:               0.0
 (Enter /gpfs/fs1/soft/improv/software/custom-built/gaussian/g16/l401.exe)
 ExpMin= 1.13D-02 ExpMax= 5.18D+04 ExpMxC= 7.78D+03 IAcc=3 IRadAn=         5 AccDes= 0.00D+00
 Harris functional with IExCor=  402 and IRadAn=       5 diagonalized for initial guess.
 HarFok:  IExCor=  402 AccDes= 0.00D+00 IRadAn=         5 IDoV= 1 UseB2=F ITyADJ=14
 ICtDFT=  3500011 ScaDFX=  1.000000  1.000000  1.000000  1.000000
 FoFCou: FMM=F IPFlag=           0 FMFlag=      100000 FMFlg1=           0
         NFxFlg=           0 DoJE=T BraDBF=F KetDBF=T FulRan=T
         wScrn=  0.000000 ICntrl=       500 IOpCl=  0 I1Cent=   200000004 NGrid=           0
         NMat0=    1 NMatS0=      1 NMatT0=    0 NMatD0=    1 NMtDS0=    0 NMtDT0=    0
 Petite list used in FoFCou.
 Harris En= -1502.63895860290    
 JPrj=0 DoOrth=F DoCkMO=F.
 Initial guess <Sx>= 0.0000 <Sy>= 0.0000 <Sz>= 1.5000 <S**2>= 3.7500 S= 1.5000
 Leave Link  401 at Thu May 23 12:33:34 2024, MaxMem= 26843545600 cpu:              37.7 elap:               0.4
 (Enter /gpfs/fs1/soft/improv/software/custom-built/gaussian/g16/l502.exe)
 Integral symmetry usage will be decided dynamically.
 UHF open shell SCF:
 Using DIIS extrapolation, IDIIS=  1040.
 NGot= 26843545600 LenX= 26843256607 LenY= 26843135757
 Requested convergence on RMS density matrix=1.00D-08 within  50 cycles.
 Requested convergence on MAX density matrix=1.00D-06.
 Requested convergence on             energy=1.00D-06.
 No special actions if energy rises.
 Fock matrices will be formed incrementally for  20 cycles.

 Cycle   1  Pass 1  IDiag  1:
 FoFJK:  IHMeth= 1 ICntrl=       0 DoSepK=F KAlg= 0 I1Cent=           0 FoldK=F
 IRaf= 990000000 NMat=       1 IRICut=       1 DoRegI=T DoRafI=F ISym2E= 0 IDoP0=0 IntGTp=1.
 FoFCou: FMM=F IPFlag=           0 FMFlag=      100000 FMFlg1=           0
         NFxFlg=           0 DoJE=F BraDBF=F KetDBF=F FulRan=T
         wScrn=  0.000000 ICntrl=         0 IOpCl=  1 I1Cent=           0 NGrid=           0
         NMat0=    1 NMatS0=      1 NMatT0=    0 NMatD0=    1 NMtDS0=    0 NMtDT0=    0
 Symmetry not used in FoFCou.
 E= -1499.93897740927    
 DIIS: error= 5.28D-02 at cycle   1 NSaved=   1.
 NSaved= 1 IEnMin= 1 EnMin= -1499.93897740927     IErMin= 1 ErrMin= 5.28D-02
 ErrMax= 5.28D-02  0.00D+00 EMaxC= 1.00D-01 BMatC= 8.99D+00 BMatP= 8.99D+00
 IDIUse=3 WtCom= 4.72D-01 WtEn= 5.28D-01
 Coeff-Com:  0.100D+01
 Coeff-En:   0.100D+01
 Coeff:      0.100D+01
 Gap=     0.087 Goal=   None    Shift=    0.000
 Gap=     0.334 Goal=   None    Shift=    0.000
 GapD=    0.087 DampG=0.500 DampE=0.250 DampFc=0.1250 IDamp=-1.
 Damping current iteration by 1.25D-01
 RMSDP=5.15D-02 MaxDP=2.59D+00              OVMax= 9.77D-01

 Cycle   2  Pass 1  IDiag  1:
 RMSU=  6.41D-03    CP:  9.78D-01
 E= -1500.64731675016     Delta-E=       -0.708339340889 Rises=F Damp=T
 DIIS: error= 3.32D-02 at cycle   2 NSaved=   2.
 NSaved= 2 IEnMin= 2 EnMin= -1500.64731675016     IErMin= 2 ErrMin= 3.32D-02
 ErrMax= 3.32D-02  0.00D+00 EMaxC= 1.00D-01 BMatC= 1.98D+00 BMatP= 8.99D+00
 IDIUse=3 WtCom= 6.68D-01 WtEn= 3.32D-01
 Coeff-Com: -0.758D+00 0.176D+01
 Coeff-En:   0.000D+00 0.100D+01
 Coeff:     -0.507D+00 0.151D+01
 Gap=    -0.008 Goal=   None    Shift=    0.000
 Gap=     0.015 Goal=   None    Shift=    0.000
 RMSDP=1.60D-02 MaxDP=2.16D+00 DE=-7.08D-01 OVMax= 9.74D-01

 Cycle   3  Pass 1  IDiag  1:
 RMSU=  1.19D-02    CP:  5.59D-01  7.86D-01
 E= -1501.70434937664     Delta-E=       -1.057032626476 Rises=F Damp=F
 DIIS: error= 2.40D-02 at cycle   3 NSaved=   3.
 NSaved= 3 IEnMin= 3 EnMin= -1501.70434937664     IErMin= 3 ErrMin= 2.40D-02
 ErrMax= 2.40D-02  0.00D+00 EMaxC= 1.00D-01 BMatC= 9.41D-01 BMatP= 1.98D+00
 IDIUse=3 WtCom= 7.60D-01 WtEn= 2.40D-01
 Coeff-Com: -0.150D+00 0.648D+00 0.502D+00
 Coeff-En:   0.806D-01 0.000D+00 0.919D+00
 Coeff:     -0.947D-01 0.492D+00 0.602D+00
 Gap=     0.204 Goal=   None    Shift=    0.000
 Gap=     0.327 Goal=   None    Shift=    0.000
 RMSDP=2.03D-03 MaxDP=9.73D-02 DE=-1.06D+00 OVMax= 1.14D-01

 Cycle   4  Pass 1  IDiag  1:
 RMSU=  1.60D-03    CP:  5.59D-01  5.91D-01  9.92D-01
 E= -1501.83990739501     Delta-E=       -0.135558018375 Rises=F Damp=F
 DIIS: error= 7.73D-03 at cycle   4 NSaved=   4.
 NSaved= 4 IEnMin= 4 EnMin= -1501.83990739501     IErMin= 4 ErrMin= 7.73D-03
 ErrMax= 7.73D-03  0.00D+00 EMaxC= 1.00D-01 BMatC= 2.01D-01 BMatP= 9.41D-01
 IDIUse=3 WtCom= 9.23D-01 WtEn= 7.73D-02
 Coeff-Com: -0.105D+00 0.188D+00 0.245D+00 0.672D+00
 Coeff-En:   0.000D+00 0.000D+00 0.180D+00 0.820D+00
 Coeff:     -0.972D-01 0.173D+00 0.240D+00 0.684D+00
 Gap=     0.231 Goal=   None    Shift=    0.000
 Gap=     0.299 Goal=   None    Shift=    0.000
 RMSDP=1.16D-03 MaxDP=5.24D-02 DE=-1.36D-01 OVMax= 3.99D-02

 Cycle   5  Pass 1  IDiag  1:
 RMSU=  8.30D-04    CP:  5.62D-01  6.98D-01  9.90D-01  7.33D-01
 E= -1501.87096802472     Delta-E=       -0.031060629707 Rises=F Damp=F
 DIIS: error= 2.02D-03 at cycle   5 NSaved=   5.
 NSaved= 5 IEnMin= 5 EnMin= -1501.87096802472     IErMin= 5 ErrMin= 2.02D-03
 ErrMax= 2.02D-03  0.00D+00 EMaxC= 1.00D-01 BMatC= 1.22D-02 BMatP= 2.01D-01
 IDIUse=3 WtCom= 9.80D-01 WtEn= 2.02D-02
 Coeff-Com: -0.903D-01 0.159D+00 0.519D-01 0.129D+00 0.751D+00
 Coeff-En:   0.000D+00 0.000D+00 0.000D+00 0.000D+00 0.100D+01
 Coeff:     -0.884D-01 0.155D+00 0.508D-01 0.126D+00 0.756D+00
 Gap=     0.247 Goal=   None    Shift=    0.000
 Gap=     0.299 Goal=   None    Shift=    0.000
 RMSDP=2.69D-04 MaxDP=1.19D-02 DE=-3.11D-02 OVMax= 9.75D-03

 Cycle   6  Pass 1  IDiag  1:
 RMSU=  2.52D-04    CP:  5.62D-01  6.89D-01  9.89D-01  7.31D-01  9.21D-01
 E= -1501.87245314236     Delta-E=       -0.001485117636 Rises=F Damp=F
 DIIS: error= 1.41D-03 at cycle   6 NSaved=   6.
 NSaved= 6 IEnMin= 6 EnMin= -1501.87245314236     IErMin= 6 ErrMin= 1.41D-03
 ErrMax= 1.41D-03  0.00D+00 EMaxC= 1.00D-01 BMatC= 5.72D-03 BMatP= 1.22D-02
 IDIUse=3 WtCom= 9.86D-01 WtEn= 1.41D-02
 Coeff-Com: -0.177D-01 0.385D-01-0.113D-01-0.189D+00 0.315D+00 0.864D+00
 Coeff-En:   0.000D+00 0.000D+00 0.000D+00 0.000D+00 0.000D+00 0.100D+01
 Coeff:     -0.174D-01 0.380D-01-0.111D-01-0.186D+00 0.311D+00 0.866D+00
 Gap=     0.260 Goal=   None    Shift=    0.000
 Gap=     0.299 Goal=   None    Shift=    0.000
 RMSDP=2.16D-04 MaxDP=1.00D-02 DE=-1.49D-03 OVMax= 9.12D-03

 Cycle   7  Pass 1  IDiag  1:
 RMSU=  6.86D-05    CP:  5.63D-01  7.08D-01  9.88D-01  6.91D-01  1.09D+00
                    CP:  1.10D+00
 E= -1501.87337807904     Delta-E=       -0.000924936685 Rises=F Damp=F
 DIIS: error= 5.03D-04 at cycle   7 NSaved=   7.
 NSaved= 7 IEnMin= 7 EnMin= -1501.87337807904     IErMin= 7 ErrMin= 5.03D-04
 ErrMax= 5.03D-04  0.00D+00 EMaxC= 1.00D-01 BMatC= 4.66D-04 BMatP= 5.72D-03
 IDIUse=3 WtCom= 9.95D-01 WtEn= 5.03D-03
 Coeff-Com:  0.443D-02-0.693D-02-0.983D-02-0.117D+00 0.978D-01 0.470D+00
 Coeff-Com:  0.561D+00
 Coeff-En:   0.000D+00 0.000D+00 0.000D+00 0.000D+00 0.000D+00 0.000D+00
 Coeff-En:   0.100D+01
 Coeff:      0.441D-02-0.690D-02-0.978D-02-0.116D+00 0.974D-01 0.468D+00
 Coeff:      0.563D+00
 Gap=     0.262 Goal=   None    Shift=    0.000
 Gap=     0.301 Goal=   None    Shift=    0.000
 RMSDP=5.72D-05 MaxDP=3.47D-03 DE=-9.25D-04 OVMax= 2.06D-03

 Cycle   8  Pass 1  IDiag  1:
 RMSU=  3.24D-05    CP:  5.63D-01  7.10D-01  9.88D-01  6.94D-01  1.15D+00
                    CP:  1.10D+00  8.01D-01
 E= -1501.87346475783     Delta-E=       -0.000086678786 Rises=F Damp=F
 DIIS: error= 1.56D-04 at cycle   8 NSaved=   8.
 NSaved= 8 IEnMin= 8 EnMin= -1501.87346475783     IErMin= 8 ErrMin= 1.56D-04
 ErrMax= 1.56D-04  0.00D+00 EMaxC= 1.00D-01 BMatC= 4.00D-05 BMatP= 4.66D-04
 IDIUse=3 WtCom= 9.98D-01 WtEn= 1.56D-03
 Coeff-Com:  0.224D-02-0.364D-02-0.188D-02-0.190D-01 0.231D-01 0.928D-01
 Coeff-Com:  0.190D+00 0.716D+00
 Coeff-En:   0.000D+00 0.000D+00 0.000D+00 0.000D+00 0.000D+00 0.000D+00
 Coeff-En:   0.000D+00 0.100D+01
 Coeff:      0.224D-02-0.363D-02-0.187D-02-0.190D-01 0.230D-01 0.926D-01
 Coeff:      0.190D+00 0.716D+00
 Gap=     0.261 Goal=   None    Shift=    0.000
 Gap=     0.301 Goal=   None    Shift=    0.000
 RMSDP=2.36D-05 MaxDP=1.35D-03 DE=-8.67D-05 OVMax= 5.61D-04

 Cycle   9  Pass 1  IDiag  1:
 RMSU=  1.03D-05    CP:  5.63D-01  7.07D-01  9.88D-01  6.98D-01  1.13D+00
                    CP:  1.12D+00  8.70D-01  1.03D+00
 E= -1501.87347064325     Delta-E=       -0.000005885424 Rises=F Damp=F
 DIIS: error= 5.40D-05 at cycle   9 NSaved=   9.
 NSaved= 9 IEnMin= 9 EnMin= -1501.87347064325     IErMin= 9 ErrMin= 5.40D-05
 ErrMax= 5.40D-05  0.00D+00 EMaxC= 1.00D-01 BMatC= 5.72D-06 BMatP= 4.00D-05
 IDIUse=1 WtCom= 1.00D+00 WtEn= 0.00D+00
 Coeff-Com:  0.343D-04-0.800D-05 0.254D-03 0.106D-01-0.318D-02-0.282D-01
 Coeff-Com: -0.254D-01 0.103D+00 0.943D+00
 Coeff:      0.343D-04-0.800D-05 0.254D-03 0.106D-01-0.318D-02-0.282D-01
 Coeff:     -0.254D-01 0.103D+00 0.943D+00
 Gap=     0.261 Goal=   None    Shift=    0.000
 Gap=     0.301 Goal=   None    Shift=    0.000
 RMSDP=7.38D-06 MaxDP=4.38D-04 DE=-5.89D-06 OVMax= 4.21D-04

 Cycle  10  Pass 1  IDiag  1:
 RMSU=  3.46D-06    CP:  5.63D-01  7.07D-01  9.88D-01  6.99D-01  1.13D+00
                    CP:  1.12D+00  8.90D-01  1.10D+00  1.09D+00
 E= -1501.87347163121     Delta-E=       -0.000000987954 Rises=F Damp=F
 DIIS: error= 1.67D-05 at cycle  10 NSaved=  10.
 NSaved=10 IEnMin=10 EnMin= -1501.87347163121     IErMin=10 ErrMin= 1.67D-05
 ErrMax= 1.67D-05  0.00D+00 EMaxC= 1.00D-01 BMatC= 1.30D-06 BMatP= 5.72D-06
 IDIUse=1 WtCom= 1.00D+00 WtEn= 0.00D+00
 Coeff-Com: -0.699D-04-0.702D-05 0.275D-03 0.844D-02-0.583D-02-0.273D-01
 Coeff-Com: -0.356D-01-0.329D-01 0.555D+00 0.538D+00
 Coeff:     -0.699D-04-0.702D-05 0.275D-03 0.844D-02-0.583D-02-0.273D-01
 Coeff:     -0.356D-01-0.329D-01 0.555D+00 0.538D+00
 Gap=     0.261 Goal=   None    Shift=    0.000
 Gap=     0.302 Goal=   None    Shift=    0.000
 RMSDP=2.05D-06 MaxDP=1.00D-04 DE=-9.88D-07 OVMax= 1.84D-04

 Cycle  11  Pass 1  IDiag  1:
 RMSU=  1.66D-06    CP:  5.63D-01  7.07D-01  9.88D-01  7.00D-01  1.13D+00
                    CP:  1.13D+00  8.97D-01  1.11D+00  1.14D+00  8.64D-01
 E= -1501.87347188848     Delta-E=       -0.000000257272 Rises=F Damp=F
 DIIS: error= 5.05D-06 at cycle  11 NSaved=  11.
 NSaved=11 IEnMin=11 EnMin= -1501.87347188848     IErMin=11 ErrMin= 5.05D-06
 ErrMax= 5.05D-06  0.00D+00 EMaxC= 1.00D-01 BMatC= 7.27D-08 BMatP= 1.30D-06
 IDIUse=1 WtCom= 1.00D+00 WtEn= 0.00D+00
 Coeff-Com: -0.646D-04 0.118D-03 0.120D-03 0.182D-03-0.133D-02-0.203D-02
 Coeff-Com: -0.264D-02-0.141D-01-0.423D-01 0.108D+00 0.954D+00
 Coeff:     -0.646D-04 0.118D-03 0.120D-03 0.182D-03-0.133D-02-0.203D-02
 Coeff:     -0.264D-02-0.141D-01-0.423D-01 0.108D+00 0.954D+00
 Gap=     0.261 Goal=   None    Shift=    0.000
 Gap=     0.302 Goal=   None    Shift=    0.000
 RMSDP=8.48D-07 MaxDP=6.44D-05 DE=-2.57D-07 OVMax= 1.26D-04

 Cycle  12  Pass 1  IDiag  1:
 RMSU=  5.64D-07    CP:  5.63D-01  7.07D-01  9.88D-01  7.00D-01  1.13D+00
                    CP:  1.13D+00  8.98D-01  1.11D+00  1.15D+00  9.94D-01
                    CP:  1.11D+00
 E= -1501.87347191087     Delta-E=       -0.000000022395 Rises=F Damp=F
 DIIS: error= 1.59D-06 at cycle  12 NSaved=  12.
 NSaved=12 IEnMin=12 EnMin= -1501.87347191087     IErMin=12 ErrMin= 1.59D-06
 ErrMax= 1.59D-06  0.00D+00 EMaxC= 1.00D-01 BMatC= 1.10D-08 BMatP= 7.27D-08
 IDIUse=1 WtCom= 1.00D+00 WtEn= 0.00D+00
 Coeff-Com: -0.125D-04 0.314D-04 0.401D-04-0.603D-03-0.157D-03 0.121D-02
 Coeff-Com:  0.242D-02 0.133D-02-0.635D-01-0.168D-01 0.310D+00 0.766D+00
 Coeff:     -0.125D-04 0.314D-04 0.401D-04-0.603D-03-0.157D-03 0.121D-02
 Coeff:      0.242D-02 0.133D-02-0.635D-01-0.168D-01 0.310D+00 0.766D+00
 Gap=     0.261 Goal=   None    Shift=    0.000
 Gap=     0.302 Goal=   None    Shift=    0.000
 RMSDP=3.29D-07 MaxDP=2.24D-05 DE=-2.24D-08 OVMax= 4.20D-05

 Cycle  13  Pass 1  IDiag  1:
 RMSU=  1.84D-07    CP:  5.63D-01  7.07D-01  9.88D-01  7.00D-01  1.13D+00
                    CP:  1.13D+00  8.99D-01  1.11D+00  1.15D+00  1.02D+00
                    CP:  1.19D+00  1.05D+00
 E= -1501.87347191353     Delta-E=       -0.000000002659 Rises=F Damp=F
 DIIS: error= 6.03D-07 at cycle  13 NSaved=  13.
 NSaved=13 IEnMin=13 EnMin= -1501.87347191353     IErMin=13 ErrMin= 6.03D-07
 ErrMax= 6.03D-07  0.00D+00 EMaxC= 1.00D-01 BMatC= 1.03D-09 BMatP= 1.10D-08
 IDIUse=1 WtCom= 1.00D+00 WtEn= 0.00D+00
 Coeff-Com:  0.247D-05-0.158D-05 0.475D-05-0.171D-03 0.426D-04 0.415D-03
 Coeff-Com:  0.103D-02 0.247D-02-0.145D-01-0.177D-01-0.131D-01 0.238D+00
 Coeff-Com:  0.804D+00
 Coeff:      0.247D-05-0.158D-05 0.475D-05-0.171D-03 0.426D-04 0.415D-03
 Coeff:      0.103D-02 0.247D-02-0.145D-01-0.177D-01-0.131D-01 0.238D+00
 Coeff:      0.804D+00
 Gap=     0.261 Goal=   None    Shift=    0.000
 Gap=     0.302 Goal=   None    Shift=    0.000
 RMSDP=1.28D-07 MaxDP=9.36D-06 DE=-2.66D-09 OVMax= 1.81D-05

 Cycle  14  Pass 1  IDiag  1:
 RMSU=  6.47D-08    CP:  5.63D-01  7.07D-01  9.88D-01  7.00D-01  1.13D+00
                    CP:  1.13D+00  8.99D-01  1.11D+00  1.14D+00  1.03D+00
                    CP:  1.22D+00  1.17D+00  1.04D+00
 E= -1501.87347191385     Delta-E=       -0.000000000317 Rises=F Damp=F
 DIIS: error= 3.95D-07 at cycle  14 NSaved=  14.
 NSaved=14 IEnMin=14 EnMin= -1501.87347191385     IErMin=14 ErrMin= 3.95D-07
 ErrMax= 3.95D-07  0.00D+00 EMaxC= 1.00D-01 BMatC= 4.83D-10 BMatP= 1.03D-09
 IDIUse=1 WtCom= 1.00D+00 WtEn= 0.00D+00
 Coeff-Com:  0.402D-05-0.717D-05-0.394D-05 0.231D-04 0.483D-04-0.124D-04
 Coeff-Com:  0.133D-03 0.115D-02 0.344D-02-0.734D-02-0.683D-01-0.640D-02
 Coeff-Com:  0.491D+00 0.586D+00
 Coeff:      0.402D-05-0.717D-05-0.394D-05 0.231D-04 0.483D-04-0.124D-04
 Coeff:      0.133D-03 0.115D-02 0.344D-02-0.734D-02-0.683D-01-0.640D-02
 Coeff:      0.491D+00 0.586D+00
 Gap=     0.261 Goal=   None    Shift=    0.000
 Gap=     0.302 Goal=   None    Shift=    0.000
 RMSDP=4.68D-08 MaxDP=3.94D-06 DE=-3.17D-10 OVMax= 7.51D-06

 Cycle  15  Pass 1  IDiag  1:
 RMSU=  2.68D-08    CP:  5.63D-01  7.07D-01  9.88D-01  7.00D-01  1.13D+00
                    CP:  1.13D+00  8.99D-01  1.11D+00  1.15D+00  1.03D+00
                    CP:  1.23D+00  1.21D+00  1.15D+00  8.56D-01
 E= -1501.87347191396     Delta-E=       -0.000000000106 Rises=F Damp=F
 DIIS: error= 1.33D-07 at cycle  15 NSaved=  15.
 NSaved=15 IEnMin=15 EnMin= -1501.87347191396     IErMin=15 ErrMin= 1.33D-07
 ErrMax= 1.33D-07  0.00D+00 EMaxC= 1.00D-01 BMatC= 3.11D-11 BMatP= 4.83D-10
 IDIUse=1 WtCom= 1.00D+00 WtEn= 0.00D+00
 Coeff-Com:  0.111D-05-0.260D-05-0.996D-06 0.283D-04 0.238D-05-0.420D-04
 Coeff-Com: -0.124D-03-0.405D-03 0.208D-02 0.194D-02-0.560D-02-0.354D-01
 Coeff-Com: -0.601D-01 0.760D-01 0.102D+01
 Coeff:      0.111D-05-0.260D-05-0.996D-06 0.283D-04 0.238D-05-0.420D-04
 Coeff:     -0.124D-03-0.405D-03 0.208D-02 0.194D-02-0.560D-02-0.354D-01
 Coeff:     -0.601D-01 0.760D-01 0.102D+01
 Gap=     0.261 Goal=   None    Shift=    0.000
 Gap=     0.302 Goal=   None    Shift=    0.000
 RMSDP=2.75D-08 MaxDP=2.58D-06 DE=-1.06D-10 OVMax= 3.85D-06

 Cycle  16  Pass 1  IDiag  1:
 RMSU=  1.29D-08    CP:  5.63D-01  7.07D-01  9.88D-01  7.00D-01  1.13D+00
                    CP:  1.13D+00  8.99D-01  1.11D+00  1.15D+00  1.03D+00
                    CP:  1.23D+00  1.22D+00  1.20D+00  9.51D-01  1.16D+00
 E= -1501.87347191396     Delta-E=       -0.000000000000 Rises=F Damp=F
 DIIS: error= 2.55D-08 at cycle  16 NSaved=  16.
 NSaved=16 IEnMin=16 EnMin= -1501.87347191396     IErMin=16 ErrMin= 2.55D-08
 ErrMax= 2.55D-08  0.00D+00 EMaxC= 1.00D-01 BMatC= 2.42D-12 BMatP= 3.11D-11
 IDIUse=1 WtCom= 1.00D+00 WtEn= 0.00D+00
 Coeff-Com: -0.583D-07 0.112D-06 0.156D-06-0.265D-06-0.723D-06 0.125D-04
 Coeff-Com: -0.167D-04-0.229D-03-0.808D-04 0.122D-02 0.640D-02-0.647D-02
 Coeff-Com: -0.688D-01-0.488D-01 0.247D+00 0.870D+00
 Coeff:     -0.583D-07 0.112D-06 0.156D-06-0.265D-06-0.723D-06 0.125D-04
 Coeff:     -0.167D-04-0.229D-03-0.808D-04 0.122D-02 0.640D-02-0.647D-02
 Coeff:     -0.688D-01-0.488D-01 0.247D+00 0.870D+00
 Gap=     0.261 Goal=   None    Shift=    0.000
 Gap=     0.302 Goal=   None    Shift=    0.000
 RMSDP=6.85D-09 MaxDP=7.29D-07 DE=-4.55D-13 OVMax= 9.12D-07

 SCF Done:  E(UB3LYP) =  -1501.87347191     A.U. after   16 cycles
            NFock= 16  Conv=0.68D-08     -V/T= 2.0016
 <Sx>= 0.0000 <Sy>= 0.0000 <Sz>= 1.5000 <S**2>= 3.7576 S= 1.5019
 <L.S>=  0.00000000000    
 KE= 1.499428460275D+03 PE=-4.979998087480D+03 EE= 1.244304151755D+03
 Annihilation of the first spin contaminant:
 S**2 before annihilation     3.7576,   after     3.7500
 Leave Link  502 at Thu May 23 12:34:01 2024, MaxMem= 26843545600 cpu:            3009.4 elap:              26.5
 (Enter /gpfs/fs1/soft/improv/software/custom-built/gaussian/g16/l508.exe)
 QCSCF skips out because SCF is already converged.
 Leave Link  508 at Thu May 23 12:34:01 2024, MaxMem= 26843545600 cpu:               0.2 elap:               0.0
 (Enter /gpfs/fs1/soft/improv/software/custom-built/gaussian/g16/l801.exe)
 DoSCS=F DFT=T ScalE2(SS,OS)=  1.000000  1.000000
 Range of M.O.s used for correlation:     1   317
 NBasis=   317 NAE=    42 NBE=    39 NFC=     0 NFV=     0
 NROrb=    317 NOA=    42 NOB=    39 NVA=   275 NVB=   278

 **** Warning!!: The largest alpha MO coefficient is  0.55617996D+02


 **** Warning!!: The largest beta MO coefficient is  0.59325444D+02

 Leave Link  801 at Thu May 23 12:34:01 2024, MaxMem= 26843545600 cpu:               0.4 elap:               0.0
 (Enter /gpfs/fs1/soft/improv/software/custom-built/gaussian/g16/l1101.exe)
 Using compressed storage, NAtomX=    19.
 Will process     20 centers per pass.
 R6Disp: Adding Grimme-D3 dispersion energy 1st derivatives to the gradient.
 Leave Link 1101 at Thu May 23 12:34:02 2024, MaxMem= 26843545600 cpu:              50.8 elap:               0.5
 (Enter /gpfs/fs1/soft/improv/software/custom-built/gaussian/g16/l1102.exe)
 Symmetrizing basis deriv contribution to polar:
 IMax=3 JMax=2 DiffMx= 0.00D+00
 Leave Link 1102 at Thu May 23 12:34:02 2024, MaxMem= 26843545600 cpu:               0.9 elap:               0.0
 (Enter /gpfs/fs1/soft/improv/software/custom-built/gaussian/g16/l1110.exe)
 Forming Gx(P) for the SCF density, NAtomX=    19.
 Integral derivatives from FoFJK, PRISM(SPDF).
 Do as many integral derivatives as possible in FoFJK.
 G2DrvN: MDV=   26843543431.
 G2DrvN: will do    20 centers at a time, making    1 passes.
 Calling FoFCou, ICntrl=  3107 FMM=F I1Cent=   0 AccDes= 0.00D+00.
 FoFJK:  IHMeth= 1 ICntrl=    3107 DoSepK=F KAlg= 0 I1Cent=           0 FoldK=F
 IRaf=         0 NMat=       1 IRICut=       1 DoRegI=T DoRafI=F ISym2E= 0 IDoP0=0 IntGTp=1.
 FoFCou: FMM=F IPFlag=           0 FMFlag=      100000 FMFlg1=           0
         NFxFlg=           0 DoJE=F BraDBF=F KetDBF=F FulRan=T
         wScrn=  0.000000 ICntrl=      3107 IOpCl=  1 I1Cent=           0 NGrid=           0
         NMat0=    1 NMatS0=      1 NMatT0=    0 NMatD0=    1 NMtDS0=    0 NMtDT0=    0
 Symmetry not used in FoFCou.
 End of G2Drv F.D. properties file   721 does not exist.
 End of G2Drv F.D. properties file   722 does not exist.
 End of G2Drv F.D. properties file   788 does not exist.
 Leave Link 1110 at Thu May 23 12:34:17 2024, MaxMem= 26843545600 cpu:            1865.6 elap:              14.9
 (Enter /gpfs/fs1/soft/improv/software/custom-built/gaussian/g16/l1002.exe)
 Minotr:  UHF open shell wavefunction.
          IDoAtm=1111111111111111111
          Direct CPHF calculation.
          Differentiating once with respect to electric field.
                with respect to dipole field.
          Differentiating once with respect to nuclear coordinates.
          Requested convergence is 1.0D-08 RMS, and 1.0D-07 maximum.
          Secondary convergence is 1.0D-12 RMS, and 1.0D-12 maximum.
          NewPWx=T KeepS1=F KeepF1=F KeepIn=T MapXYZ=F SortEE=F KeepMc=T.
         6034 words used for storage of precomputed grid.
 Two-electron integrals replicated using symmetry.
          MDV=   26843545600 using IRadAn=       1.
          Solving linear equations simultaneously, MaxMat=     384.
 FoF2E skips out because all densities are zero.
 CalDSu exits because no D1Ps are significant.
 FoFJK:  IHMeth= 1 ICntrl=       0 DoSepK=F KAlg= 0 I1Cent=           0 FoldK=F
 IRaf= 990000000 NMat=      57 IRICut=     142 DoRegI=T DoRafI=T ISym2E= 2 IDoP0=3 IntGTp=2.
 FoFCou: FMM=F IPFlag=           0 FMFlag=      100000 FMFlg1=           0
         NFxFlg=           0 DoJE=F BraDBF=F KetDBF=F FulRan=T
         wScrn=  0.000000 ICntrl=         0 IOpCl=  1 I1Cent=           0 NGrid=           0
         NMat0=   57 NMatS0=     57 NMatT0=    0 NMatD0=   57 NMtDS0=    0 NMtDT0=    0
 Integrals replicated using symmetry in FoFCou.
 Raff kept on since  98.06% of shell-pairs survive, threshold=   0.20 IRatSp=98.
          There are    60 degrees of freedom in the 1st order CPHF.  IDoFFX=6 NUNeed=     3.
     57 vectors produced by pass  0 Test12= 3.73D-14 1.67D-09 XBig12= 5.51D+01 1.63D+00.
 AX will form    57 AO Fock derivatives at one time.
     57 vectors produced by pass  1 Test12= 3.73D-14 1.67D-09 XBig12= 5.66D+00 2.43D-01.
     57 vectors produced by pass  2 Test12= 3.73D-14 1.67D-09 XBig12= 7.54D-02 3.36D-02.
     57 vectors produced by pass  3 Test12= 3.73D-14 1.67D-09 XBig12= 4.64D-04 4.24D-03.
     57 vectors produced by pass  4 Test12= 3.73D-14 1.67D-09 XBig12= 3.65D-06 2.76D-04.
     57 vectors produced by pass  5 Test12= 3.73D-14 1.67D-09 XBig12= 2.16D-08 1.99D-05.
     43 vectors produced by pass  6 Test12= 3.73D-14 1.67D-09 XBig12= 6.81D-11 9.41D-07.
      9 vectors produced by pass  7 Test12= 3.73D-14 1.67D-09 XBig12= 2.03D-13 4.03D-08.
      3 vectors produced by pass  8 Test12= 3.73D-14 1.67D-09 XBig12= 5.33D-16 3.05D-09.
 InvSVY:  IOpt=1 It=  1 EMax= 3.55D-15
 Solved reduced A of dimension   397 with    60 vectors.
 FullF1:  Do perturbations      1 to       3.
 Isotropic polarizability for W=    0.000000       49.59 Bohr**3.
 End of Minotr F.D. properties file   721 does not exist.
 End of Minotr F.D. properties file   722 does not exist.
 End of Minotr F.D. properties file   788 does not exist.
 Leave Link 1002 at Thu May 23 12:35:22 2024, MaxMem= 26843545600 cpu:            7887.7 elap:              65.1
 (Enter /gpfs/fs1/soft/improv/software/custom-built/gaussian/g16/l601.exe)
 Copying SCF densities to generalized density rwf, IOpCl= 1 IROHF=0.

 **********************************************************************

            Population analysis using the SCF Density.

 **********************************************************************

 Orbital symmetries:
 Alpha Orbitals:
       Occupied  (A) (A) (A) (A) (A) (A) (A) (A) (A) (A) (A) (A)
                 (A) (A) (A) (A) (A) (A) (A) (A) (A) (A) (A) (A)
                 (A) (A) (A) (A) (A) (A) (A) (A) (A) (A) (A) (A)
                 (A) (A) (A) (A) (A) (A)
       Virtual   (A) (A) (A) (A) (A) (A) (A) (A) (A) (A) (A) (A)
                 (A) (A) (A) (A) (A) (A) (A) (A) (A) (A) (A) (A)
                 (A) (A) (A) (A) (A) (A) (A) (A) (A) (A) (A) (A)
                 (A) (A) (A) (A) (A) (A) (A) (A) (A) (A) (A) (A)
                 (A) (A) (A) (A) (A) (A) (A) (A) (A) (A) (A) (A)
                 (A) (A) (A) (A) (A) (A) (A) (A) (A) (A) (A) (A)
                 (A) (A) (A) (A) (A) (A) (A) (A) (A) (A) (A) (A)
                 (A) (A) (A) (A) (A) (A) (A) (A) (A) (A) (A) (A)
                 (A) (A) (A) (A) (A) (A) (A) (A) (A) (A) (A) (A)
                 (A) (A) (A) (A) (A) (A) (A) (A) (A) (A) (A) (A)
                 (A) (A) (A) (A) (A) (A) (A) (A) (A) (A) (A) (A)
                 (A) (A) (A) (A) (A) (A) (A) (A) (A) (A) (A) (A)
                 (A) (A) (A) (A) (A) (A) (A) (A) (A) (A) (A) (A)
                 (A) (A) (A) (A) (A) (A) (A) (A) (A) (A) (A) (A)
                 (A) (A) (A) (A) (A) (A) (A) (A) (A) (A) (A) (A)
                 (A) (A) (A) (A) (A) (A) (A) (A) (A) (A) (A) (A)
                 (A) (A) (A) (A) (A) (A) (A) (A) (A) (A) (A) (A)
                 (A) (A) (A) (A) (A) (A) (A) (A) (A) (A) (A) (A)
                 (A) (A) (A) (A) (A) (A) (A) (A) (A) (A) (A) (A)
                 (A) (A) (A) (A) (A) (A) (A) (A) (A) (A) (A) (A)
                 (A) (A) (A) (A) (A) (A) (A) (A) (A) (A) (A) (A)
                 (A) (A) (A) (A) (A) (A) (A) (A) (A) (A) (A) (A)
                 (A) (A) (A) (A) (A) (A) (A) (A) (A) (A) (A)
 Beta  Orbitals:
       Occupied  (A) (A) (A) (A) (A) (A) (A) (A) (A) (A) (A) (A)
                 (A) (A) (A) (A) (A) (A) (A) (A) (A) (A) (A) (A)
                 (A) (A) (A) (A) (A) (A) (A) (A) (A) (A) (A) (A)
                 (A) (A) (A)
       Virtual   (A) (A) (A) (A) (A) (A) (A) (A) (A) (A) (A) (A)
                 (A) (A) (A) (A) (A) (A) (A) (A) (A) (A) (A) (A)
                 (A) (A) (A) (A) (A) (A) (A) (A) (A) (A) (A) (A)
                 (A) (A) (A) (A) (A) (A) (A) (A) (A) (A) (A) (A)
                 (A) (A) (A) (A) (A) (A) (A) (A) (A) (A) (A) (A)
                 (A) (A) (A) (A) (A) (A) (A) (A) (A) (A) (A) (A)
                 (A) (A) (A) (A) (A) (A) (A) (A) (A) (A) (A) (A)
                 (A) (A) (A) (A) (A) (A) (A) (A) (A) (A) (A) (A)
                 (A) (A) (A) (A) (A) (A) (A) (A) (A) (A) (A) (A)
                 (A) (A) (A) (A) (A) (A) (A) (A) (A) (A) (A) (A)
                 (A) (A) (A) (A) (A) (A) (A) (A) (A) (A) (A) (A)
                 (A) (A) (A) (A) (A) (A) (A) (A) (A) (A) (A) (A)
                 (A) (A) (A) (A) (A) (A) (A) (A) (A) (A) (A) (A)
                 (A) (A) (A) (A) (A) (A) (A) (A) (A) (A) (A) (A)
                 (A) (A) (A) (A) (A) (A) (A) (A) (A) (A) (A) (A)
                 (A) (A) (A) (A) (A) (A) (A) (A) (A) (A) (A) (A)
                 (A) (A) (A) (A) (A) (A) (A) (A) (A) (A) (A) (A)
                 (A) (A) (A) (A) (A) (A) (A) (A) (A) (A) (A) (A)
                 (A) (A) (A) (A) (A) (A) (A) (A) (A) (A) (A) (A)
                 (A) (A) (A) (A) (A) (A) (A) (A) (A) (A) (A) (A)
                 (A) (A) (A) (A) (A) (A) (A) (A) (A) (A) (A) (A)
                 (A) (A) (A) (A) (A) (A) (A) (A) (A) (A) (A) (A)
                 (A) (A) (A) (A) (A) (A) (A) (A) (A) (A) (A) (A)
                 (A) (A)
 The electronic state is 4-A.
 Alpha  occ. eigenvalues -- -216.32349 -25.34907 -21.63617 -21.63562 -21.63524
 Alpha  occ. eigenvalues --  -19.78109 -19.78072 -19.77104 -19.76744 -19.74600
 Alpha  occ. eigenvalues --  -19.73851  -3.55170  -2.50562  -2.50345  -2.50165
 Alpha  occ. eigenvalues --   -1.67815  -1.65495  -1.64918  -1.64208  -1.62273
 Alpha  occ. eigenvalues --   -1.61460  -1.20366  -1.18812  -1.16874  -1.16127
 Alpha  occ. eigenvalues --   -1.14236  -1.12867  -1.08896  -1.07908  -1.07255
 Alpha  occ. eigenvalues --   -1.04414  -1.03339  -1.00994  -1.00466  -0.97371
 Alpha  occ. eigenvalues --   -0.96273  -0.94731  -0.93205  -0.91633  -0.84626
 Alpha  occ. eigenvalues --   -0.83731  -0.82119
 Alpha virt. eigenvalues --   -0.56008  -0.55239  -0.55077  -0.50302  -0.48072
 Alpha virt. eigenvalues --   -0.46802  -0.43362  -0.42199  -0.40886  -0.40493
 Alpha virt. eigenvalues --   -0.37682  -0.35988  -0.35546  -0.34173  -0.32519
 Alpha virt. eigenvalues --   -0.31749  -0.30933  -0.29200  -0.28386  -0.28012
 Alpha virt. eigenvalues --   -0.27544  -0.27261  -0.25283  -0.24935  -0.24685
 Alpha virt. eigenvalues --   -0.23862  -0.22152  -0.21652  -0.20983  -0.19582
 Alpha virt. eigenvalues --   -0.19126  -0.18642  -0.17356  -0.16815  -0.15360
 Alpha virt. eigenvalues --   -0.15215  -0.14446  -0.13432  -0.12488  -0.11612
 Alpha virt. eigenvalues --   -0.11157  -0.09239  -0.08826  -0.08004  -0.07264
 Alpha virt. eigenvalues --   -0.06015  -0.05822  -0.04752  -0.01627  -0.00523
 Alpha virt. eigenvalues --    0.01189   0.06126   0.06347   0.07210   0.08495
 Alpha virt. eigenvalues --    0.20969   0.21686   0.23121   0.25926   0.28282
 Alpha virt. eigenvalues --    0.28990   0.29352   0.32000   0.32940   0.33208
 Alpha virt. eigenvalues --    0.33921   0.34789   0.37892   0.38353   0.38758
 Alpha virt. eigenvalues --    0.41055   0.41198   0.41944   0.43487   0.44597
 Alpha virt. eigenvalues --    0.46655   0.49502   0.51244   0.51540   0.52787
 Alpha virt. eigenvalues --    0.53605   0.54314   0.54980   0.56420   0.57656
 Alpha virt. eigenvalues --    0.58894   0.60575   0.62261   0.62648   0.65958
 Alpha virt. eigenvalues --    0.66079   0.68323   0.71753   0.72240   0.75990
 Alpha virt. eigenvalues --    0.76464   0.79072   0.79613   0.83108   0.83598
 Alpha virt. eigenvalues --    0.84364   0.88102   0.88371   0.90013   0.91746
 Alpha virt. eigenvalues --    1.00156   1.01867   1.06421   1.09020   1.10848
 Alpha virt. eigenvalues --    1.15185   1.17866   1.18822   1.20479   1.21465
 Alpha virt. eigenvalues --    1.22306   1.24733   1.29479   1.31135   1.34099
 Alpha virt. eigenvalues --    1.37070   1.40073   1.44444   1.48889   1.53211
 Alpha virt. eigenvalues --    1.67669   1.69516   1.70673   1.72027   1.74944
 Alpha virt. eigenvalues --    1.75964   1.77423   1.78464   1.81733   1.84938
 Alpha virt. eigenvalues --    1.87278   1.90956   1.96298   1.98939   2.02701
 Alpha virt. eigenvalues --    2.06308   2.07605   2.10051   2.17735   2.20966
 Alpha virt. eigenvalues --    2.21488   2.23868   2.26566   2.27837   2.32684
 Alpha virt. eigenvalues --    2.33767   2.36610   2.38054   2.39614   2.40214
 Alpha virt. eigenvalues --    2.41570   2.43361   2.45019   2.46865   2.49241
 Alpha virt. eigenvalues --    2.50095   2.51236   2.54879   2.56007   2.57071
 Alpha virt. eigenvalues --    2.58959   2.60765   2.68127   2.70516   2.72453
 Alpha virt. eigenvalues --    2.79373   2.80893   2.87233   3.07703   3.09802
 Alpha virt. eigenvalues --    3.12767   3.14883   3.15294   3.17426   3.21426
 Alpha virt. eigenvalues --    3.34731   3.40373   3.49537   3.52998   3.54190
 Alpha virt. eigenvalues --    3.60151   3.62316   3.64868   3.65900   3.67587
 Alpha virt. eigenvalues --    3.68426   3.69240   3.71490   3.73878   3.78761
 Alpha virt. eigenvalues --    3.80947   3.87451   3.87884   3.90286   3.92221
 Alpha virt. eigenvalues --    3.96237   3.96453   4.00061   4.04185   4.06113
 Alpha virt. eigenvalues --    4.08637   4.13288   4.16084   4.16661   4.17898
 Alpha virt. eigenvalues --    4.21989   4.23759   4.32599   4.34564   4.36351
 Alpha virt. eigenvalues --    4.38579   4.39619   4.40852   4.47801   4.55376
 Alpha virt. eigenvalues --    4.59909   4.65224   4.67382   4.69704   4.73445
 Alpha virt. eigenvalues --    4.75712   4.84508   4.86042   4.87085   4.88453
 Alpha virt. eigenvalues --    4.88816   4.89751   4.90976   4.94106   4.94562
 Alpha virt. eigenvalues --    4.97052   5.03777   5.04648   5.05225   5.08576
 Alpha virt. eigenvalues --    5.10056   5.10655   5.12188   5.16847   5.19165
 Alpha virt. eigenvalues --    5.21851   5.23508   5.25051   5.26450   5.29235
 Alpha virt. eigenvalues --    5.30604   5.32377   5.34035   5.37233   5.37538
 Alpha virt. eigenvalues --    5.38783   5.39698   5.42189   5.43038   5.67109
 Alpha virt. eigenvalues --    5.68190   6.31418   6.89756   6.92421   6.93304
 Alpha virt. eigenvalues --    7.02476   7.06414   7.19716  13.22960  13.25123
 Alpha virt. eigenvalues --   13.25420  13.76937  13.84294  13.92572  32.52263
  Beta  occ. eigenvalues -- -216.32302 -25.30446 -21.59914 -21.59827 -21.59760
  Beta  occ. eigenvalues --  -19.78109 -19.78069 -19.77098 -19.76734 -19.74573
  Beta  occ. eigenvalues --  -19.73827  -3.42433  -2.37301  -2.37025  -2.36772
  Beta  occ. eigenvalues --   -1.67649  -1.65357  -1.64785  -1.64019  -1.62076
  Beta  occ. eigenvalues --   -1.61272  -1.19852  -1.18302  -1.16643  -1.15840
  Beta  occ. eigenvalues --   -1.13894  -1.12626  -1.08426  -1.07269  -1.06503
  Beta  occ. eigenvalues --   -1.03324  -1.02978  -1.00566  -0.99780  -0.96673
  Beta  occ. eigenvalues --   -0.95479  -0.94073  -0.92252  -0.91092
  Beta virt. eigenvalues --   -0.60940  -0.60350  -0.59142  -0.55768  -0.50462
  Beta virt. eigenvalues --   -0.50363  -0.50011  -0.47840  -0.46680  -0.42964
  Beta virt. eigenvalues --   -0.41807  -0.40695  -0.40336  -0.37401  -0.35824
  Beta virt. eigenvalues --   -0.35370  -0.33950  -0.32406  -0.31681  -0.30852
  Beta virt. eigenvalues --   -0.29091  -0.28267  -0.27934  -0.27394  -0.27047
  Beta virt. eigenvalues --   -0.25209  -0.24738  -0.24444  -0.23486  -0.21819
  Beta virt. eigenvalues --   -0.21277  -0.20836  -0.19329  -0.18892  -0.18190
  Beta virt. eigenvalues --   -0.17049  -0.16477  -0.15245  -0.14986  -0.14047
  Beta virt. eigenvalues --   -0.13166  -0.12112  -0.11250  -0.10629  -0.08680
  Beta virt. eigenvalues --   -0.08382  -0.07625  -0.06878  -0.05611  -0.05298
  Beta virt. eigenvalues --   -0.04034  -0.01344   0.00891   0.02313   0.06374
  Beta virt. eigenvalues --    0.06767   0.07882   0.09614   0.21765   0.22323
  Beta virt. eigenvalues --    0.23878   0.26803   0.29025   0.29689   0.30579
  Beta virt. eigenvalues --    0.32951   0.33242   0.33491   0.34218   0.35209
  Beta virt. eigenvalues --    0.38087   0.38849   0.39226   0.41277   0.41412
  Beta virt. eigenvalues --    0.42165   0.43815   0.44915   0.46971   0.50052
  Beta virt. eigenvalues --    0.51491   0.51961   0.53114   0.53933   0.54633
  Beta virt. eigenvalues --    0.55164   0.56825   0.57993   0.59369   0.61115
  Beta virt. eigenvalues --    0.62634   0.63266   0.66344   0.66689   0.69548
  Beta virt. eigenvalues --    0.72176   0.72594   0.76818   0.77156   0.79428
  Beta virt. eigenvalues --    0.80319   0.83933   0.84427   0.85185   0.88898
  Beta virt. eigenvalues --    0.89074   0.90775   0.92599   1.00986   1.02472
  Beta virt. eigenvalues --    1.07834   1.10581   1.12618   1.18034   1.20337
  Beta virt. eigenvalues --    1.21907   1.23286   1.24219   1.25391   1.26126
  Beta virt. eigenvalues --    1.31752   1.32375   1.35435   1.39086   1.41338
  Beta virt. eigenvalues --    1.44977   1.50218   1.54321   1.68061   1.69940
  Beta virt. eigenvalues --    1.71184   1.72432   1.75376   1.76519   1.77997
  Beta virt. eigenvalues --    1.79196   1.82337   1.85275   1.87596   1.91591
  Beta virt. eigenvalues --    1.96863   1.99470   2.03304   2.07194   2.08468
  Beta virt. eigenvalues --    2.10840   2.18537   2.22444   2.23118   2.24657
  Beta virt. eigenvalues --    2.27903   2.28881   2.33575   2.34796   2.37133
  Beta virt. eigenvalues --    2.38605   2.40276   2.41445   2.42160   2.44579
  Beta virt. eigenvalues --    2.45831   2.47469   2.50066   2.50657   2.52256
  Beta virt. eigenvalues --    2.55802   2.57102   2.58124   2.60050   2.61160
  Beta virt. eigenvalues --    2.68430   2.71002   2.72845   2.81365   2.82769
  Beta virt. eigenvalues --    2.88852   3.11112   3.13190   3.14455   3.19928
  Beta virt. eigenvalues --    3.20629   3.23453   3.25609   3.38441   3.43553
  Beta virt. eigenvalues --    3.49693   3.53166   3.54344   3.60634   3.62620
  Beta virt. eigenvalues --    3.65187   3.66779   3.68116   3.68811   3.70348
  Beta virt. eigenvalues --    3.72568   3.74528   3.79226   3.81266   3.87966
  Beta virt. eigenvalues --    3.89094   3.90997   3.92857   3.96845   3.99822
  Beta virt. eigenvalues --    4.04858   4.09727   4.10878   4.11057   4.14856
  Beta virt. eigenvalues --    4.18637   4.21071   4.21456   4.24246   4.24753
  Beta virt. eigenvalues --    4.34486   4.36892   4.37049   4.39960   4.40549
  Beta virt. eigenvalues --    4.41931   4.50092   4.57550   4.60403   4.66017
  Beta virt. eigenvalues --    4.68180   4.70256   4.74458   4.77031   4.84773
  Beta virt. eigenvalues --    4.86207   4.87632   4.88719   4.89199   4.90240
  Beta virt. eigenvalues --    4.91345   4.94736   4.95284   4.98612   5.04771
  Beta virt. eigenvalues --    5.05709   5.06090   5.09473   5.10801   5.11356
  Beta virt. eigenvalues --    5.12706   5.18189   5.19806   5.22548   5.24455
  Beta virt. eigenvalues --    5.25709   5.26875   5.29829   5.31136   5.33125
  Beta virt. eigenvalues --    5.34596   5.38202   5.38325   5.39271   5.39973
  Beta virt. eigenvalues --    5.42375   5.43299   5.67342   5.68429   6.33440
  Beta virt. eigenvalues --    6.90067   6.92737   6.93629   7.02689   7.06631
  Beta virt. eigenvalues --    7.20149  13.23098  13.25257  13.25552  13.77024
  Beta virt. eigenvalues --   13.84372  13.92658  32.55238
          Condensed to atoms (all electrons):
               1          2          3          4          5          6
     1  Cr  23.045283  -0.071476  -0.021512  -0.051317  -0.022049  -0.041883
     2  O   -0.071476   8.220627   0.324752  -0.059873  -0.000925  -0.038778
     3  H   -0.021512   0.324752   0.254459  -0.001098  -0.000012   0.000966
     4  O   -0.051317  -0.059873  -0.001098   8.285706   0.317636  -0.062128
     5  H   -0.022049  -0.000925  -0.000012   0.317636   0.281454   0.000175
     6  O   -0.041883  -0.038778   0.000966  -0.062128   0.000175   8.199163
     7  H   -0.019274  -0.003342  -0.000006   0.001596  -0.000280   0.321530
     8  O   -0.057982   0.040261  -0.000417  -0.056250   0.002265  -0.054409
     9  H   -0.019996  -0.000214  -0.000016  -0.003005  -0.000014   0.001922
    10  O   -0.056244  -0.058840  -0.001948   0.040322  -0.000654  -0.057063
    11  H   -0.015790   0.000765  -0.000232  -0.000016   0.000010  -0.001822
    12  O   -0.069728   0.008782   0.000621  -0.069400  -0.000937   0.041125
    13  H   -0.023834  -0.002347   0.000001  -0.000997  -0.000035  -0.000181
    14  H   -0.006061  -0.001160   0.000013   0.001994   0.000047  -0.000665
    15  H   -0.017741  -0.000149  -0.000020   0.321333  -0.023136  -0.007741
    16  H   -0.014370   0.313578  -0.014878  -0.000368   0.000002  -0.004372
    17  H   -0.023645  -0.002161   0.000079  -0.000406  -0.000015   0.000568
    18  H   -0.020582   0.001605   0.000031  -0.005977  -0.000782   0.322900
    19  H   -0.020220  -0.000744   0.000008   0.002310   0.000318  -0.007492
               7          8          9         10         11         12
     1  Cr  -0.019274  -0.057982  -0.019996  -0.056244  -0.015790  -0.069728
     2  O   -0.003342   0.040261  -0.000214  -0.058840   0.000765   0.008782
     3  H   -0.000006  -0.000417  -0.000016  -0.001948  -0.000232   0.000621
     4  O    0.001596  -0.056250  -0.003005   0.040322  -0.000016  -0.069400
     5  H   -0.000280   0.002265  -0.000014  -0.000654   0.000010  -0.000937
     6  O    0.321530  -0.054409   0.001922  -0.057063  -0.001822   0.041125
     7  H    0.289520  -0.009245  -0.000285   0.003079   0.000046  -0.000816
     8  O   -0.009245   8.188694   0.323371  -0.031269  -0.007234  -0.015606
     9  H   -0.000285   0.323371   0.271182  -0.007763   0.000464   0.001198
    10  O    0.003079  -0.031269  -0.007763   8.264353   0.319464  -0.077633
    11  H    0.000046  -0.007234   0.000464   0.319464   0.274825  -0.000613
    12  O   -0.000816  -0.015606   0.001198  -0.077633  -0.000613   8.217612
    13  H    0.000009  -0.000607   0.000036  -0.000077  -0.000094   0.326849
    14  H   -0.000025  -0.005219   0.000382  -0.002423   0.001748   0.307840
    15  H    0.000171  -0.001595  -0.000019  -0.000093  -0.000002   0.000794
    16  H   -0.000056  -0.000490   0.000007   0.002788  -0.000006  -0.001903
    17  H    0.000726  -0.001957  -0.000803   0.323013  -0.022630  -0.000681
    18  H   -0.018213   0.001914   0.000033  -0.003117  -0.000014  -0.000241
    19  H    0.003425   0.321126  -0.017670   0.001500   0.000164  -0.002788
              13         14         15         16         17         18
     1  Cr  -0.023834  -0.006061  -0.017741  -0.014370  -0.023645  -0.020582
     2  O   -0.002347  -0.001160  -0.000149   0.313578  -0.002161   0.001605
     3  H    0.000001   0.000013  -0.000020  -0.014878   0.000079   0.000031
     4  O   -0.000997   0.001994   0.321333  -0.000368  -0.000406  -0.005977
     5  H   -0.000035   0.000047  -0.023136   0.000002  -0.000015  -0.000782
     6  O   -0.000181  -0.000665  -0.007741  -0.004372   0.000568   0.322900
     7  H    0.000009  -0.000025   0.000171  -0.000056   0.000726  -0.018213
     8  O   -0.000607  -0.005219  -0.001595  -0.000490  -0.001957   0.001914
     9  H    0.000036   0.000382  -0.000019   0.000007  -0.000803   0.000033
    10  O   -0.000077  -0.002423  -0.000093   0.002788   0.323013  -0.003117
    11  H   -0.000094   0.001748  -0.000002  -0.000006  -0.022630  -0.000014
    12  O    0.326849   0.307840   0.000794  -0.001903  -0.000681  -0.000241
    13  H    0.250012  -0.015535  -0.000146   0.000017  -0.000020  -0.000018
    14  H   -0.015535   0.291410  -0.000009  -0.000023  -0.000033   0.000006
    15  H   -0.000146  -0.000009   0.266975   0.000317   0.000011   0.000277
    16  H    0.000017  -0.000023   0.000317   0.279605   0.000060  -0.000123
    17  H   -0.000020  -0.000033   0.000011   0.000060   0.279853  -0.000055
    18  H   -0.000018   0.000006   0.000277  -0.000123  -0.000055   0.268598
    19  H   -0.000008  -0.000074   0.000057  -0.000030  -0.000231  -0.000247
              19
     1  Cr  -0.020220
     2  O   -0.000744
     3  H    0.000008
     4  O    0.002310
     5  H    0.000318
     6  O   -0.007492
     7  H    0.003425
     8  O    0.321126
     9  H   -0.017670
    10  O    0.001500
    11  H    0.000164
    12  O   -0.002788
    13  H   -0.000008
    14  H   -0.000074
    15  H    0.000057
    16  H   -0.000030
    17  H   -0.000231
    18  H   -0.000247
    19  H    0.287345
          Atomic-Atomic Spin Densities.
               1          2          3          4          5          6
     1  Cr   3.166056  -0.027457  -0.005459  -0.028578  -0.006992  -0.025674
     2  O   -0.027457   0.002766   0.002994   0.003147  -0.000424   0.005426
     3  H   -0.005459   0.002994   0.008554  -0.000080   0.000011   0.000020
     4  O   -0.028578   0.003147  -0.000080   0.000736   0.004838   0.003818
     5  H   -0.006992  -0.000424   0.000011   0.004838   0.008775   0.001260
     6  O   -0.025674   0.005426   0.000020   0.003818   0.001260  -0.003972
     7  H   -0.007621  -0.000692   0.000006  -0.000620  -0.000047   0.004233
     8  O   -0.025652   0.001143  -0.000156   0.002323   0.000660   0.002293
     9  H   -0.006206  -0.000098  -0.000011  -0.000519  -0.000098  -0.001108
    10  O   -0.029358   0.004358   0.002294   0.000610  -0.000280   0.002032
    11  H   -0.005173  -0.000333  -0.000051  -0.000005   0.000001  -0.000417
    12  O   -0.026958   0.003946   0.000854   0.004651  -0.000103   0.001225
    13  H   -0.005657   0.000110  -0.000000   0.002310  -0.000059  -0.000086
    14  H   -0.006941  -0.000299  -0.000022  -0.000610  -0.000000  -0.000175
    15  H   -0.004793   0.001655  -0.000084   0.003250  -0.001990  -0.000563
    16  H   -0.006514   0.004653  -0.001334  -0.000125  -0.000025   0.001230
    17  H   -0.006799  -0.000415  -0.000067  -0.000253  -0.000006   0.000320
    18  H   -0.005900   0.000061   0.000003   0.003855   0.000434   0.002310
    19  H   -0.007549  -0.000219   0.000004   0.000331   0.000357   0.002903
               7          8          9         10         11         12
     1  Cr  -0.007621  -0.025652  -0.006206  -0.029358  -0.005173  -0.026958
     2  O   -0.000692   0.001143  -0.000098   0.004358  -0.000333   0.003946
     3  H    0.000006  -0.000156  -0.000011   0.002294  -0.000051   0.000854
     4  O   -0.000620   0.002323  -0.000519   0.000610  -0.000005   0.004651
     5  H   -0.000047   0.000660  -0.000098  -0.000280   0.000001  -0.000103
     6  O    0.004233   0.002293  -0.001108   0.002032  -0.000417   0.001225
     7  H    0.009916   0.001786  -0.000097   0.000476  -0.000045  -0.000217
     8  O    0.001786  -0.004256   0.004193   0.005077   0.000087   0.005530
     9  H   -0.000097   0.004193   0.010052   0.003135   0.000280  -0.000300
    10  O    0.000476   0.005077   0.003135  -0.002051   0.002969   0.003058
    11  H   -0.000045   0.000087   0.000280   0.002969   0.010551   0.001269
    12  O   -0.000217   0.005530  -0.000300   0.003058   0.001269   0.001922
    13  H    0.000004  -0.000259  -0.000005  -0.000125  -0.000117   0.003770
    14  H   -0.000014   0.000837   0.000309  -0.000205   0.000567   0.004648
    15  H   -0.000011  -0.000261   0.000014   0.000013   0.000003  -0.000618
    16  H   -0.000108  -0.000126   0.000004  -0.000627   0.000009  -0.000421
    17  H    0.000417   0.000799   0.000241   0.005922  -0.002071  -0.000520
    18  H   -0.001868  -0.000547   0.000007  -0.000510   0.000015  -0.000129
    19  H    0.001583   0.003064  -0.001927  -0.000410  -0.000010  -0.000716
              13         14         15         16         17         18
     1  Cr  -0.005657  -0.006941  -0.004793  -0.006514  -0.006799  -0.005900
     2  O    0.000110  -0.000299   0.001655   0.004653  -0.000415   0.000061
     3  H   -0.000000  -0.000022  -0.000084  -0.001334  -0.000067   0.000003
     4  O    0.002310  -0.000610   0.003250  -0.000125  -0.000253   0.003855
     5  H   -0.000059  -0.000000  -0.001990  -0.000025  -0.000006   0.000434
     6  O   -0.000086  -0.000175  -0.000563   0.001230   0.000320   0.002310
     7  H    0.000004  -0.000014  -0.000011  -0.000108   0.000417  -0.001868
     8  O   -0.000259   0.000837  -0.000261  -0.000126   0.000799  -0.000547
     9  H   -0.000005   0.000309   0.000014   0.000004   0.000241   0.000007
    10  O   -0.000125  -0.000205   0.000013  -0.000627   0.005922  -0.000510
    11  H   -0.000117   0.000567   0.000003   0.000009  -0.002071   0.000015
    12  O    0.003770   0.004648  -0.000618  -0.000421  -0.000520  -0.000129
    13  H    0.008756  -0.001520  -0.000063  -0.000010   0.000013  -0.000013
    14  H   -0.001520   0.009643   0.000010   0.000013  -0.000043   0.000005
    15  H   -0.000063   0.000010   0.009474   0.000257   0.000001   0.000313
    16  H   -0.000010   0.000013   0.000257   0.009105   0.000003   0.000111
    17  H    0.000013  -0.000043   0.000001   0.000003   0.008351  -0.000088
    18  H   -0.000013   0.000005   0.000313   0.000111  -0.000088   0.011189
    19  H    0.000007  -0.000102  -0.000036  -0.000014  -0.000036  -0.000053
              19
     1  Cr  -0.007549
     2  O   -0.000219
     3  H    0.000004
     4  O    0.000331
     5  H    0.000357
     6  O    0.002903
     7  H    0.001583
     8  O    0.003064
     9  H   -0.001927
    10  O   -0.000410
    11  H   -0.000010
    12  O   -0.000716
    13  H    0.000007
    14  H   -0.000102
    15  H   -0.000036
    16  H   -0.000014
    17  H   -0.000036
    18  H   -0.000053
    19  H    0.010735
 Mulliken charges and spin densities:
               1          2
     1  Cr   1.528419   2.926774
     2  O   -0.670365   0.000320
     3  H    0.459211   0.007476
     4  O   -0.660063  -0.000922
     5  H    0.446932   0.006312
     6  O   -0.611815  -0.004925
     7  H    0.431439   0.007080
     8  O   -0.635349  -0.003464
     9  H    0.451189   0.007866
    10  O   -0.657396  -0.003621
    11  H    0.450966   0.007527
    12  O   -0.664474   0.000892
    13  H    0.466973   0.007056
    14  H    0.427786   0.006103
    15  H    0.460716   0.006571
    16  H    0.440245   0.006082
    17  H    0.448325   0.005768
    18  H    0.454007   0.009195
    19  H    0.433252   0.007911
 Sum of Mulliken charges =   3.00000   3.00000
 Mulliken charges and spin densities with hydrogens summed into heavy atoms:
               1          2
     1  Cr   1.528419   2.926774
     2  O    0.229091   0.013878
     4  O    0.247586   0.011961
     6  O    0.273631   0.011350
     8  O    0.249092   0.012312
    10  O    0.241895   0.009675
    12  O    0.230285   0.014051
 APT charges:
               1
     1  Cr   1.875722
     2  O   -0.579718
     3  H    0.404549
     4  O   -0.547712
     5  H    0.362951
     6  O   -0.548305
     7  H    0.353173
     8  O   -0.549729
     9  H    0.367949
    10  O   -0.543796
    11  H    0.371223
    12  O   -0.570791
    13  H    0.408020
    14  H    0.362297
    15  H    0.377355
    16  H    0.372369
    17  H    0.364163
    18  H    0.368189
    19  H    0.352092
 Sum of APT charges =   3.00000
 APT charges with hydrogens summed into heavy atoms:
               1
     1  Cr   1.875722
     2  O    0.197199
     4  O    0.192594
     6  O    0.173056
     8  O    0.170313
    10  O    0.191590
    12  O    0.199526
 Electronic spatial extent (au):  <R**2>=            838.6950
 Charge=              3.0000 electrons
 Dipole moment (field-independent basis, Debye):
    X=              2.3711    Y=              3.7917    Z=             -1.0292  Tot=              4.5889
 Quadrupole moment (field-independent basis, Debye-Ang):
   XX=            -11.7711   YY=            -15.5590   ZZ=            -26.3814
   XY=             -4.2881   XZ=             -1.6153   YZ=             -0.9767
 Traceless Quadrupole moment (field-independent basis, Debye-Ang):
   XX=              6.1327   YY=              2.3448   ZZ=             -8.4775
   XY=             -4.2881   XZ=             -1.6153   YZ=             -0.9767
 Octapole moment (field-independent basis, Debye-Ang**2):
  XXX=             18.7258  YYY=             17.7959  ZZZ=              5.0449  XYY=              4.2814
  XXY=              9.2813  XXZ=              3.2182  XZZ=             -8.1390  YZZ=             -3.2828
  YYZ=            -14.7638  XYZ=             -3.2460
 Hexadecapole moment (field-independent basis, Debye-Ang**3):
 XXXX=           -166.5479 YYYY=           -174.7755 ZZZZ=           -213.5199 XXXY=            -21.8634
 XXXZ=              2.3061 YYYX=             -8.7876 YYYZ=             11.6139 ZZZX=            -16.6031
 ZZZY=            -15.7872 XXYY=            -47.0329 XXZZ=            -52.9966 YYZZ=            -50.8585
 XXYZ=             -0.7902 YYXZ=              3.5659 ZZXY=              2.0141
 N-N= 7.343920035354D+02 E-N=-4.979998083119D+03  KE= 1.499428460275D+03
  Exact polarizability:      51.303      -0.595      50.374      -0.593      -0.041      47.099
 Approx polarizability:      70.572      -0.895      69.428      -1.046      -0.163      64.399
                          Isotropic Fermi Contact Couplings
        Atom                 a.u.       MegaHertz       Gauss      10(-4) cm-1
     1  Cr(53)            -0.11802       9.95932       3.55373       3.32207
     2  O(17)             -0.00327       0.66017       0.23556       0.22021
     3  H(1)               0.00493       7.35043       2.62282       2.45184
     4  O(17)             -0.00704       1.42332       0.50788       0.47477
     5  H(1)               0.00450       6.69778       2.38993       2.23414
     6  O(17)             -0.00562       1.13501       0.40500       0.37860
     7  H(1)               0.00458       6.82997       2.43710       2.27823
     8  O(17)             -0.00645       1.30415       0.46535       0.43502
     9  H(1)               0.00503       7.49199       2.67333       2.49906
    10  O(17)             -0.00901       1.81976       0.64933       0.60701
    11  H(1)               0.00524       7.80507       2.78504       2.60349
    12  O(17)             -0.00507       1.02351       0.36521       0.34141
    13  H(1)               0.00487       7.25550       2.58894       2.42017
    14  H(1)               0.00468       6.97252       2.48797       2.32578
    15  H(1)               0.00484       7.20985       2.57265       2.40495
    16  H(1)               0.00454       6.76237       2.41298       2.25568
    17  H(1)               0.00454       6.76169       2.41274       2.25546
    18  H(1)               0.00530       7.90419       2.82041       2.63655
    19  H(1)               0.00464       6.91426       2.46718       2.30635
 --------------------------------------------------------
       Center         ----  Spin Dipole Couplings  ----
                      3XX-RR        3YY-RR        3ZZ-RR
 --------------------------------------------------------
     1   Atom       -0.076426      0.013540      0.062885
     2   Atom       -0.061187      0.026005      0.035182
     3   Atom       -0.007292      0.013891     -0.006599
     4   Atom       -0.019895     -0.043363      0.063259
     5   Atom        0.037514     -0.032748     -0.004766
     6   Atom       -0.021310     -0.042588      0.063898
     7   Atom        0.001990     -0.002308      0.000318
     8   Atom       -0.062649     -0.003303      0.065952
     9   Atom       -0.028812      0.058360     -0.029548
    10   Atom       -0.018669      0.007893      0.010776
    11   Atom        0.042470     -0.016121     -0.026350
    12   Atom        0.022088     -0.008340     -0.013747
    13   Atom       -0.017973     -0.020463      0.038436
    14   Atom        0.019504     -0.026238      0.006734
    15   Atom        0.015810      0.007210     -0.023020
    16   Atom       -0.027652      0.030832     -0.003180
    17   Atom       -0.019648      0.002234      0.017414
    18   Atom        0.051167     -0.032373     -0.018794
    19   Atom       -0.008398      0.038254     -0.029856
 --------------------------------------------------------
                        XY            XZ            YZ
 --------------------------------------------------------
     1   Atom       -0.022401     -0.009725     -0.007186
     2   Atom        0.016492     -0.008644     -0.066323
     3   Atom        0.033692      0.025596      0.034534
     4   Atom       -0.007437     -0.018734     -0.030681
     5   Atom        0.002458      0.043595      0.001313
     6   Atom        0.015744     -0.018656      0.031577
     7   Atom        0.032643     -0.033514     -0.030974
     8   Atom        0.008634      0.016346      0.024575
     9   Atom       -0.018135     -0.003379      0.016998
    10   Atom        0.010640      0.040540      0.040011
    11   Atom       -0.035452      0.021264     -0.010056
    12   Atom        0.069930      0.032628      0.035928
    13   Atom        0.012742     -0.031543     -0.029977
    14   Atom       -0.018694     -0.045761      0.015469
    15   Atom       -0.044041      0.021280     -0.018919
    16   Atom       -0.017017     -0.011754      0.043759
    17   Atom       -0.021179      0.025784     -0.041979
    18   Atom       -0.001736     -0.033446      0.000871
    19   Atom        0.041777      0.007122      0.012053
 --------------------------------------------------------


 ---------------------------------------------------------------------------------
              Anisotropic Spin Dipole Couplings in Principal Axis System
 ---------------------------------------------------------------------------------

       Atom             a.u.   MegaHertz   Gauss  10(-4) cm-1        Axes

              Baa    -0.0825     2.494     0.890     0.832  0.9698  0.2318  0.0763
     1 Cr(53) Bbb     0.0183    -0.553    -0.197    -0.185 -0.2389  0.9655  0.1035
              Bcc     0.0642    -1.941    -0.693    -0.647 -0.0497 -0.1186  0.9917
 
              Baa    -0.0644     4.662     1.664     1.555  0.9720 -0.2255 -0.0658
     2 O(17)  Bbb    -0.0346     2.502     0.893     0.835  0.2080  0.6959  0.6874
              Bcc     0.0990    -7.164    -2.556    -2.390 -0.1092 -0.6818  0.7233
 
              Baa    -0.0326   -17.399    -6.208    -5.804 -0.5208 -0.2327  0.8214
     3 H(1)   Bbb    -0.0320   -17.056    -6.086    -5.689  0.6866 -0.6859  0.2410
              Bcc     0.0646    34.455    12.294    11.493  0.5073  0.6895  0.5170
 
              Baa    -0.0558     4.040     1.441     1.347  0.3341  0.8987  0.2841
     4 O(17)  Bbb    -0.0184     1.335     0.476     0.445  0.9268 -0.3681  0.0743
              Bcc     0.0743    -5.374    -1.918    -1.793 -0.1713 -0.2385  0.9559
 
              Baa    -0.0329   -17.540    -6.259    -5.851 -0.1479  0.9717  0.1840
     5 H(1)   Bbb    -0.0320   -17.089    -6.098    -5.700 -0.5104 -0.2343  0.8274
              Bcc     0.0649    34.629    12.356    11.551  0.8471  0.0285  0.5306
 
              Baa    -0.0616     4.461     1.592     1.488 -0.4587  0.8432 -0.2803
     6 O(17)  Bbb    -0.0130     0.939     0.335     0.313  0.8763  0.4816  0.0148
              Bcc     0.0746    -5.399    -1.927    -1.801 -0.1475  0.2388  0.9598
 
              Baa    -0.0329   -17.571    -6.270    -5.861  0.7642 -0.6137  0.1985
     7 H(1)   Bbb    -0.0319   -17.021    -6.073    -5.678  0.2439  0.5598  0.7919
              Bcc     0.0648    34.592    12.343    11.539  0.5971  0.5567 -0.5775
 
              Baa    -0.0652     4.720     1.684     1.574  0.9898 -0.0962 -0.1053
     8 O(17)  Bbb    -0.0109     0.792     0.283     0.264  0.0585  0.9472 -0.3152
              Bcc     0.0762    -5.512    -1.967    -1.839  0.1301  0.3058  0.9432
 
              Baa    -0.0327   -17.458    -6.229    -5.823 -0.0192 -0.1871  0.9822
     9 H(1)   Bbb    -0.0324   -17.305    -6.175    -5.772  0.9811  0.1857  0.0546
              Bcc     0.0652    34.763    12.404    11.596 -0.1926  0.9646  0.1800
 
              Baa    -0.0518     3.747     1.337     1.250  0.6943  0.3112 -0.6489
    10 O(17)  Bbb    -0.0142     1.029     0.367     0.343 -0.5896  0.7630 -0.2649
              Bcc     0.0660    -4.777    -1.704    -1.593  0.4126  0.5666  0.7133
 
              Baa    -0.0328   -17.510    -6.248    -5.841  0.4049  0.9105  0.0843
    11 H(1)   Bbb    -0.0324   -17.281    -6.166    -5.764 -0.2613  0.0269  0.9649
              Bcc     0.0652    34.792    12.414    11.605  0.8762 -0.4127  0.2488
 
              Baa    -0.0662     4.792     1.710     1.599 -0.5616  0.8028 -0.2004
    12 O(17)  Bbb    -0.0327     2.365     0.844     0.789 -0.4336 -0.0792  0.8976
              Bcc     0.0989    -7.157    -2.554    -2.387  0.7047  0.5910  0.3926
 
              Baa    -0.0332   -17.700    -6.316    -5.904  0.2930  0.8291  0.4761
[...]
    18  H    0.000000  -0.000000   0.000002  -0.000046  -0.000046   0.277271
    19  H    0.000002  -0.000046  -0.000046   0.000000   0.000002   0.000002
              19
     1  Cr  -0.015572
     2  O   -0.000457
     3  H   -0.000000
     4  O    0.002600
     5  H   -0.000046
     6  O    0.001307
     7  H   -0.000045
     8  O    0.302920
     9  H   -0.014349
    10  O    0.000851
    11  H    0.000002
    12  O    0.001308
    13  H    0.000002
    14  H   -0.000046
    15  H   -0.000046
    16  H    0.000000
    17  H    0.000002
    18  H    0.000002
    19  H    0.277307
          Atomic-Atomic Spin Densities.
               1          2          3          4          5          6
     1  Cr   3.160824  -0.028264  -0.001973  -0.028232  -0.001970  -0.028292
     2  O   -0.028264   0.007495   0.002040   0.005733  -0.000129   0.005731
     3  H   -0.001973   0.002040   0.001400  -0.000166   0.000000  -0.000129
     4  O   -0.028232   0.005733  -0.000166   0.007460   0.002039   0.005726
     5  H   -0.001970  -0.000129   0.000000   0.002039   0.001398   0.000448
     6  O   -0.028292   0.005731  -0.000129   0.005726   0.000448   0.007533
     7  H   -0.001969  -0.000166   0.000000  -0.000128   0.000003   0.002038
     8  O   -0.028246  -0.002189  -0.000015   0.005731  -0.000129   0.005744
     9  H   -0.001974  -0.000015  -0.000000  -0.000166   0.000000  -0.000127
    10  O   -0.028248   0.005737   0.000451  -0.002189  -0.000015   0.005732
    11  H   -0.001971  -0.000129   0.000003  -0.000015   0.000000  -0.000166
    12  O   -0.028292   0.005732  -0.000128   0.005731  -0.000166  -0.002188
    13  H   -0.001972   0.000449   0.000003  -0.000128   0.000000  -0.000015
    14  H   -0.001970  -0.000166   0.000000  -0.000129   0.000000  -0.000015
    15  H   -0.001973  -0.000127   0.000000   0.002039  -0.000827  -0.000166
    16  H   -0.001970   0.002038  -0.000827   0.000450   0.000003  -0.000128
    17  H   -0.001972  -0.000128   0.000003  -0.000015  -0.000000   0.000451
    18  H   -0.001971   0.000449   0.000003  -0.000129   0.000003   0.002038
    19  H   -0.001971  -0.000015   0.000000   0.000449   0.000003  -0.000130
               7          8          9         10         11         12
     1  Cr  -0.001969  -0.028246  -0.001974  -0.028248  -0.001971  -0.028292
     2  O   -0.000166  -0.002189  -0.000015   0.005737  -0.000129   0.005732
     3  H    0.000000  -0.000015  -0.000000   0.000451   0.000003  -0.000128
     4  O   -0.000128   0.005731  -0.000166  -0.002189  -0.000015   0.005731
     5  H    0.000003  -0.000129   0.000000  -0.000015   0.000000  -0.000166
     6  O    0.002038   0.005744  -0.000127   0.005732  -0.000166  -0.002188
     7  H    0.001398   0.000449   0.000003  -0.000129   0.000000  -0.000015
     8  O    0.000449   0.007455   0.002041   0.005725  -0.000129   0.005739
     9  H    0.000003   0.002041   0.001403   0.000449   0.000003  -0.000128
    10  O   -0.000129   0.005725   0.000449   0.007469   0.002039   0.005735
    11  H    0.000000  -0.000129   0.000003   0.002039   0.001398   0.000450
    12  O   -0.000015   0.005739  -0.000128   0.005735   0.000450   0.007515
    13  H    0.000000  -0.000166   0.000000  -0.000129   0.000003   0.002040
    14  H   -0.000000   0.000449   0.000003  -0.000128   0.000003   0.002037
    15  H    0.000000  -0.000128   0.000000  -0.000015  -0.000000   0.000450
    16  H    0.000000  -0.000015   0.000000  -0.000167   0.000000  -0.000128
    17  H    0.000003  -0.000128   0.000003   0.002038  -0.000826  -0.000166
    18  H   -0.000827  -0.000166   0.000000  -0.000127   0.000000  -0.000015
    19  H    0.000003   0.002040  -0.000827  -0.000166   0.000000  -0.000128
              13         14         15         16         17         18
     1  Cr  -0.001972  -0.001970  -0.001973  -0.001970  -0.001972  -0.001971
     2  O    0.000449  -0.000166  -0.000127   0.002038  -0.000128   0.000449
     3  H    0.000003   0.000000   0.000000  -0.000827   0.000003   0.000003
     4  O   -0.000128  -0.000129   0.002039   0.000450  -0.000015  -0.000129
     5  H    0.000000   0.000000  -0.000827   0.000003  -0.000000   0.000003
     6  O   -0.000015  -0.000015  -0.000166  -0.000128   0.000451   0.002038
     7  H    0.000000  -0.000000   0.000000   0.000000   0.000003  -0.000827
     8  O   -0.000166   0.000449  -0.000128  -0.000015  -0.000128  -0.000166
     9  H    0.000000   0.000003   0.000000   0.000000   0.000003   0.000000
    10  O   -0.000129  -0.000128  -0.000015  -0.000167   0.002038  -0.000127
    11  H    0.000003   0.000003  -0.000000   0.000000  -0.000826   0.000000
    12  O    0.002040   0.002037   0.000450  -0.000128  -0.000166  -0.000015
    13  H    0.001401  -0.000827   0.000003   0.000003   0.000000  -0.000000
    14  H   -0.000827   0.001399   0.000003   0.000000   0.000000   0.000000
    15  H    0.000003   0.000003   0.001401   0.000003   0.000000   0.000000
    16  H    0.000003   0.000000   0.000003   0.001402   0.000000   0.000003
    17  H    0.000000   0.000000   0.000000   0.000000   0.001401   0.000003
    18  H   -0.000000   0.000000   0.000000   0.000003   0.000003   0.001403
    19  H    0.000000   0.000003   0.000003  -0.000000   0.000000   0.000000
              19
     1  Cr  -0.001971
     2  O   -0.000015
     3  H    0.000000
     4  O    0.000449
     5  H    0.000003
     6  O   -0.000130
     7  H    0.000003
     8  O    0.002040
     9  H   -0.000827
    10  O   -0.000166
    11  H    0.000000
    12  O   -0.000128
    13  H    0.000000
    14  H    0.000003
    15  H    0.000003
    16  H   -0.000000
    17  H    0.000000
    18  H    0.000000
    19  H    0.001399
 Mulliken charges and spin densities:
               1          2
     1  Cr   1.672363   2.967594
     2  O   -0.667123   0.004076
     3  H    0.444241   0.000665
     4  O   -0.667433   0.004061
     5  H    0.444415   0.000663
     6  O   -0.667419   0.004084
     7  H    0.444274   0.000664
     8  O   -0.667194   0.004062
     9  H    0.444235   0.000668
    10  O   -0.667404   0.004062
    11  H    0.444402   0.000663
    12  O   -0.667437   0.004073
    13  H    0.444356   0.000666
    14  H    0.444302   0.000665
    15  H    0.444327   0.000668
    16  H    0.444221   0.000667
    17  H    0.444327   0.000668
    18  H    0.444291   0.000667
    19  H    0.444258   0.000664
 Sum of Mulliken charges =   3.00000   3.00000
 Mulliken charges and spin densities with hydrogens summed into heavy atoms:
               1          2
     1  Cr   1.672363   2.967594
     2  O    0.221339   0.005407
     4  O    0.221309   0.005392
     6  O    0.221145   0.005415
     8  O    0.221299   0.005394
    10  O    0.221324   0.005393
    12  O    0.221221   0.005405
 Electronic spatial extent (au):  <R**2>=           1019.1723
 Charge=              3.0000 electrons
 Dipole moment (field-independent basis, Debye):
    X=              0.0019    Y=             -0.0018    Z=              0.0023  Tot=              0.0035
 Quadrupole moment (field-independent basis, Debye-Ang):
   XX=             -8.1004   YY=             -8.1039   ZZ=             -8.0882
   XY=             -0.0095   XZ=              0.0009   YZ=             -0.0040
 Traceless Quadrupole moment (field-independent basis, Debye-Ang):
   XX=             -0.0029   YY=             -0.0064   ZZ=              0.0093
   XY=             -0.0095   XZ=              0.0009   YZ=             -0.0040
 Octapole moment (field-independent basis, Debye-Ang**2):
  XXX=              0.0199  YYY=             -0.0078  ZZZ=              0.0228  XYY=             -0.0026
  XXY=              0.0060  XXZ=             -0.0014  XZZ=             -0.0010  YZZ=             -0.0106
  YYZ=              0.0070  XYZ=             -0.0006
 Hexadecapole moment (field-independent basis, Debye-Ang**3):
 XXXX=           -159.1875 YYYY=            -68.2471 ZZZZ=           -154.7638 XXXY=             15.1641
 XXXZ=             10.1980 YYYX=            -28.8450 YYYZ=            -13.7005 ZZZX=            -14.9022
 ZZZY=              5.1108 XXYY=            -77.1652 XXZZ=              9.5838 YYZZ=            -81.2980
 XXYZ=              8.5480 YYXZ=              4.7302 ZZXY=             13.5839
 N-N= 6.635626073289D+02 E-N=-4.839709500624D+03  KE= 1.497187640171D+03
                          Isotropic Fermi Contact Couplings
        Atom                 a.u.       MegaHertz       Gauss      10(-4) cm-1
     1  Cr(53)             0.02789      -2.35356      -0.83981      -0.78506
     2  O(17)             -0.02473       4.99785       1.78336       1.66710
     3  H(1)               0.00046       0.69131       0.24668       0.23060
     4  O(17)             -0.02473       4.99769       1.78330       1.66705
     5  H(1)               0.00046       0.69091       0.24653       0.23046
     6  O(17)             -0.02474       4.99891       1.78374       1.66746
     7  H(1)               0.00046       0.69085       0.24651       0.23044
     8  O(17)             -0.02474       4.99863       1.78363       1.66736
     9  H(1)               0.00047       0.69519       0.24806       0.23189
    10  O(17)             -0.02473       4.99770       1.78330       1.66705
    11  H(1)               0.00046       0.69032       0.24632       0.23027
    12  O(17)             -0.02474       4.99848       1.78358       1.66731
    13  H(1)               0.00047       0.69324       0.24737       0.23124
    14  H(1)               0.00046       0.69229       0.24703       0.23092
    15  H(1)               0.00047       0.69414       0.24769       0.23154
    16  H(1)               0.00047       0.69378       0.24756       0.23142
    17  H(1)               0.00047       0.69348       0.24745       0.23132
    18  H(1)               0.00047       0.69419       0.24770       0.23156
    19  H(1)               0.00046       0.69181       0.24685       0.23076
 --------------------------------------------------------
       Center         ----  Spin Dipole Couplings  ----
                      3XX-RR        3YY-RR        3ZZ-RR
 --------------------------------------------------------
     1   Atom       -0.000252      0.000043      0.000209
     2   Atom        0.005378     -0.035253      0.029875
     3   Atom       -0.011861      0.028200     -0.016339
     4   Atom       -0.050222      0.109536     -0.059314
     5   Atom       -0.008009     -0.019804      0.027814
     6   Atom        0.045397     -0.074076      0.028679
     7   Atom       -0.000580     -0.013879      0.014459
     8   Atom        0.003990     -0.035242      0.031253
     9   Atom       -0.021741      0.042375     -0.020634
    10   Atom       -0.050239      0.109584     -0.059346
    11   Atom       -0.008026     -0.019808      0.027834
    12   Atom        0.045797     -0.074536      0.028739
    13   Atom       -0.000400     -0.013875      0.014275
    14   Atom        0.008265     -0.017731      0.009466
    15   Atom        0.033749     -0.019140     -0.014608
    16   Atom       -0.021744      0.042360     -0.020616
    17   Atom        0.033737     -0.019140     -0.014597
    18   Atom        0.008442     -0.017755      0.009312
    19   Atom       -0.011797      0.028188     -0.016391
 --------------------------------------------------------
                        XY            XZ            YZ
 --------------------------------------------------------
     1   Atom        0.000111      0.000000     -0.000083
     2   Atom       -0.001066     -0.095456     -0.010166
     3   Atom       -0.023304      0.006654     -0.017384
     4   Atom       -0.024276      0.024250     -0.009315
     5   Atom        0.004204      0.028124      0.008171
     6   Atom        0.025962      0.070965      0.020205
     7   Atom        0.014653     -0.027102     -0.018482
     8   Atom       -0.001308     -0.095203     -0.009994
     9   Atom        0.006962     -0.000136      0.009799
    10   Atom       -0.024181      0.024241     -0.009297
    11   Atom        0.004208      0.028120      0.008175
    12   Atom        0.024933      0.071192      0.019237
    13   Atom        0.014693     -0.027134     -0.018459
    14   Atom       -0.012863     -0.030030      0.013719
    15   Atom        0.010417      0.022519      0.004068
    16   Atom        0.006841     -0.000143      0.009936
    17   Atom        0.010410      0.022530      0.004070
    18   Atom       -0.012847     -0.030049      0.013661
    19   Atom       -0.023397      0.006634     -0.017262
 --------------------------------------------------------


 ---------------------------------------------------------------------------------
              Anisotropic Spin Dipole Couplings in Principal Axis System
 ---------------------------------------------------------------------------------

       Atom             a.u.   MegaHertz   Gauss  10(-4) cm-1        Axes

              Baa    -0.0003     0.009     0.003     0.003  0.9432 -0.3275 -0.0552
     1 Cr(53) Bbb     0.0000    -0.001    -0.000    -0.000  0.3191  0.8476  0.4240
              Bcc     0.0002    -0.007    -0.003    -0.002 -0.0921 -0.4176  0.9040
 
              Baa    -0.0799     5.780     2.063     1.928  0.7363  0.1670  0.6558
     2 O(17)  Bbb    -0.0343     2.482     0.886     0.828 -0.1558  0.9849 -0.0758
              Bcc     0.1142    -8.262    -2.948    -2.756 -0.6585 -0.0464  0.7511
 
              Baa    -0.0235   -12.523    -4.468    -4.177  0.6404  0.4883  0.5928
     3 H(1)   Bbb    -0.0211   -11.256    -4.016    -3.755 -0.6591 -0.0469  0.7506
              Bcc     0.0446    23.779     8.485     7.932 -0.3943  0.8714 -0.2918
 
              Baa    -0.0798     5.777     2.061     1.927 -0.6557 -0.0470  0.7536
     4 O(17)  Bbb    -0.0343     2.480     0.885     0.827  0.7386  0.1670  0.6531
              Bcc     0.1141    -8.256    -2.946    -2.754 -0.1565  0.9848 -0.0748
 
              Baa    -0.0235   -12.520    -4.468    -4.176  0.8653  0.1016 -0.4908
     5 H(1)   Bbb    -0.0211   -11.253    -4.015    -3.754 -0.1575  0.9847 -0.0739
              Bcc     0.0446    23.773     8.483     7.930  0.4758  0.1413  0.8681
 
              Baa    -0.0799     5.781     2.063     1.928 -0.1591  0.9841 -0.0792
     6 O(17)  Bbb    -0.0343     2.483     0.886     0.828 -0.6559 -0.0454  0.7534
              Bcc     0.1142    -8.265    -2.949    -2.757  0.7379  0.1718  0.6527
 
              Baa    -0.0235   -12.526    -4.470    -4.178 -0.3733  0.9107  0.1770
     7 H(1)   Bbb    -0.0211   -11.259    -4.017    -3.756  0.7370  0.1753  0.6528
              Bcc     0.0446    23.785     8.487     7.934 -0.5635 -0.3741  0.7366
 
              Baa    -0.0798     5.777     2.061     1.927  0.7411  0.1675  0.6502
     8 O(17)  Bbb    -0.0343     2.479     0.885     0.827 -0.1558  0.9849 -0.0761
              Bcc     0.1141    -8.256    -2.946    -2.754 -0.6531 -0.0449  0.7559
 
              Baa    -0.0235   -12.523    -4.469    -4.177  0.7507 -0.1742  0.6373
     9 H(1)   Bbb    -0.0211   -11.259    -4.018    -3.756 -0.6526 -0.0452  0.7563
              Bcc     0.0446    23.782     8.486     7.933  0.1030  0.9837  0.1476
 
              Baa    -0.0798     5.777     2.062     1.927 -0.6554 -0.0467  0.7539
    10 O(17)  Bbb    -0.0343     2.480     0.885     0.827  0.7390  0.1664  0.6528
              Bcc     0.1141    -8.257    -2.946    -2.754 -0.1559  0.9850 -0.0746
 
              Baa    -0.0235   -12.522    -4.468    -4.177  0.8657  0.1002 -0.4905
    11 H(1)   Bbb    -0.0211   -11.256    -4.016    -3.755 -0.1564  0.9849 -0.0747
              Bcc     0.0446    23.778     8.485     7.932  0.4755  0.1413  0.8683
 
              Baa    -0.0799     5.779     2.062     1.928 -0.1537  0.9854 -0.0738
    12 O(17)  Bbb    -0.0343     2.484     0.886     0.829 -0.6555 -0.0458  0.7538
              Bcc     0.1142    -8.263    -2.949    -2.756  0.7394  0.1642  0.6529
 
              Baa    -0.0235   -12.523    -4.468    -4.177 -0.3646  0.9128  0.1843
    13 H(1)   Bbb    -0.0211   -11.256    -4.016    -3.755  0.7396  0.1637  0.6528
              Bcc     0.0446    23.779     8.485     7.932 -0.5657 -0.3743  0.7348
 
              Baa    -0.0235   -12.525    -4.469    -4.178  0.0770  0.9434 -0.3227
    14 H(1)   Bbb    -0.0211   -11.259    -4.017    -3.756  0.7394  0.1631  0.6532
              Bcc     0.0446    23.783     8.486     7.933 -0.6688  0.2889  0.6850
 
              Baa    -0.0235   -12.523    -4.469    -4.177 -0.3681  0.0122  0.9297
    15 H(1)   Bbb    -0.0211   -11.259    -4.018    -3.756 -0.1563  0.9849 -0.0748
              Bcc     0.0446    23.783     8.486     7.933  0.9165  0.1729  0.3606
 
              Baa    -0.0235   -12.524    -4.469    -4.178  0.7443 -0.1746  0.6446
    16 H(1)   Bbb    -0.0211   -11.259    -4.018    -3.756 -0.6602 -0.0462  0.7497
              Bcc     0.0446    23.783     8.486     7.933  0.1011  0.9835  0.1497
 
              Baa    -0.0235   -12.523    -4.468    -4.177 -0.3682  0.0114  0.9297
    17 H(1)   Bbb    -0.0211   -11.258    -4.017    -3.755 -0.1565  0.9849 -0.0740
              Bcc     0.0446    23.781     8.486     7.932  0.9165  0.1728  0.3609
 
              Baa    -0.0235   -12.523    -4.469    -4.177  0.0703  0.9420 -0.3281
    18 H(1)   Bbb    -0.0211   -11.257    -4.017    -3.755  0.7383  0.1720  0.6522
              Bcc     0.0446    23.780     8.485     7.932 -0.6708  0.2881  0.6834
 
              Baa    -0.0235   -12.521    -4.468    -4.177  0.6466  0.4886  0.5857
    19 H(1)   Bbb    -0.0211   -11.254    -4.016    -3.754 -0.6520 -0.0444  0.7569
              Bcc     0.0446    23.775     8.484     7.931 -0.3959  0.8714 -0.2899
 

 ---------------------------------------------------------------------------------

 No NMR shielding tensors so no spin-rotation constants.
 Leave Link  601 at Thu May 23 13:31:03 2024, MaxMem= 26843545600 cpu:              29.2 elap:               0.3
 (Enter /gpfs/fs1/soft/improv/software/custom-built/gaussian/g16/l9999.exe)
 Unable to Open any file for archive entry.
 1\1\GINC-I183\SP\UB3LYP\Gen\Cr1H12O6(3+,4)\HHARB\23-May-2024\0\\#p B3L
 YP empiricaldispersion=gd3 scf=(maxcycles=500,xqc,maxconventional=50) 
 scrf=(cpcm,solvent=water) geom=allcheck guess=read chkbasis\\Title\\3,
 4\Cr,-0.7848284147,0.7130594671,0.0318103458\O,-1.2182157538,2.6592461
 434,-0.1839808992\H,-2.1093159673,3.0384608794,-0.3027867662\O,1.16488
 27649,1.1627196404,0.1689104203\H,1.6513925773,1.3605464862,0.99122206
 61\O,-0.9671828394,0.8927491526,2.0208659347\H,-0.8434661924,0.1792798
 7,2.6745581986\O,-0.3514922408,-1.2331875072,0.2476668045\H,-0.9957226
 272,-1.9659209434,0.2576428995\O,-2.7345536734,0.263819468,-0.10564554
 91\H,-3.2205544807,0.0654781879,-0.9281325054\O,-0.6028273794,0.532651
 091,-1.9572424823\H,-0.7193328213,1.2476948116,-2.61080693\H,-0.382612
 8455,-0.2858068819,-2.4406244545\H,1.7930980264,1.2208170087,-0.575446
 083\H,-0.5747243122,3.3926545191,-0.1873368401\H,-3.3630078715,0.20543
 37477,0.6384447148\H,-1.1931630377,1.709470383,2.5044379398\H,0.540109
 5187,-1.6130857535,0.3604885956\\Version=ES64L-G16RevC.02\State=4-A\HF
 =-1502.7196196\S2=3.759241\S2-1=0.\S2A=3.750033\RMSD=6.081e-09\Dipole=
 0.001168,-0.0005965,0.0003854\Quadrupole=0.0022645,-0.0047648,0.002500
 3,-0.0064288,0.0053856,0.0030291\PG=C01 [X(Cr1H12O6)]\\@
 The archive entry for this job was punched.


 O WAD SOME POWER THE GIFTIE GIE US       
 TO SEE OURSELS AS OTHERS SEE US.....     
 IT WOULD FRAE MONIE A BLUNDER FREE US,   
                     AND FOOLISH NOTION...
 WHAT AIRS IN DRESS AND GAIT WAD LEA'E US,
                     AND EV'N DEVOTION....
                                          
              (ROBERT BURNS 'TO A LOUSE') 
 Job cpu time:       0 days  0 hours 32 minutes 58.1 seconds.
 Elapsed time:       0 days  0 hours  0 minutes 18.3 seconds.
 File lengths (MBytes):  RWF=    119 Int=      0 D2E=      0 Chk=     32 Scr=      1
 Normal termination of Gaussian 16 at Thu May 23 13:31:03 2024.
