 Entering Gaussian System, Link 0=g16
 Input=Cr_3_HSE06.com
 Output=Cr_3_HSE06.log
 Initial command:
 /gpfs/fs1/soft/improv/software/custom-built/gaussian/g16/l1.exe "/scratch/Gau-315245.inp" -scrdir="/scratch/"
 Default CPUs for threads: 0-127
 Default linda workers: i219.lcrc.anl.gov
 Default is to use 128 SMP processors on each worker.
 Entering Link 1 = /gpfs/fs1/soft/improv/software/custom-built/gaussian/g16/l1.exe PID=    315246.
  
 Copyright (c) 1988-2021, Gaussian, Inc.  All Rights Reserved.
  
 This is part of the Gaussian(R) 16 program.  It is based on
 the Gaussian(R) 09 system (copyright 2009, Gaussian, Inc.),
 the Gaussian(R) 03 system (copyright 2003, Gaussian, Inc.),
 the Gaussian(R) 98 system (copyright 1998, Gaussian, Inc.),
 the Gaussian(R) 94 system (copyright 1995, Gaussian, Inc.),
 the Gaussian 92(TM) system (copyright 1992, Gaussian, Inc.),
 the Gaussian 90(TM) system (copyright 1990, Gaussian, Inc.),
 the Gaussian 88(TM) system (copyright 1988, Gaussian, Inc.),
 the Gaussian 86(TM) system (copyright 1986, Carnegie Mellon
 University), and the Gaussian 82(TM) system (copyright 1983,
 Carnegie Mellon University). Gaussian is a federally registered
 trademark of Gaussian, Inc.
  
 This software contains proprietary and confidential information,
 including trade secrets, belonging to Gaussian, Inc.
  
 This software is provided under written license and may be
 used, copied, transmitted, or stored only in accord with that
 written license.
  
 The following legend is applicable only to US Government
 contracts under FAR:
  
                    RESTRICTED RIGHTS LEGEND
  
 Use, reproduction and disclosure by the US Government is
 subject to restrictions as set forth in subparagraphs (a)
 and (c) of the Commercial Computer Software - Restricted
 Rights clause in FAR 52.227-19.
  
 Gaussian, Inc.
 340 Quinnipiac St., Bldg. 40, Wallingford CT 06492
  
  
 ---------------------------------------------------------------
 Warning -- This program may not be used in any manner that
 competes with the business of Gaussian, Inc. or will provide
 assistance to any competitor of Gaussian, Inc.  The licensee
 of this program is prohibited from giving any competitor of
 Gaussian, Inc. access to this program.  By using this program,
 the user acknowledges that Gaussian, Inc. is engaged in the
 business of creating and licensing software in the field of
 computational chemistry and represents and warrants to the
 licensee that it is not a competitor of Gaussian, Inc. and that
 it will not use this program in any manner prohibited above.
 ---------------------------------------------------------------
  

 Cite this work as:
 Gaussian 16, Revision C.02,
 M. J. Frisch, G. W. Trucks, H. B. Schlegel, G. E. Scuseria, 
 M. A. Robb, J. R. Cheeseman, G. Scalmani, V. Barone, 
 G. A. Petersson, H. Nakatsuji, X. Li, M. Caricato, A. V. Marenich, 
 J. Bloino, B. G. Janesko, R. Gomperts, B. Mennucci, H. P. Hratchian, 
 J. V. Ortiz, A. F. Izmaylov, J. L. Sonnenberg, D. Williams-Young, 
 F. Ding, F. Lipparini, F. Egidi, J. Goings, B. Peng, A. Petrone, 
 T. Henderson, D. Ranasinghe, V. G. Zakrzewski, J. Gao, N. Rega, 
 G. Zheng, W. Liang, M. Hada, M. Ehara, K. Toyota, R. Fukuda, 
 J. Hasegawa, M. Ishida, T. Nakajima, Y. Honda, O. Kitao, H. Nakai, 
 T. Vreven, K. Throssell, J. A. Montgomery, Jr., J. E. Peralta, 
 F. Ogliaro, M. J. Bearpark, J. J. Heyd, E. N. Brothers, K. N. Kudin, 
 V. N. Staroverov, T. A. Keith, R. Kobayashi, J. Normand, 
 K. Raghavachari, A. P. Rendell, J. C. Burant, S. S. Iyengar, 
 J. Tomasi, M. Cossi, J. M. Millam, M. Klene, C. Adamo, R. Cammi, 
 J. W. Ochterski, R. L. Martin, K. Morokuma, O. Farkas, 
 J. B. Foresman, and D. J. Fox, Gaussian, Inc., Wallingford CT, 2019.
 
 ******************************************
 Gaussian 16:  ES64L-G16RevC.02  7-Dec-2021
                23-May-2024 
 ******************************************
 %chk=Cr_3_HSE06.chk
 SetSPE:  set environment variable "OMP_PROC_BIND" = "true"
 SetSPE:  set environment variable "OMP_PLACES" = "{0},{1},{2},{3},{4},{5},{6},{7},{8},{9},{10},{11},{12},{13},{14},{15},{16},{17},{18},{19},{20},{21},{22},{23},{24},{25},{26},{27},{28},{29},{30},{31},{32},{33},{34},{35},{36},{37},{38},{39},{40},{41},{42},{43},{44},{45},{46},{47},{48},{49},{50},{51},{52},{53},{54},{55},{56},{57},{58},{59},{60},{61},{62},{63},{64},{65},{66},{67},{68},{69},{70},{71},{72},{73},{74},{75},{76},{77},{78},{79},{80},{81},{82},{83},{84},{85},{86},{87},{88},{89},{90},{91},{92},{93},{94},{95},{96},{97},{98},{99},{100},{101},{102},{103},{104},{105},{106},{107},{108},{109},{110},{111},{112},{113},{114},{115},{116},{117},{118},{119},{120},{121},{122},{123},{124},{125},{126},{127}"
 SetLPE:    new flags="-opt 'Tsnet.Node.lindarsharg: ssh'  -nodelist 'i219.lcrc.anl.gov' -env GAUSS_MDEF=26843545600 -env GAUSS_EXEDIR="/gpfs/fs1/soft/improv/software/custom-built/gaussian/g16/bsd:/gpfs/fs1/soft/improv/software/custom-built/gaussian/g16" -env "OMP_PROC_BIND=true" -env "OMP_PLACES={0},{1},{2},{3},{4},{5},{6},{7},{8},{9},{10},{11},{12},{13},{14},{15},{16},{17},{18},{19},{20},{21},{22},{23},{24},{25},{26},{27},{28},{29},{30},{31},{32},{33},{34},{35},{36},{37},{38},{39},{40},{41},{42},{43},{44},{45},{46},{47},{48},{49},{50},{51},{52},{53},{54},{55},{56},{57},{58},{59},{60},{61},{62},{63},{64},{65},{66},{67},{68},{69},{70},{71},{72},{73},{74},{75},{76},{77},{78},{79},{80},{81},{82},{83},{84},{85},{86},{87},{88},{89},{90},{91},{92},{93},{94},{95},{96},{97},{98},{99},{100},{101},{102},{103},{104},{105},{106},{107},{108},{109},{110},{111},{112},{113},{114},{115},{116},{117},{118},{119},{120},{121},{122},{123},{124},{125},{126},{127}" -env GAUSS_ADEF="0,1,2,3,4,5,6,7,8,9,10,11,12,13,14,15,16,17,18,19,20,21,22,23,24,25,26,27,28,29,30,31,32,33,34,35,36,37,38,39,40,41,42,43,44,45,46,47,48,49,50,51,52,53,54,55,56,57,58,59,60,61,62,63,64,65,66,67,68,69,70,71,72,73,74,75,76,77,78,79,80,81,82,83,84,85,86,87,88,89,90,91,92,93,94,95,96,97,98,99,100,101,102,103,104,105,106,107,108,109,110,111,112,113,114,115,116,117,118,119,120,121,122,123,124,125,126,127""
 Will use up to    1 processors via Linda.
 ----------------------------------------------------------------------
 #p HSEH1PBE 6-31+G(2df,p) opt=(cartesian,calcall,maxcycles=500) freq s
 cf=(maxcycles=500,xqc,maxconventional=50)
 ----------------------------------------------------------------------
 1/6=500,10=4,18=10,26=3,38=1/1,3;
 2/12=2,17=6,18=5,29=2,40=1/2;
 3/5=1,6=6,7=114,11=2,25=1,30=1,71=2,74=-51,140=1/1,2,3;
 4//1;
 5/5=2,7=500,8=3,13=1,38=5,85=50/2,8;
 8/6=4,10=90,11=11/1;
 11/6=1,8=1,9=11,15=111,16=1/1,2,10;
 10/6=1/2;
 6/7=2,8=2,9=2,10=2,18=1,28=1/1;
 7/7=1,10=1,25=1/1,2,3,16;
 1/6=500,10=4,18=10,26=3/3(3);
 2/29=1/2;
 7/7=1,8=1,9=1,25=1,44=-1/16;
 99/12=1/99;
 2/29=1/2;
 3/5=1,6=6,7=114,11=2,25=1,30=1,71=2,74=-51,140=1/1,2,3;
 4/5=5,16=3,69=1/1;
 5/5=2,7=500,8=3,13=1,38=5,85=50/2,8;
 8/6=4,10=90,11=11/1;
 11/6=1,8=1,9=11,15=111,16=1/1,2,10;
 10/6=1/2;
 7/7=1,10=1,25=1/1,2,3,16;
 1/6=500,10=4,18=10,26=3/3(-8);
 2/29=1/2;
 6/7=2,8=2,9=2,10=2,18=1,19=2,28=1/1;
 7/7=1,8=1,9=1,25=1,44=-1/16;
 99/12=1/99;
 Leave Link    1 at Thu May 23 12:33:33 2024, MaxMem=           0 cpu:               5.6 elap:               0.1
 (Enter /gpfs/fs1/soft/improv/software/custom-built/gaussian/g16/l101.exe)
 -----
 Title
 -----
 Symbolic Z-matrix:
 Charge =  3 Multiplicity = 4
 Cr                   -0.79304   0.81881  -0.09491 
 O                    -1.20497   2.57394  -0.35687 
 H                    -2.12106   2.64974  -0.63312 
 O                     0.99012   1.19063  -0.05794 
 H                     1.42696   0.5998    0.55971 
 O                    -0.81752   1.03069   1.71365 
 H                    -1.02108   0.1906    2.13133 
 O                    -0.38507  -0.93351   0.17118 
 H                    -1.15682  -1.47369  -0.01433 
 O                    -2.57341   0.45178  -0.12186 
 H                    -2.77756  -0.08744  -0.88929 
 O                    -0.76966   0.60461  -1.90111 
 H                     0.09872   0.83457  -2.23949 
 H                    -0.96534  -0.30999  -2.11742 
 H                     1.12208   2.09943   0.22124 
 H                    -1.07671   3.0584    0.46184 
 H                    -2.81407  -0.02398   0.6765 
 H                     0.0422    1.33615   2.01181 
 H                    -0.11532  -1.06446   1.08312 
 
 ITRead=  0  0  0  0  0  0  0  0  0  0  0  0  0  0  0  0  0  0  0
 MicOpt= -1 -1 -1 -1 -1 -1 -1 -1 -1 -1 -1 -1 -1 -1 -1 -1 -1 -1 -1
 NAtoms=     19 NQM=       19 NQMF=       0 NMMI=      0 NMMIF=      0
                NMic=       0 NMicF=      0.
                    Isotopes and Nuclear Properties:
 (Nuclear quadrupole moments (NQMom) in fm**2, nuclear magnetic moments (NMagM)
  in nuclear magnetons)

  Atom         1           2           3           4           5           6           7           8           9          10
 IAtWgt=          52          16           1          16           1          16           1          16           1          16
 AtmWgt=  51.9405097  15.9949146   1.0078250  15.9949146   1.0078250  15.9949146   1.0078250  15.9949146   1.0078250  15.9949146
 NucSpn=           0           0           1           0           1           0           1           0           1           0
 AtZEff=  -0.0000000  -0.0000000  -0.0000000  -0.0000000  -0.0000000  -0.0000000  -0.0000000  -0.0000000  -0.0000000  -0.0000000
 NQMom=    0.0000000   0.0000000   0.0000000   0.0000000   0.0000000   0.0000000   0.0000000   0.0000000   0.0000000   0.0000000
 NMagM=    0.0000000   0.0000000   2.7928460   0.0000000   2.7928460   0.0000000   2.7928460   0.0000000   2.7928460   0.0000000
 AtZNuc=  24.0000000   8.0000000   1.0000000   8.0000000   1.0000000   8.0000000   1.0000000   8.0000000   1.0000000   8.0000000

  Atom        11          12          13          14          15          16          17          18          19
 IAtWgt=           1          16           1           1           1           1           1           1           1
 AtmWgt=   1.0078250  15.9949146   1.0078250   1.0078250   1.0078250   1.0078250   1.0078250   1.0078250   1.0078250
 NucSpn=           1           0           1           1           1           1           1           1           1
 AtZEff=  -0.0000000  -0.0000000  -0.0000000  -0.0000000  -0.0000000  -0.0000000  -0.0000000  -0.0000000  -0.0000000
 NQMom=    0.0000000   0.0000000   0.0000000   0.0000000   0.0000000   0.0000000   0.0000000   0.0000000   0.0000000
 NMagM=    2.7928460   0.0000000   2.7928460   2.7928460   2.7928460   2.7928460   2.7928460   2.7928460   2.7928460
 AtZNuc=   1.0000000   8.0000000   1.0000000   1.0000000   1.0000000   1.0000000   1.0000000   1.0000000   1.0000000
 Leave Link  101 at Thu May 23 12:33:33 2024, MaxMem= 26843545600 cpu:               0.4 elap:               0.0
 (Enter /gpfs/fs1/soft/improv/software/custom-built/gaussian/g16/l103.exe)

 GradGradGradGradGradGradGradGradGradGradGradGradGradGradGradGradGradGrad
 Berny optimization.
 Initialization pass.
 No Z-matrix variables, so optimization will use Cartesian coordinates.
 Trust Radius=3.00D-01 FncErr=1.00D-07 GrdErr=1.00D-06 EigMax=2.50D+02 EigMin=1.00D-04
 Number of steps in this run=    114 maximum allowed number of steps=    114.
 GradGradGradGradGradGradGradGradGradGradGradGradGradGradGradGradGradGrad

 Leave Link  103 at Thu May 23 12:33:33 2024, MaxMem= 26843545600 cpu:               0.4 elap:               0.0
 (Enter /gpfs/fs1/soft/improv/software/custom-built/gaussian/g16/l202.exe)
 ---------------------------------------------------------------------------------------------------
                            Z-MATRIX (ANGSTROMS AND DEGREES)
   CD    Cent   Atom    N1       Length/X        N2       Alpha/Y        N3        Beta/Z          J
 ---------------------------------------------------------------------------------------------------
      1      1  Cr       0  -0.793037          0.818805         -0.094905
      2      2  O        0  -1.204971          2.573941         -0.356874
      3      3  H        0  -2.121063          2.649743         -0.633122
      4      4  O        0   0.990122          1.190635         -0.057941
      5      5  H        0   1.426962          0.599798          0.559707
      6      6  O        0  -0.817519          1.030691          1.713650
      7      7  H        0  -1.021079          0.190602          2.131326
      8      8  O        0  -0.385068         -0.933506          0.171177
      9      9  H        0  -1.156817         -1.473692         -0.014327
     10     10  O        0  -2.573405          0.451778         -0.121857
     11     11  H        0  -2.777557         -0.087440         -0.889285
     12     12  O        0  -0.769659          0.604612         -1.901109
     13     13  H        0   0.098725          0.834573         -2.239490
     14     14  H        0  -0.965336         -0.309994         -2.117418
     15     15  H        0   1.122081          2.099426          0.221242
     16     16  H        0  -1.076711          3.058396          0.461841
     17     17  H        0  -2.814074         -0.023981          0.676500
     18     18  H        0   0.042204          1.336153          2.011809
     19     19  H        0  -0.115315         -1.064459          1.083123
 ---------------------------------------------------------------------------------------------------
                         Z-Matrix orientation:                         
 ---------------------------------------------------------------------
 Center     Atomic      Atomic             Coordinates (Angstroms)
 Number     Number       Type             X           Y           Z
 ---------------------------------------------------------------------
      1         24           0       -0.793037    0.818805   -0.094905
      2          8           0       -1.204971    2.573941   -0.356874
      3          1           0       -2.121063    2.649743   -0.633122
      4          8           0        0.990122    1.190635   -0.057941
      5          1           0        1.426962    0.599798    0.559707
      6          8           0       -0.817519    1.030691    1.713650
      7          1           0       -1.021079    0.190602    2.131326
      8          8           0       -0.385068   -0.933506    0.171177
      9          1           0       -1.156817   -1.473692   -0.014327
     10          8           0       -2.573405    0.451778   -0.121857
     11          1           0       -2.777557   -0.087440   -0.889285
     12          8           0       -0.769659    0.604612   -1.901109
     13          1           0        0.098725    0.834573   -2.239490
     14          1           0       -0.965336   -0.309994   -2.117418
     15          1           0        1.122081    2.099426    0.221242
     16          1           0       -1.076711    3.058396    0.461841
     17          1           0       -2.814074   -0.023981    0.676500
     18          1           0        0.042204    1.336153    2.011809
     19          1           0       -0.115315   -1.064459    1.083123
 ---------------------------------------------------------------------
                    Distance matrix (angstroms):
                    1          2          3          4          5
     1  Cr   0.000000
     2  O    1.821762   0.000000
     3  H    2.325008   0.959835   0.000000
     4  O    1.821889   2.611767   3.484150   0.000000
     5  H    2.324839   3.415322   4.267739   0.959899   0.000000
     6  O    1.821090   2.611285   3.134947   2.536076   2.560263
     7  H    2.324381   3.450400   3.859988   3.136540   2.937743
     8  O    1.818745   3.640503   4.062050   2.540791   2.405292
     9  H    2.322579   4.062387   4.279649   3.421971   3.362259
    10  O    1.818006   2.536025   2.301533   3.639880   4.060711
    11  H    2.321775   3.136788   2.826442   4.064482   4.499984
    12  O    1.819010   2.540161   2.759827   2.614866   3.298603
    13  H    2.322657   2.875634   3.286750   2.383386   3.107223
    14  H    2.322591   3.387332   3.506977   3.212032   3.703756
    15  H    2.325429   2.444290   3.398642   0.959822   1.567289
    16  H    2.325125   0.959918   1.567358   2.833814   3.510364
    17  H    2.321626   3.225876   3.056824   4.060370   4.288255
    18  H    2.324547   2.949275   3.660724   2.281137   2.137375
    19  H    2.322443   4.061883   4.556733   2.758526   2.328591
                    6          7          8          9         10
     6  O    0.000000
     7  H    0.960021   0.000000
     8  O    2.534622   2.347406   0.000000
     9  H    3.061530   2.718847   0.960108   0.000000
    10  O    2.605257   2.748593   2.606473   2.392848   0.000000
    11  H    3.444886   3.505227   2.750347   2.305222   0.959885
    12  O    3.640099   4.061422   2.609231   2.833582   2.538227
    13  H    4.062670   4.557707   3.028445   3.443229   3.430916
    14  H    4.061572   4.278496   2.441955   2.411193   2.673658
    15  H    2.670492   3.447487   3.387136   4.244531   4.060675
    16  H    2.397039   3.318813   4.061790   4.557738   3.061904
    17  H    2.484803   2.318921   2.642472   2.307685   0.960023
    18  H    0.959858   1.567527   2.953276   3.665802   3.489421
    19  H    2.297892   1.869309   0.959980   1.567353   3.129403
                   11         12         13         14         15
    11  H    0.000000
    12  O    2.352526   0.000000
    13  H    3.308498   0.959935   0.000000
    14  H    2.200452   0.959991   1.567533   0.000000
    15  H    4.606825   3.212091   2.949969   3.953725   0.000000
    16  H    3.822919   3.420362   3.691102   4.243941   2.410850
    17  H    1.567497   3.349453   4.210050   3.362383   4.495491
    18  H    4.288824   4.062660   4.281159   4.558009   2.225950
    19  H    3.454344   3.481323   3.833001   3.396353   3.504877
                   16         17         18         19
    16  H    0.000000
    17  H    3.544793   0.000000
    18  H    2.573032   3.433851   0.000000
    19  H    4.278809   2.920828   2.578800   0.000000
 Stoichiometry    CrH12O6(3+,4)
 Framework group  C1[X(CrH12O6)]
 Deg. of freedom    51
 Full point group                 C1      NOp   1
 Largest Abelian subgroup         C1      NOp   1
 Largest concise Abelian subgroup C1      NOp   1
                         Standard orientation:                         
 ---------------------------------------------------------------------
 Center     Atomic      Atomic             Coordinates (Angstroms)
 Number     Number       Type             X           Y           Z
 ---------------------------------------------------------------------
      1         24           0       -0.020685   -0.030482    0.009994
      2          8           0       -0.320844   -1.688023   -0.683750
      3          1           0       -1.137089   -1.680465   -1.188697
      4          8           0        1.254521   -0.678417    1.138405
      5          1           0        1.943144   -0.019792    1.254236
      6          8           0        1.297903    0.293995   -1.203435
      7          1           0        1.381609    1.240665   -1.339268
      8          8           0        0.280044    1.626266    0.697440
      9          1           0       -0.431883    2.215255    0.436555
     10          8           0       -1.286249    0.615324   -1.124214
     11          1           0       -2.035220    0.938006   -0.617955
     12          8           0       -1.338537   -0.351919    1.221911
     13          1           0       -0.971839   -0.815948    1.978009
     14          1           0       -1.717555    0.481353    1.511023
     15          1           0        1.635363   -1.477123    0.766536
     16          1           0        0.408500   -1.931252   -1.258500
     17          1           0       -0.915691    1.334609   -1.640895
     18          1           0        2.128750   -0.056695   -0.874745
     19          1           0        1.113633    1.965130    0.362982
 ---------------------------------------------------------------------
 Rotational constants (GHZ):           2.0397002           1.9739464           1.9252837
 Leave Link  202 at Thu May 23 12:33:33 2024, MaxMem= 26843545600 cpu:               0.5 elap:               0.0
 (Enter /gpfs/fs1/soft/improv/software/custom-built/gaussian/g16/l301.exe)
 Standard basis: 6-31+G(2df,p) (6D, 7F)
 Ernie: Thresh=  0.10000D-02 Tol=  0.10000D-05 Strict=F.
 There are   347 symmetry adapted cartesian basis functions of A   symmetry.
 There are   317 symmetry adapted basis functions of A   symmetry.
   317 basis functions,   514 primitive gaussians,   347 cartesian basis functions
    42 alpha electrons       39 beta electrons
       nuclear repulsion energy       734.4111157916 Hartrees.
 IExCor= 3909 DFT=T Ex+Corr=HSEH1PBE ExCW=0 ScaHFX=  0.250000
 ScaDFX=  1.000000  1.000000  1.000000  1.000000 ScalE2=  1.000000  1.000000
 IRadAn=      5 IRanWt=     -1 IRanGd=            0 ICorTp=0 IEmpDi=  4
 HFx  wShort=  0.110000 wLong=  0.000000 cFull=  0.000000 cShort=  1.000000 cLong=  0.000000
 DFx  wShort=  0.110000 wLong=  0.000000 cFull=  0.000000 cShort= -0.250000 cLong=  1.000000
 NAtoms=   19 NActive=   19 NUniq=   19 SFac= 1.00D+00 NAtFMM=   60 NAOKFM=F Big=F
 Integral buffers will be    131072 words long.
 Raffenetti 2 integral format.
 Two-electron integral symmetry is turned on.
 Leave Link  301 at Thu May 23 12:33:33 2024, MaxMem= 26843545600 cpu:               0.4 elap:               0.0
 (Enter /gpfs/fs1/soft/improv/software/custom-built/gaussian/g16/l302.exe)
 NPDir=0 NMtPBC=     1 NCelOv=     1 NCel=       1 NClECP=     1 NCelD=      1
         NCelK=      1 NCelE2=     1 NClLst=     1 CellRange=     0.0.
 One-electron integrals computed using PRISM.
 One-electron integral symmetry used in STVInt
 NBasis=   317 RedAO= T EigKep=  2.57D-05  NBF=   317
 NBsUse=   317 1.00D-06 EigRej= -1.00D+00 NBFU=   317
 Precomputing XC quadrature grid using
 IXCGrd= 4 IRadAn=           5 IRanWt=          -1 IRanGd=           0 AccXCQ= 0.00D+00.
 Generated NRdTot=       0 NPtTot=           0 NUsed=           0 NTot=          32
 NSgBfM=   347   346   347   347   347 MxSgAt=    19 MxSgA2=    19.
 Leave Link  302 at Thu May 23 12:33:34 2024, MaxMem= 26843545600 cpu:              21.6 elap:               0.3
 (Enter /gpfs/fs1/soft/improv/software/custom-built/gaussian/g16/l303.exe)
 DipDrv:  MaxL=1.
 Leave Link  303 at Thu May 23 12:33:34 2024, MaxMem= 26843545600 cpu:               1.0 elap:               0.0
 (Enter /gpfs/fs1/soft/improv/software/custom-built/gaussian/g16/l401.exe)
 ExpMin= 1.13D-02 ExpMax= 5.18D+04 ExpMxC= 7.78D+03 IAcc=3 IRadAn=         5 AccDes= 0.00D+00
 Harris functional with IExCor= 1009 and IRadAn=       5 diagonalized for initial guess.
 HarFok:  IExCor= 1009 AccDes= 0.00D+00 IRadAn=         5 IDoV= 1 UseB2=F ITyADJ=14
 ICtDFT=  3500011 ScaDFX=  1.000000  1.000000  1.000000  1.000000
 FoFCou: FMM=F IPFlag=           0 FMFlag=      100000 FMFlg1=           0
         NFxFlg=           0 DoJE=T BraDBF=F KetDBF=T FulRan=T
         wScrn=  0.000000 ICntrl=       500 IOpCl=  0 I1Cent=   200000004 NGrid=           0
         NMat0=    1 NMatS0=      1 NMatT0=    0 NMatD0=    1 NMtDS0=    0 NMtDT0=    0
 Petite list used in FoFCou.
 Harris En= -1501.85240784547    
 JPrj=0 DoOrth=F DoCkMO=F.
 Initial guess <Sx>= 0.0000 <Sy>= 0.0000 <Sz>= 1.5000 <S**2>= 3.7500 S= 1.5000
 Leave Link  401 at Thu May 23 12:33:34 2024, MaxMem= 26843545600 cpu:              38.1 elap:               0.4
 (Enter /gpfs/fs1/soft/improv/software/custom-built/gaussian/g16/l502.exe)
 Integral symmetry usage will be decided dynamically.
 UHF open shell SCF:
 Using DIIS extrapolation, IDIIS=  1040.
 NGot= 26843545600 LenX= 26843256607 LenY= 26843135757
 Requested convergence on RMS density matrix=1.00D-08 within  50 cycles.
 Requested convergence on MAX density matrix=1.00D-06.
 Requested convergence on             energy=1.00D-06.
 No special actions if energy rises.
 Fock matrices will be formed incrementally for  20 cycles.

 Cycle   1  Pass 1  IDiag  1:
 FoFJK:  IHMeth= 1 ICntrl=       0 DoSepK=T KAlg= 0 I1Cent=           0 FoldK=F
 IRaf=         1 NMat=       1 IRICut=       1 DoRegI=T DoRafI=F ISym2E= 0 IDoP0=0 IntGTp=1.
 FoFCou: FMM=F IPFlag=           0 FMFlag=      100000 FMFlg1=           0
         NFxFlg=           0 DoJE=T BraDBF=F KetDBF=F FulRan=T
         wScrn=  0.000000 ICntrl=       500 IOpCl=  0 I1Cent=           0 NGrid=           0
         NMat0=    1 NMatS0=      1 NMatT0=    0 NMatD0=    1 NMtDS0=    0 NMtDT0=    0
 Symmetry not used in FoFCou.
 E= -1499.53820095950    
 DIIS: error= 5.98D-02 at cycle   1 NSaved=   1.
 NSaved= 1 IEnMin= 1 EnMin= -1499.53820095950     IErMin= 1 ErrMin= 5.98D-02
 ErrMax= 5.98D-02  0.00D+00 EMaxC= 1.00D-01 BMatC= 8.01D+00 BMatP= 8.01D+00
 IDIUse=3 WtCom= 4.02D-01 WtEn= 5.98D-01
 Coeff-Com:  0.100D+01
 Coeff-En:   0.100D+01
 Coeff:      0.100D+01
 Gap=     0.108 Goal=   None    Shift=    0.000
 Gap=     0.330 Goal=   None    Shift=    0.000
 GapD=    0.108 DampG=1.000 DampE=0.250 DampFc=0.2500 IDamp=-1.
 Damping current iteration by 2.50D-01
 RMSDP=4.48D-02 MaxDP=2.44D+00              OVMax= 9.61D-01

 Cycle   2  Pass 1  IDiag  1:
 RMSU=  1.12D-02    CP:  9.58D-01
 E= -1499.81364673896     Delta-E=       -0.275445779456 Rises=F Damp=T
 DIIS: error= 2.36D-02 at cycle   2 NSaved=   2.
 NSaved= 2 IEnMin= 2 EnMin= -1499.81364673896     IErMin= 2 ErrMin= 2.36D-02
 ErrMax= 2.36D-02  0.00D+00 EMaxC= 1.00D-01 BMatC= 6.91D-01 BMatP= 8.01D+00
 IDIUse=3 WtCom= 7.64D-01 WtEn= 2.36D-01
 Coeff-Com:  0.123D+00 0.877D+00
 Coeff-En:   0.423D+00 0.577D+00
 Coeff:      0.194D+00 0.806D+00
 Gap=    -0.011 Goal=   None    Shift=    0.000
 Gap=     0.009 Goal=   None    Shift=    0.000
 RMSDP=1.40D-02 MaxDP=1.85D+00 DE=-2.75D-01 OVMax= 9.69D-01

 Cycle   3  Pass 1  IDiag  1:
 RMSU=  1.00D-02    CP:  6.91D-01  3.20D-01
 E= -1501.16298161531     Delta-E=       -1.349334876349 Rises=F Damp=F
 DIIS: error= 9.06D-03 at cycle   3 NSaved=   3.
 NSaved= 3 IEnMin= 3 EnMin= -1501.16298161531     IErMin= 3 ErrMin= 9.06D-03
 ErrMax= 9.06D-03  0.00D+00 EMaxC= 1.00D-01 BMatC= 2.46D-01 BMatP= 6.91D-01
 IDIUse=3 WtCom= 9.09D-01 WtEn= 9.06D-02
 Coeff-Com:  0.118D-01 0.343D+00 0.646D+00
 Coeff-En:   0.000D+00 0.000D+00 0.100D+01
 Coeff:      0.108D-01 0.312D+00 0.678D+00
 Gap=     0.189 Goal=   None    Shift=    0.000
 Gap=     0.319 Goal=   None    Shift=    0.000
 RMSDP=1.80D-03 MaxDP=9.60D-02 DE=-1.35D+00 OVMax= 7.14D-02

 Cycle   4  Pass 1  IDiag  1:
 RMSU=  1.63D-03    CP:  6.91D-01  3.87D-01  9.83D-01
 E= -1501.18560067889     Delta-E=       -0.022619063585 Rises=F Damp=F
 DIIS: error= 6.35D-03 at cycle   4 NSaved=   4.
 NSaved= 4 IEnMin= 4 EnMin= -1501.18560067889     IErMin= 4 ErrMin= 6.35D-03
 ErrMax= 6.35D-03  0.00D+00 EMaxC= 1.00D-01 BMatC= 1.29D-01 BMatP= 2.46D-01
 IDIUse=3 WtCom= 9.37D-01 WtEn= 6.35D-02
 Coeff-Com: -0.626D-01 0.125D+00 0.304D+00 0.633D+00
 Coeff-En:   0.000D+00 0.000D+00 0.170D+00 0.830D+00
 Coeff:     -0.586D-01 0.117D+00 0.296D+00 0.646D+00
 Gap=     0.230 Goal=   None    Shift=    0.000
 Gap=     0.307 Goal=   None    Shift=    0.000
 RMSDP=5.36D-04 MaxDP=2.20D-02 DE=-2.26D-02 OVMax= 2.20D-02

 Cycle   5  Pass 1  IDiag  1:
 RMSU=  5.15D-04    CP:  6.89D-01  3.98D-01  9.83D-01  1.05D+00
 E= -1501.20323462390     Delta-E=       -0.017633945010 Rises=F Damp=F
 DIIS: error= 2.95D-03 at cycle   5 NSaved=   5.
 NSaved= 5 IEnMin= 5 EnMin= -1501.20323462390     IErMin= 5 ErrMin= 2.95D-03
 ErrMax= 2.95D-03  0.00D+00 EMaxC= 1.00D-01 BMatC= 2.24D-02 BMatP= 1.29D-01
 IDIUse=3 WtCom= 9.71D-01 WtEn= 2.95D-02
 Coeff-Com: -0.376D-01 0.597D-01-0.736D-01 0.803D-01 0.971D+00
 Coeff-En:   0.000D+00 0.000D+00 0.000D+00 0.000D+00 0.100D+01
 Coeff:     -0.364D-01 0.579D-01-0.714D-01 0.780D-01 0.972D+00
 Gap=     0.257 Goal=   None    Shift=    0.000
 Gap=     0.303 Goal=   None    Shift=    0.000
 RMSDP=2.93D-04 MaxDP=1.18D-02 DE=-1.76D-02 OVMax= 1.54D-02

 Cycle   6  Pass 1  IDiag  1:
 RMSU=  2.65D-04    CP:  6.88D-01  4.00D-01  9.80D-01  1.11D+00  9.06D-01
 E= -1501.20682989464     Delta-E=       -0.003595270736 Rises=F Damp=F
 DIIS: error= 1.42D-03 at cycle   6 NSaved=   6.
 NSaved= 6 IEnMin= 6 EnMin= -1501.20682989464     IErMin= 6 ErrMin= 1.42D-03
 ErrMax= 1.42D-03  0.00D+00 EMaxC= 1.00D-01 BMatC= 3.93D-03 BMatP= 2.24D-02
 IDIUse=3 WtCom= 9.86D-01 WtEn= 1.42D-02
 Coeff-Com: -0.842D-02 0.162D-01-0.739D-01-0.134D+00 0.295D+00 0.905D+00
 Coeff-En:   0.000D+00 0.000D+00 0.000D+00 0.000D+00 0.000D+00 0.100D+01
 Coeff:     -0.830D-02 0.160D-01-0.729D-01-0.132D+00 0.291D+00 0.906D+00
 Gap=     0.263 Goal=   None    Shift=    0.000
 Gap=     0.304 Goal=   None    Shift=    0.000
 RMSDP=2.17D-04 MaxDP=1.14D-02 DE=-3.60D-03 OVMax= 6.15D-03

 Cycle   7  Pass 1  IDiag  1:
 RMSU=  9.46D-05    CP:  6.89D-01  4.13D-01  9.79D-01  1.17D+00  1.05D+00
                    CP:  9.28D-01
 E= -1501.20734915300     Delta-E=       -0.000519258361 Rises=F Damp=F
 DIIS: error= 4.51D-04 at cycle   7 NSaved=   7.
 NSaved= 7 IEnMin= 7 EnMin= -1501.20734915300     IErMin= 7 ErrMin= 4.51D-04
 ErrMax= 4.51D-04  0.00D+00 EMaxC= 1.00D-01 BMatC= 6.82D-04 BMatP= 3.93D-03
 IDIUse=3 WtCom= 9.95D-01 WtEn= 4.51D-03
 Coeff-Com: -0.259D-02 0.112D-02-0.237D-01-0.702D-01 0.118D-01 0.471D+00
 Coeff-Com:  0.612D+00
 Coeff-En:   0.000D+00 0.000D+00 0.000D+00 0.000D+00 0.000D+00 0.000D+00
 Coeff-En:   0.100D+01
 Coeff:     -0.258D-02 0.111D-02-0.236D-01-0.699D-01 0.118D-01 0.469D+00
 Coeff:      0.614D+00
 Gap=     0.262 Goal=   None    Shift=    0.000
 Gap=     0.304 Goal=   None    Shift=    0.000
 RMSDP=5.29D-05 MaxDP=2.21D-03 DE=-5.19D-04 OVMax= 2.28D-03

 Cycle   8  Pass 1  IDiag  1:
 RMSU=  4.06D-05    CP:  6.89D-01  4.15D-01  9.78D-01  1.18D+00  1.08D+00
                    CP:  9.12D-01  8.31D-01
 E= -1501.20745774334     Delta-E=       -0.000108590339 Rises=F Damp=F
 DIIS: error= 1.11D-04 at cycle   8 NSaved=   8.
 NSaved= 8 IEnMin= 8 EnMin= -1501.20745774334     IErMin= 8 ErrMin= 1.11D-04
 ErrMax= 1.11D-04  0.00D+00 EMaxC= 1.00D-01 BMatC= 5.27D-05 BMatP= 6.82D-04
 IDIUse=3 WtCom= 9.99D-01 WtEn= 1.11D-03
 Coeff-Com: -0.321D-03 0.665D-03 0.832D-03-0.912D-02-0.326D-01 0.638D-01
 Coeff-Com:  0.265D+00 0.712D+00
 Coeff-En:   0.000D+00 0.000D+00 0.000D+00 0.000D+00 0.000D+00 0.000D+00
 Coeff-En:   0.000D+00 0.100D+01
 Coeff:     -0.321D-03 0.664D-03 0.831D-03-0.911D-02-0.326D-01 0.638D-01
 Coeff:      0.265D+00 0.712D+00
 Gap=     0.262 Goal=   None    Shift=    0.000
 Gap=     0.304 Goal=   None    Shift=    0.000
 RMSDP=1.53D-05 MaxDP=8.09D-04 DE=-1.09D-04 OVMax= 5.43D-04

 Cycle   9  Pass 1  IDiag  1:
 RMSU=  8.61D-06    CP:  6.89D-01  4.15D-01  9.79D-01  1.18D+00  1.07D+00
                    CP:  9.32D-01  8.83D-01  8.08D-01
 E= -1501.20746773565     Delta-E=       -0.000009992315 Rises=F Damp=F
 DIIS: error= 2.85D-05 at cycle   9 NSaved=   9.
 NSaved= 9 IEnMin= 9 EnMin= -1501.20746773565     IErMin= 9 ErrMin= 2.85D-05
 ErrMax= 2.85D-05  0.00D+00 EMaxC= 1.00D-01 BMatC= 2.31D-06 BMatP= 5.27D-05
 IDIUse=1 WtCom= 1.00D+00 WtEn= 0.00D+00
 Coeff-Com: -0.598D-04 0.190D-03 0.149D-02 0.185D-02-0.121D-01-0.128D-01
 Coeff-Com:  0.398D-01 0.182D+00 0.800D+00
 Coeff:     -0.598D-04 0.190D-03 0.149D-02 0.185D-02-0.121D-01-0.128D-01
 Coeff:      0.398D-01 0.182D+00 0.800D+00
 Gap=     0.262 Goal=   None    Shift=    0.000
 Gap=     0.304 Goal=   None    Shift=    0.000
 RMSDP=4.47D-06 MaxDP=1.79D-04 DE=-9.99D-06 OVMax= 1.75D-04

 Cycle  10  Pass 1  IDiag  1:
 RMSU=  2.50D-06    CP:  6.89D-01  4.15D-01  9.78D-01  1.18D+00  1.07D+00
                    CP:  9.33D-01  8.95D-01  8.44D-01  9.67D-01
 E= -1501.20746803329     Delta-E=       -0.000000297640 Rises=F Damp=F
 DIIS: error= 1.45D-05 at cycle  10 NSaved=  10.
 NSaved=10 IEnMin=10 EnMin= -1501.20746803329     IErMin=10 ErrMin= 1.45D-05
 ErrMax= 1.45D-05  0.00D+00 EMaxC= 1.00D-01 BMatC= 7.61D-07 BMatP= 2.31D-06
 IDIUse=1 WtCom= 1.00D+00 WtEn= 0.00D+00
 Coeff-Com: -0.193D-04 0.174D-04 0.776D-03 0.222D-02-0.383D-02-0.155D-01
 Coeff-Com: -0.635D-02 0.254D-01 0.468D+00 0.529D+00
 Coeff:     -0.193D-04 0.174D-04 0.776D-03 0.222D-02-0.383D-02-0.155D-01
 Coeff:     -0.635D-02 0.254D-01 0.468D+00 0.529D+00
 Gap=     0.262 Goal=   None    Shift=    0.000
 Gap=     0.304 Goal=   None    Shift=    0.000
 RMSDP=1.53D-06 MaxDP=7.84D-05 DE=-2.98D-07 OVMax= 6.53D-05

 Cycle  11  Pass 1  IDiag  1:
 RMSU=  8.05D-07    CP:  6.89D-01  4.15D-01  9.78D-01  1.18D+00  1.07D+00
                    CP:  9.31D-01  9.00D-01  8.47D-01  1.02D+00  7.43D-01
 E= -1501.20746816595     Delta-E=       -0.000000132657 Rises=F Damp=F
 DIIS: error= 1.94D-06 at cycle  11 NSaved=  11.
 NSaved=11 IEnMin=11 EnMin= -1501.20746816595     IErMin=11 ErrMin= 1.94D-06
 ErrMax= 1.94D-06  0.00D+00 EMaxC= 1.00D-01 BMatC= 1.82D-08 BMatP= 7.61D-07
 IDIUse=1 WtCom= 1.00D+00 WtEn= 0.00D+00
 Coeff-Com: -0.201D-05-0.186D-05 0.167D-03 0.644D-03-0.604D-03-0.465D-02
 Coeff-Com: -0.463D-02-0.259D-02 0.991D-01 0.170D+00 0.743D+00
 Coeff:     -0.201D-05-0.186D-05 0.167D-03 0.644D-03-0.604D-03-0.465D-02
 Coeff:     -0.463D-02-0.259D-02 0.991D-01 0.170D+00 0.743D+00
 Gap=     0.262 Goal=   None    Shift=    0.000
 Gap=     0.304 Goal=   None    Shift=    0.000
 RMSDP=3.93D-07 MaxDP=2.48D-05 DE=-1.33D-07 OVMax= 4.24D-05

 Cycle  12  Pass 1  IDiag  1:
 RMSU=  3.10D-07    CP:  6.89D-01  4.15D-01  9.78D-01  1.18D+00  1.07D+00
                    CP:  9.32D-01  9.01D-01  8.48D-01  1.03D+00  7.82D-01
                    CP:  1.06D+00
 E= -1501.20746817123     Delta-E=       -0.000000005281 Rises=F Damp=F
 DIIS: error= 1.21D-06 at cycle  12 NSaved=  12.
 NSaved=12 IEnMin=12 EnMin= -1501.20746817123     IErMin=12 ErrMin= 1.21D-06
 ErrMax= 1.21D-06  0.00D+00 EMaxC= 1.00D-01 BMatC= 2.43D-09 BMatP= 1.82D-08
 IDIUse=1 WtCom= 1.00D+00 WtEn= 0.00D+00
 Coeff-Com:  0.393D-05-0.480D-05-0.105D-03-0.286D-03 0.571D-03 0.202D-02
 Coeff-Com:  0.524D-03-0.472D-02-0.704D-01-0.707D-01 0.137D+00 0.101D+01
 Coeff:      0.393D-05-0.480D-05-0.105D-03-0.286D-03 0.571D-03 0.202D-02
 Coeff:      0.524D-03-0.472D-02-0.704D-01-0.707D-01 0.137D+00 0.101D+01
 Gap=     0.262 Goal=   None    Shift=    0.000
 Gap=     0.304 Goal=   None    Shift=    0.000
 RMSDP=2.49D-07 MaxDP=2.01D-05 DE=-5.28D-09 OVMax= 3.96D-05

 Cycle  13  Pass 1  IDiag  1:
 RMSU=  1.56D-07    CP:  6.89D-01  4.15D-01  9.78D-01  1.18D+00  1.07D+00
                    CP:  9.32D-01  9.01D-01  8.49D-01  1.03D+00  8.10D-01
                    CP:  1.25D+00  1.26D+00
 E= -1501.20746817274     Delta-E=       -0.000000001514 Rises=F Damp=F
 DIIS: error= 5.43D-07 at cycle  13 NSaved=  13.
 NSaved=13 IEnMin=13 EnMin= -1501.20746817274     IErMin=13 ErrMin= 5.43D-07
 ErrMax= 5.43D-07  0.00D+00 EMaxC= 1.00D-01 BMatC= 8.33D-10 BMatP= 2.43D-09
 IDIUse=1 WtCom= 1.00D+00 WtEn= 0.00D+00
 Coeff-Com:  0.266D-05-0.251D-05-0.677D-04-0.210D-03 0.355D-03 0.152D-02
 Coeff-Com:  0.781D-03-0.204D-02-0.443D-01-0.523D-01-0.206D-01 0.476D+00
 Coeff-Com:  0.640D+00
 Coeff:      0.266D-05-0.251D-05-0.677D-04-0.210D-03 0.355D-03 0.152D-02
 Coeff:      0.781D-03-0.204D-02-0.443D-01-0.523D-01-0.206D-01 0.476D+00
 Coeff:      0.640D+00
 Gap=     0.262 Goal=   None    Shift=    0.000
 Gap=     0.304 Goal=   None    Shift=    0.000
 RMSDP=8.55D-08 MaxDP=6.78D-06 DE=-1.51D-09 OVMax= 1.29D-05

 Cycle  14  Pass 1  IDiag  1:
 RMSU=  5.45D-08    CP:  6.89D-01  4.15D-01  9.78D-01  1.18D+00  1.07D+00
                    CP:  9.32D-01  9.01D-01  8.49D-01  1.03D+00  8.17D-01
                    CP:  1.29D+00  1.42D+00  1.11D+00
 E= -1501.20746817301     Delta-E=       -0.000000000265 Rises=F Damp=F
 DIIS: error= 3.05D-07 at cycle  14 NSaved=  14.
 NSaved=14 IEnMin=14 EnMin= -1501.20746817301     IErMin=14 ErrMin= 3.05D-07
 ErrMax= 3.05D-07  0.00D+00 EMaxC= 1.00D-01 BMatC= 1.89D-10 BMatP= 8.33D-10
 IDIUse=1 WtCom= 1.00D+00 WtEn= 0.00D+00
 Coeff-Com:  0.503D-06-0.146D-06-0.178D-07-0.161D-04 0.522D-05 0.137D-03
 Coeff-Com:  0.211D-03 0.379D-03 0.680D-03-0.282D-02-0.533D-01-0.815D-01
 Coeff-Com:  0.315D+00 0.821D+00
 Coeff:      0.503D-06-0.146D-06-0.178D-07-0.161D-04 0.522D-05 0.137D-03
 Coeff:      0.211D-03 0.379D-03 0.680D-03-0.282D-02-0.533D-01-0.815D-01
 Coeff:      0.315D+00 0.821D+00
 Gap=     0.262 Goal=   None    Shift=    0.000
 Gap=     0.304 Goal=   None    Shift=    0.000
 RMSDP=6.12D-08 MaxDP=5.40D-06 DE=-2.65D-10 OVMax= 1.01D-05

 Cycle  15  Pass 1  IDiag  1:
 RMSU=  2.73D-08    CP:  6.89D-01  4.15D-01  9.78D-01  1.18D+00  1.07D+00
                    CP:  9.32D-01  9.01D-01  8.49D-01  1.03D+00  8.22D-01
                    CP:  1.32D+00  1.52D+00  1.32D+00  1.15D+00
 E= -1501.20746817311     Delta-E=       -0.000000000104 Rises=F Damp=F
 DIIS: error= 1.24D-07 at cycle  15 NSaved=  15.
 NSaved=15 IEnMin=15 EnMin= -1501.20746817311     IErMin=15 ErrMin= 1.24D-07
 ErrMax= 1.24D-07  0.00D+00 EMaxC= 1.00D-01 BMatC= 1.31D-11 BMatP= 1.89D-10
 IDIUse=1 WtCom= 1.00D+00 WtEn= 0.00D+00
 Coeff-Com: -0.228D-06 0.283D-06 0.956D-05 0.260D-04-0.507D-04-0.189D-03
 Coeff-Com: -0.671D-04 0.388D-03 0.680D-02 0.740D-02-0.781D-02-0.914D-01
 Coeff-Com: -0.329D-01 0.171D+00 0.947D+00
 Coeff:     -0.228D-06 0.283D-06 0.956D-05 0.260D-04-0.507D-04-0.189D-03
 Coeff:     -0.671D-04 0.388D-03 0.680D-02 0.740D-02-0.781D-02-0.914D-01
 Coeff:     -0.329D-01 0.171D+00 0.947D+00
 Gap=     0.262 Goal=   None    Shift=    0.000
 Gap=     0.304 Goal=   None    Shift=    0.000
 RMSDP=2.82D-08 MaxDP=2.38D-06 DE=-1.04D-10 OVMax= 4.31D-06

 Cycle  16  Pass 1  IDiag  1:
 RMSU=  9.17D-09    CP:  6.89D-01  4.15D-01  9.78D-01  1.18D+00  1.07D+00
                    CP:  9.32D-01  9.01D-01  8.49D-01  1.03D+00  8.22D-01
                    CP:  1.32D+00  1.56D+00  1.43D+00  1.32D+00  1.11D+00
 E= -1501.20746817312     Delta-E=       -0.000000000007 Rises=F Damp=F
 DIIS: error= 4.10D-08 at cycle  16 NSaved=  16.
 NSaved=16 IEnMin=16 EnMin= -1501.20746817312     IErMin=16 ErrMin= 4.10D-08
 ErrMax= 4.10D-08  0.00D+00 EMaxC= 1.00D-01 BMatC= 1.64D-12 BMatP= 1.31D-11
 IDIUse=1 WtCom= 1.00D+00 WtEn= 0.00D+00
 Coeff-Com: -0.125D-06 0.351D-07 0.409D-06 0.382D-05-0.292D-05-0.311D-04
 Coeff-Com: -0.289D-04-0.237D-04 0.139D-03 0.568D-03 0.708D-02 0.787D-02
 Coeff-Com: -0.463D-01-0.108D+00 0.342D-01 0.110D+01
 Coeff:     -0.125D-06 0.351D-07 0.409D-06 0.382D-05-0.292D-05-0.311D-04
 Coeff:     -0.289D-04-0.237D-04 0.139D-03 0.568D-03 0.708D-02 0.787D-02
 Coeff:     -0.463D-01-0.108D+00 0.342D-01 0.110D+01
 Gap=     0.262 Goal=   None    Shift=    0.000
 Gap=     0.304 Goal=   None    Shift=    0.000
 RMSDP=1.04D-08 MaxDP=9.49D-07 DE=-7.28D-12 OVMax= 1.65D-06

 Cycle  17  Pass 1  IDiag  1:
 RMSU=  3.34D-09    CP:  6.89D-01  4.15D-01  9.78D-01  1.18D+00  1.07D+00
                    CP:  9.32D-01  9.01D-01  8.49D-01  1.03D+00  8.23D-01
                    CP:  1.33D+00  1.57D+00  1.46D+00  1.38D+00  1.26D+00
                    CP:  1.22D+00
 E= -1501.20746817314     Delta-E=       -0.000000000016 Rises=F Damp=F
 DIIS: error= 1.40D-08 at cycle  17 NSaved=  17.
 NSaved=17 IEnMin=17 EnMin= -1501.20746817314     IErMin=17 ErrMin= 1.40D-08
 ErrMax= 1.40D-08  0.00D+00 EMaxC= 1.00D-01 BMatC= 9.45D-13 BMatP= 1.64D-12
 IDIUse=1 WtCom= 1.00D+00 WtEn= 0.00D+00
 Coeff-Com: -0.436D-07 0.929D-08-0.126D-05-0.179D-05 0.608D-05 0.109D-04
 Coeff-Com: -0.590D-05-0.737D-04-0.997D-03-0.841D-03 0.527D-02 0.189D-01
 Coeff-Com: -0.215D-01-0.887D-01-0.122D+00 0.632D+00 0.578D+00
 Coeff:     -0.436D-07 0.929D-08-0.126D-05-0.179D-05 0.608D-05 0.109D-04
 Coeff:     -0.590D-05-0.737D-04-0.997D-03-0.841D-03 0.527D-02 0.189D-01
 Coeff:     -0.215D-01-0.887D-01-0.122D+00 0.632D+00 0.578D+00
 Gap=     0.262 Goal=   None    Shift=    0.000
 Gap=     0.304 Goal=   None    Shift=    0.000
 RMSDP=2.83D-09 MaxDP=2.07D-07 DE=-1.64D-11 OVMax= 3.84D-07

 SCF Done:  E(UHSEH1PBE) =  -1501.20746817     A.U. after   17 cycles
            NFock= 17  Conv=0.28D-08     -V/T= 2.0013
 <Sx>= 0.0000 <Sy>= 0.0000 <Sz>= 1.5000 <S**2>= 3.7584 S= 1.5021
 <L.S>=  0.00000000000    
 KE= 1.499205631275D+03 PE=-4.979640917229D+03 EE= 1.244816701989D+03
 Annihilation of the first spin contaminant:
 S**2 before annihilation     3.7584,   after     3.7500
 Leave Link  502 at Thu May 23 12:35:03 2024, MaxMem= 26843545600 cpu:           10587.7 elap:              88.4
 (Enter /gpfs/fs1/soft/improv/software/custom-built/gaussian/g16/l508.exe)
 QCSCF skips out because SCF is already converged.
 Leave Link  508 at Thu May 23 12:35:03 2024, MaxMem= 26843545600 cpu:               0.2 elap:               0.0
 (Enter /gpfs/fs1/soft/improv/software/custom-built/gaussian/g16/l801.exe)
 DoSCS=F DFT=T ScalE2(SS,OS)=  1.000000  1.000000
 Range of M.O.s used for correlation:     1   317
 NBasis=   317 NAE=    42 NBE=    39 NFC=     0 NFV=     0
 NROrb=    317 NOA=    42 NOB=    39 NVA=   275 NVB=   278

 **** Warning!!: The largest alpha MO coefficient is  0.55721386D+02


 **** Warning!!: The largest beta MO coefficient is  0.59274369D+02

 Leave Link  801 at Thu May 23 12:35:03 2024, MaxMem= 26843545600 cpu:               0.4 elap:               0.0
 (Enter /gpfs/fs1/soft/improv/software/custom-built/gaussian/g16/l1101.exe)
 Using compressed storage, NAtomX=    19.
 Will process     20 centers per pass.
 Leave Link 1101 at Thu May 23 12:35:04 2024, MaxMem= 26843545600 cpu:              50.4 elap:               0.5
 (Enter /gpfs/fs1/soft/improv/software/custom-built/gaussian/g16/l1102.exe)
 Symmetrizing basis deriv contribution to polar:
 IMax=3 JMax=2 DiffMx= 0.00D+00
 Leave Link 1102 at Thu May 23 12:35:04 2024, MaxMem= 26843545600 cpu:               0.9 elap:               0.0
 (Enter /gpfs/fs1/soft/improv/software/custom-built/gaussian/g16/l1110.exe)
 Forming Gx(P) for the SCF density, NAtomX=    19.
 Integral derivatives from FoFJK, PRISM(SPDF).
 Do as many integral derivatives as possible in FoFJK.
 G2DrvN: MDV=   26843543431.
 G2DrvN: will do    20 centers at a time, making    1 passes.
 Calling FoFCou, ICntrl=  3107 FMM=F I1Cent=   0 AccDes= 0.00D+00.
 FoFJK:  IHMeth= 1 ICntrl=    3107 DoSepK=T KAlg= 0 I1Cent=           0 FoldK=F
 IRaf=         1 NMat=       1 IRICut=       1 DoRegI=T DoRafI=F ISym2E= 0 IDoP0=0 IntGTp=1.
 FoFCou: FMM=F IPFlag=           0 FMFlag=      100000 FMFlg1=           0
         NFxFlg=           0 DoJE=F BraDBF=F KetDBF=F FulRan=T
         wScrn=  0.000000 ICntrl=      3507 IOpCl=  0 I1Cent=           0 NGrid=           0
         NMat0=    1 NMatS0=      1 NMatT0=    0 NMatD0=    1 NMtDS0=    0 NMtDT0=    0
 Symmetry not used in FoFCou.
 End of G2Drv F.D. properties file   721 does not exist.
 End of G2Drv F.D. properties file   722 does not exist.
 End of G2Drv F.D. properties file   788 does not exist.
 Leave Link 1110 at Thu May 23 12:35:23 2024, MaxMem= 26843545600 cpu:            2411.7 elap:              19.3
 (Enter /gpfs/fs1/soft/improv/software/custom-built/gaussian/g16/l1002.exe)
 Minotr:  UHF open shell wavefunction.
          IDoAtm=1111111111111111111
          Direct CPHF calculation.
          Differentiating once with respect to electric field.
                with respect to dipole field.
          Differentiating once with respect to nuclear coordinates.
          Requested convergence is 1.0D-08 RMS, and 1.0D-07 maximum.
          Secondary convergence is 1.0D-12 RMS, and 1.0D-12 maximum.
          NewPWx=T KeepS1=F KeepF1=F KeepIn=T MapXYZ=F SortEE=F KeepMc=T.
         6034 words used for storage of precomputed grid.
 Two-electron integrals replicated using symmetry.
          MDV=   26843545600 using IRadAn=       1.
          Solving linear equations simultaneously, MaxMat=     384.
 FoF2E skips out because all densities are zero.
 CalDSu exits because no D1Ps are significant.
 FoFJK:  IHMeth= 1 ICntrl=       0 DoSepK=T KAlg= 0 I1Cent=           0 FoldK=F
 IRaf=         1 NMat=      57 IRICut=       1 DoRegI=T DoRafI=F ISym2E= 2 IDoP0=3 IntGTp=2.
 FoFCou: FMM=F IPFlag=           0 FMFlag=      100000 FMFlg1=           0
         NFxFlg=           0 DoJE=F BraDBF=F KetDBF=F FulRan=T
         wScrn=  0.000000 ICntrl=       500 IOpCl=  0 I1Cent=           0 NGrid=           0
         NMat0=   57 NMatS0=     57 NMatT0=    0 NMatD0=   57 NMtDS0=    0 NMtDT0=    0
 Integrals replicated using symmetry in FoFCou.
          There are    60 degrees of freedom in the 1st order CPHF.  IDoFFX=6 NUNeed=     3.
     57 vectors produced by pass  0 Test12= 3.73D-14 1.67D-09 XBig12= 5.47D+01 1.64D+00.
 AX will form    57 AO Fock derivatives at one time.
     57 vectors produced by pass  1 Test12= 3.73D-14 1.67D-09 XBig12= 5.55D+00 2.39D-01.
     57 vectors produced by pass  2 Test12= 3.73D-14 1.67D-09 XBig12= 6.47D-02 2.71D-02.
     57 vectors produced by pass  3 Test12= 3.73D-14 1.67D-09 XBig12= 3.27D-04 2.86D-03.
     57 vectors produced by pass  4 Test12= 3.73D-14 1.67D-09 XBig12= 2.79D-06 2.34D-04.
     57 vectors produced by pass  5 Test12= 3.73D-14 1.67D-09 XBig12= 1.59D-08 1.92D-05.
     41 vectors produced by pass  6 Test12= 3.73D-14 1.67D-09 XBig12= 5.11D-11 6.17D-07.
      8 vectors produced by pass  7 Test12= 3.73D-14 1.67D-09 XBig12= 1.63D-13 3.37D-08.
      1 vectors produced by pass  8 Test12= 3.73D-14 1.67D-09 XBig12= 3.54D-16 1.76D-09.
 InvSVY:  IOpt=1 It=  1 EMax= 3.55D-15
 Solved reduced A of dimension   392 with    60 vectors.
 FullF1:  Do perturbations      1 to       3.
 Isotropic polarizability for W=    0.000000       48.93 Bohr**3.
 End of Minotr F.D. properties file   721 does not exist.
 End of Minotr F.D. properties file   722 does not exist.
 End of Minotr F.D. properties file   788 does not exist.
 Leave Link 1002 at Thu May 23 12:36:35 2024, MaxMem= 26843545600 cpu:            8674.0 elap:              72.5
 (Enter /gpfs/fs1/soft/improv/software/custom-built/gaussian/g16/l601.exe)
 Copying SCF densities to generalized density rwf, IOpCl= 1 IROHF=0.

 **********************************************************************

            Population analysis using the SCF Density.

 **********************************************************************

 Orbital symmetries:
 Alpha Orbitals:
       Occupied  (A) (A) (A) (A) (A) (A) (A) (A) (A) (A) (A) (A)
                 (A) (A) (A) (A) (A) (A) (A) (A) (A) (A) (A) (A)
                 (A) (A) (A) (A) (A) (A) (A) (A) (A) (A) (A) (A)
                 (A) (A) (A) (A) (A) (A)
       Virtual   (A) (A) (A) (A) (A) (A) (A) (A) (A) (A) (A) (A)
                 (A) (A) (A) (A) (A) (A) (A) (A) (A) (A) (A) (A)
                 (A) (A) (A) (A) (A) (A) (A) (A) (A) (A) (A) (A)
                 (A) (A) (A) (A) (A) (A) (A) (A) (A) (A) (A) (A)
                 (A) (A) (A) (A) (A) (A) (A) (A) (A) (A) (A) (A)
                 (A) (A) (A) (A) (A) (A) (A) (A) (A) (A) (A) (A)
                 (A) (A) (A) (A) (A) (A) (A) (A) (A) (A) (A) (A)
                 (A) (A) (A) (A) (A) (A) (A) (A) (A) (A) (A) (A)
                 (A) (A) (A) (A) (A) (A) (A) (A) (A) (A) (A) (A)
                 (A) (A) (A) (A) (A) (A) (A) (A) (A) (A) (A) (A)
                 (A) (A) (A) (A) (A) (A) (A) (A) (A) (A) (A) (A)
                 (A) (A) (A) (A) (A) (A) (A) (A) (A) (A) (A) (A)
                 (A) (A) (A) (A) (A) (A) (A) (A) (A) (A) (A) (A)
                 (A) (A) (A) (A) (A) (A) (A) (A) (A) (A) (A) (A)
                 (A) (A) (A) (A) (A) (A) (A) (A) (A) (A) (A) (A)
                 (A) (A) (A) (A) (A) (A) (A) (A) (A) (A) (A) (A)
                 (A) (A) (A) (A) (A) (A) (A) (A) (A) (A) (A) (A)
                 (A) (A) (A) (A) (A) (A) (A) (A) (A) (A) (A) (A)
                 (A) (A) (A) (A) (A) (A) (A) (A) (A) (A) (A) (A)
                 (A) (A) (A) (A) (A) (A) (A) (A) (A) (A) (A) (A)
                 (A) (A) (A) (A) (A) (A) (A) (A) (A) (A) (A) (A)
                 (A) (A) (A) (A) (A) (A) (A) (A) (A) (A) (A) (A)
                 (A) (A) (A) (A) (A) (A) (A) (A) (A) (A) (A)
 Beta  Orbitals:
       Occupied  (A) (A) (A) (A) (A) (A) (A) (A) (A) (A) (A) (A)
                 (A) (A) (A) (A) (A) (A) (A) (A) (A) (A) (A) (A)
                 (A) (A) (A) (A) (A) (A) (A) (A) (A) (A) (A) (A)
                 (A) (A) (A)
       Virtual   (A) (A) (A) (A) (A) (A) (A) (A) (A) (A) (A) (A)
                 (A) (A) (A) (A) (A) (A) (A) (A) (A) (A) (A) (A)
                 (A) (A) (A) (A) (A) (A) (A) (A) (A) (A) (A) (A)
                 (A) (A) (A) (A) (A) (A) (A) (A) (A) (A) (A) (A)
                 (A) (A) (A) (A) (A) (A) (A) (A) (A) (A) (A) (A)
                 (A) (A) (A) (A) (A) (A) (A) (A) (A) (A) (A) (A)
                 (A) (A) (A) (A) (A) (A) (A) (A) (A) (A) (A) (A)
                 (A) (A) (A) (A) (A) (A) (A) (A) (A) (A) (A) (A)
                 (A) (A) (A) (A) (A) (A) (A) (A) (A) (A) (A) (A)
                 (A) (A) (A) (A) (A) (A) (A) (A) (A) (A) (A) (A)
                 (A) (A) (A) (A) (A) (A) (A) (A) (A) (A) (A) (A)
                 (A) (A) (A) (A) (A) (A) (A) (A) (A) (A) (A) (A)
                 (A) (A) (A) (A) (A) (A) (A) (A) (A) (A) (A) (A)
                 (A) (A) (A) (A) (A) (A) (A) (A) (A) (A) (A) (A)
                 (A) (A) (A) (A) (A) (A) (A) (A) (A) (A) (A) (A)
                 (A) (A) (A) (A) (A) (A) (A) (A) (A) (A) (A) (A)
                 (A) (A) (A) (A) (A) (A) (A) (A) (A) (A) (A) (A)
                 (A) (A) (A) (A) (A) (A) (A) (A) (A) (A) (A) (A)
                 (A) (A) (A) (A) (A) (A) (A) (A) (A) (A) (A) (A)
                 (A) (A) (A) (A) (A) (A) (A) (A) (A) (A) (A) (A)
                 (A) (A) (A) (A) (A) (A) (A) (A) (A) (A) (A) (A)
                 (A) (A) (A) (A) (A) (A) (A) (A) (A) (A) (A) (A)
                 (A) (A) (A) (A) (A) (A) (A) (A) (A) (A) (A) (A)
                 (A) (A)
 The electronic state is 4-A.
 Alpha  occ. eigenvalues -- -216.58013 -25.44232 -21.69104 -21.69052 -21.69016
 Alpha  occ. eigenvalues --  -19.84040 -19.84001 -19.83022 -19.82658 -19.80495
 Alpha  occ. eigenvalues --  -19.79742  -3.58520  -2.52458  -2.52252  -2.52081
 Alpha  occ. eigenvalues --   -1.68710  -1.66336  -1.65765  -1.65044  -1.63112
 Alpha  occ. eigenvalues --   -1.62294  -1.20209  -1.18641  -1.16634  -1.15882
 Alpha  occ. eigenvalues --   -1.14001  -1.12592  -1.08797  -1.07679  -1.07013
 Alpha  occ. eigenvalues --   -1.04320  -1.03096  -1.00715  -1.00282  -0.97133
 Alpha  occ. eigenvalues --   -0.96002  -0.94409  -0.92923  -0.91272  -0.84727
 Alpha  occ. eigenvalues --   -0.83792  -0.82137
 Alpha virt. eigenvalues --   -0.55931  -0.55333  -0.55179  -0.50151  -0.47908
 Alpha virt. eigenvalues --   -0.46673  -0.43163  -0.41979  -0.40662  -0.40274
 Alpha virt. eigenvalues --   -0.37357  -0.35694  -0.35254  -0.33906  -0.32420
 Alpha virt. eigenvalues --   -0.31709  -0.30899  -0.29054  -0.28274  -0.27823
 Alpha virt. eigenvalues --   -0.27434  -0.27144  -0.25092  -0.24828  -0.24512
 Alpha virt. eigenvalues --   -0.23793  -0.22101  -0.21567  -0.20821  -0.19461
 Alpha virt. eigenvalues --   -0.19003  -0.18616  -0.17376  -0.16870  -0.15179
 Alpha virt. eigenvalues --   -0.15068  -0.14479  -0.13410  -0.12502  -0.11576
 Alpha virt. eigenvalues --   -0.11240  -0.09318  -0.08818  -0.07984  -0.07225
 Alpha virt. eigenvalues --   -0.06124  -0.05890  -0.04670  -0.01534  -0.00643
 Alpha virt. eigenvalues --    0.01030   0.05988   0.06202   0.07053   0.08412
 Alpha virt. eigenvalues --    0.20521   0.21359   0.22726   0.25503   0.28290
 Alpha virt. eigenvalues --    0.29117   0.29374   0.31832   0.33030   0.33391
 Alpha virt. eigenvalues --    0.34284   0.35058   0.38130   0.38537   0.38925
 Alpha virt. eigenvalues --    0.41139   0.41560   0.42143   0.43682   0.44841
 Alpha virt. eigenvalues --    0.46972   0.49709   0.51362   0.51726   0.52933
 Alpha virt. eigenvalues --    0.53589   0.54486   0.55399   0.56702   0.58064
 Alpha virt. eigenvalues --    0.59241   0.60996   0.62682   0.62977   0.66434
 Alpha virt. eigenvalues --    0.66689   0.68299   0.72131   0.72781   0.76404
 Alpha virt. eigenvalues --    0.76681   0.79341   0.79925   0.83434   0.83975
 Alpha virt. eigenvalues --    0.84776   0.88641   0.88706   0.90305   0.92182
 Alpha virt. eigenvalues --    1.00646   1.02282   1.06451   1.09011   1.10935
 Alpha virt. eigenvalues --    1.14757   1.18097   1.18901   1.20131   1.21197
 Alpha virt. eigenvalues --    1.22414   1.25143   1.29881   1.31618   1.34489
 Alpha virt. eigenvalues --    1.37383   1.40199   1.44765   1.49288   1.53624
 Alpha virt. eigenvalues --    1.67774   1.69987   1.70961   1.72187   1.75183
 Alpha virt. eigenvalues --    1.76124   1.77647   1.79133   1.82334   1.85578
 Alpha virt. eigenvalues --    1.88025   1.91491   1.96653   1.99098   2.02950
 Alpha virt. eigenvalues --    2.06683   2.07929   2.10285   2.17922   2.21205
 Alpha virt. eigenvalues --    2.22020   2.24179   2.26903   2.28246   2.33153
 Alpha virt. eigenvalues --    2.34324   2.37373   2.38772   2.40156   2.40891
 Alpha virt. eigenvalues --    2.42045   2.43828   2.45446   2.47700   2.49830
 Alpha virt. eigenvalues --    2.50489   2.51839   2.55452   2.56640   2.57727
 Alpha virt. eigenvalues --    2.59575   2.61449   2.68861   2.71324   2.73222
 Alpha virt. eigenvalues --    2.79872   2.81414   2.87805   3.07993   3.10152
 Alpha virt. eigenvalues --    3.13136   3.15079   3.15457   3.17637   3.21544
 Alpha virt. eigenvalues --    3.34895   3.40497   3.50169   3.53648   3.54830
 Alpha virt. eigenvalues --    3.60840   3.63040   3.65590   3.66634   3.68302
 Alpha virt. eigenvalues --    3.69148   3.70007   3.72235   3.74614   3.79503
 Alpha virt. eigenvalues --    3.81719   3.88237   3.88647   3.91047   3.93036
 Alpha virt. eigenvalues --    3.96695   3.97134   4.00874   4.04948   4.06567
 Alpha virt. eigenvalues --    4.09328   4.14133   4.16831   4.17390   4.18421
 Alpha virt. eigenvalues --    4.22922   4.24766   4.33274   4.35225   4.37299
 Alpha virt. eigenvalues --    4.39339   4.40618   4.41844   4.48718   4.56095
 Alpha virt. eigenvalues --    4.60488   4.65798   4.67949   4.70260   4.73998
 Alpha virt. eigenvalues --    4.76293   4.85199   4.86738   4.87769   4.89111
 Alpha virt. eigenvalues --    4.89470   4.90387   4.91641   4.94730   4.95184
 Alpha virt. eigenvalues --    4.97769   5.04441   5.05336   5.05809   5.09179
 Alpha virt. eigenvalues --    5.10650   5.11323   5.12903   5.17442   5.19900
 Alpha virt. eigenvalues --    5.22591   5.24165   5.26004   5.27403   5.30177
 Alpha virt. eigenvalues --    5.31485   5.33299   5.35057   5.38004   5.38412
 Alpha virt. eigenvalues --    5.39922   5.40920   5.43453   5.44276   5.68329
 Alpha virt. eigenvalues --    5.69415   6.32214   6.92201   6.94880   6.95772
 Alpha virt. eigenvalues --    7.05157   7.09093   7.22358  13.26091  13.28246
 Alpha virt. eigenvalues --   13.28539  13.80123  13.87492  13.95678  32.56942
  Beta  occ. eigenvalues -- -216.57988 -25.39682 -21.65266 -21.65178 -21.65108
  Beta  occ. eigenvalues --  -19.84051 -19.84007 -19.83026 -19.82658 -19.80479
  Beta  occ. eigenvalues --  -19.79729  -3.45038  -2.38176  -2.37894  -2.37638
  Beta  occ. eigenvalues --   -1.68539  -1.66206  -1.65639  -1.64861  -1.62923
  Beta  occ. eigenvalues --   -1.62116  -1.19611  -1.18048  -1.16384  -1.15565
  Beta  occ. eigenvalues --   -1.13622  -1.12337  -1.08236  -1.07012  -1.06220
  Beta  occ. eigenvalues --   -1.03058  -1.02707  -1.00259  -0.99551  -0.96375
  Beta  occ. eigenvalues --   -0.95147  -0.93703  -0.91875  -0.90717
  Beta virt. eigenvalues --   -0.60334  -0.59748  -0.58553  -0.55587  -0.50348
  Beta virt. eigenvalues --   -0.50236  -0.49831  -0.47607  -0.46482  -0.42686
  Beta virt. eigenvalues --   -0.41527  -0.40403  -0.40051  -0.36999  -0.35463
  Beta virt. eigenvalues --   -0.35004  -0.33591  -0.32181  -0.31534  -0.30693
  Beta virt. eigenvalues --   -0.28810  -0.28024  -0.27628  -0.27157  -0.26794
  Beta virt. eigenvalues --   -0.24912  -0.24453  -0.24199  -0.23242  -0.21563
  Beta virt. eigenvalues --   -0.21077  -0.20552  -0.19091  -0.18638  -0.18083
  Beta virt. eigenvalues --   -0.16876  -0.16357  -0.14922  -0.14725  -0.13951
  Beta virt. eigenvalues --   -0.12968  -0.11951  -0.11100  -0.10539  -0.08555
  Beta virt. eigenvalues --   -0.08287  -0.07477  -0.06680  -0.05498  -0.05154
  Beta virt. eigenvalues --   -0.03878  -0.01127   0.01009   0.02386   0.06342
  Beta virt. eigenvalues --    0.06739   0.07955   0.09785   0.21528   0.22129
  Beta virt. eigenvalues --    0.23681   0.26683   0.29188   0.30013   0.30810
  Beta virt. eigenvalues --    0.32925   0.33429   0.33678   0.34647   0.35534
  Beta virt. eigenvalues --    0.38538   0.39003   0.39476   0.41452   0.41816
  Beta virt. eigenvalues --    0.42432   0.44097   0.45287   0.47348   0.50349
  Beta virt. eigenvalues --    0.51679   0.52199   0.53325   0.54013   0.54885
  Beta virt. eigenvalues --    0.55614   0.57186   0.58480   0.59801   0.61634
  Beta virt. eigenvalues --    0.63130   0.63717   0.66876   0.67424   0.69842
  Beta virt. eigenvalues --    0.72631   0.73223   0.77375   0.77625   0.79810
  Beta virt. eigenvalues --    0.80794   0.84489   0.85035   0.85584   0.89476
  Beta virt. eigenvalues --    0.89609   0.91163   0.93141   1.01639   1.03025
  Beta virt. eigenvalues --    1.08194   1.10969   1.13092   1.18189   1.20940
  Beta virt. eigenvalues --    1.22464   1.23537   1.24567   1.25984   1.26691
  Beta virt. eigenvalues --    1.32389   1.33083   1.36004   1.39682   1.41746
  Beta virt. eigenvalues --    1.45411   1.50826   1.54929   1.68206   1.70413
  Beta virt. eigenvalues --    1.71560   1.72622   1.75647   1.76747   1.78263
  Beta virt. eigenvalues --    1.79982   1.83002   1.85946   1.88359   1.92207
  Beta virt. eigenvalues --    1.97267   1.99697   2.03625   2.07702   2.08934
  Beta virt. eigenvalues --    2.11169   2.18818   2.22891   2.23908   2.25079
  Beta virt. eigenvalues --    2.28421   2.29449   2.34148   2.35496   2.37967
  Beta virt. eigenvalues --    2.39435   2.41070   2.42101   2.42701   2.45205
  Beta virt. eigenvalues --    2.46433   2.48260   2.50609   2.51208   2.52968
  Beta virt. eigenvalues --    2.56493   2.57844   2.58866   2.60755   2.61866
  Beta virt. eigenvalues --    2.69181   2.71831   2.73641   2.81962   2.83377
  Beta virt. eigenvalues --    2.89490   3.11997   3.14105   3.15096   3.20779
  Beta virt. eigenvalues --    3.21761   3.24714   3.26549   3.39206   3.44162
  Beta virt. eigenvalues --    3.50322   3.53815   3.54987   3.61347   3.63348
  Beta virt. eigenvalues --    3.65905   3.67550   3.68841   3.69547   3.71161
  Beta virt. eigenvalues --    3.73370   3.75304   3.79991   3.82048   3.88797
  Beta virt. eigenvalues --    3.89944   3.91827   3.93695   3.97761   4.00719
  Beta virt. eigenvalues --    4.05774   4.10800   4.11837   4.11983   4.15910
  Beta virt. eigenvalues --    4.19548   4.21969   4.22424   4.25271   4.25646
  Beta virt. eigenvalues --    4.35257   4.37666   4.38071   4.40899   4.41536
  Beta virt. eigenvalues --    4.42911   4.51067   4.58364   4.61030   4.66654
  Beta virt. eigenvalues --    4.68813   4.70875   4.75103   4.77725   4.85474
  Beta virt. eigenvalues --    4.86900   4.88358   4.89385   4.89884   4.90911
  Beta virt. eigenvalues --    4.92019   4.95413   4.95970   4.99434   5.05528
  Beta virt. eigenvalues --    5.06424   5.06824   5.10193   5.11505   5.12079
  Beta virt. eigenvalues --    5.13462   5.18949   5.20609   5.23379   5.25295
  Beta virt. eigenvalues --    5.26664   5.27860   5.30811   5.32056   5.34121
  Beta virt. eigenvalues --    5.35673   5.39130   5.39263   5.40398   5.41193
  Beta virt. eigenvalues --    5.43635   5.44537   5.68526   5.69618   6.34391
  Beta virt. eigenvalues --    6.92535   6.95219   6.96125   7.05366   7.09307
  Beta virt. eigenvalues --    7.22801  13.26254  13.28405  13.28697  13.80215
  Beta virt. eigenvalues --   13.87576  13.95771  32.60075
          Condensed to atoms (all electrons):
               1          2          3          4          5          6
     1  Cr  22.902282  -0.055090  -0.017645  -0.028318  -0.018041  -0.020201
     2  O   -0.055090   8.246478   0.320107  -0.064261  -0.000672  -0.042527
     3  H   -0.017645   0.320107   0.243108  -0.000943  -0.000011   0.000987
     4  O   -0.028318  -0.064261  -0.000943   8.303420   0.313135  -0.065800
     5  H   -0.018041  -0.000672  -0.000011   0.313135   0.269012   0.000401
     6  O   -0.020201  -0.042527   0.000987  -0.065800   0.000401   8.214422
     7  H   -0.015213  -0.003077  -0.000009   0.001650  -0.000276   0.317463
     8  O   -0.035780   0.038447  -0.000441  -0.060484   0.002755  -0.057505
     9  H   -0.016564  -0.000126  -0.000014  -0.002777  -0.000004   0.001888
    10  O   -0.032361  -0.058811  -0.001244   0.039140  -0.000573  -0.061973
    11  H   -0.012613   0.000596  -0.000210   0.000038   0.000009  -0.001510
    12  O   -0.051971   0.002823   0.000782  -0.072249  -0.000867   0.039870
    13  H   -0.020049  -0.002091  -0.000017  -0.000615  -0.000029  -0.000205
    14  H   -0.002356  -0.001011   0.000004   0.001930   0.000044  -0.000594
    15  H   -0.014574   0.000455  -0.000009   0.317930  -0.021783  -0.008012
    16  H   -0.011118   0.311015  -0.013820  -0.000634  -0.000001  -0.003558
    17  H   -0.020026  -0.002186   0.000085  -0.000299  -0.000015   0.000985
    18  H   -0.017584   0.001269   0.000029  -0.005064  -0.000956   0.319477
    19  H   -0.016473  -0.000716   0.000007   0.002067   0.000368  -0.006172
               7          8          9         10         11         12
     1  Cr  -0.015213  -0.035780  -0.016564  -0.032361  -0.012613  -0.051971
     2  O   -0.003077   0.038447  -0.000126  -0.058811   0.000596   0.002823
     3  H   -0.000009  -0.000441  -0.000014  -0.001244  -0.000210   0.000782
     4  O    0.001650  -0.060484  -0.002777   0.039140   0.000038  -0.072249
     5  H   -0.000276   0.002755  -0.000004  -0.000573   0.000009  -0.000867
     6  O    0.317463  -0.057505   0.001888  -0.061973  -0.001510   0.039870
     7  H    0.276522  -0.008041  -0.000291   0.002892   0.000040  -0.000758
     8  O   -0.008041   8.203331   0.319878  -0.035943  -0.007489  -0.019985
     9  H   -0.000291   0.319878   0.258268  -0.007115   0.000445   0.000812
    10  O    0.002892  -0.035943  -0.007115   8.279903   0.316393  -0.083881
    11  H    0.000040  -0.007489   0.000445   0.316393   0.262300   0.000097
    12  O   -0.000758  -0.019985   0.000812  -0.083881   0.000097   8.245961
    13  H    0.000009  -0.000461   0.000028  -0.000008  -0.000073   0.322313
    14  H   -0.000023  -0.004614   0.000406  -0.002356   0.001680   0.305003
    15  H    0.000159  -0.001310  -0.000018  -0.000014  -0.000002   0.000710
    16  H   -0.000047  -0.000424   0.000006   0.002537  -0.000004  -0.001732
    17  H    0.000757  -0.001891  -0.000933   0.319424  -0.021296  -0.000459
    18  H   -0.016949   0.001772   0.000029  -0.002803  -0.000014  -0.000179
    19  H    0.002909   0.317223  -0.016395   0.001434   0.000152  -0.002372
              13         14         15         16         17         18
     1  Cr  -0.020049  -0.002356  -0.014574  -0.011118  -0.020026  -0.017584
     2  O   -0.002091  -0.001011   0.000455   0.311015  -0.002186   0.001269
     3  H   -0.000017   0.000004  -0.000009  -0.013820   0.000085   0.000029
     4  O   -0.000615   0.001930   0.317930  -0.000634  -0.000299  -0.005064
     5  H   -0.000029   0.000044  -0.021783  -0.000001  -0.000015  -0.000956
     6  O   -0.000205  -0.000594  -0.008012  -0.003558   0.000985   0.319477
     7  H    0.000009  -0.000023   0.000159  -0.000047   0.000757  -0.016949
     8  O   -0.000461  -0.004614  -0.001310  -0.000424  -0.001891   0.001772
     9  H    0.000028   0.000406  -0.000018   0.000006  -0.000933   0.000029
    10  O   -0.000008  -0.002356  -0.000014   0.002537   0.319424  -0.002803
    11  H   -0.000073   0.001680  -0.000002  -0.000004  -0.021296  -0.000014
    12  O    0.322313   0.305003   0.000710  -0.001732  -0.000459  -0.000179
    13  H    0.238830  -0.014416  -0.000130   0.000011  -0.000017  -0.000015
    14  H   -0.014416   0.278029  -0.000006  -0.000021  -0.000039   0.000005
    15  H   -0.000130  -0.000006   0.254621   0.000331   0.000010   0.000205
    16  H    0.000011  -0.000021   0.000331   0.266517   0.000058  -0.000083
    17  H   -0.000017  -0.000039   0.000010   0.000058   0.267265  -0.000046
    18  H   -0.000015   0.000005   0.000205  -0.000083  -0.000046   0.255338
    19  H   -0.000012  -0.000067   0.000048  -0.000028  -0.000219  -0.000252
              19
     1  Cr  -0.016473
     2  O   -0.000716
     3  H    0.000007
     4  O    0.002067
     5  H    0.000368
     6  O   -0.006172
     7  H    0.002909
     8  O    0.317223
     9  H   -0.016395
    10  O    0.001434
    11  H    0.000152
    12  O   -0.002372
    13  H   -0.000012
    14  H   -0.000067
    15  H    0.000048
    16  H   -0.000028
    17  H   -0.000219
    18  H   -0.000252
    19  H    0.274049
          Atomic-Atomic Spin Densities.
               1          2          3          4          5          6
     1  Cr   3.159609  -0.017996  -0.005513  -0.020016  -0.007239  -0.018104
     2  O   -0.017996  -0.013257   0.003661   0.002727  -0.000377   0.005208
     3  H   -0.005513   0.003661   0.007994  -0.000087   0.000010   0.000031
     4  O   -0.020016   0.002727  -0.000087  -0.013145   0.005433   0.003553
     5  H   -0.007239  -0.000377   0.000010   0.005433   0.008214   0.001316
     6  O   -0.018104   0.005208   0.000031   0.003553   0.001316  -0.017635
     7  H   -0.007917  -0.000669   0.000004  -0.000602  -0.000043   0.005053
     8  O   -0.018049   0.000874  -0.000150   0.001736   0.000559   0.001530
     9  H   -0.006388  -0.000099  -0.000010  -0.000500  -0.000085  -0.001071
    10  O   -0.021227   0.003645   0.002098   0.000343  -0.000268   0.001480
    11  H   -0.005212  -0.000351  -0.000040   0.000022   0.000001  -0.000385
    12  O   -0.018043   0.003629   0.000739   0.003954  -0.000090   0.001056
    13  H   -0.005568   0.000067  -0.000002   0.002102  -0.000052  -0.000086
    14  H   -0.007103  -0.000251  -0.000020  -0.000547  -0.000002  -0.000174
    15  H   -0.004830   0.001478  -0.000073   0.003783  -0.001878  -0.000554
    16  H   -0.006656   0.005346  -0.001286  -0.000141  -0.000024   0.001035
    17  H   -0.006955  -0.000373  -0.000060  -0.000245  -0.000005   0.000238
    18  H   -0.006192   0.000022   0.000003   0.003866   0.000351   0.003306
    19  H   -0.007934  -0.000215   0.000004   0.000303   0.000345   0.003060
               7          8          9         10         11         12
     1  Cr  -0.007917  -0.018049  -0.006388  -0.021227  -0.005212  -0.018043
     2  O   -0.000669   0.000874  -0.000099   0.003645  -0.000351   0.003629
     3  H    0.000004  -0.000150  -0.000010   0.002098  -0.000040   0.000739
     4  O   -0.000602   0.001736  -0.000500   0.000343   0.000022   0.003954
     5  H   -0.000043   0.000559  -0.000085  -0.000268   0.000001  -0.000090
     6  O    0.005053   0.001530  -0.001071   0.001480  -0.000385   0.001056
     7  H    0.009169   0.001973  -0.000087   0.000424  -0.000040  -0.000219
     8  O    0.001973  -0.017761   0.004934   0.005158   0.000016   0.005191
     9  H   -0.000087   0.004934   0.009243   0.003077   0.000251  -0.000298
    10  O    0.000424   0.005158   0.003077  -0.015687   0.003563   0.002592
    11  H   -0.000040   0.000016   0.000251   0.003563   0.009808   0.001187
    12  O   -0.000219   0.005191  -0.000298   0.002592   0.001187  -0.013431
    13  H    0.000004  -0.000236  -0.000005  -0.000141  -0.000103   0.004249
    14  H   -0.000012   0.000667   0.000304  -0.000229   0.000541   0.005316
    15  H   -0.000008  -0.000235   0.000012   0.000036   0.000002  -0.000573
    16  H   -0.000093  -0.000129   0.000004  -0.000594   0.000010  -0.000353
    17  H    0.000402   0.000874   0.000182   0.006373  -0.001946  -0.000479
    18  H   -0.001763  -0.000551   0.000008  -0.000487   0.000013  -0.000122
    19  H    0.001358   0.004095  -0.001821  -0.000409  -0.000008  -0.000707
              13         14         15         16         17         18
     1  Cr  -0.005568  -0.007103  -0.004830  -0.006656  -0.006955  -0.006192
     2  O    0.000067  -0.000251   0.001478   0.005346  -0.000373   0.000022
     3  H   -0.000002  -0.000020  -0.000073  -0.001286  -0.000060   0.000003
     4  O    0.002102  -0.000547   0.003783  -0.000141  -0.000245   0.003866
     5  H   -0.000052  -0.000002  -0.001878  -0.000024  -0.000005   0.000351
     6  O   -0.000086  -0.000174  -0.000554   0.001035   0.000238   0.003306
     7  H    0.000004  -0.000012  -0.000008  -0.000093   0.000402  -0.001763
     8  O   -0.000236   0.000667  -0.000235  -0.000129   0.000874  -0.000551
     9  H   -0.000005   0.000304   0.000012   0.000004   0.000182   0.000008
    10  O   -0.000141  -0.000229   0.000036  -0.000594   0.006373  -0.000487
    11  H   -0.000103   0.000541   0.000002   0.000010  -0.001946   0.000013
    12  O    0.004249   0.005316  -0.000573  -0.000353  -0.000479  -0.000122
    13  H    0.008189  -0.001456  -0.000054  -0.000010   0.000011  -0.000011
    14  H   -0.001456   0.009059   0.000010   0.000012  -0.000040   0.000004
    15  H   -0.000054   0.000010   0.008791   0.000254   0.000001   0.000266
    16  H   -0.000010   0.000012   0.000254   0.008520   0.000001   0.000112
    17  H    0.000011  -0.000040   0.000001   0.000001   0.007803  -0.000076
    18  H   -0.000011   0.000004   0.000266   0.000112  -0.000076   0.010224
    19  H    0.000006  -0.000088  -0.000033  -0.000012  -0.000030  -0.000050
              19
     1  Cr  -0.007934
     2  O   -0.000215
     3  H    0.000004
     4  O    0.000303
     5  H    0.000345
     6  O    0.003060
     7  H    0.001358
     8  O    0.004095
     9  H   -0.001821
    10  O   -0.000409
    11  H   -0.000008
    12  O   -0.000707
    13  H    0.000006
    14  H   -0.000088
    15  H   -0.000033
    16  H   -0.000012
    17  H   -0.000030
    18  H   -0.000050
    19  H    0.009891
 Mulliken charges and spin densities:
               1          2
     1  Cr   1.503696   2.968669
     2  O   -0.690623  -0.006932
     3  H    0.469253   0.007303
     4  O   -0.677865  -0.007459
     5  H    0.457504   0.006167
     6  O   -0.627436  -0.011142
     7  H    0.442282   0.006933
     8  O   -0.649039  -0.009505
     9  H    0.462477   0.007651
    10  O   -0.674641  -0.010252
    11  H    0.461461   0.007330
    12  O   -0.683917  -0.006401
    13  H    0.476949   0.006905
    14  H    0.438404   0.005993
    15  H    0.471389   0.006394
    16  H    0.450995   0.005992
    17  H    0.458843   0.005676
    18  H    0.465821   0.008922
    19  H    0.444448   0.007756
 Sum of Mulliken charges =   3.00000   3.00000
 Mulliken charges and spin densities with hydrogens summed into heavy atoms:
               1          2
     1  Cr   1.503696   2.968669
     2  O    0.229625   0.006363
     4  O    0.251028   0.005102
     6  O    0.280667   0.004713
     8  O    0.257886   0.005902
    10  O    0.245663   0.002754
    12  O    0.231435   0.006498
 APT charges:
               1
     1  Cr   1.868051
     2  O   -0.584015
     3  H    0.407143
     4  O   -0.553024
     5  H    0.366390
     6  O   -0.554765
     7  H    0.357088
     8  O   -0.555937
     9  H    0.371653
    10  O   -0.549244
    11  H    0.374537
    12  O   -0.575323
    13  H    0.410632
    14  H    0.365333
    15  H    0.380487
    16  H    0.375207
    17  H    0.367589
    18  H    0.372036
    19  H    0.356162
 Sum of APT charges =   3.00000
 APT charges with hydrogens summed into heavy atoms:
               1
     1  Cr   1.868051
     2  O    0.198335
     4  O    0.193852
     6  O    0.174359
     8  O    0.171878
    10  O    0.192882
    12  O    0.200642
 Electronic spatial extent (au):  <R**2>=            837.9838
 Charge=              3.0000 electrons
 Dipole moment (field-independent basis, Debye):
    X=              2.3763    Y=              3.7992    Z=             -1.0311  Tot=              4.5982
 Quadrupole moment (field-independent basis, Debye-Ang):
   XX=            -11.4271   YY=            -15.2305   ZZ=            -26.0973
   XY=             -4.3009   XZ=             -1.6222   YZ=             -0.9844
 Traceless Quadrupole moment (field-independent basis, Debye-Ang):
   XX=              6.1579   YY=              2.3544   ZZ=             -8.5123
   XY=             -4.3009   XZ=             -1.6222   YZ=             -0.9844
 Octapole moment (field-independent basis, Debye-Ang**2):
  XXX=             18.7720  YYY=             17.8947  ZZZ=              5.0311  XYY=              4.3309
  XXY=              9.3392  XXZ=              3.2110  XZZ=             -8.1230  YZZ=             -3.2649
  YYZ=            -14.7909  XYZ=             -3.2603
 Hexadecapole moment (field-independent basis, Debye-Ang**3):
 XXXX=           -163.4378 YYYY=           -171.8533 ZZZZ=           -211.1875 XXXY=            -21.9719
 XXXZ=              2.2893 YYYX=             -8.8313 YYYZ=             11.7002 ZZZX=            -16.6520
 ZZZY=            -15.9648 XXYY=            -45.9482 XXZZ=            -51.9685 YYZZ=            -49.8816
 XXYZ=             -0.7491 YYXZ=              3.5406 ZZXY=              2.0096
 N-N= 7.344111157916D+02 E-N=-4.979640918699D+03  KE= 1.499205631275D+03
  Exact polarizability:      50.589      -0.594      49.676      -0.564      -0.043      46.523
 Approx polarizability:      70.081      -0.899      68.945      -1.012      -0.161      64.049
                          Isotropic Fermi Contact Couplings
        Atom                 a.u.       MegaHertz       Gauss      10(-4) cm-1
     1  Cr(53)            -0.19844      16.74620       5.97546       5.58593
     2  O(17)             -0.00709       1.43229       0.51108       0.47776
     3  H(1)               0.00483       7.19136       2.56606       2.39878
     4  O(17)             -0.01080       2.18275       0.77886       0.72809
     5  H(1)               0.00442       6.58036       2.34804       2.19497
     6  O(17)             -0.00947       1.91333       0.68272       0.63822
     7  H(1)               0.00451       6.71483       2.39602       2.23983
     8  O(17)             -0.01005       2.03018       0.72442       0.67720
     9  H(1)               0.00493       7.34777       2.62187       2.45095
    10  O(17)             -0.01260       2.54504       0.90813       0.84893
    11  H(1)               0.00512       7.62778       2.72178       2.54435
    12  O(17)             -0.00864       1.74621       0.62309       0.58247
    13  H(1)               0.00477       7.10725       2.53604       2.37072
    14  H(1)               0.00459       6.83881       2.44026       2.28118
    15  H(1)               0.00474       7.06332       2.52037       2.35607
    16  H(1)               0.00446       6.64285       2.37033       2.21582
    17  H(1)               0.00446       6.65172       2.37350       2.21878
    18  H(1)               0.00519       7.73205       2.75899       2.57913
    19  H(1)               0.00457       6.80633       2.42867       2.27035
 --------------------------------------------------------
       Center         ----  Spin Dipole Couplings  ----
                      3XX-RR        3YY-RR        3ZZ-RR
 --------------------------------------------------------
     1   Atom       -0.078502      0.012488      0.066014
     2   Atom       -0.054866      0.019461      0.035405
     3   Atom       -0.007733      0.014235     -0.006502
     4   Atom       -0.020222     -0.038925      0.059147
     5   Atom        0.037586     -0.033045     -0.004541
     6   Atom       -0.022090     -0.038314      0.060405
     7   Atom        0.002302     -0.002835      0.000532
     8   Atom       -0.057615     -0.007255      0.064870
     9   Atom       -0.029113      0.058617     -0.029503
    10   Atom       -0.019217      0.009764      0.009453
    11   Atom        0.042446     -0.015966     -0.026480
    12   Atom        0.018376     -0.005113     -0.013263
    13   Atom       -0.017935     -0.020441      0.038376
    14   Atom        0.019722     -0.026800      0.007078
    15   Atom        0.016081      0.006908     -0.022989
    16   Atom       -0.028050      0.031208     -0.003157
    17   Atom       -0.019604      0.002080      0.017524
    18   Atom        0.051136     -0.032310     -0.018826
    19   Atom       -0.008733      0.038616     -0.029883
 --------------------------------------------------------
                        XY            XZ            YZ
 --------------------------------------------------------
     1   Atom       -0.019270     -0.009227     -0.005826
     2   Atom        0.014032     -0.008861     -0.065439
     3   Atom        0.033883      0.025238      0.034750
     4   Atom       -0.005076     -0.021602     -0.027119
     5   Atom        0.002030      0.043719      0.001295
     6   Atom        0.014062     -0.013655      0.031391
     7   Atom        0.032760     -0.033613     -0.031078
     8   Atom        0.006740      0.015179      0.020295
     9   Atom       -0.017882     -0.003607      0.017155
    10   Atom        0.012109      0.034365      0.039884
    11   Atom       -0.035401      0.021686     -0.010225
    12   Atom        0.064587      0.035393      0.035294
    13   Atom        0.012978     -0.032019     -0.029690
    14   Atom       -0.018440     -0.045846      0.015285
    15   Atom       -0.043956      0.021476     -0.019297
    16   Atom       -0.016894     -0.011304      0.043832
    17   Atom       -0.021557      0.026050     -0.041836
    18   Atom       -0.001488     -0.033823      0.001025
    19   Atom        0.041761      0.007454      0.012135
 --------------------------------------------------------


 ---------------------------------------------------------------------------------
              Anisotropic Spin Dipole Couplings in Principal Axis System
 ---------------------------------------------------------------------------------

       Atom             a.u.   MegaHertz   Gauss  10(-4) cm-1        Axes

              Baa    -0.0831     2.512     0.896     0.838  0.9772  0.2011  0.0683
     1 Cr(53) Bbb     0.0161    -0.487    -0.174    -0.162 -0.2061  0.9756  0.0758
              Bcc     0.0670    -2.025    -0.723    -0.675 -0.0514 -0.0881  0.9948
 
              Baa    -0.0577     4.173     1.489     1.392  0.9670 -0.2424 -0.0784
     2 O(17)  Bbb    -0.0374     2.705     0.965     0.902  0.2318  0.7092  0.6658
              Bcc     0.0951    -6.878    -2.454    -2.294 -0.1058 -0.6620  0.7420
 
              Baa    -0.0324   -17.287    -6.168    -5.766  0.1631 -0.6630  0.7307
     3 H(1)   Bbb    -0.0324   -17.264    -6.160    -5.759  0.8484 -0.2838 -0.4468
              Bcc     0.0648    34.550    12.328    11.525  0.5036  0.6928  0.5162
 
              Baa    -0.0500     3.615     1.290     1.206  0.3631  0.8848  0.2918
     4 O(17)  Bbb    -0.0205     1.483     0.529     0.495  0.9069 -0.4075  0.1072
              Bcc     0.0704    -5.098    -1.819    -1.700 -0.2138 -0.2257  0.9504
 
              Baa    -0.0331   -17.663    -6.303    -5.892 -0.0124  0.9996 -0.0263
     5 H(1)   Bbb    -0.0320   -17.077    -6.093    -5.696 -0.5322  0.0156  0.8465
              Bcc     0.0651    34.740    12.396    11.588  0.8465  0.0245  0.5318
 
              Baa    -0.0564     4.079     1.456     1.361 -0.4577  0.8437 -0.2803
     6 O(17)  Bbb    -0.0141     1.021     0.364     0.340  0.8833  0.4675 -0.0351
              Bcc     0.0705    -5.100    -1.820    -1.701 -0.1014  0.2637  0.9593
 
              Baa    -0.0331   -17.675    -6.307    -5.896 -0.6795  0.7337 -0.0011
     7 H(1)   Bbb    -0.0319   -17.043    -6.081    -5.685  0.4239  0.3938  0.8156
              Bcc     0.0651    34.717    12.388    11.580  0.5989  0.5537 -0.5786
 
              Baa    -0.0598     4.329     1.545     1.444  0.9906 -0.0858 -0.1066
     8 O(17)  Bbb    -0.0124     0.899     0.321     0.300  0.0551  0.9630 -0.2637
              Bcc     0.0723    -5.229    -1.866    -1.744  0.1253  0.2553  0.9587
 
              Baa    -0.0329   -17.567    -6.268    -5.860  0.6273 -0.0233  0.7784
[...]
    15  H   -0.000037   0.000001   0.263411  -0.000037  -0.000000  -0.000037
    16  H    0.000001   0.000001  -0.000037   0.263463   0.000001  -0.000038
    17  H    0.000001  -0.000038  -0.000000   0.000001   0.263416   0.000001
    18  H    0.000000  -0.000000  -0.000037  -0.000038   0.000001   0.263398
    19  H    0.000001   0.000001   0.000001   0.000000  -0.000037  -0.000037
              19
     1  Cr  -0.012861
     2  O   -0.000433
     3  H   -0.000000
     4  O    0.001156
     5  H   -0.000037
     6  O    0.002566
     7  H   -0.000037
     8  O    0.301746
     9  H   -0.012577
    10  O    0.001154
    11  H    0.000001
    12  O    0.000874
    13  H    0.000001
    14  H    0.000001
    15  H    0.000001
    16  H    0.000000
    17  H   -0.000037
    18  H   -0.000037
    19  H    0.263435
          Atomic-Atomic Spin Densities.
               1          2          3          4          5          6
     1  Cr   3.180140  -0.021246  -0.002339  -0.021265  -0.002337  -0.021258
     2  O   -0.021246  -0.007878   0.002547   0.005353  -0.000147   0.005370
     3  H   -0.002339   0.002547   0.001206  -0.000114   0.000000  -0.000147
     4  O   -0.021265   0.005353  -0.000114  -0.007862   0.002546   0.005383
     5  H   -0.002337  -0.000147   0.000000   0.002546   0.001205  -0.000115
     6  O   -0.021258   0.005370  -0.000147   0.005383  -0.000115  -0.007868
     7  H   -0.002337  -0.000115   0.000000  -0.000147   0.000000   0.002545
     8  O   -0.021246  -0.002902  -0.000012   0.005348   0.000409   0.005359
     9  H   -0.002339  -0.000011  -0.000000  -0.000116   0.000002  -0.000147
    10  O   -0.021269   0.005354  -0.000113  -0.002898  -0.000012   0.005367
    11  H   -0.002337   0.000410   0.000002  -0.000012   0.000000  -0.000115
    12  O   -0.021259   0.005357   0.000408   0.005376  -0.000116  -0.002901
    13  H   -0.002337  -0.000115   0.000002   0.000409   0.000002  -0.000012
    14  H   -0.002339  -0.000115   0.000002  -0.000147   0.000000  -0.000011
    15  H   -0.002337   0.000408   0.000002   0.002545  -0.000771  -0.000116
    16  H   -0.002339   0.002551  -0.000771  -0.000116   0.000000   0.000409
    17  H   -0.002336  -0.000147   0.000000  -0.000011  -0.000000  -0.000116
    18  H   -0.002339  -0.000115   0.000000   0.000408   0.000002   0.002549
    19  H   -0.002339  -0.000012   0.000000  -0.000114   0.000002   0.000408
               7          8          9         10         11         12
     1  Cr  -0.002337  -0.021246  -0.002339  -0.021269  -0.002337  -0.021259
     2  O   -0.000115  -0.002902  -0.000011   0.005354   0.000410   0.005357
     3  H    0.000000  -0.000012  -0.000000  -0.000113   0.000002   0.000408
     4  O   -0.000147   0.005348  -0.000116  -0.002898  -0.000012   0.005376
     5  H    0.000000   0.000409   0.000002  -0.000012   0.000000  -0.000116
     6  O    0.002545   0.005359  -0.000147   0.005367  -0.000115  -0.002901
     7  H    0.001206  -0.000115   0.000000   0.000409   0.000002  -0.000011
     8  O   -0.000115  -0.007876   0.002551   0.005358  -0.000147   0.005369
     9  H    0.000000   0.002551   0.001200  -0.000117   0.000000   0.000409
    10  O    0.000409   0.005358  -0.000117  -0.007841   0.002545   0.005374
    11  H    0.000002  -0.000147   0.000000   0.002545   0.001204  -0.000116
    12  O   -0.000011   0.005369   0.000409   0.005374  -0.000116  -0.007863
    13  H    0.000000  -0.000115   0.000002  -0.000147   0.000000   0.002545
    14  H   -0.000000  -0.000116   0.000002   0.000408   0.000002   0.002550
    15  H    0.000000  -0.000147   0.000000  -0.000011  -0.000000  -0.000115
    16  H    0.000002  -0.000011   0.000000  -0.000117   0.000002  -0.000147
    17  H    0.000002   0.000409   0.000002   0.002545  -0.000771  -0.000115
    18  H   -0.000771  -0.000116   0.000000  -0.000147   0.000000  -0.000012
    19  H    0.000002   0.002546  -0.000771  -0.000113   0.000000  -0.000147
              13         14         15         16         17         18
     1  Cr  -0.002337  -0.002339  -0.002337  -0.002339  -0.002336  -0.002339
     2  O   -0.000115  -0.000115   0.000408   0.002551  -0.000147  -0.000115
     3  H    0.000002   0.000002   0.000002  -0.000771   0.000000   0.000000
     4  O    0.000409  -0.000147   0.002545  -0.000116  -0.000011   0.000408
     5  H    0.000002   0.000000  -0.000771   0.000000  -0.000000   0.000002
     6  O   -0.000012  -0.000011  -0.000116   0.000409  -0.000116   0.002549
     7  H    0.000000  -0.000000   0.000000   0.000002   0.000002  -0.000771
     8  O   -0.000115  -0.000116  -0.000147  -0.000011   0.000409  -0.000116
     9  H    0.000002   0.000002   0.000000   0.000000   0.000002   0.000000
    10  O   -0.000147   0.000408  -0.000011  -0.000117   0.002545  -0.000147
    11  H    0.000000   0.000002  -0.000000   0.000002  -0.000771   0.000000
    12  O    0.002545   0.002550  -0.000115  -0.000147  -0.000115  -0.000012
    13  H    0.001205  -0.000771   0.000002   0.000000   0.000000  -0.000000
    14  H   -0.000771   0.001203   0.000000   0.000000   0.000002   0.000000
    15  H    0.000002   0.000000   0.001203   0.000002   0.000000   0.000002
    16  H    0.000000   0.000000   0.000002   0.001200   0.000000   0.000002
    17  H    0.000000   0.000002   0.000000   0.000000   0.001203   0.000000
    18  H   -0.000000   0.000000   0.000002   0.000002   0.000000   0.001201
    19  H    0.000000   0.000000   0.000000  -0.000000   0.000002   0.000002
              19
     1  Cr  -0.002339
     2  O   -0.000012
     3  H    0.000000
     4  O   -0.000114
     5  H    0.000002
     6  O    0.000408
     7  H    0.000002
     8  O    0.002546
     9  H   -0.000771
    10  O   -0.000113
    11  H    0.000000
    12  O   -0.000147
    13  H    0.000000
    14  H    0.000000
    15  H    0.000000
    16  H   -0.000000
    17  H    0.000002
    18  H    0.000002
    19  H    0.001206
 Mulliken charges and spin densities:
               1          2
     1  Cr   1.651183   3.024543
     2  O   -0.685243  -0.005452
     3  H    0.455084   0.000673
     4  O   -0.685562  -0.005435
     5  H    0.455089   0.000673
     6  O   -0.685300  -0.005417
     7  H    0.455017   0.000673
     8  O   -0.685249  -0.005451
     9  H    0.455061   0.000668
    10  O   -0.685516  -0.005425
    11  H    0.455078   0.000673
    12  O   -0.685290  -0.005415
    13  H    0.455004   0.000672
    14  H    0.455157   0.000670
    15  H    0.455107   0.000670
    16  H    0.455057   0.000668
    17  H    0.455095   0.000670
    18  H    0.455147   0.000670
    19  H    0.455081   0.000673
 Sum of Mulliken charges =   3.00000   3.00000
 Mulliken charges and spin densities with hydrogens summed into heavy atoms:
               1          2
     1  Cr   1.651183   3.024543
     2  O    0.224898  -0.004111
     4  O    0.224634  -0.004092
     6  O    0.224864  -0.004074
     8  O    0.224893  -0.004110
    10  O    0.224657  -0.004083
    12  O    0.224871  -0.004073
 Electronic spatial extent (au):  <R**2>=           1008.7633
 Charge=              3.0000 electrons
 Dipole moment (field-independent basis, Debye):
    X=              0.0001    Y=              0.0002    Z=             -0.0001  Tot=              0.0003
 Quadrupole moment (field-independent basis, Debye-Ang):
   XX=             -7.9710   YY=             -7.9671   ZZ=             -7.9642
   XY=             -0.0004   XZ=              0.0032   YZ=             -0.0062
 Traceless Quadrupole moment (field-independent basis, Debye-Ang):
   XX=             -0.0036   YY=              0.0003   ZZ=              0.0033
   XY=             -0.0004   XZ=              0.0032   YZ=             -0.0062
 Octapole moment (field-independent basis, Debye-Ang**2):
  XXX=              0.0002  YYY=             -0.0073  ZZZ=              0.0154  XYY=             -0.0056
  XXY=              0.0062  XXZ=             -0.0077  XZZ=              0.0040  YZZ=              0.0040
  YYZ=             -0.0061  XYZ=              0.0056
 Hexadecapole moment (field-independent basis, Debye-Ang**3):
 XXXX=           -176.6360 YYYY=           -151.4804 ZZZZ=           -174.0875 XXXY=              1.2586
 XXXZ=             23.0141 YYYX=              5.2756 YYYZ=              1.9277 ZZZX=             25.5255
 ZZZY=              2.5860 XXYY=            -32.5661 XXZZ=             -9.8295 YYZZ=            -34.8943
 XXYZ=             -4.5801 YYXZ=            -48.5162 ZZXY=             -6.5367
 N-N= 6.669246615143D+02 E-N=-4.846009775572D+03  KE= 1.497077628332D+03
                          Isotropic Fermi Contact Couplings
        Atom                 a.u.       MegaHertz       Gauss      10(-4) cm-1
     1  Cr(53)            -0.05369       4.53101       1.61678       1.51138
     2  O(17)             -0.02975       6.01067       2.14476       2.00494
     3  H(1)               0.00048       0.71632       0.25560       0.23894
     4  O(17)             -0.02976       6.01278       2.14551       2.00565
     5  H(1)               0.00048       0.71580       0.25542       0.23877
     6  O(17)             -0.02977       6.01453       2.14613       2.00623
     7  H(1)               0.00048       0.71572       0.25539       0.23874
     8  O(17)             -0.02975       6.01067       2.14476       2.00494
     9  H(1)               0.00048       0.71156       0.25390       0.23735
    10  O(17)             -0.02975       6.01237       2.14536       2.00551
    11  H(1)               0.00048       0.71481       0.25506       0.23843
    12  O(17)             -0.02976       6.01434       2.14606       2.00617
    13  H(1)               0.00048       0.71461       0.25499       0.23837
    14  H(1)               0.00048       0.71398       0.25477       0.23816
    15  H(1)               0.00048       0.71333       0.25453       0.23794
    16  H(1)               0.00048       0.71145       0.25386       0.23731
    17  H(1)               0.00048       0.71250       0.25424       0.23767
    18  H(1)               0.00048       0.71293       0.25439       0.23781
    19  H(1)               0.00048       0.71613       0.25553       0.23888
 --------------------------------------------------------
       Center         ----  Spin Dipole Couplings  ----
                      3XX-RR        3YY-RR        3ZZ-RR
 --------------------------------------------------------
     1   Atom       -0.000291     -0.000036      0.000327
     2   Atom       -0.011928      0.015111     -0.003183
     3   Atom        0.024701     -0.020246     -0.004455
     4   Atom       -0.014326      0.037991     -0.023665
     5   Atom        0.009519      0.009042     -0.018562
     6   Atom        0.026113     -0.052630      0.026516
     7   Atom       -0.014709      0.032506     -0.017797
     8   Atom       -0.011487      0.014392     -0.002905
     9   Atom       -0.006851     -0.016959      0.023811
    10   Atom       -0.013168      0.037885     -0.024717
    11   Atom        0.009392      0.009246     -0.018638
    12   Atom        0.025625     -0.052718      0.027093
    13   Atom       -0.014780      0.032538     -0.017758
    14   Atom        0.007151     -0.010258      0.003107
    15   Atom       -0.019614      0.005901      0.013713
    16   Atom       -0.006903     -0.016976      0.023878
    17   Atom       -0.019538      0.005703      0.013835
    18   Atom        0.007078     -0.010271      0.003193
    19   Atom        0.024622     -0.020231     -0.004391
 --------------------------------------------------------
                        XY            XZ            YZ
 --------------------------------------------------------
     1   Atom       -0.000040     -0.000033     -0.000114
     2   Atom       -0.062401     -0.026581      0.064965
     3   Atom        0.009636      0.029271      0.007697
     4   Atom        0.054397     -0.053682     -0.045232
     5   Atom       -0.031056     -0.013263      0.011380
     6   Atom        0.007682      0.080446     -0.019884
     7   Atom        0.020970     -0.004664     -0.016480
     8   Atom       -0.062477     -0.026952      0.064874
     9   Atom       -0.010615      0.027073     -0.015212
    10   Atom        0.055177     -0.053619     -0.044412
    11   Atom       -0.031072     -0.013163      0.011370
    12   Atom        0.008064      0.080458     -0.019537
    13   Atom        0.020909     -0.004661     -0.016530
    14   Atom        0.020107     -0.026166     -0.018870
    15   Atom       -0.009017     -0.012244      0.031512
    16   Atom       -0.010575      0.027067     -0.015179
    17   Atom       -0.009039     -0.012347      0.031482
    18   Atom        0.020064     -0.026184     -0.018906
    19   Atom        0.009694      0.029284      0.007749
 --------------------------------------------------------


 ---------------------------------------------------------------------------------
              Anisotropic Spin Dipole Couplings in Principal Axis System
 ---------------------------------------------------------------------------------

       Atom             a.u.   MegaHertz   Gauss  10(-4) cm-1        Axes

              Baa    -0.0003     0.009     0.003     0.003  0.9791  0.1852  0.0845
     1 Cr(53) Bbb    -0.0001     0.002     0.001     0.001 -0.2012  0.9439  0.2620
              Bcc     0.0004    -0.011    -0.004    -0.004 -0.0312 -0.2735  0.9614
 
              Baa    -0.0731     5.289     1.887     1.764  0.5266  0.7132 -0.4626
     2 O(17)  Bbb    -0.0342     2.474     0.883     0.825  0.6993 -0.0541  0.7128
              Bcc     0.1073    -7.763    -2.770    -2.590 -0.4834  0.6988  0.5273
 
              Baa    -0.0240   -12.808    -4.570    -4.272  0.2671  0.6909 -0.6718
     3 H(1)   Bbb    -0.0211   -11.265    -4.019    -3.757 -0.4836  0.6991  0.5267
              Bcc     0.0451    24.073     8.590     8.030  0.8336  0.1842  0.5208
 
              Baa    -0.0731     5.287     1.886     1.763  0.6998 -0.0527  0.7124
     4 O(17)  Bbb    -0.0341     2.467     0.880     0.823 -0.4849  0.6972  0.5279
              Bcc     0.1072    -7.754    -2.767    -2.586  0.5245  0.7149 -0.4624
 
              Baa    -0.0240   -12.807    -4.570    -4.272  0.5014  0.1798  0.8463
     5 H(1)   Bbb    -0.0211   -11.263    -4.019    -3.757  0.5245  0.7148 -0.4626
              Bcc     0.0451    24.069     8.589     8.029  0.6881 -0.6758 -0.2641
 
              Baa    -0.0731     5.288     1.887     1.764 -0.4836  0.6968  0.5297
     6 O(17)  Bbb    -0.0342     2.472     0.882     0.824  0.5249  0.7152 -0.4616
              Bcc     0.1072    -7.760    -2.769    -2.588  0.7005 -0.0548  0.7116
 
              Baa    -0.0240   -12.806    -4.569    -4.272 -0.6281  0.4235  0.6528
     7 H(1)   Bbb    -0.0211   -11.260    -4.018    -3.756  0.7012 -0.0558  0.7108
              Bcc     0.0451    24.066     8.587     8.028  0.3374  0.9042 -0.2619
 
              Baa    -0.0731     5.289     1.887     1.764  0.5248  0.7161 -0.4603
     8 O(17)  Bbb    -0.0342     2.474     0.883     0.825  0.6989 -0.0537  0.7132
              Bcc     0.1073    -7.764    -2.770    -2.590 -0.4860  0.6960  0.5286
 
              Baa    -0.0240   -12.805    -4.569    -4.271  0.7248  0.6590 -0.2007
     9 H(1)   Bbb    -0.0211   -11.259    -4.017    -3.756 -0.4862  0.6958  0.5287
              Bcc     0.0451    24.064     8.587     8.027  0.4881 -0.2856  0.8247
 
              Baa    -0.0731     5.289     1.887     1.764  0.6952 -0.0590  0.7164
    10 O(17)  Bbb    -0.0341     2.469     0.881     0.824 -0.4849  0.6972  0.5280
              Bcc     0.1072    -7.758    -2.768    -2.588  0.5306  0.7144 -0.4561
 
              Baa    -0.0240   -12.807    -4.570    -4.272  0.4956  0.1720  0.8513
    11 H(1)   Bbb    -0.0211   -11.264    -4.019    -3.757  0.5320  0.7146 -0.4541
              Bcc     0.0451    24.071     8.589     8.029  0.6865 -0.6780 -0.2627
 
              Baa    -0.0731     5.288     1.887     1.764 -0.4861  0.6975  0.5265
    12 O(17)  Bbb    -0.0342     2.472     0.882     0.825  0.5252  0.7147 -0.4619
              Bcc     0.1072    -7.760    -2.769    -2.589  0.6985 -0.0520  0.7138
 
              Baa    -0.0240   -12.807    -4.570    -4.272 -0.6318  0.4234  0.6492
    13 H(1)   Bbb    -0.0211   -11.263    -4.019    -3.757  0.6984 -0.0523  0.7138
              Bcc     0.0451    24.070     8.589     8.029  0.3362  0.9044 -0.2627
 
              Baa    -0.0240   -12.806    -4.569    -4.272 -0.2870  0.8936  0.3450
    14 H(1)   Bbb    -0.0211   -11.261    -4.018    -3.756  0.6980 -0.0515  0.7142
              Bcc     0.0451    24.067     8.588     8.028  0.6560  0.4458 -0.6090
 
              Baa    -0.0240   -12.806    -4.569    -4.271  0.8204 -0.2787  0.4992
    15 H(1)   Bbb    -0.0211   -11.261    -4.018    -3.756  0.5244  0.7149 -0.4626
              Bcc     0.0451    24.066     8.587     8.028 -0.2280  0.6413  0.7326
 
              Baa    -0.0240   -12.806    -4.569    -4.272  0.7274  0.6554 -0.2034
    16 H(1)   Bbb    -0.0211   -11.260    -4.018    -3.756 -0.4830  0.6995  0.5267
              Bcc     0.0451    24.065     8.587     8.027  0.4875 -0.2849  0.8254
 
              Baa    -0.0240   -12.806    -4.569    -4.272  0.8146 -0.2865  0.5042
    17 H(1)   Bbb    -0.0211   -11.261    -4.018    -3.756  0.5326  0.7137 -0.4549
              Bcc     0.0451    24.067     8.588     8.028 -0.2296  0.6391  0.7340
 
              Baa    -0.0240   -12.807    -4.570    -4.272 -0.2832  0.8935  0.3485
    18 H(1)   Bbb    -0.0211   -11.263    -4.019    -3.757  0.7005 -0.0555  0.7115
              Bcc     0.0451    24.070     8.589     8.029  0.6551  0.4456 -0.6102
 
              Baa    -0.0240   -12.809    -4.570    -4.273  0.2647  0.6941 -0.6694
    19 H(1)   Bbb    -0.0211   -11.265    -4.020    -3.758 -0.4861  0.6956  0.5290
              Bcc     0.0451    24.074     8.590     8.030  0.8328  0.1854  0.5216
 

 ---------------------------------------------------------------------------------

 No NMR shielding tensors so no spin-rotation constants.
 Leave Link  601 at Thu May 23 14:49:14 2024, MaxMem= 26843545600 cpu:              28.9 elap:               0.3
 (Enter /gpfs/fs1/soft/improv/software/custom-built/gaussian/g16/l9999.exe)
 Unable to Open any file for archive entry.
 1\1\GINC-I219\SP\UHSEH1PBE\Gen\Cr1H12O6(3+,4)\HHARB\23-May-2024\0\\#p 
 HSEH1PBE scf=(maxcycles=500,xqc,maxconventional=50) scrf=(cpcm,solvent
 =water) geom=allcheck guess=read chkbasis\\Title\\3,4\Cr,-0.7848499721
 ,0.7129279544,0.0317695421\O,-1.3278522123,2.6068020913,-0.2807497003\
 H,-1.4513233547,3.0308461008,-1.1473065308\O,1.1328372288,1.2623154091
 ,0.0318857322\H,1.8967249172,0.6732002425,0.1559637106\O,-0.8707282928
 ,1.0130793151,2.0020208896\H,-1.650682657,0.8803775219,2.5677383163\O,
 -0.2421667232,-1.1810194741,0.3443923916\H,-0.0510398672,-1.8426570023
 ,-0.3423987763\O,-2.7025221029,0.1635914805,0.0316425555\H,-3.46669574
 63,0.7538484553,-0.0849377141\O,-0.6984759208,0.4129154105,-1.93847991
 15\H,0.0827295939,0.5423754112,-2.5032235821\H,-1.4301210747,0.1118515
 86,-2.5042027661\H,1.4691806983,2.166473266,-0.0919894101\H,-1.5158949
 024,3.2692388621,0.4061214409\H,-3.038598362,-0.7416504452,0.148034129
 4\H,-0.1397391441,1.317556576,2.5667651612\H,-0.1222996756,-1.60599299
 11,1.210999932\\Version=ES64L-G16RevC.02\State=4-A\HF=-1502.0433307\S2
 =3.760046\S2-1=0.\S2A=3.75004\RMSD=4.271e-09\Dipole=-0.0000274,0.00002
 68,0.0001011\Quadrupole=-0.0032835,0.0030043,0.0002792,-0.0027028,-0.0
 02077,0.0034759\PG=C01 [X(Cr1H12O6)]\\@
 The archive entry for this job was punched.


 In the beginning the Universe was created.
 This has made a lot of people very angry
 and been widely regarded as a bad move.
                               -D.Adams
 Job cpu time:       0 days  1 hours 39 minutes 58.8 seconds.
 Elapsed time:       0 days  0 hours  0 minutes 50.9 seconds.
 File lengths (MBytes):  RWF=    119 Int=      0 D2E=      0 Chk=     32 Scr=      1
 Normal termination of Gaussian 16 at Thu May 23 14:49:14 2024.
