      -----------------------------------------------------------      
     |                   =====================                   |     
     |                           x T B                           |     
     |                   =====================                   |     
     |                         S. Grimme                         |     
     |          Mulliken Center for Theoretical Chemistry        |     
     |                    University of Bonn                     |     
      -----------------------------------------------------------      

   * xtb version 6.6.0 (conda-forge) compiled by 'runner@Mac-1676020848589.local' on 2023-02-10

   xtb is free software: you can redistribute it and/or modify it under
   the terms of the GNU Lesser General Public License as published by
   the Free Software Foundation, either version 3 of the License, or
   (at your option) any later version.
   
   xtb is distributed in the hope that it will be useful,
   but WITHOUT ANY WARRANTY; without even the implied warranty of
   MERCHANTABILITY or FITNESS FOR A PARTICULAR PURPOSE.  See the
   GNU Lesser General Public License for more details.
   
   Cite this work as:
   * C. Bannwarth, E. Caldeweyher, S. Ehlert, A. Hansen, P. Pracht,
     J. Seibert, S. Spicher, S. Grimme, WIREs Comput. Mol. Sci., 2020, 11,
     e01493. DOI: 10.1002/wcms.1493
   
   for GFN2-xTB:
   * C. Bannwarth, S. Ehlert and S. Grimme., J. Chem. Theory Comput., 2019,
     15, 1652-1671. DOI: 10.1021/acs.jctc.8b01176
   for GFN1-xTB:
   * S. Grimme, C. Bannwarth, P. Shushkov, J. Chem. Theory Comput., 2017,
     13, 1989-2009. DOI: 10.1021/acs.jctc.7b00118
   for GFN0-xTB:
   * P. Pracht, E. Caldeweyher, S. Ehlert, S. Grimme, ChemRxiv, 2019, preprint.
     DOI: 10.26434/chemrxiv.8326202.v1
   for GFN-FF:
   * S. Spicher and S. Grimme, Angew. Chem. Int. Ed., 2020, 59, 15665-15673.
     DOI: 10.1002/anie.202004239
   
   for ALPB and GBSA implicit solvation:
   * S. Ehlert, M. Stahn, S. Spicher, S. Grimme, J. Chem. Theory Comput.,
     2021, 17, 4250-4261. DOI: 10.1021/acs.jctc.1c00471
   
   for DFT-D4:
   * E. Caldeweyher, C. Bannwarth and S. Grimme, J. Chem. Phys., 2017,
     147, 034112. DOI: 10.1063/1.4993215
   * E. Caldeweyher, S. Ehlert, A. Hansen, H. Neugebauer, S. Spicher,
     C. Bannwarth and S. Grimme, J. Chem. Phys., 2019, 150, 154122.
     DOI: 10.1063/1.5090222
   * E. Caldeweyher, J.-M. Mewes, S. Ehlert and S. Grimme, Phys. Chem. Chem. Phys.
     2020, 22, 8499-8512. DOI: 10.1039/D0CP00502A
   
   for sTDA-xTB:
   * S. Grimme and C. Bannwarth, J. Chem. Phys., 2016, 145, 054103.
     DOI: 10.1063/1.4959605
   
   in the mass-spec context:
   * V. Asgeirsson, C. Bauer and S. Grimme, Chem. Sci., 2017, 8, 4879.
     DOI: 10.1039/c7sc00601b
   * J. Koopman and S. Grimme, ACS Omega 2019, 4, 12, 15120-15133.
     DOI: 10.1021/acsomega.9b02011
   
   for metadynamics refer to:
   * S. Grimme, J. Chem. Theory Comput., 2019, 155, 2847-2862
     DOI: 10.1021/acs.jctc.9b00143
   
   for SPH calculations refer to:
   * S. Spicher and S. Grimme, J. Chem. Theory Comput., 2021, 17, 1701-1714
     DOI: 10.1021/acs.jctc.0c01306
   
   with help from (in alphabetical order)
   P. Atkinson, C. Bannwarth, F. Bohle, G. Brandenburg, E. Caldeweyher
   M. Checinski, S. Dohm, S. Ehlert, S. Ehrlich, I. Gerasimov, C. Hölzer
   A. Katbashev, J. Koopman, C. Lavigne, S. Lehtola, F. März, M. Müller,
   F. Musil, H. Neugebauer, J. Pisarek, C. Plett, P. Pracht, F. Pultar,
   J. Seibert, P. Shushkov, S. Spicher, M. Stahn, M. Steiner, T. Strunk,
   J. Stückrath, T. Rose, and J. Unsleber
   
 * started run on 2024/05/10 at 18:23:13.984     

           -------------------------------------------------
          |                Calculation Setup                |
           -------------------------------------------------

          program call               : xtb Fe_39H2O_solvated_radius_9_2_5.xyz --gfn2 --chrg 2 --uhf 5 --hess --alpb water
          coordinate file            : Fe_39H2O_solvated_radius_9_2_5.xyz
          omp threads                :                     8

   ID    Z sym.   atoms
    1   26 Fe     1
    2    8 O      2-7, 20-31, 56, 59, 62, 65, 68, 71, 74, 77, 80, 83, 86, 89,
                  92, 95, 98, 101, 104, 107, 110, 113, 116, 119, 122, 125,
                  128, 131, 134, 137, 140, 143, 146, 149, 152, 155, 158, 161,
                  164, 167, 170, 173, 176, 179, 182, 185, 188, 191, 194, 197
    3    1 H      8-19, 32-55, 57, 58, 60, 61, 63, 64, 66, 67, 69, 70, 72,
                  73, 75, 76, 78, 79, 81, 82, 84, 85, 87, 88, 90, 91, 93, 94,
                  96, 97, 99, 100, 102, 103, 105, 106, 108, 109, 111, 112,
                  114, 115, 117, 118, 120, 121, 123, 124, 126, 127, 129, 130,
                  132, 133, 135, 136, 138, 139, 141, 142, 144, 145, 147, 148,
                  150, 151, 153, 154, 156, 157, 159, 160, 162, 163, 165, 166,
                  168, 169, 171, 172, 174, 175, 177, 178, 180, 181, 183, 184,
                  186, 187, 189, 190, 192, 193, 195, 196, 198, 199

molecular fragmentation (1/2 indicates fragments):
112222222221222222222222222222222222222222222222222222222222222222222222
222222222222222222222222222222222222222222222222222222222222222222222222
2222222222222222222222222222222222222222222222222222222
# atoms in fragment 1/2:     3   196
 fragment masses (1/2) :       72.85     1172.00
CMA distance (Bohr)    :   1.815
constraining FC (au)   :  0.0500

           -------------------------------------------------
          |                 G F N 2 - x T B                 |
           -------------------------------------------------

        Reference                      10.1021/acs.jctc.8b01176
      * Hamiltonian:
        H0-scaling (s, p, d)           1.850000    2.230000    2.230000
        zeta-weighting                 0.500000
      * Dispersion:
        s8                             2.700000
        a1                             0.520000
        a2                             5.000000
        s9                             5.000000
      * Repulsion:
        kExp                           1.500000    1.000000
        rExp                           1.000000
      * Coulomb:
        alpha                          2.000000
        third order                    shell-resolved
        anisotropic                    true
        a3                             3.000000
        a5                             4.000000
        cn-shift                       1.200000
        cn-exp                         4.000000
        max-rad                        5.000000

      * Solvation model:               ALPB
        Solvent                        water
        Parameter file                 internal GFN2-xTB/ALPB
        Dielectric constant                8.0200E+01
        Reference state                gsolv [1 M gas/solution]
        Free energy shift                  1.0808E-03 Eh       6.7819E-01 kcal/mol
        Temperature                        2.9815E+02 K
        Density                            1.0000E+00 kg/L
        Solvent mass                       1.8000E+01 g/mol
        Interaction kernel             P16
        Born radius scaling (c1)           1.4744E+00
        Born radii integrator          GBOBC
        Born offset                        0.0000E+00 a0       0.0000E+00 AA
        H-bond correction              true
        Ion screening                  false
        Surface tension                    1.0000E-05 Eh       1.5569E+01 dyn/cm
        Grid points                               230 per atom
q/qsh data taken from xtbrestart
CAMM data taken from xtbrestart

          ...................................................
          :                      SETUP                      :
          :.................................................:
          :  # basis functions                 406          :
          :  # atomic orbitals                 405          :
          :  # shells                          267          :
          :  # electrons                       534          :
          :  max. iterations                   250          :
          :  Hamiltonian                  GFN2-xTB          :
          :  restarted?                       true          :
          :  GBSA solvation                   true          :
          :  PC potential                    false          :
          :  electronic temp.          300.0000000     K    :
          :  accuracy                    1.0000000          :
          :  -> integral cutoff          0.2500000E+02      :
          :  -> integral neglect         0.1000000E-07      :
          :  -> SCF convergence          0.1000000E-05 Eh   :
          :  -> wf. convergence          0.1000000E-03 e    :
          :  Broyden damping             0.4000000          :
          ...................................................

 iter      E             dE          RMSdq      gap      omega  full diag
   1   -340.8215620 -0.340822E+03  0.355E-06    7.17       0.0  T
   2   -340.8215620  0.000000E+00  0.470E-06    7.17    1507.5  T
   3   -340.8215620 -0.153477E-11  0.140E-06    7.17    5074.5  T

   *** convergence criteria satisfied after 3 iterations ***

         #    Occupation            Energy/Eh            Energy/eV
      -------------------------------------------------------------
         1        2.0000           -0.6688172             -18.1994
       ...           ...                  ...                  ...
       263        2.0000           -0.3810293             -10.3683
       264        2.0000           -0.3791850             -10.3181
       265        1.6260           -0.3030862              -8.2474
       266        1.3713           -0.3020965              -8.2205
       267        1.0027           -0.2969967              -8.0817
       268        1.0000           -0.2921745              -7.9505
       269        1.0000           -0.2915185              -7.9326 (HOMO)
       270                         -0.0279294              -0.7600 (LUMO)
       271                          0.0154563               0.4206
       272                          0.0374297               1.0185
       273                          0.0519817               1.4145
       274                          0.0536245               1.4592
       ...                                ...                  ...
       405                          0.9898281              26.9346
      -------------------------------------------------------------
                  HL-Gap            0.2635891 Eh            7.1726 eV
             Fermi-level           -0.2311605 Eh           -6.2902 eV

 SCC (total)                   0 d,  0 h,  0 min,  0.484 sec
 SCC setup                      ...        0 min,  0.009 sec (  1.903%)
 Dispersion                     ...        0 min,  0.006 sec (  1.226%)
 classical contributions        ...        0 min,  0.002 sec (  0.330%)
 integral evaluation            ...        0 min,  0.021 sec (  4.396%)
 iterations                     ...        0 min,  0.119 sec ( 24.626%)
 molecular gradient             ...        0 min,  0.323 sec ( 66.659%)
 printout                       ...        0 min,  0.004 sec (  0.854%)

         :::::::::::::::::::::::::::::::::::::::::::::::::::::
         ::                     SUMMARY                     ::
         :::::::::::::::::::::::::::::::::::::::::::::::::::::
         :: total energy            -338.705266267804 Eh    ::
         :: total w/o Gsasa/hb      -338.218088287246 Eh    ::
         :: gradient norm              0.000041173680 Eh/a0 ::
         :: HOMO-LUMO gap              7.172623794643 eV    ::
         ::.................................................::
         :: SCC energy              -340.821561956702 Eh    ::
         :: -> isotropic ES            2.608854592726 Eh    ::
         :: -> anisotropic ES         -0.305826780783 Eh    ::
         :: -> anisotropic XC         -0.022838637595 Eh    ::
         :: -> dispersion             -0.087421066648 Eh    ::
         :: -> Gsolv                  -0.950674705876 Eh    ::
         ::    -> Gelec               -0.463496725318 Eh    ::
         ::    -> Gsasa                0.052718937484 Eh    ::
         ::    -> Ghb                 -0.540977677740 Eh    ::
         ::    -> Gshift               0.001080759698 Eh    ::
         :: repulsion energy           2.110788348596 Eh    ::
         :: add. restraining           0.000000000000 Eh    ::
         :: total charge               2.000000000000 e     ::
         :::::::::::::::::::::::::::::::::::::::::::::::::::::

           ------------------------------------------------- 
          |                Numerical Hessian                |
           ------------------------------------------------- 
step length          :   0.00500
SCC accuracy         :   0.30000
Hessian scale factor :   1.00000
frozen atoms in %    :   0.00000    0
RMS gradient         :   0.00004
estimated CPU  time    287.13 min
estimated wall time     49.76 min

writing file <hessian>.

 projected vibrational frequencies (cm⁻¹)
eigval :       -0.00    -0.00     0.00     0.00     0.00     0.00
eigval :        7.58    11.77    12.44    13.22    14.95    15.58
eigval :       16.41    18.88    19.06    20.41    21.63    23.02
eigval :       23.55    24.40    24.61    26.28    27.21    27.60
eigval :       28.60    29.32    30.00    30.81    31.65    32.20
eigval :       33.25    33.68    33.79    34.79    35.30    36.54
eigval :       36.91    37.29    37.72    38.43    38.87    39.44
eigval :       40.71    41.34    41.39    42.43    42.57    43.47
eigval :       44.07    44.45    44.96    45.52    46.14    47.66
eigval :       48.62    49.40    49.51    50.22    50.94    51.65
eigval :       52.29    53.44    53.84    54.47    54.90    55.71
eigval :       56.22    56.64    57.10    57.84    59.07    59.70
eigval :       60.35    60.52    61.25    61.58    62.03    62.91
eigval :       63.50    64.36    64.50    64.95    65.31    66.50
eigval :       67.02    67.25    67.87    68.01    68.89    69.33
eigval :       70.05    70.52    71.09    71.86    72.50    73.17
eigval :       73.85    74.29    74.93    75.27    76.62    76.95
eigval :       78.65    79.30    79.92    80.79    81.33    81.70
eigval :       82.70    84.10    84.73    85.72    86.04    87.38
eigval :       87.85    88.66    89.18    89.79    90.33    91.31
eigval :       92.74    93.65    94.31    95.89    97.72    99.41
eigval :      100.88   103.22   105.82   107.87   109.21   112.97
eigval :      115.79   120.55   123.20   127.15   129.95   130.56
eigval :      131.73   134.71   138.96   141.07   142.58   146.17
eigval :      148.75   149.51   151.72   153.75   156.76   157.54
eigval :      159.69   160.84   161.46   162.91   164.68   166.61
eigval :      168.26   169.06   169.79   170.79   173.36   174.09
eigval :      174.37   177.18   178.82   179.68   180.95   183.76
eigval :      184.19   187.46   188.21   191.13   193.32   195.59
eigval :      196.75   199.34   200.10   201.38   202.60   204.00
eigval :      204.94   205.56   206.56   208.01   209.23   209.97
eigval :      211.46   213.51   214.10   214.33   215.45   215.78
eigval :      218.93   220.97   221.07   222.22   225.26   227.09
eigval :      228.07   229.26   230.16   233.12   235.16   235.49
eigval :      237.63   238.54   238.88   239.57   240.13   242.56
eigval :      244.02   244.61   245.58   247.22   249.14   250.18
eigval :      251.72   252.63   253.39   254.58   256.35   256.93
eigval :      257.75   258.18   259.11   260.60   260.86   263.50
eigval :      264.44   268.32   271.73   272.42   278.74   280.52
eigval :      281.31   282.86   283.27   285.84   289.05   290.53
eigval :      293.29   295.70   296.11   298.84   300.86   302.29
eigval :      303.07   303.92   305.34   306.84   307.88   308.25
eigval :      309.65   311.03   311.49   313.05   313.84   316.14
eigval :      318.49   320.18   320.68   324.18   325.56   328.04
eigval :      329.47   330.73   332.05   334.11   335.23   338.50
eigval :      341.11   342.66   344.76   348.91   352.24   354.08
eigval :      354.48   356.98   358.73   359.04   362.04   363.02
eigval :      369.49   374.11   381.36   391.36   394.04   395.31
eigval :      396.60   397.19   401.77   403.83   407.45   408.61
eigval :      418.27   418.88   421.88   425.81   428.95   433.17
eigval :      437.34   438.36   440.89   446.64   447.63   448.96
eigval :      452.12   454.45   458.09   460.35   461.11   462.73
eigval :      468.76   474.79   478.18   483.43   491.33   496.38
eigval :      501.49   507.32   510.90   511.40   512.62   515.85
eigval :      529.12   532.96   534.89   536.99   537.77   539.41
eigval :      543.33   544.95   549.72   553.79   556.07   557.20
eigval :      562.31   564.27   565.20   566.12   567.07   571.28
eigval :      576.87   580.41   582.61   585.51   590.08   593.80
eigval :      594.69   595.85   600.58   603.54   607.64   610.95
eigval :      615.47   616.39   617.32   619.67   624.11   627.01
eigval :      631.11   635.21   641.04   645.70   647.76   652.77
eigval :      654.64   662.32   663.17   665.82   667.73   669.83
eigval :      671.59   672.70   677.29   683.68   689.04   693.34
eigval :      699.22   699.97   707.69   713.73   717.12   722.76
eigval :      733.63   741.29   747.67   756.57   760.56   765.65
eigval :      783.16   789.99   801.07   808.30   826.51   832.05
eigval :      836.73   855.22   886.77  1436.96  1455.77  1455.85
eigval :     1456.25  1456.35  1457.79  1458.35  1458.62  1459.01
eigval :     1459.78  1460.86  1461.03  1461.93  1462.38  1462.65
eigval :     1462.70  1464.23  1464.56  1465.55  1466.82  1467.51
eigval :     1468.49  1468.90  1469.84  1470.99  1472.75  1476.03
eigval :     1476.99  1478.79  1480.81  1483.96  1484.83  1486.19
eigval :     1487.95  1488.19  1489.18  1490.41  1490.75  1491.58
eigval :     1492.60  1493.61  1493.80  1494.59  1495.73  1496.10
eigval :     1496.33  1497.37  1497.50  1498.31  1499.39  1500.27
eigval :     1500.84  1501.31  1501.86  1503.56  1505.01  1507.12
eigval :     1507.39  1507.77  1508.68  1515.79  1519.37  1519.73
eigval :     1523.29  1527.85  1532.32  3022.75  3076.02  3090.87
eigval :     3140.67  3163.83  3176.57  3195.25  3204.13  3206.25
eigval :     3212.34  3228.89  3231.94  3244.81  3253.20  3261.05
eigval :     3271.59  3277.46  3279.41  3280.13  3288.88  3291.36
eigval :     3300.80  3302.37  3322.29  3328.82  3332.77  3337.22
eigval :     3341.52  3343.27  3344.59  3349.65  3352.02  3359.68
eigval :     3361.26  3373.43  3376.41  3381.12  3400.11  3411.34
eigval :     3414.54  3418.47  3425.28  3430.82  3431.57  3435.96
eigval :     3443.64  3450.31  3457.57  3462.58  3462.68  3466.79
eigval :     3472.38  3474.46  3476.30  3477.10  3494.16  3512.35
eigval :     3518.66  3520.91  3526.08  3535.01  3556.05  3573.96
eigval :     3579.86  3581.46  3585.12  3586.62  3586.76  3587.80
eigval :     3587.98  3589.96  3591.78  3592.91  3593.69  3593.97
eigval :     3594.13  3596.24  3596.78  3597.27  3597.45  3597.60
eigval :     3598.39  3598.95  3599.04  3599.07  3599.49  3600.40
eigval :     3600.85  3601.72  3602.49  3605.88  3606.35  3606.94
eigval :     3608.25  3611.21  3611.91  3613.15  3613.28  3613.50
eigval :     3614.47  3614.80  3615.26  3616.81  3617.79  3619.80
eigval :     3620.17  3622.03  3622.20  3622.35  3623.05  3623.27
eigval :     3623.34  3625.04  3625.47  3625.49  3626.02  3626.70
eigval :     3627.61  3628.02  3629.48  3629.71  3631.06  3635.14
eigval :     3636.55  3637.90  3638.15  3640.75  3641.09  3645.20
eigval :     3646.85  3648.69  3649.19
           -------------------------------------------------
          |                Property Printout                |
           -------------------------------------------------

    * Orbital Energies and Occupations

         #    Occupation            Energy/Eh            Energy/eV
      -------------------------------------------------------------
         1        2.0000           -0.6688172             -18.1994
       ...           ...                  ...                  ...
       257        2.0000           -0.3920989             -10.6696
       258        2.0000           -0.3908440             -10.6354
       259        2.0000           -0.3906590             -10.6304
       260        2.0000           -0.3878628             -10.5543
       261        2.0000           -0.3846261             -10.4662
       262        2.0000           -0.3812290             -10.3738
       263        2.0000           -0.3810293             -10.3683
       264        2.0000           -0.3791850             -10.3182
       265        1.6260           -0.3030863              -8.2474
       266        1.3713           -0.3020965              -8.2205
       267        1.0027           -0.2969967              -8.0817
       268        1.0000           -0.2921745              -7.9505
       269        1.0000           -0.2915185              -7.9326 (HOMO)
       270                         -0.0279294              -0.7600 (LUMO)
       271                          0.0154563               0.4206
       272                          0.0374296               1.0185
       273                          0.0519817               1.4145
       274                          0.0536245               1.4592
       275                          0.0582466               1.5850
       276                          0.0601247               1.6361
       277                          0.0674627               1.8358
       278                          0.0712065               1.9376
       279                          0.0727598               1.9799
       280                          0.0745693               2.0291
       ...                                ...                  ...
       405                          0.9898281              26.9346
      -------------------------------------------------------------
                  HL-Gap            0.2635891 Eh            7.1726 eV
             Fermi-level           -0.2311605 Eh           -6.2902 eV

     #   Z          covCN         q      C6AA      α(0)
     1  26 Fe       0.625     1.195   394.400    57.541
     2   8 O        1.692    -0.634    25.965     6.880
     3   8 O        1.739    -0.628    25.800     6.858
     4   8 O        1.699    -0.633    25.932     6.875
     5   8 O        1.675    -0.633    25.964     6.879
     6   8 O        1.689    -0.625    25.761     6.852
     7   8 O        1.722    -0.606    25.268     6.787
     8   1 H        0.805     0.355     0.576     1.192
     9   1 H        0.804     0.361     0.564     1.180
    10   1 H        0.805     0.353     0.580     1.197
    11   1 H        0.805     0.346     0.597     1.214
    12   1 H        0.805     0.347     0.594     1.211
    13   1 H        0.804     0.349     0.590     1.206
    14   1 H        0.805     0.349     0.590     1.207
    15   1 H        0.804     0.352     0.583     1.200
    16   1 H        0.805     0.350     0.588     1.204
    17   1 H        0.804     0.353     0.581     1.197
    18   1 H        0.803     0.365     0.555     1.170
    19   1 H        0.805     0.359     0.567     1.183
    20   8 O        1.609    -0.671    26.942     7.006
    21   8 O        1.605    -0.690    27.455     7.072
    22   8 O        1.608    -0.643    26.235     6.913
    23   8 O        1.671    -0.629    25.862     6.866
    24   8 O        1.608    -0.662    26.731     6.978
    25   8 O        1.607    -0.669    26.913     7.002
    26   8 O        1.608    -0.668    26.878     6.997
    27   8 O        1.606    -0.707    27.894     7.128
    28   8 O        1.607    -0.670    26.936     7.005
    29   8 O        1.607    -0.671    26.964     7.008
    30   8 O        1.607    -0.666    26.813     6.989
    31   8 O        1.608    -0.668    26.877     6.997
    32   1 H        0.802     0.362     0.562     1.178
    33   1 H        0.805     0.316     0.675     1.291
    34   1 H        0.805     0.316     0.676     1.291
    35   1 H        0.804     0.369     0.547     1.161
    36   1 H        0.805     0.320     0.665     1.281
    37   1 H        0.803     0.360     0.565     1.181
    38   1 H        0.804     0.324     0.654     1.271
    39   1 H        0.803     0.367     0.550     1.165
    40   1 H        0.805     0.330     0.637     1.254
    41   1 H        0.804     0.357     0.573     1.189
    42   1 H        0.803     0.365     0.555     1.170
    43   1 H        0.805     0.358     0.570     1.186
    44   1 H        0.804     0.322     0.658     1.274
    45   1 H        0.803     0.366     0.552     1.167
    46   1 H        0.805     0.316     0.675     1.290
    47   1 H        0.803     0.352     0.583     1.200
    48   1 H        0.805     0.317     0.672     1.288
    49   1 H        0.802     0.356     0.574     1.190
    50   1 H        0.803     0.342     0.608     1.225
    51   1 H        0.803     0.344     0.603     1.220
    52   1 H        0.805     0.316     0.675     1.291
    53   1 H        0.804     0.354     0.580     1.196
    54   1 H        0.803     0.343     0.605     1.222
    55   1 H        0.802     0.358     0.570     1.186
    56   8 O        1.609    -0.682    27.233     7.043
    57   1 H        0.805     0.353     0.580     1.197
    58   1 H        0.804     0.326     0.647     1.264
    59   8 O        1.610    -0.722    28.299     7.180
    60   1 H        0.805     0.382     0.519     1.132
    61   1 H        0.805     0.365     0.555     1.170
    62   8 O        1.609    -0.719    28.219     7.170
    63   1 H        0.805     0.376     0.531     1.145
    64   1 H        0.804     0.324     0.652     1.269
    65   8 O        1.608    -0.674    27.019     7.015
    66   1 H        0.805     0.309     0.694     1.309
    67   1 H        0.803     0.355     0.578     1.194
    68   8 O        1.610    -0.681    27.216     7.041
    69   1 H        0.805     0.354     0.579     1.195
    70   1 H        0.805     0.364     0.557     1.172
    71   8 O        1.609    -0.717    28.168     7.163
    72   1 H        0.804     0.325     0.649     1.266
    73   1 H        0.805     0.375     0.534     1.148
    74   8 O        1.610    -0.725    28.382     7.190
    75   1 H        0.805     0.374     0.534     1.148
    76   1 H        0.805     0.376     0.532     1.146
    77   8 O        1.609    -0.697    27.625     7.094
    78   1 H        0.805     0.372     0.540     1.154
    79   1 H        0.804     0.333     0.630     1.247
    80   8 O        1.606    -0.703    27.795     7.115
    81   1 H        0.805     0.316     0.675     1.291
    82   1 H        0.802     0.350     0.588     1.205
    83   8 O        1.606    -0.702    27.771     7.112
    84   1 H        0.803     0.354     0.579     1.196
    85   1 H        0.804     0.351     0.586     1.203
    86   8 O        1.610    -0.682    27.245     7.045
    87   1 H        0.805     0.351     0.585     1.201
    88   1 H        0.804     0.325     0.650     1.266
    89   8 O        1.610    -0.715    28.115     7.156
    90   1 H        0.805     0.353     0.582     1.198
    91   1 H        0.805     0.381     0.521     1.134
    92   8 O        1.610    -0.682    27.229     7.043
    93   1 H        0.805     0.358     0.570     1.186
    94   1 H        0.805     0.327     0.645     1.262
    95   8 O        1.609    -0.684    27.281     7.049
    96   1 H        0.804     0.328     0.643     1.259
    97   1 H        0.805     0.352     0.583     1.199
    98   8 O        1.609    -0.665    26.793     6.986
    99   1 H        0.805     0.364     0.557     1.172
   100   1 H        0.804     0.333     0.631     1.247
   101   8 O        1.609    -0.680    27.182     7.037
   102   1 H        0.805     0.348     0.593     1.210
   103   1 H        0.804     0.333     0.629     1.246
   104   8 O        1.609    -0.685    27.301     7.052
   105   1 H        0.804     0.327     0.644     1.261
   106   1 H        0.805     0.355     0.576     1.192
   107   8 O        1.609    -0.681    27.198     7.039
   108   1 H        0.804     0.329     0.641     1.258
   109   1 H        0.805     0.344     0.602     1.219
   110   8 O        1.609    -0.693    27.530     7.082
   111   1 H        0.805     0.377     0.528     1.141
   112   1 H        0.804     0.328     0.644     1.260
   113   8 O        1.609    -0.715    28.112     7.156
   114   1 H        0.805     0.324     0.652     1.268
   115   1 H        0.805     0.376     0.531     1.145
   116   8 O        1.608    -0.700    27.717     7.105
   117   1 H        0.803     0.344     0.604     1.221
   118   1 H        0.805     0.361     0.563     1.178
   119   8 O        1.610    -0.702    27.773     7.113
   120   1 H        0.805     0.368     0.547     1.162
   121   1 H        0.805     0.357     0.571     1.187
   122   8 O        1.609    -0.716    28.130     7.158
   123   1 H        0.804     0.342     0.607     1.223
   124   1 H        0.805     0.349     0.591     1.207
   125   8 O        1.610    -0.706    27.870     7.125
   126   1 H        0.805     0.374     0.535     1.148
   127   1 H        0.805     0.350     0.587     1.204
   128   8 O        1.610    -0.697    27.638     7.095
   129   1 H        0.805     0.356     0.574     1.191
   130   1 H        0.805     0.359     0.567     1.183
   131   8 O        1.609    -0.717    28.180     7.165
   132   1 H        0.804     0.339     0.614     1.231
   133   1 H        0.805     0.352     0.583     1.200
   134   8 O        1.610    -0.705    27.847     7.122
   135   1 H        0.805     0.351     0.585     1.201
   136   1 H        0.805     0.371     0.542     1.156
   137   8 O        1.609    -0.708    27.923     7.132
   138   1 H        0.805     0.342     0.606     1.223
   139   1 H        0.804     0.341     0.611     1.228
   140   8 O        1.610    -0.705    27.829     7.120
   141   1 H        0.805     0.373     0.537     1.151
   142   1 H        0.805     0.353     0.582     1.198
   143   8 O        1.610    -0.706    27.873     7.125
   144   1 H        0.805     0.351     0.585     1.201
   145   1 H        0.805     0.369     0.545     1.160
   146   8 O        1.608    -0.727    28.436     7.197
   147   1 H        0.803     0.352     0.583     1.199
   148   1 H        0.805     0.340     0.612     1.228
   149   8 O        1.610    -0.703    27.787     7.115
   150   1 H        0.805     0.358     0.570     1.186
   151   1 H        0.805     0.367     0.551     1.166
   152   8 O        1.609    -0.721    28.265     7.175
   153   1 H        0.805     0.370     0.544     1.158
   154   1 H        0.804     0.332     0.631     1.248
   155   8 O        1.610    -0.700    27.717     7.106
   156   1 H        0.805     0.367     0.551     1.166
   157   1 H        0.805     0.351     0.585     1.201
   158   8 O        1.610    -0.706    27.871     7.125
   159   1 H        0.805     0.365     0.555     1.170
   160   1 H        0.805     0.366     0.551     1.166
   161   8 O        1.609    -0.723    28.332     7.184
   162   1 H        0.805     0.356     0.573     1.189
   163   1 H        0.803     0.337     0.620     1.237
   164   8 O        1.609    -0.688    27.391     7.064
   165   1 H        0.805     0.343     0.604     1.220
   166   1 H        0.803     0.340     0.612     1.229
   167   8 O        1.608    -0.690    27.441     7.070
   168   1 H        0.805     0.344     0.602     1.218
   169   1 H        0.803     0.346     0.598     1.214
   170   8 O        1.610    -0.735    28.656     7.225
   171   1 H        0.805     0.367     0.549     1.164
   172   1 H        0.805     0.368     0.549     1.163
   173   8 O        1.610    -0.719    28.219     7.170
   174   1 H        0.805     0.365     0.554     1.170
   175   1 H        0.805     0.354     0.579     1.195
   176   8 O        1.610    -0.720    28.236     7.172
   177   1 H        0.805     0.354     0.579     1.195
   178   1 H        0.805     0.366     0.553     1.168
   179   8 O        1.610    -0.731    28.543     7.211
   180   1 H        0.805     0.364     0.557     1.173
   181   1 H        0.805     0.367     0.549     1.164
   182   8 O        1.610    -0.739    28.766     7.239
   183   1 H        0.805     0.362     0.560     1.175
   184   1 H        0.805     0.377     0.530     1.143
   185   8 O        1.611    -0.697    27.642     7.096
   186   1 H        0.805     0.362     0.561     1.177
   187   1 H        0.805     0.356     0.574     1.190
   188   8 O        1.610    -0.698    27.659     7.098
   189   1 H        0.805     0.357     0.573     1.189
   190   1 H        0.805     0.362     0.562     1.177
   191   8 O        1.610    -0.706    27.865     7.124
   192   1 H        0.805     0.357     0.571     1.187
   193   1 H        0.805     0.363     0.559     1.174
   194   8 O        1.608    -0.696    27.597     7.090
   195   1 H        0.803     0.339     0.616     1.233
   196   1 H        0.805     0.349     0.590     1.207
   197   8 O        1.609    -0.686    27.347     7.058
   198   1 H        0.803     0.341     0.610     1.227
   199   1 H        0.805     0.345     0.599     1.215

 Mol. C6AA /au·bohr⁶  :     213496.377502
 Mol. C8AA /au·bohr⁸  :    4249622.947846
 Mol. α(0) /au        :        683.013988


Wiberg/Mayer (AO) data.
largest (>0.10) Wiberg bond orders for each atom

 ---------------------------------------------------------------------------
     #   Z sym  total        # sym  WBO       # sym  WBO       # sym  WBO
 ---------------------------------------------------------------------------
     1  26 Fe   1.312 --     3 O    0.206     4 O    0.188     2 O    0.182
                             7 O    0.178     6 O    0.177     5 O    0.165
                            23 O    0.158
     2   8 O    1.912 --    12 H    0.848    13 H    0.823     1 Fe   0.182
     3   8 O    1.926 --    16 H    0.840    17 H    0.823     1 Fe   0.206
     4   8 O    1.918 --    14 H    0.837    15 H    0.827     1 Fe   0.188
     5   8 O    1.934 --    19 H    0.858    18 H    0.805     1 Fe   0.165
     6   8 O    1.939 --     8 H    0.849     9 H    0.818     1 Fe   0.177
     7   8 O    1.930 --    11 H    0.861    10 H    0.851     1 Fe   0.178
     8   1 H    0.873 --     6 O    0.849
     9   1 H    0.870 --     6 O    0.818
    10   1 H    0.874 --     7 O    0.851
    11   1 H    0.877 --     7 O    0.861
    12   1 H    0.879 --     2 O    0.848
    13   1 H    0.876 --     2 O    0.823
    14   1 H    0.877 --     4 O    0.837
    15   1 H    0.876 --     4 O    0.827
    16   1 H    0.877 --     3 O    0.840
    17   1 H    0.875 --     3 O    0.823
    18   1 H    0.866 --     5 O    0.805
    19   1 H    0.871 --     5 O    0.858
    20   8 O    1.826 --    34 H    0.877    35 H    0.829
    21   8 O    1.875 --    54 H    0.825    55 H    0.802
    22   8 O    1.903 --    40 H    0.855    41 H    0.832
    23   8 O    1.934 --    43 H    0.861    42 H    0.808     1 Fe   0.158
    24   8 O    1.854 --    36 H    0.862    37 H    0.817
    25   8 O    1.865 --    33 H    0.861    32 H    0.801
    26   8 O    1.829 --    52 H    0.863    53 H    0.836
    27   8 O    1.810 --    50 H    0.820    51 H    0.819
    28   8 O    1.841 --    48 H    0.868    49 H    0.810
    29   8 O    1.861 --    38 H    0.852    39 H    0.814
    30   8 O    1.849 --    46 H    0.861    47 H    0.819
    31   8 O    1.866 --    44 H    0.850    45 H    0.810
    32   1 H    0.869 --    25 O    0.801
    33   1 H    0.900 --    25 O    0.861
    34   1 H    0.900 --    20 O    0.877
    35   1 H    0.864 --    20 O    0.829
    36   1 H    0.898 --    24 O    0.862
    37   1 H    0.870 --    24 O    0.817
    38   1 H    0.895 --    29 O    0.852
    39   1 H    0.865 --    29 O    0.814
    40   1 H    0.891 --    22 O    0.855
    41   1 H    0.873 --    22 O    0.832
    42   1 H    0.866 --    23 O    0.808
    43   1 H    0.872 --    23 O    0.861
    44   1 H    0.896 --    31 O    0.850
    45   1 H    0.866 --    31 O    0.810
    46   1 H    0.900 --    30 O    0.861
    47   1 H    0.876 --    30 O    0.819
    48   1 H    0.899 --    28 O    0.868
    49   1 H    0.873 --    28 O    0.810
    50   1 H    0.883 --    27 O    0.820
    51   1 H    0.882 --    27 O    0.819
    52   1 H    0.900 --    26 O    0.863
    53   1 H    0.875 --    26 O    0.836
    54   1 H    0.882 --    21 O    0.825
    55   1 H    0.872 --    21 O    0.802
    56   8 O    1.791 --    57 H    0.873    58 H    0.859
    57   1 H    0.875 --    56 O    0.873
    58   1 H    0.894 --    56 O    0.859
    59   8 O    1.763 --    61 H    0.864    60 H    0.851
    60   1 H    0.854 --    59 O    0.851
    61   1 H    0.867 --    59 O    0.864
    62   8 O    1.741 --    64 H    0.868    63 H    0.859
    63   1 H    0.859 --    62 O    0.859
    64   1 H    0.895 --    62 O    0.868
    65   8 O    1.822 --    66 H    0.872    67 H    0.821
    66   1 H    0.904 --    65 O    0.872
    67   1 H    0.874 --    65 O    0.821
    68   8 O    1.813 --    69 H    0.873    70 H    0.866
    69   1 H    0.875 --    68 O    0.873
    70   1 H    0.868 --    68 O    0.866
    71   8 O    1.743 --    72 H    0.870    73 H    0.860
    72   1 H    0.894 --    71 O    0.870
    73   1 H    0.860 --    71 O    0.860
    74   8 O    1.762 --    75 H    0.858    76 H    0.856
    75   1 H    0.860 --    74 O    0.858
    76   1 H    0.859 --    74 O    0.856
    77   8 O    1.787 --    78 H    0.859    79 H    0.855
    78   1 H    0.862 --    77 O    0.859
    79   1 H    0.889 --    77 O    0.855
    80   8 O    1.775 --    81 H    0.872    82 H    0.803
    81   1 H    0.900 --    80 O    0.872
    82   1 H    0.877 --    80 O    0.803
    83   8 O    1.835 --    85 H    0.832    84 H    0.813
    84   1 H    0.875 --    83 O    0.813
    85   1 H    0.877 --    83 O    0.832
    86   8 O    1.781 --    87 H    0.873    88 H    0.861
    87   1 H    0.877 --    86 O    0.873
    88   1 H    0.894 --    86 O    0.861
    89   8 O    1.761 --    90 H    0.873    91 H    0.852
    90   1 H    0.876 --    89 O    0.873
    91   1 H    0.855 --    89 O    0.852
    92   8 O    1.788 --    93 H    0.870    94 H    0.864
    93   1 H    0.872 --    92 O    0.870
    94   1 H    0.893 --    92 O    0.864
    95   8 O    1.791 --    97 H    0.873    96 H    0.856
    96   1 H    0.892 --    95 O    0.856
    97   1 H    0.876 --    95 O    0.873
    98   8 O    1.843 --    99 H    0.865   100 H    0.858
    99   1 H    0.868 --    98 O    0.865
   100   1 H    0.889 --    98 O    0.858
   101   8 O    1.800 --   102 H    0.877   103 H    0.852
   102   1 H    0.879 --   101 O    0.877
   103   1 H    0.889 --   101 O    0.852
   104   8 O    1.800 --   106 H    0.871   105 H    0.850
   105   1 H    0.893 --   104 O    0.850
   106   1 H    0.874 --   104 O    0.871
   107   8 O    1.786 --   109 H    0.877   108 H    0.849
   108   1 H    0.892 --   107 O    0.849
   109   1 H    0.881 --   107 O    0.877
   110   8 O    1.795 --   112 H    0.862   111 H    0.854
   111   1 H    0.858 --   110 O    0.854
   112   1 H    0.893 --   110 O    0.862
   113   8 O    1.744 --   114 H    0.873   115 H    0.859
   114   1 H    0.895 --   113 O    0.873
   115   1 H    0.859 --   113 O    0.859
   116   8 O    1.795 --   118 H    0.868   117 H    0.834
   117   1 H    0.882 --   116 O    0.834
   118   1 H    0.870 --   116 O    0.868
   119   8 O    1.778 --   121 H    0.870   120 H    0.862
   120   1 H    0.864 --   119 O    0.862
   121   1 H    0.872 --   119 O    0.870
   122   8 O    1.744 --   124 H    0.878   123 H    0.848
   123   1 H    0.883 --   122 O    0.848
   124   1 H    0.878 --   122 O    0.878
   125   8 O    1.769 --   127 H    0.875   126 H    0.858
   126   1 H    0.860 --   125 O    0.858
   127   1 H    0.877 --   125 O    0.875
   128   8 O    1.776 --   129 H    0.871   130 H    0.869
   129   1 H    0.873 --   128 O    0.871
   130   1 H    0.871 --   128 O    0.869
   131   8 O    1.743 --   133 H    0.876   132 H    0.848
   132   1 H    0.885 --   131 O    0.848
   133   1 H    0.876 --   131 O    0.876
   134   8 O    1.767 --   135 H    0.874   136 H    0.860
   135   1 H    0.877 --   134 O    0.874
   136   1 H    0.863 --   134 O    0.860
   137   8 O    1.749 --   138 H    0.883   139 H    0.849
   138   1 H    0.883 --   137 O    0.883
   139   1 H    0.884 --   137 O    0.849
   140   8 O    1.773 --   142 H    0.873   141 H    0.858
   141   1 H    0.861 --   140 O    0.858
   142   1 H    0.876 --   140 O    0.873
   143   8 O    1.764 --   144 H    0.874   145 H    0.862
   144   1 H    0.876 --   143 O    0.874
   145   1 H    0.864 --   143 O    0.862
   146   8 O    1.735 --   148 H    0.884   147 H    0.827
   147   1 H    0.876 --   146 O    0.827
   148   1 H    0.884 --   146 O    0.884
   149   8 O    1.775 --   150 H    0.869   151 H    0.864
   150   1 H    0.872 --   149 O    0.869
   151   1 H    0.866 --   149 O    0.864
   152   8 O    1.740 --   154 H    0.863   153 H    0.863
   153   1 H    0.863 --   152 O    0.863
   154   1 H    0.890 --   152 O    0.863
   155   8 O    1.772 --   157 H    0.874   156 H    0.863
   156   1 H    0.866 --   155 O    0.863
   157   1 H    0.876 --   155 O    0.874
   158   8 O    1.778 --   159 H    0.865   160 H    0.864
   159   1 H    0.867 --   158 O    0.865
   160   1 H    0.866 --   158 O    0.864
   161   8 O    1.738 --   162 H    0.873   163 H    0.845
   162   1 H    0.873 --   161 O    0.873
   163   1 H    0.887 --   161 O    0.845
   164   8 O    1.789 --   165 H    0.878   166 H    0.841
   165   1 H    0.882 --   164 O    0.878
   166   1 H    0.884 --   164 O    0.841
   167   8 O    1.796 --   168 H    0.878   169 H    0.836
   168   1 H    0.881 --   167 O    0.878
   169   1 H    0.880 --   167 O    0.836
   170   8 O    1.729 --   171 H    0.865   172 H    0.865
   171   1 H    0.865 --   170 O    0.865
   172   1 H    0.865 --   170 O    0.865
   173   8 O    1.741 --   175 H    0.874   174 H    0.867
   174   1 H    0.867 --   173 O    0.867
   175   1 H    0.875 --   173 O    0.874
   176   8 O    1.741 --   177 H    0.874   178 H    0.866
   177   1 H    0.875 --   176 O    0.874
   178   1 H    0.866 --   176 O    0.866
   179   8 O    1.732 --   180 H    0.868   181 H    0.865
   180   1 H    0.868 --   179 O    0.868
   181   1 H    0.865 --   179 O    0.865
   182   8 O    1.726 --   183 H    0.868   184 H    0.858
   183   1 H    0.869 --   182 O    0.868
   184   1 H    0.858 --   182 O    0.858
   185   8 O    1.774 --   187 H    0.870   186 H    0.865
   186   1 H    0.869 --   185 O    0.865
   187   1 H    0.873 --   185 O    0.870
   188   8 O    1.776 --   189 H    0.870   190 H    0.867
   189   1 H    0.873 --   188 O    0.870
   190   1 H    0.869 --   188 O    0.867
   191   8 O    1.763 --   192 H    0.869   193 H    0.865
   192   1 H    0.872 --   191 O    0.869
   193   1 H    0.868 --   191 O    0.865
   194   8 O    1.789 --   196 H    0.874   195 H    0.833
   195   1 H    0.885 --   194 O    0.833
   196   1 H    0.878 --   194 O    0.874
   197   8 O    1.800 --   199 H    0.877   198 H    0.837
   198   1 H    0.884 --   197 O    0.837
   199   1 H    0.881 --   197 O    0.877
 ---------------------------------------------------------------------------

Topologies differ in total number of bonds
Writing topology from bond orders to xtbtopo.mol

molecular dipole:
                 x           y           z       tot (Debye)
 q only:        2.831       4.430      -1.101
   full:        3.725       5.403      -1.306      17.007
molecular quadrupole (traceless):
                xx          xy          yy          xz          yz          zz
 q only:      -31.931      -3.572       1.257      21.702       9.648      30.674
  q+dip:      -39.713      -6.350       1.753      28.477      13.354      37.960
   full:      -40.599      -6.425       2.261      28.688      14.562      38.338

           -------------------------------------------------
          |               Frequency Printout                |
           -------------------------------------------------
 projected vibrational frequencies (cm⁻¹)
eigval :       -0.00    -0.00     0.00     0.00     0.00     0.00
eigval :        7.58    11.77    12.44    13.22    14.95    15.58
eigval :       16.41    18.88    19.06    20.41    21.63    23.02
eigval :       23.55    24.40    24.61    26.28    27.21    27.60
eigval :       28.60    29.32    30.00    30.81    31.65    32.20
eigval :       33.25    33.68    33.79    34.79    35.30    36.54
eigval :       36.91    37.29    37.72    38.43    38.87    39.44
eigval :       40.71    41.34    41.39    42.43    42.57    43.47
eigval :       44.07    44.45    44.96    45.52    46.14    47.66
eigval :       48.62    49.40    49.51    50.22    50.94    51.65
eigval :       52.29    53.44    53.84    54.47    54.90    55.71
eigval :       56.22    56.64    57.10    57.84    59.07    59.70
eigval :       60.35    60.52    61.25    61.58    62.03    62.91
eigval :       63.50    64.36    64.50    64.95    65.31    66.50
eigval :       67.02    67.25    67.87    68.01    68.89    69.33
eigval :       70.05    70.52    71.09    71.86    72.50    73.17
eigval :       73.85    74.29    74.93    75.27    76.62    76.95
eigval :       78.65    79.30    79.92    80.79    81.33    81.70
eigval :       82.70    84.10    84.73    85.72    86.04    87.38
eigval :       87.85    88.66    89.18    89.79    90.33    91.31
eigval :       92.74    93.65    94.31    95.89    97.72    99.41
eigval :      100.88   103.22   105.82   107.87   109.21   112.97
eigval :      115.79   120.55   123.20   127.15   129.95   130.56
eigval :      131.73   134.71   138.96   141.07   142.58   146.17
eigval :      148.75   149.51   151.72   153.75   156.76   157.54
eigval :      159.69   160.84   161.46   162.91   164.68   166.61
eigval :      168.26   169.06   169.79   170.79   173.36   174.09
eigval :      174.37   177.18   178.82   179.68   180.95   183.76
eigval :      184.19   187.46   188.21   191.13   193.32   195.59
eigval :      196.75   199.34   200.10   201.38   202.60   204.00
eigval :      204.94   205.56   206.56   208.01   209.23   209.97
eigval :      211.46   213.51   214.10   214.33   215.45   215.78
eigval :      218.93   220.97   221.07   222.22   225.26   227.09
eigval :      228.07   229.26   230.16   233.12   235.16   235.49
eigval :      237.63   238.54   238.88   239.57   240.13   242.56
eigval :      244.02   244.61   245.58   247.22   249.14   250.18
eigval :      251.72   252.63   253.39   254.58   256.35   256.93
eigval :      257.75   258.18   259.11   260.60   260.86   263.50
eigval :      264.44   268.32   271.73   272.42   278.74   280.52
eigval :      281.31   282.86   283.27   285.84   289.05   290.53
eigval :      293.29   295.70   296.11   298.84   300.86   302.29
eigval :      303.07   303.92   305.34   306.84   307.88   308.25
eigval :      309.65   311.03   311.49   313.05   313.84   316.14
eigval :      318.49   320.18   320.68   324.18   325.56   328.04
eigval :      329.47   330.73   332.05   334.11   335.23   338.50
eigval :      341.11   342.66   344.76   348.91   352.24   354.08
eigval :      354.48   356.98   358.73   359.04   362.04   363.02
eigval :      369.49   374.11   381.36   391.36   394.04   395.31
eigval :      396.60   397.19   401.77   403.83   407.45   408.61
eigval :      418.27   418.88   421.88   425.81   428.95   433.17
eigval :      437.34   438.36   440.89   446.64   447.63   448.96
eigval :      452.12   454.45   458.09   460.35   461.11   462.73
eigval :      468.76   474.79   478.18   483.43   491.33   496.38
eigval :      501.49   507.32   510.90   511.40   512.62   515.85
eigval :      529.12   532.96   534.89   536.99   537.77   539.41
eigval :      543.33   544.95   549.72   553.79   556.07   557.20
eigval :      562.31   564.27   565.20   566.12   567.07   571.28
eigval :      576.87   580.41   582.61   585.51   590.08   593.80
eigval :      594.69   595.85   600.58   603.54   607.64   610.95
eigval :      615.47   616.39   617.32   619.67   624.11   627.01
eigval :      631.11   635.21   641.04   645.70   647.76   652.77
eigval :      654.64   662.32   663.17   665.82   667.73   669.83
eigval :      671.59   672.70   677.29   683.68   689.04   693.34
eigval :      699.22   699.97   707.69   713.73   717.12   722.76
eigval :      733.63   741.29   747.67   756.57   760.56   765.65
eigval :      783.16   789.99   801.07   808.30   826.51   832.05
eigval :      836.73   855.22   886.77  1436.96  1455.77  1455.85
eigval :     1456.25  1456.35  1457.79  1458.35  1458.62  1459.01
eigval :     1459.78  1460.86  1461.03  1461.93  1462.38  1462.65
eigval :     1462.70  1464.23  1464.56  1465.55  1466.82  1467.51
eigval :     1468.49  1468.90  1469.84  1470.99  1472.75  1476.03
eigval :     1476.99  1478.79  1480.81  1483.96  1484.83  1486.19
eigval :     1487.95  1488.19  1489.18  1490.41  1490.75  1491.58
eigval :     1492.60  1493.61  1493.80  1494.59  1495.73  1496.10
eigval :     1496.33  1497.37  1497.50  1498.31  1499.39  1500.27
eigval :     1500.84  1501.31  1501.86  1503.56  1505.01  1507.12
eigval :     1507.39  1507.77  1508.68  1515.79  1519.37  1519.73
eigval :     1523.29  1527.85  1532.32  3022.75  3076.02  3090.87
eigval :     3140.67  3163.83  3176.57  3195.25  3204.13  3206.25
eigval :     3212.34  3228.89  3231.94  3244.81  3253.20  3261.05
eigval :     3271.59  3277.46  3279.41  3280.13  3288.88  3291.36
eigval :     3300.80  3302.37  3322.29  3328.82  3332.77  3337.22
eigval :     3341.52  3343.27  3344.59  3349.65  3352.02  3359.68
eigval :     3361.26  3373.43  3376.41  3381.12  3400.11  3411.34
eigval :     3414.54  3418.47  3425.28  3430.82  3431.57  3435.96
eigval :     3443.64  3450.31  3457.57  3462.58  3462.68  3466.79
eigval :     3472.38  3474.46  3476.30  3477.10  3494.16  3512.35
eigval :     3518.66  3520.91  3526.08  3535.01  3556.05  3573.96
eigval :     3579.86  3581.46  3585.12  3586.62  3586.76  3587.80
eigval :     3587.98  3589.96  3591.78  3592.91  3593.69  3593.97
eigval :     3594.13  3596.24  3596.78  3597.27  3597.45  3597.60
eigval :     3598.39  3598.95  3599.04  3599.07  3599.49  3600.40
eigval :     3600.85  3601.72  3602.49  3605.88  3606.35  3606.94
eigval :     3608.25  3611.21  3611.91  3613.15  3613.28  3613.50
eigval :     3614.47  3614.80  3615.26  3616.81  3617.79  3619.80
eigval :     3620.17  3622.03  3622.20  3622.35  3623.05  3623.27
eigval :     3623.34  3625.04  3625.47  3625.49  3626.02  3626.70
eigval :     3627.61  3628.02  3629.48  3629.71  3631.06  3635.14
eigval :     3636.55  3637.90  3638.15  3640.75  3641.09  3645.20
eigval :     3646.85  3648.69  3649.19
 reduced masses (amu)
   1: 14.89   2: 15.57   3: 14.66   4: 15.45   5: 14.92   6: 15.89   7: 14.61   8: 14.25
   9: 14.22  10: 14.29  11: 14.29  12: 14.76  13: 14.33  14: 14.40  15: 14.32  16: 14.26
  17: 15.10  18: 14.49  19: 14.89  20: 14.56  21: 14.30  22: 14.56  23: 14.20  24: 15.65
  25: 15.15  26: 14.53  27: 15.00  28: 14.99  29: 14.76  30: 15.40  31: 14.81  32: 14.68
  33: 14.75  34: 14.33  35: 14.58  36: 15.29  37: 15.30  38: 14.90  39: 14.44  40: 14.47
  41: 15.33  42: 14.97  43: 14.77  44: 14.74  45: 15.19  46: 14.61  47: 14.57  48: 14.85
  49: 14.68  50: 14.91  51: 15.53  52: 14.99  53: 14.67  54: 15.61  55: 14.49  56: 14.55
  57: 14.47  58: 15.05  59: 14.25  60: 14.82  61: 14.68  62: 14.83  63: 14.59  64: 14.65
  65: 14.57  66: 14.39  67: 14.34  68: 15.43  69: 14.89  70: 14.38  71: 14.97  72: 14.31
  73: 14.42  74: 14.38  75: 15.15  76: 15.30  77: 15.22  78: 14.98  79: 14.77  80: 15.03
  81: 15.04  82: 14.86  83: 15.00  84: 14.68  85: 15.37  86: 14.65  87: 14.48  88: 15.51
  89: 14.80  90: 14.71  91: 14.37  92: 15.76  93: 15.35  94: 15.31  95: 14.64  96: 14.85
  97: 14.66  98: 14.67  99: 15.53 100: 14.64 101: 14.92 102: 14.76 103: 14.89 104: 14.19
 105: 14.85 106: 14.34 107: 15.27 108: 15.55 109: 14.88 110: 14.40 111: 14.48 112: 15.76
 113: 15.67 114: 15.15 115: 15.06 116: 14.40 117: 14.70 118: 14.58 119: 15.65 120: 14.83
 121: 15.27 122: 14.25 123: 14.85 124: 16.14 125: 15.28 126: 14.91 127: 14.50 128: 14.16
 129: 14.41 130: 10.08 131: 14.31 132: 16.48 133: 14.63 134: 13.18 135: 14.40 136: 13.74
 137: 12.67 138:  4.56 139:  3.82 140: 13.53 141:  4.48 142: 13.61 143: 13.51 144: 13.00
 145:  3.12 146: 14.11 147:  2.98 148: 10.53 149: 13.23 150: 13.35 151:  4.21 152: 12.80
 153: 10.54 154: 10.65 155: 11.07 156: 11.03 157: 12.06 158: 10.19 159: 11.20 160:  3.15
 161:  4.88 162: 11.91 163:  8.58 164: 10.94 165: 12.30 166: 10.60 167: 10.80 168: 13.38
 169: 13.94 170: 13.26 171: 12.89 172: 13.54 173:  9.80 174: 11.98 175: 12.11 176: 10.77
 177: 11.54 178: 10.26 179:  5.11 180:  9.79 181:  7.81 182:  5.45 183:  4.30 184:  3.70
 185:  9.00 186:  7.69 187: 10.81 188:  5.20 189:  6.42 190:  8.15 191:  5.67 192:  6.91
 193:  5.00 194: 10.22 195:  7.30 196:  6.60 197:  8.34 198:  8.87 199:  7.76 200:  7.98
 201: 11.57 202:  4.54 203:  4.24 204:  9.06 205:  6.51 206:  6.28 207:  5.18 208:  7.88
 209:  7.43 210:  5.36 211:  6.19 212:  5.96 213:  6.06 214:  5.84 215:  8.94 216:  5.54
 217:  7.21 218:  7.36 219:  3.92 220:  5.74 221:  3.36 222:  2.93 223:  3.75 224:  9.50
 225:  8.44 226:  6.72 227:  7.14 228:  8.69 229:  7.83 230: 10.72 231: 12.15 232:  5.56
 233:  7.67 234:  4.91 235: 11.45 236:  9.38 237:  8.43 238:  3.87 239:  3.98 240: 12.54
 241:  6.03 242:  7.61 243:  9.81 244:  3.83 245:  3.00 246:  6.25 247:  6.20 248:  2.75
 249:  8.06 250:  5.80 251: 10.97 252: 10.67 253:  9.33 254:  6.77 255:  6.30 256:  7.10
 257:  3.31 258:  4.17 259: 15.25 260:  6.63 261:  8.20 262:  3.54 263:  6.01 264:  6.74
 265:  9.17 266:  6.74 267:  4.86 268:  3.63 269:  5.85 270: 11.11 271:  5.80 272:  6.47
 273:  1.93 274:  2.69 275:  3.59 276:  6.47 277:  3.07 278:  1.83 279:  2.25 280:  1.85
 281:  1.78 282:  2.48 283:  4.81 284:  2.33 285:  1.79 286:  1.69 287:  1.81 288:  1.71
 289:  1.65 290:  1.72 291:  1.46 292:  1.40 293:  1.58 294:  1.70 295:  1.98 296:  2.02
 297:  1.95 298:  1.84 299:  1.71 300:  1.67 301:  1.88 302:  1.83 303:  2.00 304:  1.98
 305:  2.07 306:  1.88 307:  1.81 308:  1.84 309:  1.79 310:  1.62 311:  1.72 312:  1.92
 313:  1.69 314:  1.64 315:  2.32 316:  1.22 317:  1.58 318:  1.33 319:  1.65 320:  1.78
 321:  1.62 322:  1.82 323:  1.66 324:  1.85 325:  1.61 326:  1.62 327:  1.56 328:  1.55
 329:  1.91 330:  2.07 331:  1.67 332:  1.52 333:  1.58 334:  1.72 335:  1.64 336:  1.64
 337:  1.46 338:  1.64 339:  1.69 340:  1.75 341:  1.50 342:  1.71 343:  1.81 344:  1.70
 345:  1.54 346:  1.87 347:  1.77 348:  1.66 349:  1.60 350:  1.74 351:  1.68 352:  1.67
 353:  1.67 354:  1.75 355:  1.58 356:  1.81 357:  1.76 358:  1.64 359:  1.90 360:  1.89
 361:  2.49 362:  2.38 363:  1.71 364:  1.63 365:  2.13 366:  1.96 367:  4.83 368:  6.44
 369:  1.88 370:  1.92 371:  2.03 372:  1.52 373:  1.76 374:  1.81 375:  1.75 376:  1.84
 377:  1.81 378:  1.70 379:  1.68 380:  1.94 381:  1.90 382:  1.74 383:  1.98 384:  1.89
 385:  1.98 386:  2.14 387:  2.00 388:  2.01 389:  1.99 390:  1.96 391:  1.75 392:  1.84
 393:  1.97 394:  2.05 395:  2.03 396:  1.82 397:  2.01 398:  2.42 399:  2.48 400:  2.05
 401:  2.14 402:  2.13 403:  2.15 404:  2.11 405:  2.15 406:  2.14 407:  2.08 408:  2.15
 409:  2.17 410:  2.09 411:  2.09 412:  2.13 413:  2.15 414:  2.11 415:  2.12 416:  2.11
 417:  2.11 418:  2.16 419:  2.12 420:  2.13 421:  2.05 422:  2.13 423:  2.08 424:  2.11
 425:  2.03 426:  2.06 427:  2.10 428:  2.09 429:  2.05 430:  2.06 431:  2.15 432:  2.09
 433:  2.04 434:  2.06 435:  2.08 436:  2.06 437:  2.09 438:  2.00 439:  2.06 440:  2.07
 441:  2.06 442:  2.10 443:  2.06 444:  2.08 445:  2.09 446:  2.07 447:  2.10 448:  2.08
 449:  2.06 450:  2.04 451:  2.04 452:  2.08 453:  2.08 454:  2.08 455:  2.10 456:  2.05
 457:  2.08 458:  2.04 459:  2.08 460:  2.04 461:  2.01 462:  2.02 463:  2.05 464:  1.95
 465:  1.99 466:  1.93 467:  1.92 468:  2.01 469:  1.90 470:  2.06 471:  1.94 472:  1.91
 473:  1.90 474:  1.95 475:  1.89 476:  1.94 477:  1.92 478:  1.92 479:  1.89 480:  1.83
 481:  1.86 482:  1.85 483:  1.76 484:  1.89 485:  1.89 486:  1.91 487:  1.88 488:  1.88
 489:  1.89 490:  1.88 491:  1.88 492:  1.98 493:  1.96 494:  1.88 495:  1.88 496:  1.89
 497:  1.91 498:  1.82 499:  2.04 500:  1.87 501:  1.92 502:  1.89 503:  1.88 504:  1.89
 505:  1.89 506:  1.82 507:  1.89 508:  1.80 509:  1.88 510:  1.90 511:  1.69 512:  1.89
 513:  1.79 514:  1.88 515:  1.80 516:  1.74 517:  1.78 518:  1.77 519:  1.85 520:  1.82
 521:  1.89 522:  1.78 523:  1.83 524:  1.83 525:  1.81 526:  1.78 527:  1.96 528:  1.86
 529:  1.81 530:  1.81 531:  1.88 532:  1.84 533:  1.84 534:  1.89 535:  1.91 536:  1.95
 537:  1.78 538:  1.85 539:  1.84 540:  1.91 541:  1.81 542:  1.86 543:  1.85 544:  1.98
 545:  1.87 546:  1.90 547:  1.81 548:  1.90 549:  1.74 550:  1.85 551:  1.76 552:  1.87
 553:  1.85 554:  1.83 555:  1.81 556:  1.68 557:  1.94 558:  1.91 559:  1.82 560:  1.85
 561:  1.82 562:  1.72 563:  1.75 564:  1.83 565:  1.80 566:  1.80 567:  1.95 568:  1.79
 569:  1.74 570:  1.84 571:  1.78 572:  1.80 573:  1.78 574:  1.83 575:  1.88 576:  1.72
 577:  1.83 578:  1.82 579:  1.88 580:  1.84 581:  1.82 582:  1.82 583:  1.84 584:  1.81
 585:  1.83 586:  1.83 587:  1.82 588:  1.83 589:  1.82 590:  1.83 591:  1.83 592:  1.83
 593:  1.83 594:  1.81 595:  1.84 596:  1.83 597:  1.84
 IR intensities (km·mol⁻¹)
   1:  1.40   2:  1.47   3:  1.18   4:  1.15   5:  1.23   6:  3.29   7:  0.94   8:  1.96
   9:  1.66  10:  1.14  11:  0.82  12:  0.63  13:  1.32  14:  0.99  15:  1.57  16:  0.55
  17:  2.14  18:  0.52  19:  0.66  20:  0.94  21:  1.30  22:  1.83  23:  1.87  24:  2.58
  25:  0.96  26:  0.99  27:  1.99  28:  1.38  29:  3.40  30:  2.61  31:  0.63  32:  0.55
  33:  0.64  34:  0.61  35:  2.10  36:  2.68  37:  0.34  38:  0.46  39:  0.53  40:  7.99
  41:  6.26  42:  3.38  43:  0.91  44:  2.55  45: 11.86  46:  2.60  47:  4.87  48:  0.61
  49:  3.53  50:  7.70  51:  1.85  52: 10.89  53:  0.22  54:  3.21  55: 11.59  56:  5.02
  57:  2.44  58:  0.67  59: 19.34  60:  4.51  61:  5.16  62:  1.10  63:  9.81  64:  1.36
  65:  8.98  66:  2.61  67:  1.06  68:  2.87  69:  4.42  70:  3.27  71:  4.54  72:  2.66
  73:  1.38  74:  3.81  75:  8.42  76:  2.73  77:  6.11  78:  4.63  79:  5.14  80:  3.94
  81:  3.35  82:  5.95  83:  1.28  84:  0.96  85: 13.42  86: 11.33  87:  5.39  88: 11.26
  89:  7.40  90:  9.82  91:  5.03  92:  2.78  93: 11.13  94:  5.11  95:  6.34  96: 11.82
  97:  6.31  98:  3.87  99:  3.24 100:  1.64 101:  6.04 102:  7.91 103: 15.29 104:  9.03
 105:  3.23 106:  9.73 107: 15.63 108:  2.86 109:  7.22 110:  8.76 111:  5.92 112: 19.72
 113:  4.84 114:  8.50 115:  4.80 116:  4.65 117:  4.59 118:  2.78 119:  3.50 120:  1.46
 121:  4.17 122: 20.13 123: 33.23 124:  3.47 125:  8.96 126: 11.79 127: 10.61 128: 19.39
 129:  1.59 130: 14.95 131:  1.97 132:  7.45 133: 14.99 134: 11.40 135:  4.41 136: 13.87
 137: 26.79 138:176.66 139:268.08 140: 16.62 141:237.47 142:  8.55 143: 22.29 144: 13.51
 145: 17.54 146: 19.54 147:212.38 148:179.62 149: 79.55 150: 11.32 151: 82.20 152: 31.35
 153: 24.77 154: 19.66 155: 76.21 156:  4.84 157:  2.28 158: 30.45 159: 57.72 160: 43.38
 161:133.58 162: 47.58 163: 85.57 164: 94.81 165: 30.04 166: 64.09 167: 42.29 168: 27.72
 169: 69.51 170: 34.31 171: 46.21 172: 23.27 173:105.84 174: 25.28 175: 22.84 176: 19.20
 177: 47.34 178:  5.66 179: 71.53 180:141.03 181:138.95 182: 70.66 183:137.56 184:126.37
 185: 45.92 186:132.19 187: 25.04 188:392.86 189: 89.61 190:351.71 191: 48.15 192: 91.65
 193:122.63 194: 26.16 195:261.98 196:200.77 197:137.38 198:112.95 199:122.31 200: 62.53
 201:179.28 202:334.51 203:152.92 204: 67.11 205: 94.32 206:109.14 207:205.04 208:199.44
 209:104.34 210: 92.64 211: 85.70 212:115.48 213:176.94 214: 32.41 215: 62.17 216:142.59
 217:346.15 218: 33.36 219:218.13 220:123.36 221:155.09 222: 44.84 223: 98.92 224:154.25
 225:134.05 226:191.63 227: 11.35 228: 33.57 229: 67.68 230: 98.61 231: 79.18 232: 62.64
 233:120.76 234: 29.47 235: 86.40 236: 15.73 237:123.49 238: 77.45 239:301.65 240: 69.80
 241:221.84 242:364.53 243:147.41 244:174.25 245:165.21 246:276.09 247: 60.20 248:306.46
 249: 71.73 250: 53.08 251:113.55 252: 37.70 253: 82.31 254: 75.24 255: 53.14 256: 78.24
 257: 10.94 258: 46.27 259: 29.81 260: 10.37 261: 36.50 262: 63.97 263:210.51 264:114.20
 265:310.48 266: 75.95 267: 61.03 268:277.95 269:126.54 270: 69.64 271: 69.65 272: 42.39
 273: 28.84 274:179.72 275:565.57 276:156.75 277:219.33 278:156.16 279: 67.94 280:129.92
 281:124.40 282: 27.05 283:138.21 284: 88.30 285:134.94 286:472.43 287: 71.40 288:122.94
 289:  8.98 290:174.97 291:  6.21 292:100.67 293: 18.22 294: 63.61 295: 15.69 296:  4.80
 297:101.45 298: 27.70 299:341.33 300: 55.48 301:175.80 302: 66.29 303: 89.37 304: 43.51
 305:146.36 306: 33.64 307: 89.36 308:112.22 309:100.15 310:  5.25 311: 42.18 312: 68.13
 313: 42.67 314: 40.16 315: 81.47 316:196.38 317: 24.18 318: 20.92 319:  8.50 320:127.42
 321: 14.33 322: 63.22 323:108.04 324:305.64 325:195.37 326:112.92 327: 79.07 328: 31.61
 329:209.13 330: 72.16 331:434.35 332: 77.21 333: 30.88 334:151.19 335: 85.87 336:343.12
 337: 10.42 338:150.43 339:449.03 340:378.27 341:155.87 342: 24.22 343:228.51 344:280.36
 345:118.44 346: 30.29 347:184.62 348:171.30 349: 10.80 350:138.35 351:315.92 352:222.11
 353:106.23 354: 66.22 355:262.76 356: 92.24 357: 53.48 358:442.56 359:243.62 360: 31.05
 361:162.11 362: 37.57 363:147.24 364: 53.49 365: 96.45 366: 87.13 367:160.46 368: 90.47
 369:497.11 370:452.70 371:172.48 372:205.64 373:138.38 374:551.97 375: 91.54 376:182.52
 377:685.71 378:340.48 379:307.54 380: 99.33 381:211.78 382:212.35 383:309.15 384:618.31
 385: 58.65 386:402.04 387:466.80 388:591.41 389:425.74 390:707.16 391:252.44 392:256.26
 393:170.77 394:605.96 395:895.26 396: 86.72 397:****** 398: 81.57 399:321.04 400:219.96
 401:286.16 402:425.96 403:207.30 404:161.74 405: 65.44 406:234.44 407:374.45 408:136.71
 409:243.74 410:113.31 411: 94.08 412:372.85 413:171.51 414:310.94 415:104.20 416: 83.47
 417:395.52 418:180.12 419:149.65 420:163.63 421:153.93 422:315.88 423: 21.90 424:328.97
 425:346.73 426: 62.90 427:205.35 428:565.42 429:417.02 430:187.46 431:172.70 432: 76.21
 433: 49.07 434:328.32 435:361.11 436:138.05 437:182.50 438:110.78 439:426.04 440:220.42
 441:345.45 442:210.98 443:296.30 444: 23.47 445:242.07 446:195.37 447:105.98 448:174.93
 449:217.35 450:250.81 451:  8.27 452: 47.76 453: 21.82 454:241.62 455:109.37 456:291.13
 457:169.25 458:233.49 459:563.08 460:199.44 461:109.16 462:308.03 463: 58.51 464:118.40
 465: 12.39 466:****** 467:****** 468:****** 469:****** 470:****** 471:****** 472:******
 473:132.88 474:621.73 475:****** 476:****** 477:266.99 478:618.51 479:340.88 480:281.43
 481:570.96 482:****** 483:774.78 484:628.72 485:605.05 486:548.58 487:961.76 488:621.10
 489:****** 490:695.57 491:587.13 492:407.02 493:373.26 494:****** 495:  7.01 496:575.60
 497:318.34 498:465.64 499:881.17 500:428.38 501:476.80 502:552.89 503:505.96 504:424.63
 505:477.82 506:253.81 507:462.26 508:250.34 509:370.80 510:396.21 511:556.34 512:377.01
 513:488.34 514:504.55 515:171.31 516:526.89 517:358.83 518: 79.11 519: 87.67 520:289.40
 521:297.44 522:151.08 523:264.37 524:252.02 525:141.10 526:391.44 527:202.19 528:135.29
 529: 79.87 530: 94.88 531:133.18 532:  6.75 533:187.97 534: 46.71 535: 61.23 536:208.56
 537: 64.22 538:100.23 539: 95.64 540: 82.71 541: 78.64 542:125.32 543:156.17 544: 65.21
 545: 91.05 546: 56.00 547:127.56 548: 89.52 549: 64.67 550: 94.53 551: 71.98 552:130.84
 553: 25.75 554: 88.77 555:116.43 556: 53.45 557: 86.15 558:111.29 559:102.46 560: 97.02
 561: 40.36 562: 44.81 563: 77.80 564: 88.60 565: 59.28 566:113.51 567: 79.67 568:107.36
 569: 93.35 570: 57.24 571: 61.70 572: 72.14 573: 93.34 574: 25.21 575: 97.75 576: 62.74
 577:103.87 578: 62.74 579: 74.16 580: 84.25 581: 85.68 582: 87.67 583: 97.33 584: 62.81
 585: 94.21 586: 67.49 587: 70.86 588: 56.27 589: 99.29 590: 48.59 591: 93.06 592: 66.41
 593: 52.88 594: 65.28 595: 66.50 596: 64.72 597: 53.54
 Raman intensities (amu)
   1:  0.00   2:  0.00   3:  0.00   4:  0.00   5:  0.00   6:  0.00   7:  0.00   8:  0.00
   9:  0.00  10:  0.00  11:  0.00  12:  0.00  13:  0.00  14:  0.00  15:  0.00  16:  0.00
  17:  0.00  18:  0.00  19:  0.00  20:  0.00  21:  0.00  22:  0.00  23:  0.00  24:  0.00
  25:  0.00  26:  0.00  27:  0.00  28:  0.00  29:  0.00  30:  0.00  31:  0.00  32:  0.00
  33:  0.00  34:  0.00  35:  0.00  36:  0.00  37:  0.00  38:  0.00  39:  0.00  40:  0.00
  41:  0.00  42:  0.00  43:  0.00  44:  0.00  45:  0.00  46:  0.00  47:  0.00  48:  0.00
  49:  0.00  50:  0.00  51:  0.00  52:  0.00  53:  0.00  54:  0.00  55:  0.00  56:  0.00
  57:  0.00  58:  0.00  59:  0.00  60:  0.00  61:  0.00  62:  0.00  63:  0.00  64:  0.00
  65:  0.00  66:  0.00  67:  0.00  68:  0.00  69:  0.00  70:  0.00  71:  0.00  72:  0.00
  73:  0.00  74:  0.00  75:  0.00  76:  0.00  77:  0.00  78:  0.00  79:  0.00  80:  0.00
  81:  0.00  82:  0.00  83:  0.00  84:  0.00  85:  0.00  86:  0.00  87:  0.00  88:  0.00
  89:  0.00  90:  0.00  91:  0.00  92:  0.00  93:  0.00  94:  0.00  95:  0.00  96:  0.00
  97:  0.00  98:  0.00  99:  0.00 100:  0.00 101:  0.00 102:  0.00 103:  0.00 104:  0.00
 105:  0.00 106:  0.00 107:  0.00 108:  0.00 109:  0.00 110:  0.00 111:  0.00 112:  0.00
 113:  0.00 114:  0.00 115:  0.00 116:  0.00 117:  0.00 118:  0.00 119:  0.00 120:  0.00
 121:  0.00 122:  0.00 123:  0.00 124:  0.00 125:  0.00 126:  0.00 127:  0.00 128:  0.00
 129:  0.00 130:  0.00 131:  0.00 132:  0.00 133:  0.00 134:  0.00 135:  0.00 136:  0.00
 137:  0.00 138:  0.00 139:  0.00 140:  0.00 141:  0.00 142:  0.00 143:  0.00 144:  0.00
 145:  0.00 146:  0.00 147:  0.00 148:  0.00 149:  0.00 150:  0.00 151:  0.00 152:  0.00
 153:  0.00 154:  0.00 155:  0.00 156:  0.00 157:  0.00 158:  0.00 159:  0.00 160:  0.00
 161:  0.00 162:  0.00 163:  0.00 164:  0.00 165:  0.00 166:  0.00 167:  0.00 168:  0.00
 169:  0.00 170:  0.00 171:  0.00 172:  0.00 173:  0.00 174:  0.00 175:  0.00 176:  0.00
 177:  0.00 178:  0.00 179:  0.00 180:  0.00 181:  0.00 182:  0.00 183:  0.00 184:  0.00
 185:  0.00 186:  0.00 187:  0.00 188:  0.00 189:  0.00 190:  0.00 191:  0.00 192:  0.00
 193:  0.00 194:  0.00 195:  0.00 196:  0.00 197:  0.00 198:  0.00 199:  0.00 200:  0.00
 201:  0.00 202:  0.00 203:  0.00 204:  0.00 205:  0.00 206:  0.00 207:  0.00 208:  0.00
 209:  0.00 210:  0.00 211:  0.00 212:  0.00 213:  0.00 214:  0.00 215:  0.00 216:  0.00
 217:  0.00 218:  0.00 219:  0.00 220:  0.00 221:  0.00 222:  0.00 223:  0.00 224:  0.00
 225:  0.00 226:  0.00 227:  0.00 228:  0.00 229:  0.00 230:  0.00 231:  0.00 232:  0.00
 233:  0.00 234:  0.00 235:  0.00 236:  0.00 237:  0.00 238:  0.00 239:  0.00 240:  0.00
 241:  0.00 242:  0.00 243:  0.00 244:  0.00 245:  0.00 246:  0.00 247:  0.00 248:  0.00
 249:  0.00 250:  0.00 251:  0.00 252:  0.00 253:  0.00 254:  0.00 255:  0.00 256:  0.00
 257:  0.00 258:  0.00 259:  0.00 260:  0.00 261:  0.00 262:  0.00 263:  0.00 264:  0.00
 265:  0.00 266:  0.00 267:  0.00 268:  0.00 269:  0.00 270:  0.00 271:  0.00 272:  0.00
 273:  0.00 274:  0.00 275:  0.00 276:  0.00 277:  0.00 278:  0.00 279:  0.00 280:  0.00
 281:  0.00 282:  0.00 283:  0.00 284:  0.00 285:  0.00 286:  0.00 287:  0.00 288:  0.00
 289:  0.00 290:  0.00 291:  0.00 292:  0.00 293:  0.00 294:  0.00 295:  0.00 296:  0.00
 297:  0.00 298:  0.00 299:  0.00 300:  0.00 301:  0.00 302:  0.00 303:  0.00 304:  0.00
 305:  0.00 306:  0.00 307:  0.00 308:  0.00 309:  0.00 310:  0.00 311:  0.00 312:  0.00
 313:  0.00 314:  0.00 315:  0.00 316:  0.00 317:  0.00 318:  0.00 319:  0.00 320:  0.00
 321:  0.00 322:  0.00 323:  0.00 324:  0.00 325:  0.00 326:  0.00 327:  0.00 328:  0.00
 329:  0.00 330:  0.00 331:  0.00 332:  0.00 333:  0.00 334:  0.00 335:  0.00 336:  0.00
 337:  0.00 338:  0.00 339:  0.00 340:  0.00 341:  0.00 342:  0.00 343:  0.00 344:  0.00
 345:  0.00 346:  0.00 347:  0.00 348:  0.00 349:  0.00 350:  0.00 351:  0.00 352:  0.00
 353:  0.00 354:  0.00 355:  0.00 356:  0.00 357:  0.00 358:  0.00 359:  0.00 360:  0.00
 361:  0.00 362:  0.00 363:  0.00 364:  0.00 365:  0.00 366:  0.00 367:  0.00 368:  0.00
 369:  0.00 370:  0.00 371:  0.00 372:  0.00 373:  0.00 374:  0.00 375:  0.00 376:  0.00
 377:  0.00 378:  0.00 379:  0.00 380:  0.00 381:  0.00 382:  0.00 383:  0.00 384:  0.00
 385:  0.00 386:  0.00 387:  0.00 388:  0.00 389:  0.00 390:  0.00 391:  0.00 392:  0.00
 393:  0.00 394:  0.00 395:  0.00 396:  0.00 397:  0.00 398:  0.00 399:  0.00 400:  0.00
 401:  0.00 402:  0.00 403:  0.00 404:  0.00 405:  0.00 406:  0.00 407:  0.00 408:  0.00
 409:  0.00 410:  0.00 411:  0.00 412:  0.00 413:  0.00 414:  0.00 415:  0.00 416:  0.00
 417:  0.00 418:  0.00 419:  0.00 420:  0.00 421:  0.00 422:  0.00 423:  0.00 424:  0.00
 425:  0.00 426:  0.00 427:  0.00 428:  0.00 429:  0.00 430:  0.00 431:  0.00 432:  0.00
 433:  0.00 434:  0.00 435:  0.00 436:  0.00 437:  0.00 438:  0.00 439:  0.00 440:  0.00
 441:  0.00 442:  0.00 443:  0.00 444:  0.00 445:  0.00 446:  0.00 447:  0.00 448:  0.00
 449:  0.00 450:  0.00 451:  0.00 452:  0.00 453:  0.00 454:  0.00 455:  0.00 456:  0.00
 457:  0.00 458:  0.00 459:  0.00 460:  0.00 461:  0.00 462:  0.00 463:  0.00 464:  0.00
 465:  0.00 466:  0.00 467:  0.00 468:  0.00 469:  0.00 470:  0.00 471:  0.00 472:  0.00
 473:  0.00 474:  0.00 475:  0.00 476:  0.00 477:  0.00 478:  0.00 479:  0.00 480:  0.00
 481:  0.00 482:  0.00 483:  0.00 484:  0.00 485:  0.00 486:  0.00 487:  0.00 488:  0.00
 489:  0.00 490:  0.00 491:  0.00 492:  0.00 493:  0.00 494:  0.00 495:  0.00 496:  0.00
 497:  0.00 498:  0.00 499:  0.00 500:  0.00 501:  0.00 502:  0.00 503:  0.00 504:  0.00
 505:  0.00 506:  0.00 507:  0.00 508:  0.00 509:  0.00 510:  0.00 511:  0.00 512:  0.00
 513:  0.00 514:  0.00 515:  0.00 516:  0.00 517:  0.00 518:  0.00 519:  0.00 520:  0.00
 521:  0.00 522:  0.00 523:  0.00 524:  0.00 525:  0.00 526:  0.00 527:  0.00 528:  0.00
 529:  0.00 530:  0.00 531:  0.00 532:  0.00 533:  0.00 534:  0.00 535:  0.00 536:  0.00
 537:  0.00 538:  0.00 539:  0.00 540:  0.00 541:  0.00 542:  0.00 543:  0.00 544:  0.00
Molecule has no symmetry elements
It seems to be the C1 point group
 545:  0.00 546:  0.00 547:  0.00 548:  0.00 549:  0.00 550:  0.00 551:  0.00 552:  0.00
 553:  0.00 554:  0.00 555:  0.00 556:  0.00 557:  0.00 558:  0.00 559:  0.00 560:  0.00
 561:  0.00 562:  0.00 563:  0.00 564:  0.00 565:  0.00 566:  0.00 567:  0.00 568:  0.00
 569:  0.00 570:  0.00 571:  0.00 572:  0.00 573:  0.00 574:  0.00 575:  0.00 576:  0.00
 577:  0.00 578:  0.00 579:  0.00 580:  0.00 581:  0.00 582:  0.00 583:  0.00 584:  0.00
 585:  0.00 586:  0.00 587:  0.00 588:  0.00 589:  0.00 590:  0.00 591:  0.00 592:  0.00
 593:  0.00 594:  0.00 595:  0.00 596:  0.00 597:  0.00
 output can be read by thermo (or use thermo option).
 writing <g98.out> molden fake output.
 recommended (thermochemical) frequency scaling factor: 1.0
           -------------------------------------------------
          |             Thermodynamic Functions             |
           -------------------------------------------------

c1  symmetry found (for desy threshold:  0.10E+00) used in thermo

          ...................................................
          :                      SETUP                      :
          :.................................................:
          :  # frequencies                         591      :
          :  # imaginary freq.                       0      :
          :  linear?                             false      :
          :  only rotor calc.                    false      :
          :  symmetry                               c1      :
          :  rotational number                       1      :
          :  scaling factor                  1.0000000      :
          :  rotor cutoff                   50.0000000 cm⁻¹ :
          :  imag. cutoff                  -20.0000000 cm⁻¹ :
          :.................................................:

    mode    ω/cm⁻¹     T·S(HO)/kcal·mol⁻¹    T·S(FR)/kcal·mol⁻¹   T·S(vib)
   ------------------------------------------------------------------------
       1      7.58    -2.55254 (  0.05%)    -1.61536 ( 99.95%)    -1.61585
       2     11.77    -2.29220 (  0.31%)    -1.48517 ( 99.69%)    -1.48763
       3     12.44    -2.25931 (  0.38%)    -1.46872 ( 99.62%)    -1.47173
       4     13.22    -2.22333 (  0.49%)    -1.45072 ( 99.51%)    -1.45448
       5     14.95    -2.15047 (  0.79%)    -1.41428 ( 99.21%)    -1.42011
       6     15.58    -2.12587 (  0.93%)    -1.40198 ( 99.07%)    -1.40874
       7     16.41    -2.09508 (  1.15%)    -1.38657 ( 98.85%)    -1.39470
       8     18.88    -2.01215 (  1.99%)    -1.34509 ( 98.01%)    -1.35837
       9     19.06    -2.00638 (  2.07%)    -1.34220 ( 97.93%)    -1.35594
      10     20.41    -1.96585 (  2.70%)    -1.32192 ( 97.30%)    -1.33933
      11     21.63    -1.93153 (  3.39%)    -1.30474 ( 96.61%)    -1.32596
      12     23.02    -1.89465 (  4.30%)    -1.28629 ( 95.70%)    -1.31246
      13     23.55    -1.88121 (  4.69%)    -1.27956 ( 95.31%)    -1.30779
      14     24.40    -1.86034 (  5.36%)    -1.26911 ( 94.64%)    -1.30083
      15     24.61    -1.85521 (  5.54%)    -1.26654 ( 94.46%)    -1.29918
      16     26.28    -1.81631 (  7.09%)    -1.24707 ( 92.91%)    -1.28744
      17     27.21    -1.79575 (  8.07%)    -1.23678 ( 91.93%)    -1.28186
      18     27.60    -1.78740 (  8.49%)    -1.23260 ( 91.51%)    -1.27972
      19     28.60    -1.76628 (  9.67%)    -1.22202 ( 90.33%)    -1.27466
      20     29.32    -1.75168 ( 10.57%)    -1.21471 ( 89.43%)    -1.27146
      21     30.00    -1.73805 ( 11.47%)    -1.20788 ( 88.53%)    -1.26870
      22     30.81    -1.72228 ( 12.60%)    -1.19998 ( 87.40%)    -1.26579
      23     31.65    -1.70635 ( 13.84%)    -1.19200 ( 86.16%)    -1.26317
      24     32.20    -1.69618 ( 14.68%)    -1.18691 ( 85.32%)    -1.26165
      25     33.25    -1.67729 ( 16.35%)    -1.17744 ( 83.65%)    -1.25917
      26     33.68    -1.66967 ( 17.07%)    -1.17362 ( 82.93%)    -1.25829
      27     33.79    -1.66771 ( 17.26%)    -1.17264 ( 82.74%)    -1.25807
      28     34.79    -1.65047 ( 18.99%)    -1.16400 ( 81.01%)    -1.25636
      29     35.30    -1.64190 ( 19.89%)    -1.15971 ( 80.11%)    -1.25564
      30     36.54    -1.62139 ( 22.20%)    -1.14942 ( 77.80%)    -1.25420
      31     36.91    -1.61554 ( 22.89%)    -1.14649 ( 77.11%)    -1.25386
      32     37.29    -1.60943 ( 23.63%)    -1.14343 ( 76.37%)    -1.25354
      33     37.72    -1.60264 ( 24.47%)    -1.14003 ( 75.53%)    -1.25322
      34     38.43    -1.59170 ( 25.86%)    -1.13454 ( 74.14%)    -1.25278
      35     38.87    -1.58485 ( 26.76%)    -1.13111 ( 73.24%)    -1.25254
      36     39.44    -1.57638 ( 27.90%)    -1.12686 ( 72.10%)    -1.25228
      37     40.71    -1.55761 ( 30.53%)    -1.11745 ( 69.47%)    -1.25182
      38     41.34    -1.54852 ( 31.85%)    -1.11288 ( 68.15%)    -1.25163
      39     41.39    -1.54778 ( 31.96%)    -1.11251 ( 68.04%)    -1.25162
      40     42.43    -1.53323 ( 34.14%)    -1.10521 ( 65.86%)    -1.25133
      41     42.57    -1.53122 ( 34.45%)    -1.10420 ( 65.55%)    -1.25129
      42     43.47    -1.51894 ( 36.35%)    -1.09804 ( 63.65%)    -1.25103
      43     44.07    -1.51081 ( 37.63%)    -1.09396 ( 62.37%)    -1.25083
      44     44.45    -1.50566 ( 38.46%)    -1.09138 ( 61.54%)    -1.25069
      45     44.96    -1.49892 ( 39.54%)    -1.08799 ( 60.46%)    -1.25048
      46     45.52    -1.49169 ( 40.72%)    -1.08436 ( 59.28%)    -1.25022
      47     46.14    -1.48374 ( 42.03%)    -1.08038 ( 57.97%)    -1.24989
      48     47.66    -1.46455 ( 45.22%)    -1.07074 ( 54.78%)    -1.24884
      49     48.62    -1.45275 ( 47.21%)    -1.06481 ( 52.79%)    -1.24797
      50     49.40    -1.44339 ( 48.80%)    -1.06011 ( 51.20%)    -1.24714
      51     49.51    -1.44215 ( 49.01%)    -1.05949 ( 50.99%)    -1.24702
      52     50.22    -1.43372 ( 50.44%)    -1.05525 ( 49.56%)    -1.24614
      53     50.94    -1.42529 ( 51.87%)    -1.05102 ( 48.13%)    -1.24514
      54     51.65    -1.41720 ( 53.24%)    -1.04695 ( 46.76%)    -1.24406
      55     52.29    -1.40994 ( 54.46%)    -1.04330 ( 45.54%)    -1.24297
      56     53.44    -1.39704 ( 56.62%)    -1.03682 ( 43.38%)    -1.24078
      57     53.84    -1.39270 ( 57.34%)    -1.03464 ( 42.66%)    -1.23996
      58     54.47    -1.38581 ( 58.48%)    -1.03117 ( 41.52%)    -1.23858
      59     54.90    -1.38125 ( 59.23%)    -1.02887 ( 40.77%)    -1.23760
      60     55.71    -1.37256 ( 60.65%)    -1.02450 ( 39.35%)    -1.23560
      61     56.22    -1.36724 ( 61.51%)    -1.02183 ( 38.49%)    -1.23429
      62     56.64    -1.36282 ( 62.22%)    -1.01961 ( 37.78%)    -1.23315
      63     57.10    -1.35809 ( 62.97%)    -1.01723 ( 37.03%)    -1.23187
      64     57.84    -1.35050 ( 64.16%)    -1.01341 ( 35.84%)    -1.22970
      65     59.07    -1.33808 ( 66.08%)    -1.00715 ( 33.92%)    -1.22584
      66     59.70    -1.33181 ( 67.03%)    -1.00400 ( 32.97%)    -1.22373
      67     60.35    -1.32554 ( 67.97%)    -1.00084 ( 32.03%)    -1.22152
      68     60.52    -1.32380 ( 68.22%)    -0.99996 ( 31.78%)    -1.22089
      69     61.25    -1.31677 ( 69.25%)    -0.99643 ( 30.75%)    -1.21826
      70     61.58    -1.31359 ( 69.71%)    -0.99482 ( 30.29%)    -1.21703
      71     62.03    -1.30937 ( 70.31%)    -0.99270 ( 29.69%)    -1.21535
      72     62.91    -1.30106 ( 71.48%)    -0.98851 ( 28.52%)    -1.21191
      73     63.50    -1.29557 ( 72.23%)    -0.98574 ( 27.77%)    -1.20954
      74     64.36    -1.28768 ( 73.30%)    -0.98177 ( 26.70%)    -1.20599
      75     64.50    -1.28640 ( 73.47%)    -0.98112 ( 26.53%)    -1.20540
      76     64.95    -1.28232 ( 74.00%)    -0.97907 ( 26.00%)    -1.20349
      77     65.31    -1.27908 ( 74.43%)    -0.97743 ( 25.57%)    -1.20194
      78     66.50    -1.26840 ( 75.79%)    -0.97205 ( 24.21%)    -1.19664
      79     67.02    -1.26390 ( 76.34%)    -0.96978 ( 23.66%)    -1.19432
      80     67.25    -1.26182 ( 76.60%)    -0.96873 ( 23.40%)    -1.19323
      81     67.87    -1.25647 ( 77.25%)    -0.96603 ( 22.75%)    -1.19038
      82     68.01    -1.25528 ( 77.39%)    -0.96543 ( 22.61%)    -1.18974
      83     68.89    -1.24768 ( 78.28%)    -0.96160 ( 21.72%)    -1.18555
      84     69.33    -1.24398 ( 78.71%)    -0.95973 ( 21.29%)    -1.18345
      85     70.05    -1.23788 ( 79.40%)    -0.95665 ( 20.60%)    -1.17993
      86     70.52    -1.23394 ( 79.83%)    -0.95466 ( 20.17%)    -1.17761
      87     71.09    -1.22925 ( 80.34%)    -0.95229 ( 19.66%)    -1.17480
      88     71.86    -1.22289 ( 81.02%)    -0.94908 ( 18.98%)    -1.17091
      89     72.50    -1.21771 ( 81.55%)    -0.94646 ( 18.45%)    -1.16767
      90     73.17    -1.21236 ( 82.10%)    -0.94376 ( 17.90%)    -1.16427
      91     73.85    -1.20690 ( 82.64%)    -0.94101 ( 17.36%)    -1.16074
      92     74.29    -1.20347 ( 82.97%)    -0.93927 ( 17.03%)    -1.15848
      93     74.93    -1.19841 ( 83.45%)    -0.93671 ( 16.55%)    -1.15511
      94     75.27    -1.19574 ( 83.70%)    -0.93536 ( 16.30%)    -1.15331
      95     76.62    -1.18530 ( 84.65%)    -0.93008 ( 15.35%)    -1.14613
      96     76.95    -1.18282 ( 84.87%)    -0.92883 ( 15.13%)    -1.14439
      97     78.65    -1.17004 ( 85.96%)    -0.92236 ( 14.04%)    -1.13526
      98     79.30    -1.16519 ( 86.35%)    -0.91991 ( 13.65%)    -1.13172
      99     79.92    -1.16067 ( 86.71%)    -0.91762 ( 13.29%)    -1.12838
     100     80.79    -1.15433 ( 87.21%)    -0.91441 ( 12.79%)    -1.12363
     101     81.33    -1.15041 ( 87.50%)    -0.91243 ( 12.50%)    -1.12066
     102     81.70    -1.14779 ( 87.70%)    -0.91110 ( 12.30%)    -1.11867
     103     82.70    -1.14063 ( 88.21%)    -0.90747 ( 11.79%)    -1.11315
     104     84.10    -1.13085 ( 88.89%)    -0.90252 ( 11.11%)    -1.10549
     105     84.73    -1.12648 ( 89.18%)    -0.90030 ( 10.82%)    -1.10202
     106     85.72    -1.11965 ( 89.63%)    -0.89684 ( 10.37%)    -1.09654
     107     86.04    -1.11748 ( 89.76%)    -0.89574 ( 10.24%)    -1.09478
     108     87.38    -1.10847 ( 90.32%)    -0.89117 (  9.68%)    -1.08743
     109     87.85    -1.10538 ( 90.50%)    -0.88960 (  9.50%)    -1.08489
     110     88.66    -1.10001 ( 90.81%)    -0.88687 (  9.19%)    -1.08043
     111     89.18    -1.09660 ( 91.01%)    -0.88514 (  8.99%)    -1.07758
     112     89.79    -1.09261 ( 91.23%)    -0.88312 (  8.77%)    -1.07423
     113     90.33    -1.08909 ( 91.42%)    -0.88133 (  8.58%)    -1.07126
     114     91.31    -1.08281 ( 91.75%)    -0.87814 (  8.25%)    -1.06593
     115     92.74    -1.07377 ( 92.21%)    -0.87354 (  7.79%)    -1.05817
     116     93.65    -1.06809 ( 92.48%)    -0.87066 (  7.52%)    -1.05326
     117     94.31    -1.06399 ( 92.68%)    -0.86857 (  7.32%)    -1.04968
     118     95.89    -1.05433 ( 93.12%)    -0.86365 (  6.88%)    -1.04121
     119     97.72    -1.04331 ( 93.59%)    -0.85804 (  6.41%)    -1.03142
     120     99.41    -1.03335 ( 93.99%)    -0.85297 (  6.01%)    -1.02250
     121    100.88    -1.02479 ( 94.31%)    -0.84860 (  5.69%)    -1.01476
     122    103.22    -1.01151 ( 94.78%)    -0.84183 (  5.22%)    -1.00265
     123    105.82    -0.99709 ( 95.25%)    -0.83446 (  4.75%)    -0.98937
     124    107.87    -0.98596 ( 95.59%)    -0.82877 (  4.41%)    -0.97902
     125    109.21    -0.97881 ( 95.79%)    -0.82512 (  4.21%)    -0.97234
     126    112.97    -0.95920 ( 96.30%)    -0.81508 (  3.70%)    -0.95388
     127    115.79    -0.94499 ( 96.64%)    -0.80779 (  3.36%)    -0.94038
     128    120.55    -0.92173 ( 97.13%)    -0.79584 (  2.87%)    -0.91812
     129    123.20    -0.90920 ( 97.36%)    -0.78939 (  2.64%)    -0.90604
     130    127.15    -0.89109 ( 97.66%)    -0.78006 (  2.34%)    -0.88850
     131    129.95    -0.87857 ( 97.86%)    -0.77359 (  2.14%)    -0.87632
     132    130.56    -0.87588 ( 97.89%)    -0.77220 (  2.11%)    -0.87370
     133    131.73    -0.87080 ( 97.97%)    -0.76958 (  2.03%)    -0.86874
     134    134.71    -0.85796 ( 98.14%)    -0.76293 (  1.86%)    -0.85619
     135    138.96    -0.84024 ( 98.35%)    -0.75375 (  1.65%)    -0.83881
     136    141.07    -0.83164 ( 98.45%)    -0.74928 (  1.55%)    -0.83036
     137    142.58    -0.82558 ( 98.51%)    -0.74613 (  1.49%)    -0.82440
     138    146.17    -0.81142 ( 98.65%)    -0.73876 (  1.35%)    -0.81044
     139    148.75    -0.80148 ( 98.74%)    -0.73358 (  1.26%)    -0.80063
     140    149.51    -0.79860 ( 98.76%)    -0.73207 (  1.24%)    -0.79777
     141    151.72    -0.79025 ( 98.83%)    -0.72771 (  1.17%)    -0.78952
     142    153.75    -0.78272 ( 98.89%)    -0.72377 (  1.11%)    -0.78207
     143    156.76    -0.77177 ( 98.98%)    -0.71804 (  1.02%)    -0.77122
     144    157.54    -0.76898 ( 99.00%)    -0.71657 (  1.00%)    -0.76845
     145    159.69    -0.76133 ( 99.05%)    -0.71256 (  0.95%)    -0.76086
     146    160.84    -0.75725 ( 99.07%)    -0.71042 (  0.93%)    -0.75682
     147    161.46    -0.75510 ( 99.09%)    -0.70928 (  0.91%)    -0.75468
     148    162.91    -0.75007 ( 99.12%)    -0.70664 (  0.88%)    -0.74969
     149    164.68    -0.74397 ( 99.16%)    -0.70343 (  0.84%)    -0.74363
     150    166.61    -0.73745 ( 99.20%)    -0.69999 (  0.80%)    -0.73715
     151    168.26    -0.73190 ( 99.23%)    -0.69706 (  0.77%)    -0.73163
     152    169.06    -0.72924 ( 99.24%)    -0.69566 (  0.76%)    -0.72899
     153    169.79    -0.72682 ( 99.25%)    -0.69438 (  0.75%)    -0.72658
     154    170.79    -0.72354 ( 99.27%)    -0.69264 (  0.73%)    -0.72332
     155    173.36    -0.71518 ( 99.31%)    -0.68822 (  0.69%)    -0.71500
     156    174.09    -0.71284 ( 99.32%)    -0.68698 (  0.68%)    -0.71267
     157    174.37    -0.71194 ( 99.33%)    -0.68650 (  0.67%)    -0.71177
     158    177.18    -0.70300 ( 99.37%)    -0.68175 (  0.63%)    -0.70287
     159    178.82    -0.69788 ( 99.39%)    -0.67903 (  0.61%)    -0.69776
     160    179.68    -0.69520 ( 99.40%)    -0.67761 (  0.60%)    -0.69509
     161    180.95    -0.69129 ( 99.42%)    -0.67552 (  0.58%)    -0.69119
     162    183.76    -0.68272 ( 99.45%)    -0.67096 (  0.55%)    -0.68265
     163    184.19    -0.68142 ( 99.46%)    -0.67026 (  0.54%)    -0.68136
     164    187.46    -0.67168 ( 99.50%)    -0.66506 (  0.50%)    -0.67164
     165    188.21    -0.66947 ( 99.50%)    -0.66388 (  0.50%)    -0.66945
     166    191.13    -0.66094 ( 99.53%)    -0.65931 (  0.47%)    -0.66093
     167    193.32    -0.65465 ( 99.55%)    -0.65593 (  0.45%)    -0.65466
     168    195.59    -0.64822 ( 99.57%)    -0.65247 (  0.43%)    -0.64824
     169    196.75    -0.64497 ( 99.58%)    -0.65072 (  0.42%)    -0.64500
     170    199.34    -0.63780 ( 99.61%)    -0.64685 (  0.39%)    -0.63783
     171    200.10    -0.63572 ( 99.61%)    -0.64573 (  0.39%)    -0.63576
     172    201.38    -0.63221 ( 99.62%)    -0.64384 (  0.38%)    -0.63226
     173    202.60    -0.62891 ( 99.63%)    -0.64205 (  0.37%)    -0.62896
     174    204.00    -0.62515 ( 99.64%)    -0.64001 (  0.36%)    -0.62520
     175    204.94    -0.62263 ( 99.65%)    -0.63864 (  0.35%)    -0.62268
     176    205.56    -0.62098 ( 99.65%)    -0.63775 (  0.35%)    -0.62104
     177    206.56    -0.61832 ( 99.66%)    -0.63631 (  0.34%)    -0.61838
     178    208.01    -0.61451 ( 99.67%)    -0.63424 (  0.33%)    -0.61458
     179    209.23    -0.61131 ( 99.67%)    -0.63250 (  0.33%)    -0.61138
     180    209.97    -0.60939 ( 99.68%)    -0.63146 (  0.32%)    -0.60946
     181    211.46    -0.60554 ( 99.69%)    -0.62936 (  0.31%)    -0.60562
     182    213.51    -0.60031 ( 99.70%)    -0.62651 (  0.30%)    -0.60039
     183    214.10    -0.59881 ( 99.70%)    -0.62569 (  0.30%)    -0.59889
     184    214.33    -0.59823 ( 99.70%)    -0.62537 (  0.30%)    -0.59831
     185    215.45    -0.59541 ( 99.71%)    -0.62383 (  0.29%)    -0.59550
     186    215.78    -0.59457 ( 99.71%)    -0.62337 (  0.29%)    -0.59465
     187    218.93    -0.58674 ( 99.73%)    -0.61908 (  0.27%)    -0.58683
     188    220.97    -0.58173 ( 99.74%)    -0.61633 (  0.26%)    -0.58182
     189    221.07    -0.58148 ( 99.74%)    -0.61620 (  0.26%)    -0.58157
     190    222.22    -0.57869 ( 99.74%)    -0.61466 (  0.26%)    -0.57878
     191    225.26    -0.57137 ( 99.76%)    -0.61064 (  0.24%)    -0.57147
     192    227.09    -0.56703 ( 99.77%)    -0.60824 (  0.23%)    -0.56713
     193    228.07    -0.56472 ( 99.77%)    -0.60696 (  0.23%)    -0.56482
     194    229.26    -0.56193 ( 99.77%)    -0.60542 (  0.23%)    -0.56203
     195    230.16    -0.55984 ( 99.78%)    -0.60426 (  0.22%)    -0.55994
     196    233.12    -0.55301 ( 99.79%)    -0.60048 (  0.21%)    -0.55311
     197    235.16    -0.54836 ( 99.80%)    -0.59790 (  0.20%)    -0.54846
     198    235.49    -0.54762 ( 99.80%)    -0.59748 (  0.20%)    -0.54772
     199    237.63    -0.54281 ( 99.80%)    -0.59481 (  0.20%)    -0.54291
     200    238.54    -0.54077 ( 99.81%)    -0.59367 (  0.19%)    -0.54087
     201    238.88    -0.54000 ( 99.81%)    -0.59324 (  0.19%)    -0.54011
     202    239.57    -0.53848 ( 99.81%)    -0.59239 (  0.19%)    -0.53859
     203    240.13    -0.53725 ( 99.81%)    -0.59170 (  0.19%)    -0.53735
     204    242.56    -0.53190 ( 99.82%)    -0.58871 (  0.18%)    -0.53200
     205    244.02    -0.52873 ( 99.82%)    -0.58694 (  0.18%)    -0.52883
     206    244.61    -0.52746 ( 99.83%)    -0.58623 (  0.17%)    -0.52756
     207    245.58    -0.52537 ( 99.83%)    -0.58505 (  0.17%)    -0.52547
     208    247.22    -0.52186 ( 99.83%)    -0.58308 (  0.17%)    -0.52197
     209    249.14    -0.51779 ( 99.84%)    -0.58079 (  0.16%)    -0.51789
     210    250.18    -0.51560 ( 99.84%)    -0.57956 (  0.16%)    -0.51570
     211    251.72    -0.51237 ( 99.84%)    -0.57774 (  0.16%)    -0.51248
     212    252.63    -0.51047 ( 99.85%)    -0.57666 (  0.15%)    -0.51058
     213    253.39    -0.50890 ( 99.85%)    -0.57578 (  0.15%)    -0.50900
     214    254.58    -0.50644 ( 99.85%)    -0.57438 (  0.15%)    -0.50654
     215    256.35    -0.50283 ( 99.86%)    -0.57234 (  0.14%)    -0.50293
     216    256.93    -0.50164 ( 99.86%)    -0.57166 (  0.14%)    -0.50174
     217    257.75    -0.49999 ( 99.86%)    -0.57073 (  0.14%)    -0.50009
     218    258.18    -0.49911 ( 99.86%)    -0.57023 (  0.14%)    -0.49921
     219    259.11    -0.49724 ( 99.86%)    -0.56916 (  0.14%)    -0.49733
     220    260.60    -0.49425 ( 99.86%)    -0.56746 (  0.14%)    -0.49435
     221    260.86    -0.49374 ( 99.87%)    -0.56717 (  0.13%)    -0.49384
     222    263.50    -0.48850 ( 99.87%)    -0.56418 (  0.13%)    -0.48860
     223    264.44    -0.48667 ( 99.87%)    -0.56314 (  0.13%)    -0.48677
     224    268.32    -0.47913 ( 99.88%)    -0.55882 (  0.12%)    -0.47923
     225    271.73    -0.47261 ( 99.89%)    -0.55507 (  0.11%)    -0.47271
     226    272.42    -0.47131 ( 99.89%)    -0.55432 (  0.11%)    -0.47140
     227    278.74    -0.45957 ( 99.90%)    -0.54753 (  0.10%)    -0.45966
     228    280.52    -0.45633 ( 99.90%)    -0.54565 (  0.10%)    -0.45642
     229    281.31    -0.45488 ( 99.90%)    -0.54481 (  0.10%)    -0.45497
     230    282.86    -0.45209 ( 99.90%)    -0.54318 (  0.10%)    -0.45217
     231    283.27    -0.45135 ( 99.90%)    -0.54275 (  0.10%)    -0.45144
     232    285.84    -0.44677 ( 99.91%)    -0.54008 (  0.09%)    -0.44686
     233    289.05    -0.44113 ( 99.91%)    -0.53678 (  0.09%)    -0.44121
     234    290.53    -0.43853 ( 99.91%)    -0.53525 (  0.09%)    -0.43862
     235    293.29    -0.43378 ( 99.92%)    -0.53246 (  0.08%)    -0.43387
     236    295.70    -0.42967 ( 99.92%)    -0.53003 (  0.08%)    -0.42975
     237    296.11    -0.42898 ( 99.92%)    -0.52962 (  0.08%)    -0.42906
     238    298.84    -0.42439 ( 99.92%)    -0.52691 (  0.08%)    -0.42447
   ------------------------------------------------------------------------

   temp. (K)  partition function   enthalpy   heat capacity  entropy
                                   cal/mol     cal/K/mol   cal/K/mol   J/K/mol
 298.15  VIB  0.918+115           126393.527    589.781    857.381
         ROT  0.660E+09              888.752      2.981     43.337
         INT  0.606+124           127282.279    592.761    900.718
         TR   0.425E+29             1481.254      4.968     47.213
         TOT                      128763.5333   597.7296   947.9313  3966.1446

       T/K    H(0)-H(T)+PV         H(T)/Eh          T*S/Eh         G(T)/Eh
   ------------------------------------------------------------------------
    298.15    0.205198E+00    0.173005E+01    0.450393E+00    0.127965E+01
   ------------------------------------------------------------------------

         :::::::::::::::::::::::::::::::::::::::::::::::::::::
         ::                  THERMODYNAMIC                  ::
         :::::::::::::::::::::::::::::::::::::::::::::::::::::
         :: total free energy        -337.425613224003 Eh   ::
         ::.................................................::
         :: total energy             -338.705266289768 Eh   ::
         :: zero point energy           1.524848069559 Eh   ::
         :: G(RRHO) w/o ZPVE           -0.245195003794 Eh   ::
         :: G(RRHO) contrib.            1.279653065765 Eh   ::
         :::::::::::::::::::::::::::::::::::::::::::::::::::::

           -------------------------------------------------
          | TOTAL ENERGY             -338.705266289768 Eh   |
          | TOTAL ENTHALPY           -336.975220468506 Eh   |
          | TOTAL FREE ENERGY        -337.425613224003 Eh   |
          | GRADIENT NORM               0.000041138379 Eh/α |
          | HOMO-LUMO GAP               7.172623713063 eV   |
           -------------------------------------------------

------------------------------------------------------------------------
 * finished run on 2024/05/10 at 18:28:28.558     
------------------------------------------------------------------------
 total:
 * wall-time:     0 d,  0 h,  5 min, 14.573 sec
 *  cpu-time:     0 d,  0 h, 33 min, 42.644 sec
 * ratio c/w:     6.430 speedup
 SCF:
 * wall-time:     0 d,  0 h,  0 min,  0.485 sec
 *  cpu-time:     0 d,  0 h,  0 min,  3.514 sec
 * ratio c/w:     7.242 speedup
 analytical hessian:
 * wall-time:     0 d,  0 h,  5 min, 13.380 sec
 *  cpu-time:     0 d,  0 h, 33 min, 36.053 sec
 * ratio c/w:     6.433 speedup

