      -----------------------------------------------------------      
     |                   =====================                   |     
     |                           x T B                           |     
     |                   =====================                   |     
     |                         S. Grimme                         |     
     |          Mulliken Center for Theoretical Chemistry        |     
     |                    University of Bonn                     |     
      -----------------------------------------------------------      

   * xtb version 6.6.0 (conda-forge) compiled by 'runner@Mac-1676020848589.local' on 2023-02-10

   xtb is free software: you can redistribute it and/or modify it under
   the terms of the GNU Lesser General Public License as published by
   the Free Software Foundation, either version 3 of the License, or
   (at your option) any later version.
   
   xtb is distributed in the hope that it will be useful,
   but WITHOUT ANY WARRANTY; without even the implied warranty of
   MERCHANTABILITY or FITNESS FOR A PARTICULAR PURPOSE.  See the
   GNU Lesser General Public License for more details.
   
   Cite this work as:
   * C. Bannwarth, E. Caldeweyher, S. Ehlert, A. Hansen, P. Pracht,
     J. Seibert, S. Spicher, S. Grimme, WIREs Comput. Mol. Sci., 2020, 11,
     e01493. DOI: 10.1002/wcms.1493
   
   for GFN2-xTB:
   * C. Bannwarth, S. Ehlert and S. Grimme., J. Chem. Theory Comput., 2019,
     15, 1652-1671. DOI: 10.1021/acs.jctc.8b01176
   for GFN1-xTB:
   * S. Grimme, C. Bannwarth, P. Shushkov, J. Chem. Theory Comput., 2017,
     13, 1989-2009. DOI: 10.1021/acs.jctc.7b00118
   for GFN0-xTB:
   * P. Pracht, E. Caldeweyher, S. Ehlert, S. Grimme, ChemRxiv, 2019, preprint.
     DOI: 10.26434/chemrxiv.8326202.v1
   for GFN-FF:
   * S. Spicher and S. Grimme, Angew. Chem. Int. Ed., 2020, 59, 15665-15673.
     DOI: 10.1002/anie.202004239
   
   for ALPB and GBSA implicit solvation:
   * S. Ehlert, M. Stahn, S. Spicher, S. Grimme, J. Chem. Theory Comput.,
     2021, 17, 4250-4261. DOI: 10.1021/acs.jctc.1c00471
   
   for DFT-D4:
   * E. Caldeweyher, C. Bannwarth and S. Grimme, J. Chem. Phys., 2017,
     147, 034112. DOI: 10.1063/1.4993215
   * E. Caldeweyher, S. Ehlert, A. Hansen, H. Neugebauer, S. Spicher,
     C. Bannwarth and S. Grimme, J. Chem. Phys., 2019, 150, 154122.
     DOI: 10.1063/1.5090222
   * E. Caldeweyher, J.-M. Mewes, S. Ehlert and S. Grimme, Phys. Chem. Chem. Phys.
     2020, 22, 8499-8512. DOI: 10.1039/D0CP00502A
   
   for sTDA-xTB:
   * S. Grimme and C. Bannwarth, J. Chem. Phys., 2016, 145, 054103.
     DOI: 10.1063/1.4959605
   
   in the mass-spec context:
   * V. Asgeirsson, C. Bauer and S. Grimme, Chem. Sci., 2017, 8, 4879.
     DOI: 10.1039/c7sc00601b
   * J. Koopman and S. Grimme, ACS Omega 2019, 4, 12, 15120-15133.
     DOI: 10.1021/acsomega.9b02011
   
   for metadynamics refer to:
   * S. Grimme, J. Chem. Theory Comput., 2019, 155, 2847-2862
     DOI: 10.1021/acs.jctc.9b00143
   
   for SPH calculations refer to:
   * S. Spicher and S. Grimme, J. Chem. Theory Comput., 2021, 17, 1701-1714
     DOI: 10.1021/acs.jctc.0c01306
   
   with help from (in alphabetical order)
   P. Atkinson, C. Bannwarth, F. Bohle, G. Brandenburg, E. Caldeweyher
   M. Checinski, S. Dohm, S. Ehlert, S. Ehrlich, I. Gerasimov, C. Hölzer
   A. Katbashev, J. Koopman, C. Lavigne, S. Lehtola, F. März, M. Müller,
   F. Musil, H. Neugebauer, J. Pisarek, C. Plett, P. Pracht, F. Pultar,
   J. Seibert, P. Shushkov, S. Spicher, M. Stahn, M. Steiner, T. Strunk,
   J. Stückrath, T. Rose, and J. Unsleber
   
 * started run on 2024/05/10 at 18:28:28.701     

           -------------------------------------------------
          |                Calculation Setup                |
           -------------------------------------------------

          program call               : xtb Fe_39H2O_solvated_radius_9.xyz --opt extreme --gfn2 --chrg 0 --uhf 5 --alpb water
          coordinate file            : Fe_39H2O_solvated_radius_9.xyz
          omp threads                :                     8

   ID    Z sym.   atoms
    1   26 Fe     1
    2    8 O      2-7, 20-31, 56, 59, 62, 65, 68, 71, 74, 77, 80, 83, 86, 89,
                  92, 95, 98, 101, 104, 107, 110, 113, 116, 119, 122, 125,
                  128, 131, 134, 137, 140, 143, 146, 149, 152, 155, 158, 161,
                  164, 167, 170, 173, 176, 179, 182, 185, 188, 191, 194, 197
    3    1 H      8-19, 32-55, 57, 58, 60, 61, 63, 64, 66, 67, 69, 70, 72,
                  73, 75, 76, 78, 79, 81, 82, 84, 85, 87, 88, 90, 91, 93, 94,
                  96, 97, 99, 100, 102, 103, 105, 106, 108, 109, 111, 112,
                  114, 115, 117, 118, 120, 121, 123, 124, 126, 127, 129, 130,
                  132, 133, 135, 136, 138, 139, 141, 142, 144, 145, 147, 148,
                  150, 151, 153, 154, 156, 157, 159, 160, 162, 163, 165, 166,
                  168, 169, 171, 172, 174, 175, 177, 178, 180, 181, 183, 184,
                  186, 187, 189, 190, 192, 193, 195, 196, 198, 199

molecular fragmentation (1/2 indicates fragments):
111222222221222122222222222222222222222222222222222222222222222222222222
222222222222222222222222222222222222222222222222222222222222222222222222
2222222222222222222222222222222222222222222222222222222
# atoms in fragment 1/2:     5   194
 fragment masses (1/2) :       89.86     1154.99
CMA distance (Bohr)    :   0.974
constraining FC (au)   :  0.0500

           -------------------------------------------------
          |                 G F N 2 - x T B                 |
           -------------------------------------------------

        Reference                      10.1021/acs.jctc.8b01176
      * Hamiltonian:
        H0-scaling (s, p, d)           1.850000    2.230000    2.230000
        zeta-weighting                 0.500000
      * Dispersion:
        s8                             2.700000
        a1                             0.520000
        a2                             5.000000
        s9                             5.000000
      * Repulsion:
        kExp                           1.500000    1.000000
        rExp                           1.000000
      * Coulomb:
        alpha                          2.000000
        third order                    shell-resolved
        anisotropic                    true
        a3                             3.000000
        a5                             4.000000
        cn-shift                       1.200000
        cn-exp                         4.000000
        max-rad                        5.000000

      * Solvation model:               ALPB
        Solvent                        water
        Parameter file                 internal GFN2-xTB/ALPB
        Dielectric constant                8.0200E+01
        Reference state                gsolv [1 M gas/solution]
        Free energy shift                  1.0808E-03 Eh       6.7819E-01 kcal/mol
        Temperature                        2.9815E+02 K
        Density                            1.0000E+00 kg/L
        Solvent mass                       1.8000E+01 g/mol
        Interaction kernel             P16
        Born radius scaling (c1)           1.4744E+00
        Born radii integrator          GBOBC
        Born offset                        0.0000E+00 a0       0.0000E+00 AA
        H-bond correction              true
        Ion screening                  false
        Surface tension                    1.0000E-05 Eh       1.5569E+01 dyn/cm
        Grid points                               230 per atom
q/qsh data taken from xtbrestart
CAMM data taken from xtbrestart

          ...................................................
          :                      SETUP                      :
          :.................................................:
          :  # basis functions                 406          :
          :  # atomic orbitals                 405          :
          :  # shells                          267          :
          :  # electrons                       536          :
          :  max. iterations                   250          :
          :  Hamiltonian                  GFN2-xTB          :
          :  restarted?                       true          :
          :  GBSA solvation                   true          :
          :  PC potential                    false          :
          :  electronic temp.          300.0000000     K    :
          :  accuracy                    1.0000000          :
          :  -> integral cutoff          0.2500000E+02      :
          :  -> integral neglect         0.1000000E-07      :
          :  -> SCF convergence          0.1000000E-05 Eh   :
          :  -> wf. convergence          0.1000000E-03 e    :
          :  Broyden damping             0.4000000          :
          ...................................................

 iter      E             dE          RMSdq      gap      omega  full diag
   1   -341.1777915 -0.341178E+03  0.260E+00    0.85       0.0  T
   2   -341.2270909 -0.492994E-01  0.155E+00    0.60       1.0  T
   3   -341.2405176 -0.134267E-01  0.546E-01    0.42       1.0  T
   4   -341.2423695 -0.185183E-02  0.150E-01    0.39       1.0  T
   5   -341.2428221 -0.452599E-03  0.708E-02    0.41       1.0  T
   6   -341.2428735 -0.514183E-04  0.351E-02    0.42       1.0  T
   7   -341.2428997 -0.262231E-04  0.123E-02    0.42       1.0  T
   8   -341.2429022 -0.242672E-05  0.461E-03    0.42       1.5  T
   9   -341.2429027 -0.565609E-06  0.188E-03    0.42       3.8  T
  10   -341.2429028 -0.720040E-07  0.105E-03    0.42       6.7  T
  11   -341.2429028 -0.153962E-07  0.422E-04    0.42      16.8  T
  12   -341.2429028 -0.457266E-08  0.122E-04    0.42      58.3  T

   *** convergence criteria satisfied after 12 iterations ***

         #    Occupation            Energy/Eh            Energy/eV
      -------------------------------------------------------------
         1        2.0000           -0.6882194             -18.7274
       ...           ...                  ...                  ...
       264        2.0000           -0.2930965              -7.9756
       265        1.9976           -0.0890491              -2.4231
       266        1.9648           -0.0864467              -2.3523
       267        1.0371           -0.0802070              -2.1825
       268        1.0005           -0.0760776              -2.0702
       269        1.0000           -0.0698161              -1.8998
       270        0.9997            0.0245574               0.6682 (HOMO)
       271        0.0003            0.0400687               1.0903 (LUMO)
       272                          0.0608225               1.6551
       273                          0.0703923               1.9155
       274                          0.0827601               2.2520
       275                          0.0958555               2.6084
       ...                                ...                  ...
       405                          1.1838104              32.2131
      -------------------------------------------------------------
                  HL-Gap            0.0155114 Eh            0.4221 eV
             Fermi-level           -0.0254943 Eh           -0.6937 eV

 SCC (total)                   0 d,  0 h,  0 min,  0.903 sec
 SCC setup                      ...        0 min,  0.009 sec (  1.033%)
 Dispersion                     ...        0 min,  0.011 sec (  1.256%)
 classical contributions        ...        0 min,  0.002 sec (  0.263%)
 integral evaluation            ...        0 min,  0.019 sec (  2.157%)
 iterations                     ...        0 min,  0.570 sec ( 63.059%)
 molecular gradient             ...        0 min,  0.287 sec ( 31.760%)
 printout                       ...        0 min,  0.004 sec (  0.470%)

         :::::::::::::::::::::::::::::::::::::::::::::::::::::
         ::                     SUMMARY                     ::
         :::::::::::::::::::::::::::::::::::::::::::::::::::::
         :: total energy            -337.828855146251 Eh    ::
         :: total w/o Gsasa/hb      -337.466198302342 Eh    ::
         :: gradient norm              0.892398519381 Eh/a0 ::
         :: HOMO-LUMO gap              0.422085770608 eV    ::
         ::.................................................::
         :: SCC energy              -341.242902808519 Eh    ::
         :: -> isotropic ES            2.588461374550 Eh    ::
         :: -> anisotropic ES         -0.070329429386 Eh    ::
         :: -> anisotropic XC         -0.058569475646 Eh    ::
         :: -> dispersion             -0.074579188280 Eh    ::
         :: -> Gsolv                  -0.682550455678 Eh    ::
         ::    -> Gelec               -0.319893611769 Eh    ::
         ::    -> Gsasa                0.056085935625 Eh    ::
         ::    -> Ghb                 -0.419823539232 Eh    ::
         ::    -> Gshift               0.001080759698 Eh    ::
         :: repulsion energy           3.409523269249 Eh    ::
         :: add. restraining           0.000000000000 Eh    ::
         :: total charge              -0.000000818629 e     ::
         :::::::::::::::::::::::::::::::::::::::::::::::::::::

      ----------------------------------------------------------- 
     |                   =====================                   |
     |                        A N C O P T                        |
     |                   =====================                   |
     |               Approximate Normal Coordinate               |
     |                Rational Function Optimizer                |
      ----------------------------------------------------------- 

          ...................................................
          :                      SETUP                      :
          :.................................................:
          :   optimization level           extreme          :
          :   max. optcycles                  3980          :
          :   ANC micro-cycles                  20          :
          :   degrees of freedom               591          :
          :.................................................:
          :   RF solver                   davidson          :
          :   write xtbopt.log                true          :
          :   linear?                        false          :
          :   energy convergence         0.5000000E-07 Eh   :
          :   grad. convergence          0.5000000E-04 Eh/α :
          :   maxmium RF displ.          1.0000000          :
          :   Hlow (freq-cutoff)         0.1000000E-01      :
          :   Hmax (freq-cutoff)         5.0000000          :
          :   S6 in model hess.         20.0000000          :
          ...................................................

generating ANC from model Hessian ...
Using Lindh-Hessian (1995)
 Shifting diagonal of input Hessian by    1.0461787575079554E-002
 Lowest  eigenvalues of input Hessian
    0.010000    0.010042    0.010139    0.010145    0.010150    0.010172
    0.010199    0.010225    0.010227    0.010234    0.010240    0.010248
    0.010252    0.010261    0.010262    0.010264    0.010266    0.010269
 Highest eigenvalues
    1.709648    1.711623    1.715426    1.715583    1.716546    1.742320


........................................................................
.............................. CYCLE    1 ..............................
........................................................................

 iter      E             dE          RMSdq      gap      omega  full diag
   1   -341.2429028 -0.341243E+03  0.517E-05    0.42       0.0  T
   2   -341.2429028 -0.423483E-10  0.345E-05    0.42     205.6  T
   3   -341.2429028 -0.230784E-10  0.238E-05    0.42     298.4  T
     SCC iter.                  ...        0 min,  0.175 sec
     gradient                   ...        0 min,  0.385 sec
 * total energy  :  -337.8288551 Eh     change       -0.4444018E-09 Eh
   gradient norm :     0.8923532 Eh/α   predicted     0.0000000E+00 (-100.00%)
   displ. norm   :     0.6782067 α      lambda       -0.5419641E+00
   maximum displ.:     0.1802076 α      in ANC's #392, #390, #387, ...

........................................................................
.............................. CYCLE    2 ..............................
........................................................................

 iter      E             dE          RMSdq      gap      omega  full diag
   1   -340.8571596 -0.340857E+03  0.268E-01    0.59       0.0  T
   2   -340.8581569 -0.997249E-03  0.158E-01    0.51       1.0  T
   3   -340.8583479 -0.190979E-03  0.833E-02    0.47       1.0  T
   4   -340.8583884 -0.404980E-04  0.274E-02    0.46       1.0  T
   5   -340.8584017 -0.133544E-04  0.128E-02    0.48       1.0  T
   6   -340.8584037 -0.195786E-05  0.663E-03    0.48       1.1  T
   7   -340.8584043 -0.613042E-06  0.297E-03    0.48       2.4  T
   8   -340.8584046 -0.266778E-06  0.126E-03    0.48       5.6  T
   9   -340.8584046 -0.468096E-07  0.728E-04    0.48       9.7  T
  10   -340.8584046 -0.135929E-07  0.308E-04    0.48      23.0  T
     SCC iter.                  ...        0 min,  0.562 sec
     gradient                   ...        0 min,  0.430 sec
 * total energy  :  -338.2036559 Eh     change       -0.3748008E+00 Eh
   gradient norm :     0.4375488 Eh/α   predicted    -0.3956354E+00 (   5.56%)
   displ. norm   :     0.6622942 α      lambda       -0.2393711E+00
   maximum displ.:     0.1658363 α      in ANC's #386, #392, #390, ...

........................................................................
.............................. CYCLE    3 ..............................
........................................................................

 iter      E             dE          RMSdq      gap      omega  full diag
   1   -340.5601232 -0.340560E+03  0.279E-01    1.00       0.0  T
   2   -340.5615236 -0.140042E-02  0.163E-01    0.97       1.0  T
   3   -340.5616966 -0.172997E-03  0.105E-01    0.96       1.0  T
   4   -340.5617751 -0.785277E-04  0.397E-02    0.95       1.0  T
   5   -340.5617880 -0.129287E-04  0.168E-02    0.95       1.0  T
   6   -340.5617916 -0.357913E-05  0.820E-03    0.95       1.0  T
   7   -340.5617922 -0.595579E-06  0.391E-03    0.95       1.8  T
   8   -340.5617924 -0.223606E-06  0.123E-03    0.95       5.8  T
   9   -340.5617925 -0.323260E-07  0.494E-04    0.95      14.3  T
  10   -340.5617925 -0.373313E-08  0.246E-04    0.95      28.8  T
     SCC iter.                  ...        0 min,  0.612 sec
     gradient                   ...        0 min,  0.431 sec
 * total energy  :  -338.3687356 Eh     change       -0.1650796E+00 Eh
   gradient norm :     0.1768501 Eh/α   predicted    -0.1721894E+00 (   4.31%)
   displ. norm   :     0.7328243 α      lambda       -0.1032886E+00
   maximum displ.:     0.1907963 α      in ANC's #386, #324, #369, ...

........................................................................
.............................. CYCLE    4 ..............................
........................................................................

 iter      E             dE          RMSdq      gap      omega  full diag
   1   -340.5276341 -0.340528E+03  0.250E-01    1.31       0.0  T
   2   -340.5289532 -0.131913E-02  0.139E-01    1.21       1.0  T
   3   -340.5290974 -0.144159E-03  0.887E-02    1.19       1.0  T
   4   -340.5291492 -0.518501E-04  0.319E-02    1.17       1.0  T
   5   -340.5291559 -0.666485E-05  0.176E-02    1.18       1.0  T
   6   -340.5291583 -0.238826E-05  0.889E-03    1.18       1.0  T
   7   -340.5291590 -0.725907E-06  0.286E-03    1.18       2.5  T
   8   -340.5291592 -0.180655E-06  0.113E-03    1.18       6.3  T
   9   -340.5291592 -0.197609E-07  0.832E-04    1.18       8.5  T
  10   -340.5291592 -0.130623E-07  0.230E-04    1.18      30.9  T
     SCC iter.                  ...        0 min,  0.598 sec
     gradient                   ...        0 min,  0.398 sec
 * total energy  :  -338.4543779 Eh     change       -0.8564238E-01 Eh
   gradient norm :     0.1684026 Eh/α   predicted    -0.7937925E-01 (  -7.31%)
   displ. norm   :     0.7672060 α      lambda       -0.8747290E-01
   maximum displ.:     0.1932550 α      in ANC's #386, #324, #392, ...

........................................................................
.............................. CYCLE    5 ..............................
........................................................................

 iter      E             dE          RMSdq      gap      omega  full diag
   1   -340.4368750 -0.340437E+03  0.103E+00    2.46       0.0  T
   2   -340.5423247 -0.105450E+00  0.693E-01    2.43       1.0  T
   3   -340.5481651 -0.584043E-02  0.290E-01    2.56       1.0  T
   4   -340.5495926 -0.142752E-02  0.217E-01    2.62       1.0  T
   5   -340.5502978 -0.705194E-03  0.147E-01    2.66       1.0  T
   6   -340.5509662 -0.668384E-03  0.369E-02    2.62       1.0  T
   7   -340.5429146  0.805157E-02  0.247E-01    2.48       1.0  T
   8   -340.5509396 -0.802501E-02  0.278E-02    2.55       1.0  T
   9   -340.5510104 -0.707283E-04  0.200E-02    2.59       1.0  T
  10   -340.5509557  0.546603E-04  0.311E-02    2.62       1.0  T
  11   -340.5510094 -0.536726E-04  0.184E-02    2.60       1.0  T
  12   -340.5510403 -0.309153E-04  0.751E-03    2.58       1.0  T
  13   -340.5510460 -0.575029E-05  0.268E-03    2.58       2.6  T
  14   -340.5510464 -0.386286E-06  0.112E-03    2.57       6.3  T
  15   -340.5510465 -0.220485E-07  0.718E-04    2.57       9.9  T
  16   -340.5510465 -0.551635E-07  0.115E-04    2.57      61.8  T
     SCC iter.                  ...        0 min,  0.799 sec
     gradient                   ...        0 min,  0.386 sec
 * total energy  :  -338.5379146 Eh     change       -0.8353662E-01 Eh
   gradient norm :     0.2482633 Eh/α   predicted    -0.6947994E-01 ( -16.83%)
   displ. norm   :     0.8977855 α      lambda       -0.1235448E+00
   maximum displ.:     0.2447006 α      in ANC's #477, #386, #392, ...

........................................................................
.............................. CYCLE    6 ..............................
........................................................................

 iter      E             dE          RMSdq      gap      omega  full diag
   1   -340.5586343 -0.340559E+03  0.954E-01    3.15       0.0  T
   2   -340.5674564 -0.882202E-02  0.654E-01    5.25       1.0  T
   3   -340.5788143 -0.113579E-01  0.643E-01    4.71       1.0  T
   4   -340.5517934  0.270209E-01  0.523E-01    5.67       1.0  T
   5   -340.5871693 -0.353759E-01  0.427E-01    5.36       1.0  T
   6   -340.6023836 -0.152143E-01  0.191E-01    5.75       1.0  T
   7   -340.6068336 -0.445008E-02  0.777E-02    5.72       1.0  T
   8   -340.5587262  0.481074E-01  0.527E-01    5.70       1.0  T
   9   -340.5884547 -0.297285E-01  0.324E-01    5.47       1.0  T
  10   -340.5887904 -0.335691E-03  0.328E-01    5.50       1.0  T
  11   -340.5901642 -0.137384E-02  0.302E-01    5.53       1.0  T
  12   -340.6058017 -0.156375E-01  0.984E-02    5.61       1.0  T
  13   -340.6055522  0.249549E-03  0.106E-01    5.61       1.0  T
  14   -340.6061046 -0.552416E-03  0.751E-02    5.61       1.0  T
  15   -340.6068609 -0.756254E-03  0.370E-02    5.62       1.0  T
  16   -340.6068346  0.262530E-04  0.349E-02    5.62       1.0  T
  17   -340.6070027 -0.168059E-03  0.199E-02    5.63       1.0  T
  18   -340.6070281 -0.254173E-04  0.168E-02    5.64       1.0  T
  19   -340.6070794 -0.513409E-04  0.286E-03    5.63       2.5  T
  20   -340.6070783  0.110457E-05  0.361E-03    5.63       2.0  T
  21   -340.6070807 -0.238388E-05  0.681E-04    5.63      10.4  T
  22   -340.6070808 -0.591992E-07  0.414E-04    5.63      17.1  T
  23   -340.6070808 -0.106389E-07  0.332E-04    5.63      21.3  T
     SCC iter.                  ...        0 min,  1.083 sec
     gradient                   ...        0 min,  0.374 sec
 * total energy  :  -338.6401624 Eh     change       -0.1022479E+00 Eh
   gradient norm :     0.3041180 Eh/α   predicted    -0.1115621E+00 (   9.11%)
   displ. norm   :     0.7438946 α      lambda       -0.1368843E+00
   maximum displ.:     0.3598465 α      in ANC's #491, #477, #471, ...

........................................................................
.............................. CYCLE    7 ..............................
........................................................................

 iter      E             dE          RMSdq      gap      omega  full diag
   1   -340.8473175 -0.340847E+03  0.413E-01    4.28       0.0  T
   2   -340.8533458 -0.602830E-02  0.206E-01    5.01       1.0  T
   3   -340.7024111  0.150935E+00  0.934E-01    5.53       1.0  T
   4   -340.8540639 -0.151653E+00  0.149E-01    5.21       1.0  T
   5   -340.8542016 -0.137621E-03  0.109E-01    5.25       1.0  T
   6   -340.8551238 -0.922254E-03  0.445E-02    5.40       1.0  T
   7   -340.8548975  0.226333E-03  0.483E-02    5.37       1.0  T
   8   -340.8550441 -0.146591E-03  0.363E-02    5.38       1.0  T
   9   -340.8551181 -0.740693E-04  0.286E-02    5.38       1.0  T
  10   -340.8552458 -0.127624E-03  0.838E-03    5.40       1.0  T
  11   -340.8552287  0.170734E-04  0.110E-02    5.39       1.0  T
  12   -340.8552479 -0.191834E-04  0.176E-03    5.39       4.0  T
  13   -340.8552476  0.241912E-06  0.125E-03    5.39       5.7  T
  14   -340.8552479 -0.214042E-06  0.545E-04    5.39      13.0  T
  15   -340.8552479 -0.465086E-07  0.735E-05    5.39      96.4  T
     SCC iter.                  ...        0 min,  0.571 sec
     gradient                   ...        0 min,  0.376 sec
 * total energy  :  -338.7037961 Eh     change       -0.6363366E-01 Eh
   gradient norm :     0.2834914 Eh/α   predicted    -0.1063166E+00 (  67.08%)
   displ. norm   :     0.6289812 α      lambda       -0.1036788E+00
   maximum displ.:     0.2193981 α      in ANC's #324, #310, #491, ...

........................................................................
.............................. CYCLE    8 ..............................
........................................................................

 iter      E             dE          RMSdq      gap      omega  full diag
   1   -340.9301358 -0.340930E+03  0.233E-01    6.39       0.0  T
   2   -340.9305547 -0.418904E-03  0.194E-01    6.48       1.0  T
   3   -340.9307340 -0.179351E-03  0.100E-01    6.50       1.0  T
   4   -340.9307810 -0.469545E-04  0.593E-02    6.51       1.0  T
   5   -340.9307981 -0.171356E-04  0.194E-02    6.51       1.0  T
   6   -340.9308036 -0.549286E-05  0.134E-02    6.49       1.0  T
   7   -340.9308051 -0.145630E-05  0.395E-03    6.49       1.8  T
   8   -340.9308052 -0.146592E-06  0.184E-03    6.49       3.8  T
   9   -340.9308054 -0.219044E-06  0.646E-04    6.49      11.0  T
  10   -340.9308054 -0.819148E-08  0.254E-04    6.49      27.9  T
     SCC iter.                  ...        0 min,  0.384 sec
     gradient                   ...        0 min,  0.373 sec
 * total energy  :  -338.7660340 Eh     change       -0.6223786E-01 Eh
   gradient norm :     0.1813878 Eh/α   predicted    -0.7234795E-01 (  16.24%)
   displ. norm   :     0.6848663 α      lambda       -0.7599027E-01
   maximum displ.:     0.1382942 α      in ANC's #360, #374, #301, ...

........................................................................
.............................. CYCLE    9 ..............................
........................................................................

 iter      E             dE          RMSdq      gap      omega  full diag
   1   -341.0004143 -0.341000E+03  0.168E-01    6.96       0.0  T
   2   -341.0005864 -0.172036E-03  0.111E-01    6.98       1.0  T
   3   -341.0006198 -0.334907E-04  0.922E-02    6.99       1.0  T
   4   -341.0006648 -0.449848E-04  0.271E-02    6.99       1.0  T
   5   -341.0006704 -0.560193E-05  0.143E-02    6.99       1.0  T
   6   -341.0006724 -0.195443E-05  0.786E-03    6.99       1.0  T
   7   -341.0006730 -0.657814E-06  0.298E-03    6.99       2.4  T
   8   -341.0006732 -0.117367E-06  0.146E-03    6.99       4.8  T
   9   -341.0006732 -0.429085E-07  0.385E-04    6.99      18.4  T
  10   -341.0006732 -0.276754E-08  0.222E-04    6.99      32.0  T
     SCC iter.                  ...        0 min,  0.349 sec
     gradient                   ...        0 min,  0.381 sec
 * total energy  :  -338.8127693 Eh     change       -0.4673533E-01 Eh
   gradient norm :     0.1685967 Eh/α   predicted    -0.5581645E-01 (  19.43%)
   displ. norm   :     0.7216259 α      lambda       -0.6224693E-01
   maximum displ.:     0.1626932 α      in ANC's #310, #298, #491, ...

........................................................................
.............................. CYCLE   10 ..............................
........................................................................

 iter      E             dE          RMSdq      gap      omega  full diag
   1   -340.9989251 -0.340999E+03  0.206E-01    6.93       0.0  T
   2   -340.9989527 -0.276309E-04  0.225E-01    6.94       1.0  T
   3   -340.9991834 -0.230740E-03  0.791E-02    6.95       1.0  T
   4   -340.9992028 -0.193953E-04  0.556E-02    6.95       1.0  T
   5   -340.9992207 -0.178383E-04  0.155E-02    6.95       1.0  T
   6   -340.9992228 -0.215808E-05  0.624E-03    6.95       1.1  T
   7   -340.9992233 -0.432821E-06  0.265E-03    6.95       2.7  T
   8   -340.9992233 -0.590330E-07  0.102E-03    6.95       6.9  T
   9   -340.9992233 -0.114730E-07  0.456E-04    6.95      15.6  T
  10   -340.9992233 -0.189118E-08  0.154E-04    6.95      46.2  T
     SCC iter.                  ...        0 min,  0.358 sec
     gradient                   ...        0 min,  0.385 sec
 * total energy  :  -338.8517322 Eh     change       -0.3896295E-01 Eh
   gradient norm :     0.1278457 Eh/α   predicted    -0.4733083E-01 (  21.48%)
   displ. norm   :     0.6991977 α      lambda       -0.4626511E-01
   maximum displ.:     0.1767996 α      in ANC's #374, #324, #411, ...

........................................................................
.............................. CYCLE   11 ..............................
........................................................................

 iter      E             dE          RMSdq      gap      omega  full diag
   1   -340.9659453 -0.340966E+03  0.206E-01    7.16       0.0  T
   2   -340.9660473 -0.101970E-03  0.206E-01    7.14       1.0  T
   3   -340.9662851 -0.237836E-03  0.752E-02    7.14       1.0  T
   4   -340.9663190 -0.338636E-04  0.502E-02    7.14       1.0  T
   5   -340.9663339 -0.149289E-04  0.255E-02    7.14       1.0  T
   6   -340.9663378 -0.392281E-05  0.811E-03    7.14       1.0  T
   7   -340.9663388 -0.998720E-06  0.291E-03    7.14       2.4  T
   8   -340.9663389 -0.714342E-07  0.137E-03    7.14       5.2  T
   9   -340.9663389 -0.264765E-07  0.375E-04    7.14      18.9  T
  10   -340.9663389 -0.160355E-08  0.126E-04    7.14      56.4  T
     SCC iter.                  ...        0 min,  0.497 sec
     gradient                   ...        0 min,  0.390 sec
 * total energy  :  -338.8747418 Eh     change       -0.2300955E-01 Eh
   gradient norm :     0.1156081 Eh/α   predicted    -0.3444154E-01 (  49.68%)
   displ. norm   :     0.6502580 α      lambda       -0.3300901E-01
   maximum displ.:     0.1226509 α      in ANC's #264, #338, #299, ...

........................................................................
.............................. CYCLE   12 ..............................
........................................................................

 iter      E             dE          RMSdq      gap      omega  full diag
   1   -341.0282209 -0.341028E+03  0.131E-01    7.24       0.0  T
   2   -341.0282950 -0.740751E-04  0.932E-02    7.24       1.0  T
   3   -341.0283073 -0.122977E-04  0.837E-02    7.24       1.0  T
   4   -341.0283509 -0.436668E-04  0.244E-02    7.25       1.0  T
   5   -341.0283540 -0.306141E-05  0.107E-02    7.25       1.0  T
   6   -341.0283547 -0.653388E-06  0.690E-03    7.25       1.0  T
   7   -341.0283550 -0.363407E-06  0.148E-03    7.25       4.8  T
   8   -341.0283550 -0.251195E-07  0.365E-04    7.25      19.4  T
   9   -341.0283551 -0.154279E-08  0.151E-04    7.25      47.0  T
     SCC iter.                  ...        0 min,  0.544 sec
     gradient                   ...        0 min,  0.380 sec
 * total energy  :  -338.8898706 Eh     change       -0.1512883E-01 Eh
   gradient norm :     0.1213258 Eh/α   predicted    -0.2348322E-01 (  55.22%)
   displ. norm   :     0.6168105 α      lambda       -0.3133935E-01
   maximum displ.:     0.1155707 α      in ANC's #491, #298, #264, ...

........................................................................
.............................. CYCLE   13 ..............................
........................................................................

 iter      E             dE          RMSdq      gap      omega  full diag
   1   -341.0782284 -0.341078E+03  0.144E-01    7.30       0.0  T
   2   -341.0782788 -0.504115E-04  0.133E-01    7.31       1.0  T
   3   -341.0783458 -0.670432E-04  0.680E-02    7.32       1.0  T
   4   -341.0783659 -0.200121E-04  0.326E-02    7.32       1.0  T
   5   -341.0783722 -0.636315E-05  0.143E-02    7.32       1.0  T
   6   -341.0783738 -0.153024E-05  0.555E-03    7.32       1.3  T
   7   -341.0783741 -0.388594E-06  0.170E-03    7.32       4.2  T
   8   -341.0783742 -0.207473E-07  0.824E-04    7.32       8.6  T
   9   -341.0783742 -0.931527E-08  0.197E-04    7.32      36.1  T
     SCC iter.                  ...        0 min,  0.315 sec
     gradient                   ...        0 min,  0.386 sec
 * total energy  :  -338.9090244 Eh     change       -0.1915375E-01 Eh
   gradient norm :     0.0937033 Eh/α   predicted    -0.2163129E-01 (  12.94%)
   displ. norm   :     0.7359080 α      lambda       -0.3056695E-01
   maximum displ.:     0.1708029 α      in ANC's #324, #491, #313, ...

........................................................................
.............................. CYCLE   14 ..............................
........................................................................

 iter      E             dE          RMSdq      gap      omega  full diag
   1   -341.0816171 -0.341082E+03  0.171E-01    7.17       0.0  T
   2   -341.0816016  0.155146E-04  0.186E-01    7.18       1.0  T
   3   -341.0817804 -0.178789E-03  0.771E-02    7.18       1.0  T
   4   -341.0818092 -0.288336E-04  0.270E-02    7.19       1.0  T
   5   -341.0818130 -0.371921E-05  0.141E-02    7.19       1.0  T
   6   -341.0818143 -0.129851E-05  0.524E-03    7.18       1.4  T
   7   -341.0818145 -0.266966E-06  0.153E-03    7.18       4.6  T
   8   -341.0818145 -0.200619E-07  0.820E-04    7.18       8.6  T
   9   -341.0818146 -0.852185E-08  0.172E-04    7.18      41.1  T
     SCC iter.                  ...        0 min,  0.316 sec
     gradient                   ...        0 min,  0.370 sec
 * total energy  :  -338.9237863 Eh     change       -0.1476197E-01 Eh
   gradient norm :     0.1086425 Eh/α   predicted    -0.2356039E-01 (  59.60%)
   displ. norm   :     0.6829783 α      lambda       -0.2852079E-01
   maximum displ.:     0.1209426 α      in ANC's #298, #374, #353, ...

........................................................................
.............................. CYCLE   15 ..............................
........................................................................

 iter      E             dE          RMSdq      gap      omega  full diag
   1   -341.0373916 -0.341037E+03  0.143E-01    7.15       0.0  T
   2   -341.0374529 -0.613286E-04  0.107E-01    7.15       1.0  T
   3   -341.0374895 -0.366109E-04  0.703E-02    7.15       1.0  T
   4   -341.0375136 -0.240398E-04  0.275E-02    7.16       1.0  T
   5   -341.0375190 -0.542358E-05  0.877E-03    7.15       1.0  T
   6   -341.0375194 -0.384978E-06  0.702E-03    7.15       1.0  T
   7   -341.0375197 -0.350726E-06  0.162E-03    7.15       4.4  T
   8   -341.0375197 -0.177931E-07  0.710E-04    7.15      10.0  T
   9   -341.0375197 -0.758746E-08  0.161E-04    7.15      44.1  T
     SCC iter.                  ...        0 min,  0.331 sec
     gradient                   ...        0 min,  0.370 sec
 * total energy  :  -338.9392159 Eh     change       -0.1542958E-01 Eh
   gradient norm :     0.1007127 Eh/α   predicted    -0.2091230E-01 (  35.53%)
   displ. norm   :     0.6781247 α      lambda       -0.2944735E-01
   maximum displ.:     0.1492563 α      in ANC's #411, #477, #491, ...

........................................................................
.............................. CYCLE   16 ..............................
........................................................................

 iter      E             dE          RMSdq      gap      omega  full diag
   1   -341.0883429 -0.341088E+03  0.146E-01    7.27       0.0  T
   2   -341.0884105 -0.675150E-04  0.130E-01    7.27       1.0  T
   3   -341.0884748 -0.643754E-04  0.695E-02    7.27       1.0  T
   4   -341.0884989 -0.240977E-04  0.307E-02    7.27       1.0  T
   5   -341.0885034 -0.444502E-05  0.139E-02    7.27       1.0  T
   6   -341.0885047 -0.132719E-05  0.651E-03    7.27       1.1  T
   7   -341.0885052 -0.454039E-06  0.185E-03    7.27       3.8  T
   8   -341.0885052 -0.215300E-07  0.976E-04    7.27       7.3  T
   9   -341.0885052 -0.100290E-07  0.192E-04    7.27      36.9  T
     SCC iter.                  ...        0 min,  0.318 sec
     gradient                   ...        0 min,  0.385 sec
 * total energy  :  -338.9515759 Eh     change       -0.1235998E-01 Eh
   gradient norm :     0.1026012 Eh/α   predicted    -0.2149440E-01 (  73.90%)
   displ. norm   :     0.6907829 α      lambda       -0.2905207E-01
   maximum displ.:     0.2948719 α      in ANC's #315, #491, #304, ...

........................................................................
.............................. CYCLE   17 ..............................
........................................................................

 iter      E             dE          RMSdq      gap      omega  full diag
   1   -341.1069100 -0.341107E+03  0.179E-01    7.31       0.0  T
   2   -341.1070507 -0.140699E-03  0.137E-01    7.32       1.0  T
   3   -341.1071082 -0.574924E-04  0.103E-01    7.32       1.0  T
   4   -341.1071773 -0.691246E-04  0.282E-02    7.32       1.0  T
   5   -341.1071823 -0.498770E-05  0.168E-02    7.32       1.0  T
   6   -341.1071842 -0.189664E-05  0.893E-03    7.32       1.0  T
   7   -341.1071849 -0.713683E-06  0.221E-03    7.32       3.2  T
   8   -341.1071850 -0.529927E-07  0.517E-04    7.32      13.7  T
   9   -341.1071850 -0.313594E-08  0.198E-04    7.32      35.8  T
     SCC iter.                  ...        0 min,  0.328 sec
     gradient                   ...        0 min,  0.380 sec
 * total energy  :  -338.9531507 Eh     change       -0.1574751E-02 Eh
   gradient norm :     0.1556150 Eh/α   predicted    -0.2145758E-01 (1262.60%)
   displ. norm   :     0.5641935 α      lambda       -0.4495003E-01
   maximum displ.:     0.1811537 α      in ANC's #315, #353, #255, ...

........................................................................
.............................. CYCLE   18 ..............................
........................................................................

 iter      E             dE          RMSdq      gap      omega  full diag
   1   -341.1230708 -0.341123E+03  0.180E-01    7.22       0.0  T
   2   -341.1232099 -0.139171E-03  0.141E-01    7.23       1.0  T
   3   -341.1232663 -0.563237E-04  0.102E-01    7.23       1.0  T
   4   -341.1233224 -0.561419E-04  0.368E-02    7.23       1.0  T
   5   -341.1233293 -0.693024E-05  0.156E-02    7.23       1.0  T
   6   -341.1233310 -0.167214E-05  0.925E-03    7.23       1.0  T
   7   -341.1233318 -0.830098E-06  0.247E-03    7.23       2.9  T
   8   -341.1233319 -0.391936E-07  0.126E-03    7.23       5.6  T
   9   -341.1233319 -0.181209E-07  0.261E-04    7.23      27.2  T
  10   -341.1233319 -0.924445E-09  0.131E-04    7.23      54.0  T
     SCC iter.                  ...        0 min,  0.381 sec
     gradient                   ...        0 min,  0.379 sec
 * total energy  :  -338.9673367 Eh     change       -0.1418604E-01 Eh
   gradient norm :     0.1288394 Eh/α   predicted    -0.2962919E-01 ( 108.86%)
   displ. norm   :     0.6122996 α      lambda       -0.3758357E-01
   maximum displ.:     0.2148914 α      in ANC's #368, #327, #361, ...

........................................................................
.............................. CYCLE   19 ..............................
........................................................................

 iter      E             dE          RMSdq      gap      omega  full diag
   1   -341.0949232 -0.341095E+03  0.176E-01    7.16       0.0  T
   2   -341.0951607 -0.237466E-03  0.103E-01    7.16       1.0  T
   3   -341.0952285 -0.678201E-04  0.571E-02    7.16       1.0  T
   4   -341.0952449 -0.163766E-04  0.227E-02    7.16       1.0  T
   5   -341.0952493 -0.445080E-05  0.112E-02    7.16       1.0  T
   6   -341.0952504 -0.104089E-05  0.630E-03    7.16       1.1  T
   7   -341.0952506 -0.246932E-06  0.282E-03    7.16       2.5  T
   8   -341.0952507 -0.659992E-07  0.951E-04    7.16       7.5  T
   9   -341.0952507 -0.991002E-08  0.220E-04    7.16      32.2  T
     SCC iter.                  ...        0 min,  0.335 sec
     gradient                   ...        0 min,  0.376 sec
 * total energy  :  -338.9697820 Eh     change       -0.2445300E-02 Eh
   gradient norm :     0.1464905 Eh/α   predicted    -0.2583704E-01 ( 956.60%)
   displ. norm   :     0.5679887 α      lambda       -0.3880158E-01
   maximum displ.:     0.1605483 α      in ANC's #195, #315, #304, ...

........................................................................
.............................. CYCLE   20 ..............................
........................................................................

 iter      E             dE          RMSdq      gap      omega  full diag
   1   -341.0721861 -0.341072E+03  0.174E-01    7.24       0.0  T
   2   -341.0723567 -0.170646E-03  0.117E-01    7.24       1.0  T
   3   -341.0723767 -0.199848E-04  0.111E-01    7.24       1.0  T
   4   -341.0724420 -0.652627E-04  0.294E-02    7.24       1.0  T
   5   -341.0724476 -0.559206E-05  0.138E-02    7.24       1.0  T
   6   -341.0724490 -0.141633E-05  0.960E-03    7.24       1.0  T
   7   -341.0724498 -0.829520E-06  0.239E-03    7.24       3.0  T
   8   -341.0724499 -0.455238E-07  0.106E-03    7.24       6.7  T
   9   -341.0724499 -0.128264E-07  0.188E-04    7.24      37.7  T
  10   -341.0724499 -0.436785E-09  0.105E-04    7.24      67.8  T
     SCC iter.                  ...        0 min,  0.377 sec
     gradient                   ...        0 min,  0.381 sec
 * total energy  :  -338.9759311 Eh     change       -0.6149124E-02 Eh
   gradient norm :     0.1443529 Eh/α   predicted    -0.2565965E-01 ( 317.29%)
   displ. norm   :     0.6834296 α      lambda       -0.5770019E-01
   maximum displ.:     0.2317439 α      in ANC's #195, #368, #304, ...
 * RMSD in coord.:     0.6096676 α      energy gain  -0.1147076E+01 Eh

generating ANC from model Hessian ...
Using Lindh-Hessian (1995)
 Shifting diagonal of input Hessian by    1.0380433402777231E-002
 Lowest  eigenvalues of input Hessian
    0.010000    0.010070    0.010074    0.010110    0.010115    0.010125
    0.010127    0.010142    0.010153    0.010170    0.010171    0.010181
    0.010181    0.010185    0.010199    0.010200    0.010221    0.010223
 Highest eigenvalues
    1.513283    1.516334    1.538442    1.541527    1.770335    1.891351


........................................................................
.............................. CYCLE   21 ..............................
........................................................................

 iter      E             dE          RMSdq      gap      omega  full diag
   1   -341.1927762 -0.341193E+03  0.249E-01    7.32       0.0  T
   2   -341.1931762 -0.399961E-03  0.151E-01    7.32       1.0  T
   3   -341.1932292 -0.529683E-04  0.140E-01    7.33       1.0  T
   4   -341.1933447 -0.115591E-03  0.269E-02    7.33       1.0  T
   5   -341.1933516 -0.687723E-05  0.131E-02    7.33       1.0  T
   6   -341.1933525 -0.842564E-06  0.110E-02    7.33       1.0  T
   7   -341.1933532 -0.765986E-06  0.297E-03    7.33       2.4  T
   8   -341.1933533 -0.661537E-07  0.133E-03    7.33       5.3  T
   9   -341.1933533 -0.156926E-07  0.293E-04    7.33      24.2  T
  10   -341.1933533 -0.154034E-08  0.128E-04    7.33      55.5  T
     SCC iter.                  ...        0 min,  0.376 sec
     gradient                   ...        0 min,  0.380 sec
 * total energy  :  -338.9567383 Eh     change        0.1919283E-01 Eh
   gradient norm :     0.2766256 Eh/α   predicted     0.0000000E+00 (-100.00%)
   displ. norm   :     0.3919422 α      lambda       -0.6318567E-01
   maximum displ.:     0.1059545 α      in ANC's #579, #533, #136, ...

........................................................................
.............................. CYCLE   22 ..............................
........................................................................

 iter      E             dE          RMSdq      gap      omega  full diag
   1   -341.1605002 -0.341161E+03  0.120E-01    7.25       0.0  T
   2   -341.1605694 -0.692763E-04  0.730E-02    7.25       1.0  T
   3   -341.1605689  0.580997E-06  0.762E-02    7.26       1.0  T
   4   -341.1605984 -0.295043E-04  0.112E-02    7.26       1.0  T
   5   -341.1605995 -0.113544E-05  0.701E-03    7.26       1.0  T
   6   -341.1605999 -0.363522E-06  0.459E-03    7.26       1.5  T
   7   -341.1606000 -0.153632E-06  0.132E-03    7.26       5.4  T
   8   -341.1606000 -0.205421E-07  0.314E-04    7.26      22.6  T
   9   -341.1606000 -0.131354E-08  0.129E-04    7.26      55.0  T
     SCC iter.                  ...        0 min,  0.351 sec
     gradient                   ...        0 min,  0.370 sec
 * total energy  :  -338.9969959 Eh     change       -0.4025757E-01 Eh
   gradient norm :     0.0783707 Eh/α   predicted    -0.3645201E-01 (  -9.45%)
   displ. norm   :     0.7174315 α      lambda       -0.2650451E-01
   maximum displ.:     0.1928719 α      in ANC's #206, #373, #136, ...

........................................................................
.............................. CYCLE   23 ..............................
........................................................................

 iter      E             dE          RMSdq      gap      omega  full diag
   1   -341.1272003 -0.341127E+03  0.171E-01    7.40       0.0  T
   2   -341.1272396 -0.393080E-04  0.143E-01    7.39       1.0  T
   3   -341.1272887 -0.491124E-04  0.101E-01    7.38       1.0  T
   4   -341.1273284 -0.396776E-04  0.348E-02    7.38       1.0  T
   5   -341.1273332 -0.479066E-05  0.111E-02    7.38       1.0  T
   6   -341.1273340 -0.829684E-06  0.571E-03    7.38       1.2  T
   7   -341.1273344 -0.355526E-06  0.166E-03    7.38       4.3  T
   8   -341.1273344 -0.178912E-07  0.755E-04    7.38       9.4  T
   9   -341.1273344 -0.865117E-08  0.160E-04    7.38      44.4  T
     SCC iter.                  ...        0 min,  0.327 sec
     gradient                   ...        0 min,  0.385 sec
 * total energy  :  -339.0111596 Eh     change       -0.1416372E-01 Eh
   gradient norm :     0.0605631 Eh/α   predicted    -0.2008061E-01 (  41.77%)
   displ. norm   :     0.7003810 α      lambda       -0.1796683E-01
   maximum displ.:     0.1344991 α      in ANC's #373, #206, #136, ...

........................................................................
.............................. CYCLE   24 ..............................
........................................................................

 iter      E             dE          RMSdq      gap      omega  full diag
   1   -341.1069790 -0.341107E+03  0.125E-01    7.23       0.0  T
   2   -341.1070052 -0.261825E-04  0.929E-02    7.24       1.0  T
   3   -341.1070132 -0.795671E-05  0.777E-02    7.25       1.0  T
   4   -341.1070371 -0.239552E-04  0.238E-02    7.25       1.0  T
   5   -341.1070395 -0.237606E-05  0.764E-03    7.25       1.0  T
   6   -341.1070399 -0.437733E-06  0.377E-03    7.25       1.9  T
   7   -341.1070401 -0.157893E-06  0.100E-03    7.25       7.1  T
   8   -341.1070401 -0.101578E-07  0.471E-04    7.25      15.1  T
   9   -341.1070401 -0.413019E-08  0.127E-04    7.25      55.6  T
     SCC iter.                  ...        0 min,  0.406 sec
     gradient                   ...        0 min,  0.447 sec
 * total energy  :  -339.0243326 Eh     change       -0.1317300E-01 Eh
   gradient norm :     0.0859131 Eh/α   predicted    -0.1339013E-01 (   1.65%)
   displ. norm   :     0.7039988 α      lambda       -0.1758222E-01
   maximum displ.:     0.1546380 α      in ANC's #206, #41, #2, ...

........................................................................
.............................. CYCLE   25 ..............................
........................................................................

 iter      E             dE          RMSdq      gap      omega  full diag
   1   -341.1484825 -0.341148E+03  0.110E-01    7.15       0.0  T
   2   -341.1485185 -0.359255E-04  0.710E-02    7.16       1.0  T
   3   -341.1485090  0.945325E-05  0.732E-02    7.16       1.0  T
   4   -341.1485384 -0.293895E-04  0.782E-03    7.16       1.0  T
   5   -341.1485388 -0.453187E-06  0.678E-03    7.16       1.0  T
   6   -341.1485391 -0.293259E-06  0.250E-03    7.16       2.8  T
   7   -341.1485392 -0.425402E-07  0.982E-04    7.16       7.2  T
   8   -341.1485392 -0.994527E-08  0.243E-04    7.16      29.2  T
     SCC iter.                  ...        0 min,  0.381 sec
     gradient                   ...        0 min,  0.384 sec
 * total energy  :  -339.0324353 Eh     change       -0.8102753E-02 Eh
   gradient norm :     0.0808918 Eh/α   predicted    -0.1314812E-01 (  62.27%)
   displ. norm   :     0.6213300 α      lambda       -0.2103093E-01
   maximum displ.:     0.2060331 α      in ANC's #136, #135, #373, ...

........................................................................
.............................. CYCLE   26 ..............................
........................................................................

 iter      E             dE          RMSdq      gap      omega  full diag
   1   -341.1914593 -0.341191E+03  0.105E-01    7.30       0.0  T
   2   -341.1914819 -0.225437E-04  0.791E-02    7.30       1.0  T
   3   -341.1914855 -0.357298E-05  0.714E-02    7.29       1.0  T
   4   -341.1915118 -0.263525E-04  0.134E-02    7.29       1.0  T
   5   -341.1915128 -0.992136E-06  0.432E-03    7.29       1.6  T
   6   -341.1915130 -0.165373E-06  0.368E-03    7.29       1.9  T
   7   -341.1915131 -0.946218E-07  0.132E-03    7.29       5.4  T
   8   -341.1915131 -0.127366E-07  0.542E-04    7.29      13.1  T
   9   -341.1915131 -0.500154E-08  0.108E-04    7.29      65.9  T
     SCC iter.                  ...        0 min,  0.341 sec
     gradient                   ...        0 min,  0.379 sec
 * total energy  :  -339.0429898 Eh     change       -0.1055445E-01 Eh
   gradient norm :     0.0731298 Eh/α   predicted    -0.1457497E-01 (  38.09%)
   displ. norm   :     0.7373049 α      lambda       -0.1914059E-01
   maximum displ.:     0.2584160 α      in ANC's #206, #135, #252, ...

........................................................................
.............................. CYCLE   27 ..............................
........................................................................

 iter      E             dE          RMSdq      gap      omega  full diag
   1   -341.1675510 -0.341168E+03  0.157E-01    7.37       0.0  T
   2   -341.1676567 -0.105676E-03  0.971E-02    7.36       1.0  T
   3   -341.1676502  0.649462E-05  0.986E-02    7.36       1.0  T
   4   -341.1677040 -0.538356E-04  0.147E-02    7.36       1.0  T
   5   -341.1677060 -0.194162E-05  0.717E-03    7.36       1.0  T
   6   -341.1677065 -0.491575E-06  0.344E-03    7.36       2.1  T
   7   -341.1677065 -0.594655E-07  0.185E-03    7.36       3.8  T
   8   -341.1677066 -0.263901E-07  0.741E-04    7.36       9.6  T
   9   -341.1677066 -0.578927E-08  0.131E-04    7.36      54.0  T
     SCC iter.                  ...        0 min,  0.340 sec
     gradient                   ...        0 min,  0.370 sec
 * total energy  :  -339.0464149 Eh     change       -0.3425105E-02 Eh
   gradient norm :     0.1092010 Eh/α   predicted    -0.1477289E-01 ( 331.31%)
   displ. norm   :     0.5739563 α      lambda       -0.2335442E-01
   maximum displ.:     0.2784447 α      in ANC's #252, #136, #135, ...

........................................................................
.............................. CYCLE   28 ..............................
........................................................................

 iter      E             dE          RMSdq      gap      omega  full diag
   1   -341.1477044 -0.341148E+03  0.122E-01    7.29       0.0  T
   2   -341.1477684 -0.639440E-04  0.757E-02    7.29       1.0  T
   3   -341.1477698 -0.145835E-05  0.763E-02    7.30       1.0  T
   4   -341.1478004 -0.305308E-04  0.109E-02    7.30       1.0  T
   5   -341.1478012 -0.796413E-06  0.940E-03    7.30       1.0  T
   6   -341.1478018 -0.663613E-06  0.320E-03    7.29       2.2  T
   7   -341.1478019 -0.680922E-07  0.120E-03    7.29       5.9  T
   8   -341.1478019 -0.167743E-07  0.286E-04    7.29      24.8  T
   9   -341.1478019 -0.906141E-09  0.101E-04    7.29      70.5  T
     SCC iter.                  ...        0 min,  0.336 sec
     gradient                   ...        0 min,  0.378 sec
 * total energy  :  -339.0574631 Eh     change       -0.1104816E-01 Eh
   gradient norm :     0.0845268 Eh/α   predicted    -0.1552399E-01 (  40.51%)
   displ. norm   :     0.6988688 α      lambda       -0.2145577E-01
   maximum displ.:     0.2790857 α      in ANC's #206, #136, #234, ...

........................................................................
.............................. CYCLE   29 ..............................
........................................................................

 iter      E             dE          RMSdq      gap      omega  full diag
   1   -341.1832352 -0.341183E+03  0.158E-01    7.19       0.0  T
   2   -341.1833418 -0.106602E-03  0.996E-02    7.20       1.0  T
   3   -341.1833320  0.978179E-05  0.109E-01    7.21       1.0  T
   4   -341.1833936 -0.615630E-04  0.142E-02    7.21       1.0  T
   5   -341.1833953 -0.171148E-05  0.101E-02    7.21       1.0  T
   6   -341.1833960 -0.731937E-06  0.443E-03    7.21       1.6  T
   7   -341.1833962 -0.136063E-06  0.153E-03    7.21       4.6  T
   8   -341.1833962 -0.254623E-07  0.575E-04    7.21      12.3  T
   9   -341.1833962 -0.322848E-08  0.144E-04    7.21      49.2  T
     SCC iter.                  ...        0 min,  0.366 sec
     gradient                   ...        0 min,  0.375 sec
 * total energy  :  -339.0556663 Eh     change        0.1796753E-02 Eh
   gradient norm :     0.1333813 Eh/α   predicted    -0.1596757E-01 (-988.69%)
   displ. norm   :     0.4782970 α      lambda       -0.2812307E-01
   maximum displ.:     0.1630407 α      in ANC's #136, #135, #234, ...

........................................................................
.............................. CYCLE   30 ..............................
........................................................................

 iter      E             dE          RMSdq      gap      omega  full diag
   1   -341.2269973 -0.341227E+03  0.111E-01    7.31       0.0  T
   2   -341.2270598 -0.624293E-04  0.685E-02    7.30       1.0  T
   3   -341.2270588  0.933755E-06  0.671E-02    7.30       1.0  T
   4   -341.2270887 -0.298690E-04  0.122E-02    7.29       1.0  T
   5   -341.2270898 -0.112653E-05  0.772E-03    7.29       1.0  T
   6   -341.2270902 -0.361587E-06  0.511E-03    7.29       1.4  T
   7   -341.2270903 -0.169390E-06  0.117E-03    7.29       6.0  T
   8   -341.2270904 -0.128603E-07  0.335E-04    7.29      21.1  T
   9   -341.2270904 -0.112084E-08  0.969E-05    7.29      73.2  T
     SCC iter.                  ...        0 min,  0.337 sec
     gradient                   ...        0 min,  0.379 sec
 * total energy  :  -339.0682517 Eh     change       -0.1258536E-01 Eh
   gradient norm :     0.0771930 Eh/α   predicted    -0.1727839E-01 (  37.29%)
   displ. norm   :     0.6990310 α      lambda       -0.2248782E-01
   maximum displ.:     0.2279092 α      in ANC's #143, #271, #350, ...

........................................................................
.............................. CYCLE   31 ..............................
........................................................................

 iter      E             dE          RMSdq      gap      omega  full diag
   1   -341.1628261 -0.341163E+03  0.163E-01    7.30       0.0  T
   2   -341.1629241 -0.980293E-04  0.102E-01    7.30       1.0  T
   3   -341.1628982  0.259239E-04  0.109E-01    7.30       1.0  T
   4   -341.1629763 -0.780993E-04  0.141E-02    7.29       1.0  T
   5   -341.1629778 -0.156104E-05  0.116E-02    7.29       1.0  T
   6   -341.1629788 -0.935533E-06  0.469E-03    7.29       1.5  T
   7   -341.1629789 -0.159292E-06  0.173E-03    7.29       4.1  T
   8   -341.1629790 -0.400608E-07  0.570E-04    7.29      12.4  T
   9   -341.1629790 -0.462074E-08  0.164E-04    7.29      43.3  T
     SCC iter.                  ...        0 min,  0.330 sec
     gradient                   ...        0 min,  0.378 sec
 * total energy  :  -339.0679129 Eh     change        0.3387897E-03 Eh
   gradient norm :     0.1281807 Eh/α   predicted    -0.1673819E-01 (*******%)
   displ. norm   :     0.5403611 α      lambda       -0.2943947E-01
   maximum displ.:     0.2654276 α      in ANC's #143, #271, #265, ...

........................................................................
.............................. CYCLE   32 ..............................
........................................................................

 iter      E             dE          RMSdq      gap      omega  full diag
   1   -341.1596751 -0.341160E+03  0.132E-01    7.28       0.0  T
   2   -341.1597614 -0.863319E-04  0.794E-02    7.28       1.0  T
   3   -341.1597832 -0.217728E-04  0.447E-02    7.28       1.0  T
   4   -341.1597971 -0.138882E-04  0.113E-02    7.28       1.0  T
   5   -341.1597985 -0.140871E-05  0.905E-03    7.28       1.0  T
   6   -341.1597990 -0.448943E-06  0.245E-03    7.28       2.9  T
   7   -341.1597990 -0.326840E-07  0.131E-03    7.28       5.4  T
   8   -341.1597990 -0.176006E-07  0.230E-04    7.28      30.8  T
   9   -341.1597990 -0.731177E-09  0.970E-05    7.28      73.1  T
     SCC iter.                  ...        0 min,  0.331 sec
     gradient                   ...        0 min,  0.375 sec
 * total energy  :  -339.0776879 Eh     change       -0.9774982E-02 Eh
   gradient norm :     0.1021585 Eh/α   predicted    -0.1901776E-01 (  94.56%)
   displ. norm   :     0.6122746 α      lambda       -0.3019076E-01
   maximum displ.:     0.2412467 α      in ANC's #206, #350, #240, ...

........................................................................
.............................. CYCLE   33 ..............................
........................................................................

 iter      E             dE          RMSdq      gap      omega  full diag
   1   -341.2785978 -0.341279E+03  0.173E-01    7.25       0.0  T
   2   -341.2787471 -0.149328E-03  0.108E-01    7.25       1.0  T
   3   -341.2787544 -0.731243E-05  0.112E-01    7.26       1.0  T
   4   -341.2788203 -0.659306E-04  0.207E-02    7.26       1.0  T
   5   -341.2788240 -0.361488E-05  0.945E-03    7.26       1.0  T
   6   -341.2788251 -0.114122E-05  0.462E-03    7.26       1.5  T
   7   -341.2788252 -0.134821E-06  0.237E-03    7.26       3.0  T
   8   -341.2788253 -0.658445E-07  0.723E-04    7.26       9.8  T
   9   -341.2788253 -0.795052E-08  0.194E-04    7.26      36.5  T
     SCC iter.                  ...        0 min,  0.333 sec
     gradient                   ...        0 min,  0.383 sec
 * total energy  :  -339.0700676 Eh     change        0.7620242E-02 Eh
   gradient norm :     0.1802037 Eh/α   predicted    -0.2075435E-01 (-372.36%)
   displ. norm   :     0.4383238 α      lambda       -0.3447475E-01
   maximum displ.:     0.1104761 α      in ANC's #270, #271, #265, ...

........................................................................
.............................. CYCLE   34 ..............................
........................................................................

 iter      E             dE          RMSdq      gap      omega  full diag
   1   -341.2105078 -0.341211E+03  0.121E-01    7.25       0.0  T
   2   -341.2105923 -0.845085E-04  0.730E-02    7.25       1.0  T
   3   -341.2105949 -0.255059E-05  0.665E-02    7.25       1.0  T
   4   -341.2106253 -0.303627E-04  0.117E-02    7.25       1.0  T
   5   -341.2106266 -0.132462E-05  0.105E-02    7.25       1.0  T
   6   -341.2106273 -0.736647E-06  0.359E-03    7.25       2.0  T
   7   -341.2106274 -0.838326E-07  0.151E-03    7.25       4.7  T
   8   -341.2106274 -0.309118E-07  0.312E-04    7.25      22.7  T
   9   -341.2106274 -0.147998E-08  0.130E-04    7.25      54.6  T
     SCC iter.                  ...        0 min,  0.338 sec
     gradient                   ...        0 min,  0.421 sec
 * total energy  :  -339.0875757 Eh     change       -0.1750811E-01 Eh
   gradient norm :     0.0739784 Eh/α   predicted    -0.2054915E-01 (  17.37%)
   displ. norm   :     0.7455473 α      lambda       -0.2689175E-01
   maximum displ.:     0.3095278 α      in ANC's #206, #306, #250, ...

........................................................................
.............................. CYCLE   35 ..............................
........................................................................

 iter      E             dE          RMSdq      gap      omega  full diag
   1   -341.1339906 -0.341134E+03  0.204E-01    7.29       0.0  T
   2   -341.1342350 -0.244315E-03  0.122E-01    7.28       1.0  T
   3   -341.1343035 -0.685513E-04  0.804E-02    7.28       1.0  T
   4   -341.1343410 -0.374494E-04  0.232E-02    7.28       1.0  T
   5   -341.1343469 -0.593380E-05  0.118E-02    7.28       1.0  T
   6   -341.1343482 -0.128798E-05  0.656E-03    7.28       1.1  T
   7   -341.1343484 -0.260394E-06  0.309E-03    7.28       2.3  T
   8   -341.1343486 -0.116396E-06  0.124E-03    7.28       5.7  T
   9   -341.1343486 -0.200969E-07  0.229E-04    7.28      31.0  T
  10   -341.1343486 -0.114892E-08  0.960E-05    7.28      73.9  T
     SCC iter.                  ...        0 min,  0.387 sec
     gradient                   ...        0 min,  0.388 sec
 * total energy  :  -339.0675106 Eh     change        0.2006511E-01 Eh
   gradient norm :     0.2000259 Eh/α   predicted    -0.2091964E-01 (-204.26%)
   displ. norm   :     0.4120708 α      lambda       -0.4956916E-01
   maximum displ.:     0.1200836 α      in ANC's #206, #143, #252, ...

........................................................................
.............................. CYCLE   36 ..............................
........................................................................

 iter      E             dE          RMSdq      gap      omega  full diag
   1   -341.2253749 -0.341225E+03  0.129E-01    7.26       0.0  T
   2   -341.2254785 -0.103559E-03  0.768E-02    7.27       1.0  T
   3   -341.2255215 -0.430310E-04  0.197E-02    7.27       1.0  T
   4   -341.2255236 -0.208792E-05  0.173E-02    7.27       1.0  T
   5   -341.2255263 -0.263128E-05  0.634E-03    7.27       1.1  T
   6   -341.2255266 -0.305944E-06  0.299E-03    7.27       2.4  T
   7   -341.2255266 -0.437844E-07  0.215E-03    7.27       3.3  T
   8   -341.2255266 -0.385003E-07  0.561E-04    7.27      12.6  T
   9   -341.2255266 -0.374564E-08  0.133E-04    7.27      53.2  T
     SCC iter.                  ...        0 min,  0.345 sec
     gradient                   ...        0 min,  0.383 sec
 * total energy  :  -339.0971452 Eh     change       -0.2963458E-01 Eh
   gradient norm :     0.0601823 Eh/α   predicted    -0.2899311E-01 (  -2.16%)
   displ. norm   :     0.7926605 α      lambda       -0.2326768E-01
   maximum displ.:     0.3004093 α      in ANC's #291, #224, #206, ...

........................................................................
.............................. CYCLE   37 ..............................
........................................................................

 iter      E             dE          RMSdq      gap      omega  full diag
   1   -341.1599439 -0.341160E+03  0.211E-01    7.21       0.0  T
   2   -341.1601925 -0.248588E-03  0.125E-01    7.22       1.0  T
   3   -341.1602940 -0.101509E-03  0.364E-02    7.22       1.0  T
   4   -341.1603026 -0.856799E-05  0.239E-02    7.22       1.0  T
   5   -341.1603082 -0.559096E-05  0.102E-02    7.22       1.0  T
   6   -341.1603090 -0.862445E-06  0.455E-03    7.22       1.6  T
   7   -341.1603091 -0.868042E-07  0.446E-03    7.22       1.6  T
   8   -341.1603093 -0.181491E-06  0.567E-04    7.22      12.5  T
   9   -341.1603093 -0.480264E-08  0.257E-04    7.22      27.6  T
     SCC iter.                  ...        0 min,  0.343 sec
     gradient                   ...        0 min,  0.365 sec
 * total energy  :  -339.0732549 Eh     change        0.2389027E-01 Eh
   gradient norm :     0.2178610 Eh/α   predicted    -0.1894354E-01 (-179.29%)
   displ. norm   :     0.4265051 α      lambda       -0.5747888E-01
   maximum displ.:     0.2353278 α      in ANC's #291, #224, #236, ...

........................................................................
.............................. CYCLE   38 ..............................
........................................................................

 iter      E             dE          RMSdq      gap      omega  full diag
   1   -341.2060086 -0.341206E+03  0.142E-01    7.25       0.0  T
   2   -341.2061277 -0.119077E-03  0.843E-02    7.25       1.0  T
   3   -341.2061718 -0.440786E-04  0.400E-02    7.25       1.0  T
   4   -341.2061834 -0.116262E-04  0.145E-02    7.25       1.0  T
   5   -341.2061857 -0.235798E-05  0.802E-03    7.25       1.0  T
   6   -341.2061861 -0.326561E-06  0.379E-03    7.25       1.9  T
   7   -341.2061861 -0.735858E-07  0.178E-03    7.25       4.0  T
   8   -341.2061862 -0.289861E-07  0.236E-04    7.25      30.1  T
   9   -341.2061862 -0.686668E-09  0.102E-04    7.25      69.2  T
     SCC iter.                  ...        0 min,  0.341 sec
     gradient                   ...        0 min,  0.374 sec
 * total energy  :  -339.1052217 Eh     change       -0.3196678E-01 Eh
   gradient norm :     0.0694121 Eh/α   predicted    -0.3396730E-01 (   6.26%)
   displ. norm   :     0.7298110 α      lambda       -0.2396995E-01
   maximum displ.:     0.3035014 α      in ANC's #206, #250, #252, ...

........................................................................
.............................. CYCLE   39 ..............................
........................................................................

 iter      E             dE          RMSdq      gap      omega  full diag
   1   -341.2761744 -0.341276E+03  0.186E-01    7.25       0.0  T
   2   -341.2763572 -0.182805E-03  0.115E-01    7.25       1.0  T
   3   -341.2763861 -0.288834E-04  0.103E-01    7.26       1.0  T
   4   -341.2764472 -0.610915E-04  0.257E-02    7.26       1.0  T
   5   -341.2764515 -0.427945E-05  0.113E-02    7.26       1.0  T
   6   -341.2764525 -0.104466E-05  0.950E-03    7.26       1.0  T
   7   -341.2764532 -0.702043E-06  0.247E-03    7.26       2.9  T
   8   -341.2764533 -0.795099E-07  0.787E-04    7.26       9.0  T
   9   -341.2764533 -0.665239E-08  0.222E-04    7.26      31.9  T
     SCC iter.                  ...        0 min,  0.353 sec
     gradient                   ...        0 min,  0.369 sec
 * total energy  :  -339.0898815 Eh     change        0.1534019E-01 Eh
   gradient norm :     0.1899265 Eh/α   predicted    -0.1836845E-01 (-219.74%)
   displ. norm   :     0.4235774 α      lambda       -0.4202598E-01
   maximum displ.:     0.1296035 α      in ANC's #206, #261, #375, ...

........................................................................
.............................. CYCLE   40 ..............................
........................................................................

 iter      E             dE          RMSdq      gap      omega  full diag
   1   -341.2414317 -0.341241E+03  0.121E-01    7.25       0.0  T
   2   -341.2415111 -0.793648E-04  0.735E-02    7.24       1.0  T
   3   -341.2415273 -0.162092E-04  0.600E-02    7.24       1.0  T
   4   -341.2415487 -0.214319E-04  0.153E-02    7.24       1.0  T
   5   -341.2415504 -0.169374E-05  0.656E-03    7.24       1.1  T
   6   -341.2415510 -0.552203E-06  0.244E-03    7.24       2.9  T
   7   -341.2415510 -0.239003E-07  0.187E-03    7.24       3.8  T
   8   -341.2415510 -0.293988E-07  0.631E-04    7.24      11.2  T
   9   -341.2415510 -0.452104E-08  0.116E-04    7.24      61.2  T
     SCC iter.                  ...        0 min,  0.361 sec
     gradient                   ...        0 min,  0.386 sec
 * total energy  :  -339.1142182 Eh     change       -0.2433664E-01 Eh
   gradient norm :     0.0607765 Eh/α   predicted    -0.2478310E-01 (   1.83%)
   displ. norm   :     0.7630528 α      lambda       -0.2056910E-01
   maximum displ.:     0.2153186 α      in ANC's #206, #235, #286, ...

........................................................................
.............................. CYCLE   41 ..............................
........................................................................

 iter      E             dE          RMSdq      gap      omega  full diag
   1   -341.2276998 -0.341228E+03  0.183E-01    7.28       0.0  T
   2   -341.2278590 -0.159268E-03  0.110E-01    7.28       1.0  T
   3   -341.2279287 -0.696816E-04  0.294E-02    7.28       1.0  T
   4   -341.2279344 -0.563960E-05  0.174E-02    7.28       1.0  T
   5   -341.2279378 -0.341760E-05  0.605E-03    7.28       1.2  T
   6   -341.2279380 -0.253891E-06  0.261E-03    7.28       2.7  T
   7   -341.2279381 -0.813146E-07  0.216E-03    7.28       3.3  T
   8   -341.2279381 -0.336834E-07  0.364E-04    7.28      19.5  T
   9   -341.2279381 -0.273201E-08  0.179E-04    7.28      39.6  T
     SCC iter.                  ...        0 min,  0.316 sec
     gradient                   ...        0 min,  0.374 sec
 * total energy  :  -339.0997135 Eh     change        0.1450467E-01 Eh
   gradient norm :     0.2006547 Eh/α   predicted    -0.1627272E-01 (-212.19%)
   displ. norm   :     0.4275090 α      lambda       -0.4076620E-01
   maximum displ.:     0.1299132 α      in ANC's #313, #261, #311, ...

........................................................................
.............................. CYCLE   42 ..............................
........................................................................

 iter      E             dE          RMSdq      gap      omega  full diag
   1   -341.2364885 -0.341236E+03  0.128E-01    7.25       0.0  T
   2   -341.2365805 -0.920004E-04  0.768E-02    7.25       1.0  T
   3   -341.2366049 -0.243495E-04  0.422E-02    7.25       1.0  T
   4   -341.2366177 -0.128679E-04  0.119E-02    7.25       1.0  T
   5   -341.2366194 -0.171354E-05  0.726E-03    7.25       1.0  T
   6   -341.2366197 -0.285339E-06  0.307E-03    7.25       2.3  T
   7   -341.2366198 -0.546698E-07  0.150E-03    7.25       4.7  T
   8   -341.2366198 -0.245344E-07  0.305E-04    7.25      23.2  T
   9   -341.2366198 -0.118683E-08  0.121E-04    7.25      58.5  T
     SCC iter.                  ...        0 min,  0.331 sec
     gradient                   ...        0 min,  0.374 sec
 * total energy  :  -339.1230446 Eh     change       -0.2333108E-01 Eh
   gradient norm :     0.0661399 Eh/α   predicted    -0.2410840E-01 (   3.33%)
   displ. norm   :     0.7685600 α      lambda       -0.2550532E-01
   maximum displ.:     0.2111078 α      in ANC's #206, #261, #166, ...
 * RMSD in coord.:     0.5665699 α      energy gain  -0.1471135E+00 Eh

generating ANC from model Hessian ...
Using Lindh-Hessian (1995)
 Shifting diagonal of input Hessian by    1.0471720916225419E-002
 Lowest  eigenvalues of input Hessian
    0.010000    0.010196    0.010273    0.010303    0.010308    0.010310
    0.010315    0.010320    0.010327    0.010332    0.010336    0.010345
    0.010348    0.010353    0.010356    0.010360    0.010366    0.010374
 Highest eigenvalues
    1.480875    1.500476    1.533425    1.536268    1.564115    1.758176


........................................................................
.............................. CYCLE   43 ..............................
........................................................................

 iter      E             dE          RMSdq      gap      omega  full diag
   1   -341.2420734 -0.341242E+03  0.203E-01    7.17       0.0  T
   2   -341.2422975 -0.224118E-03  0.125E-01    7.17       1.0  T
   3   -341.2423254 -0.279471E-04  0.119E-01    7.18       1.0  T
   4   -341.2424152 -0.897195E-04  0.168E-02    7.18       1.0  T
   5   -341.2424191 -0.399124E-05  0.126E-02    7.18       1.0  T
   6   -341.2424201 -0.943969E-06  0.446E-03    7.18       1.6  T
   7   -341.2424203 -0.190741E-06  0.214E-03    7.18       3.3  T
   8   -341.2424203 -0.665814E-07  0.421E-04    7.18      16.9  T
   9   -341.2424204 -0.274071E-08  0.210E-04    7.18      33.8  T
     SCC iter.                  ...        0 min,  0.345 sec
     gradient                   ...        0 min,  0.378 sec
 * total energy  :  -339.0986172 Eh     change        0.2442737E-01 Eh
   gradient norm :     0.2188518 Eh/α   predicted     0.0000000E+00 (-100.00%)
   displ. norm   :     0.3754274 α      lambda       -0.4508808E-01
   maximum displ.:     0.0988631 α      in ANC's #391, #533, #463, ...

........................................................................
.............................. CYCLE   44 ..............................
........................................................................

 iter      E             dE          RMSdq      gap      omega  full diag
   1   -341.2522591 -0.341252E+03  0.106E-01    7.29       0.0  T
   2   -341.2523080 -0.488025E-04  0.705E-02    7.28       1.0  T
   3   -341.2523069  0.108165E-05  0.765E-02    7.28       1.0  T
   4   -341.2523398 -0.328979E-04  0.114E-02    7.27       1.0  T
   5   -341.2523406 -0.872583E-06  0.742E-03    7.27       1.0  T
   6   -341.2523411 -0.473902E-06  0.456E-03    7.27       1.6  T
   7   -341.2523413 -0.187300E-06  0.131E-03    7.28       5.4  T
   8   -341.2523413 -0.261655E-07  0.500E-04    7.28      14.2  T
   9   -341.2523413 -0.421386E-08  0.137E-04    7.28      51.8  T
     SCC iter.                  ...        0 min,  0.372 sec
     gradient                   ...        0 min,  0.373 sec
 * total energy  :  -339.1290896 Eh     change       -0.3047235E-01 Eh
   gradient norm :     0.0777914 Eh/α   predicted    -0.2572571E-01 ( -15.58%)
   displ. norm   :     0.6298829 α      lambda       -0.2319590E-01
   maximum displ.:     0.1295930 α      in ANC's #141, #153, #373, ...

........................................................................
.............................. CYCLE   45 ..............................
........................................................................

 iter      E             dE          RMSdq      gap      omega  full diag
   1   -341.2439176 -0.341244E+03  0.166E-01    7.06       0.0  T
   2   -341.2439722 -0.546138E-04  0.146E-01    7.08       1.0  T
   3   -341.2440478 -0.756432E-04  0.854E-02    7.08       1.0  T
   4   -341.2440812 -0.333751E-04  0.388E-02    7.09       1.0  T
   5   -341.2440873 -0.605664E-05  0.159E-02    7.09       1.0  T
   6   -341.2440892 -0.197718E-05  0.645E-03    7.09       1.1  T
   7   -341.2440897 -0.496400E-06  0.211E-03    7.09       3.4  T
   8   -341.2440898 -0.385880E-07  0.938E-04    7.09       7.6  T
   9   -341.2440898 -0.160244E-07  0.158E-04    7.09      44.7  T
     SCC iter.                  ...        0 min,  0.344 sec
     gradient                   ...        0 min,  0.376 sec
 * total energy  :  -339.1315163 Eh     change       -0.2426715E-02 Eh
   gradient norm :     0.0839827 Eh/α   predicted    -0.1620006E-01 ( 567.57%)
   displ. norm   :     0.4985512 α      lambda       -0.1755970E-01
   maximum displ.:     0.1059348 α      in ANC's #372, #231, #369, ...

........................................................................
.............................. CYCLE   46 ..............................
........................................................................

 iter      E             dE          RMSdq      gap      omega  full diag
   1   -341.2546900 -0.341255E+03  0.113E-01    7.28       0.0  T
   2   -341.2546863  0.364039E-05  0.112E-01    7.27       1.0  T
   3   -341.2547391 -0.527835E-04  0.534E-02    7.26       1.0  T
   4   -341.2547490 -0.986162E-05  0.274E-02    7.26       1.0  T
   5   -341.2547516 -0.258449E-05  0.105E-02    7.26       1.0  T
   6   -341.2547524 -0.859611E-06  0.344E-03    7.26       2.1  T
   7   -341.2547526 -0.136579E-06  0.116E-03    7.26       6.1  T
   8   -341.2547526 -0.134656E-07  0.456E-04    7.26      15.6  T
   9   -341.2547526 -0.479179E-08  0.112E-04    7.26      63.0  T
     SCC iter.                  ...        0 min,  0.361 sec
     gradient                   ...        0 min,  0.375 sec
 * total energy  :  -339.1445375 Eh     change       -0.1302126E-01 Eh
   gradient norm :     0.0464610 Eh/α   predicted    -0.1096220E-01 ( -15.81%)
   displ. norm   :     0.6164510 α      lambda       -0.8871532E-02
   maximum displ.:     0.1036003 α      in ANC's #1, #2, #268, ...

........................................................................
.............................. CYCLE   47 ..............................
........................................................................

 iter      E             dE          RMSdq      gap      omega  full diag
   1   -341.2518570 -0.341252E+03  0.856E-02    7.27       0.0  T
   2   -341.2518753 -0.183318E-04  0.530E-02    7.27       1.0  T
   3   -341.2518769 -0.160192E-05  0.408E-02    7.27       1.0  T
   4   -341.2518858 -0.891330E-05  0.561E-03    7.27       1.3  T
   5   -341.2518861 -0.307999E-06  0.290E-03    7.27       2.4  T
   6   -341.2518862 -0.792128E-07  0.186E-03    7.27       3.8  T
   7   -341.2518862 -0.260274E-07  0.757E-04    7.27       9.4  T
   8   -341.2518863 -0.946170E-08  0.223E-04    7.27      31.7  T
     SCC iter.                  ...        0 min,  0.315 sec
     gradient                   ...        0 min,  0.381 sec
 * total energy  :  -339.1498901 Eh     change       -0.5352569E-02 Eh
   gradient norm :     0.0475730 Eh/α   predicted    -0.6121406E-02 (  14.36%)
   displ. norm   :     0.7303341 α      lambda       -0.1009458E-01
   maximum displ.:     0.1436019 α      in ANC's #155, #153, #231, ...

........................................................................
.............................. CYCLE   48 ..............................
........................................................................

 iter      E             dE          RMSdq      gap      omega  full diag
   1   -341.2539178 -0.341254E+03  0.953E-02    7.22       0.0  T
   2   -341.2539316 -0.137615E-04  0.644E-02    7.22       1.0  T
   3   -341.2539261  0.550778E-05  0.621E-02    7.23       1.0  T
[...]
    38   1 H    0.898 --    29 O    0.863
    39   1 H    0.868 --    29 O    0.819
    40   1 H    0.907 --    22 O    0.863
    41   1 H    0.886 --    22 O    0.684    24 O    0.199
    42   1 H    0.876 --    23 O    0.815
    43   1 H    0.867 --    23 O    0.851
    44   1 H    0.877 --    31 O    0.803
    45   1 H    0.867 --    31 O    0.804
    46   1 H    0.898 --    30 O    0.858
    47   1 H    0.874 --    30 O    0.807
    48   1 H    0.895 --    28 O    0.858
    49   1 H    0.875 --    28 O    0.826
    50   1 H    0.871 --    27 O    0.799
    51   1 H    0.869 --    27 O    0.834
    52   1 H    0.895 --    26 O    0.855
    53   1 H    0.875 --    26 O    0.840
    54   1 H    0.882 --    21 O    0.839
    55   1 H    0.869 --    21 O    0.781
    56   8 O    1.790 --    58 H    0.868    57 H    0.865
    57   1 H    0.897 --    56 O    0.865
    58   1 H    0.871 --    56 O    0.868
    59   8 O    1.758 --    61 H    0.869    60 H    0.850
    60   1 H    0.853 --    59 O    0.850
    61   1 H    0.872 --    59 O    0.869
    62   8 O    1.801 --    64 H    0.869    63 H    0.853
    63   1 H    0.856 --    62 O    0.853
    64   1 H    0.896 --    62 O    0.869
    65   8 O    1.781 --    66 H    0.883    67 H    0.833
    66   1 H    0.890 --    65 O    0.883
    67   1 H    0.874 --    65 O    0.833
    68   8 O    1.781 --    70 H    0.881    69 H    0.794
    69   1 H    0.883 --    68 O    0.794
    70   1 H    0.883 --    68 O    0.881
    71   8 O    1.743 --    73 H    0.870    72 H    0.858
    72   1 H    0.887 --    71 O    0.858
    73   1 H    0.870 --    71 O    0.870
    74   8 O    1.763 --    76 H    0.859    75 H    0.856
    75   1 H    0.858 --    74 O    0.856
    76   1 H    0.862 --    74 O    0.859
    77   8 O    1.792 --    79 H    0.865    78 H    0.860
    78   1 H    0.863 --    77 O    0.860
    79   1 H    0.894 --    77 O    0.865
    80   8 O    1.781 --    81 H    0.858    82 H    0.816
    81   1 H    0.892 --    80 O    0.858
    82   1 H    0.876 --    80 O    0.816
    83   8 O    1.826 --    85 H    0.880    84 H    0.795
    84   1 H    0.875 --    83 O    0.795
    85   1 H    0.884 --    83 O    0.880
    86   8 O    1.784 --    87 H    0.873    88 H    0.850
    87   1 H    0.877 --    86 O    0.873
    88   1 H    0.894 --    86 O    0.850
    89   8 O    1.771 --    91 H    0.874    90 H    0.804
    90   1 H    0.875 --    89 O    0.804
    91   1 H    0.877 --    89 O    0.874
    92   8 O    1.795 --    93 H    0.871    94 H    0.858
    93   1 H    0.873 --    92 O    0.871
    94   1 H    0.895 --    92 O    0.858
    95   8 O    1.788 --    97 H    0.871    96 H    0.860
    96   1 H    0.893 --    95 O    0.860
    97   1 H    0.875 --    95 O    0.871
    98   8 O    1.850 --    99 H    0.864   100 H    0.849
    99   1 H    0.867 --    98 O    0.864
   100   1 H    0.889 --    98 O    0.849
   101   8 O    1.789 --   102 H    0.872   103 H    0.859
   102   1 H    0.874 --   101 O    0.872
   103   1 H    0.892 --   101 O    0.859
   104   8 O    1.814 --   105 H    0.857   106 H    0.790
   105   1 H    0.895 --   104 O    0.857
   106   1 H    0.863 --   104 O    0.790
   107   8 O    1.807 --   109 H    0.865   108 H    0.859
   108   1 H    0.891 --   107 O    0.859
   109   1 H    0.895 --   107 O    0.865
   110   8 O    1.771 --   112 H    0.863   111 H    0.854
   111   1 H    0.857 --   110 O    0.854
   112   1 H    0.893 --   110 O    0.863
   113   8 O    1.743 --   114 H    0.864   115 H    0.864
   114   1 H    0.891 --   113 O    0.864
   115   1 H    0.864 --   113 O    0.864
   116   8 O    1.774 --   117 H    0.867   118 H    0.856
   117   1 H    0.870 --   116 O    0.867
   118   1 H    0.858 --   116 O    0.856
   119   8 O    1.777 --   121 H    0.870   120 H    0.867
   120   1 H    0.869 --   119 O    0.867
   121   1 H    0.872 --   119 O    0.870
   122   8 O    1.749 --   124 H    0.878   123 H    0.855
   123   1 H    0.885 --   122 O    0.855
   124   1 H    0.878 --   122 O    0.878
   125   8 O    1.776 --   127 H    0.877   126 H    0.865
   126   1 H    0.868 --   125 O    0.865
   127   1 H    0.880 --   125 O    0.877
   128   8 O    1.737 --   129 H    0.875   130 H    0.863
   129   1 H    0.875 --   128 O    0.875
   130   1 H    0.863 --   128 O    0.863
   131   8 O    1.738 --   133 H    0.868   132 H    0.846
   132   1 H    0.892 --   131 O    0.846
   133   1 H    0.869 --   131 O    0.868
   134   8 O    1.759 --   135 H    0.865   136 H    0.854
   135   1 H    0.867 --   134 O    0.865
   136   1 H    0.857 --   134 O    0.854
   137   8 O    1.747 --   138 H    0.879   139 H    0.850
   138   1 H    0.880 --   137 O    0.879
   139   1 H    0.885 --   137 O    0.850
   140   8 O    1.776 --   142 H    0.873   141 H    0.869
   141   1 H    0.872 --   140 O    0.869
   142   1 H    0.876 --   140 O    0.873
   143   8 O    1.765 --   144 H    0.884   145 H    0.812
   144   1 H    0.887 --   143 O    0.884
   145   1 H    0.875 --   143 O    0.812
   146   8 O    1.740 --   148 H    0.874   147 H    0.845
   147   1 H    0.887 --   146 O    0.845
   148   1 H    0.874 --   146 O    0.874
   149   8 O    1.796 --   150 H    0.876   151 H    0.838
   150   1 H    0.879 --   149 O    0.876
   151   1 H    0.885 --   149 O    0.838
   152   8 O    1.736 --   153 H    0.873   154 H    0.841
   153   1 H    0.873 --   152 O    0.873
   154   1 H    0.885 --   152 O    0.841
   155   8 O    1.781 --   156 H    0.867   157 H    0.866
   156   1 H    0.869 --   155 O    0.867
   157   1 H    0.868 --   155 O    0.866
   158   8 O    1.776 --   159 H    0.869   160 H    0.865
   159   1 H    0.872 --   158 O    0.869
   160   1 H    0.868 --   158 O    0.865
   161   8 O    1.746 --   162 H    0.880   163 H    0.845
   162   1 H    0.880 --   161 O    0.880
   163   1 H    0.886 --   161 O    0.845
   164   8 O    1.784 --   165 H    0.873   166 H    0.849
   165   1 H    0.876 --   164 O    0.873
   166   1 H    0.889 --   164 O    0.849
   167   8 O    1.787 --   168 H    0.883   169 H    0.832
   168   1 H    0.886 --   167 O    0.883
   169   1 H    0.879 --   167 O    0.832
   170   8 O    1.736 --   172 H    0.869   171 H    0.867
   171   1 H    0.867 --   170 O    0.867
   172   1 H    0.869 --   170 O    0.869
   173   8 O    1.742 --   175 H    0.872   174 H    0.869
   174   1 H    0.869 --   173 O    0.869
   175   1 H    0.872 --   173 O    0.872
   176   8 O    1.734 --   177 H    0.867   178 H    0.867
   177   1 H    0.867 --   176 O    0.867
   178   1 H    0.867 --   176 O    0.867
   179   8 O    1.735 --   181 H    0.871   180 H    0.864
   180   1 H    0.864 --   179 O    0.864
   181   1 H    0.871 --   179 O    0.871
   182   8 O    1.733 --   184 H    0.868   183 H    0.865
   183   1 H    0.865 --   182 O    0.865
   184   1 H    0.868 --   182 O    0.868
   185   8 O    1.783 --   187 H    0.868   186 H    0.864
   186   1 H    0.867 --   185 O    0.864
   187   1 H    0.870 --   185 O    0.868
   188   8 O    1.771 --   190 H    0.872   189 H    0.863
   189   1 H    0.865 --   188 O    0.863
   190   1 H    0.875 --   188 O    0.872
   191   8 O    1.764 --   193 H    0.865   192 H    0.862
   192   1 H    0.864 --   191 O    0.862
   193   1 H    0.868 --   191 O    0.865
   194   8 O    1.778 --   196 H    0.874   195 H    0.845
   195   1 H    0.885 --   194 O    0.845
   196   1 H    0.878 --   194 O    0.874
   197   8 O    1.745 --   199 H    0.874   198 H    0.856
   198   1 H    0.886 --   197 O    0.856
   199   1 H    0.874 --   197 O    0.874
 ---------------------------------------------------------------------------

Topologies differ in total number of bonds
Writing topology from bond orders to xtbtopo.mol

molecular dipole:
                 x           y           z       tot (Debye)
 q only:       11.998     -16.409      -9.102
   full:       11.393     -13.813      -8.469      50.343
molecular quadrupole (traceless):
                xx          xy          yy          xz          yz          zz
 q only:      267.569     196.206    -318.798     135.672    -423.974      51.229
  q+dip:      270.891     188.581    -301.457     138.782    -419.763      30.565
   full:      270.159     188.405    -300.728     137.963    -419.361      30.569

           -------------------------------------------------
          |                Geometry Summary                 |
           -------------------------------------------------

      molecular mass/u    :     1244.8540481
   center of mass at/Å    :        0.2349487       0.1410501      -0.0375039
  moments of inertia/u·Å² :        0.3928863E+05   0.4214546E+05   0.4284238E+05
rotational constants/cm⁻¹ :        0.4290716E-03   0.3999869E-03   0.3934803E-03

 * 127 selected distances

     #   Z          #   Z                                           value/Å
     6   8 O        8   1 H                                       0.9782456
     6   8 O        9   1 H                                       0.9695248
     7   8 O       10   1 H                                       0.9675983
     7   8 O       11   1 H                                       0.9694050
     2   8 O       12   1 H                                       0.9644556
     2   8 O       13   1 H                                       0.9631094
     4   8 O       14   1 H                                       0.9734326
     4   8 O       15   1 H                                       0.9668953
     3   8 O       16   1 H                                       0.9684924
     3   8 O       17   1 H                                       0.9679485
     5   8 O       18   1 H                                       0.9783109
     5   8 O       19   1 H                                       0.9621104
    25   8 O       33   1 H                                       0.9725472
    20   8 O       34   1 H                                       0.9718182
    29   8 O       38   1 H                                       0.9662802
    29   8 O       39   1 H                                       0.9761100
    22   8 O       40   1 H                                       0.9679856
    23   8 O       42   1 H                                       0.9730273
    23   8 O       43   1 H                                       0.9636655
    31   8 O       44   1 H                                       0.9868591
    31   8 O       45   1 H                                       0.9833808
    30   8 O       46   1 H                                       0.9659802
    30   8 O       47   1 H                                       0.9844815
    28   8 O       48   1 H                                       0.9665208
    28   8 O       49   1 H                                       0.9769846
    27   8 O       50   1 H                                       0.9844329
    27   8 O       51   1 H                                       0.9724214
    26   8 O       52   1 H                                       0.9671278
    26   8 O       53   1 H                                       0.9723932
    21   8 O       54   1 H                                       0.9704257
    21   8 O       55   1 H                                       0.9923060
    56   8 O       57   1 H                                       0.9682718
    56   8 O       58   1 H                                       0.9609605
    59   8 O       60   1 H                                       0.9643994
    59   8 O       61   1 H                                       0.9610524
    62   8 O       63   1 H                                       0.9639282
    62   8 O       64   1 H                                       0.9678811
    65   8 O       66   1 H                                       0.9567022 (min)
    65   8 O       67   1 H                                       0.9771911
    68   8 O       69   1 H                                       0.9979994 (max)
    68   8 O       70   1 H                                       0.9609424
    71   8 O       72   1 H                                       0.9724607
    71   8 O       73   1 H                                       0.9628189
    74   8 O       75   1 H                                       0.9632095
    74   8 O       76   1 H                                       0.9628898
    77   8 O       78   1 H                                       0.9631181
    77   8 O       79   1 H                                       0.9688724
    80   8 O       81   1 H                                       0.9692195
    80   8 O       82   1 H                                       0.9820638
    83   8 O       84   1 H                                       0.9922989
    83   8 O       85   1 H                                       0.9598595
    86   8 O       87   1 H                                       0.9596847
    86   8 O       88   1 H                                       0.9735217
    89   8 O       90   1 H                                       0.9894314
    89   8 O       91   1 H                                       0.9609468
    92   8 O       93   1 H                                       0.9620109
    92   8 O       94   1 H                                       0.9719322
    95   8 O       96   1 H                                       0.9697482
    95   8 O       97   1 H                                       0.9604169
    98   8 O       99   1 H                                       0.9628765
    98   8 O      100   1 H                                       0.9731322
   101   8 O      102   1 H                                       0.9609440
   101   8 O      103   1 H                                       0.9709018
   104   8 O      105   1 H                                       0.9702012
   104   8 O      106   1 H                                       0.9895077
   107   8 O      108   1 H                                       0.9713000
   107   8 O      109   1 H                                       0.9709088
   110   8 O      111   1 H                                       0.9635853
   110   8 O      112   1 H                                       0.9685667
   113   8 O      114   1 H                                       0.9702485
   113   8 O      115   1 H                                       0.9634670
   116   8 O      117   1 H                                       0.9616942
   116   8 O      118   1 H                                       0.9635194
   119   8 O      120   1 H                                       0.9620832
   119   8 O      121   1 H                                       0.9617824
   122   8 O      123   1 H                                       0.9728345
   122   8 O      124   1 H                                       0.9610811
   125   8 O      126   1 H                                       0.9623235
   125   8 O      127   1 H                                       0.9602581
   128   8 O      129   1 H                                       0.9612720
   128   8 O      130   1 H                                       0.9634287
   131   8 O      132   1 H                                       0.9777354
   131   8 O      133   1 H                                       0.9632835
   134   8 O      135   1 H                                       0.9622473
   134   8 O      136   1 H                                       0.9638573
   137   8 O      138   1 H                                       0.9607568
   137   8 O      139   1 H                                       0.9749003
   140   8 O      141   1 H                                       0.9616002
   140   8 O      142   1 H                                       0.9607972
   143   8 O      144   1 H                                       0.9585217
   143   8 O      145   1 H                                       0.9854647
   146   8 O      147   1 H                                       0.9769346
   146   8 O      148   1 H                                       0.9614653
   149   8 O      150   1 H                                       0.9605806
   149   8 O      151   1 H                                       0.9782268
   152   8 O      153   1 H                                       0.9624518
   152   8 O      154   1 H                                       0.9786277
   155   8 O      156   1 H                                       0.9625570
   155   8 O      157   1 H                                       0.9623043
   158   8 O      159   1 H                                       0.9612061
   158   8 O      160   1 H                                       0.9622111
   161   8 O      162   1 H                                       0.9603081
   161   8 O      163   1 H                                       0.9764576
   164   8 O      165   1 H                                       0.9611620
   164   8 O      166   1 H                                       0.9741833
   167   8 O      168   1 H                                       0.9587162
   167   8 O      169   1 H                                       0.9797232
   170   8 O      171   1 H                                       0.9627406
   170   8 O      172   1 H                                       0.9623768
   173   8 O      174   1 H                                       0.9622774
   173   8 O      175   1 H                                       0.9616282
   176   8 O      177   1 H                                       0.9628839
   176   8 O      178   1 H                                       0.9629222
   179   8 O      180   1 H                                       0.9632235
   179   8 O      181   1 H                                       0.9621076
   182   8 O      183   1 H                                       0.9631140
   182   8 O      184   1 H                                       0.9626261
   185   8 O      186   1 H                                       0.9624252
   185   8 O      187   1 H                                       0.9616974
   188   8 O      189   1 H                                       0.9627347
   188   8 O      190   1 H                                       0.9606578
   191   8 O      192   1 H                                       0.9629979
   191   8 O      193   1 H                                       0.9624077
   194   8 O      195   1 H                                       0.9746218
   194   8 O      196   1 H                                       0.9603087
   197   8 O      198   1 H                                       0.9728231
   197   8 O      199   1 H                                       0.9618900

 * 1 distinct bonds (by element types)

   Z      Z             #   av. dist./Å        max./Å        min./Å
   1 H    8 O         127     0.9681006     0.9979994     0.9567022


optimized geometry written to: xtbopt.xyz


           -------------------------------------------------
          | TOTAL ENERGY             -339.350227576935 Eh   |
          | GRADIENT NORM               0.000048733175 Eh/α |
          | HOMO-LUMO GAP               6.890739957392 eV   |
           -------------------------------------------------
########################################################################
[WARNING] Runtime exception occurred
-1- restart_readRestart: Number of electron missmatch in restart file.
########################################################################

------------------------------------------------------------------------
 * finished run on 2024/05/10 at 18:37:15.151     
------------------------------------------------------------------------
 total:
 * wall-time:     0 d,  0 h,  8 min, 46.450 sec
 *  cpu-time:     0 d,  0 h, 58 min, 58.812 sec
 * ratio c/w:     6.722 speedup
 SCF:
 * wall-time:     0 d,  0 h,  0 min,  0.904 sec
 *  cpu-time:     0 d,  0 h,  0 min,  5.599 sec
 * ratio c/w:     6.195 speedup
 ANC optimizer:
 * wall-time:     0 d,  0 h,  8 min, 45.219 sec
 *  cpu-time:     0 d,  0 h, 58 min, 51.668 sec
 * ratio c/w:     6.724 speedup

