      -----------------------------------------------------------      
     |                   =====================                   |     
     |                           x T B                           |     
     |                   =====================                   |     
     |                         S. Grimme                         |     
     |          Mulliken Center for Theoretical Chemistry        |     
     |                    University of Bonn                     |     
      -----------------------------------------------------------      

   * xtb version 6.6.0 (conda-forge) compiled by 'runner@Mac-1676020848589.local' on 2023-02-10

   xtb is free software: you can redistribute it and/or modify it under
   the terms of the GNU Lesser General Public License as published by
   the Free Software Foundation, either version 3 of the License, or
   (at your option) any later version.
   
   xtb is distributed in the hope that it will be useful,
   but WITHOUT ANY WARRANTY; without even the implied warranty of
   MERCHANTABILITY or FITNESS FOR A PARTICULAR PURPOSE.  See the
   GNU Lesser General Public License for more details.
   
   Cite this work as:
   * C. Bannwarth, E. Caldeweyher, S. Ehlert, A. Hansen, P. Pracht,
     J. Seibert, S. Spicher, S. Grimme, WIREs Comput. Mol. Sci., 2020, 11,
     e01493. DOI: 10.1002/wcms.1493
   
   for GFN2-xTB:
   * C. Bannwarth, S. Ehlert and S. Grimme., J. Chem. Theory Comput., 2019,
     15, 1652-1671. DOI: 10.1021/acs.jctc.8b01176
   for GFN1-xTB:
   * S. Grimme, C. Bannwarth, P. Shushkov, J. Chem. Theory Comput., 2017,
     13, 1989-2009. DOI: 10.1021/acs.jctc.7b00118
   for GFN0-xTB:
   * P. Pracht, E. Caldeweyher, S. Ehlert, S. Grimme, ChemRxiv, 2019, preprint.
     DOI: 10.26434/chemrxiv.8326202.v1
   for GFN-FF:
   * S. Spicher and S. Grimme, Angew. Chem. Int. Ed., 2020, 59, 15665-15673.
     DOI: 10.1002/anie.202004239
   
   for ALPB and GBSA implicit solvation:
   * S. Ehlert, M. Stahn, S. Spicher, S. Grimme, J. Chem. Theory Comput.,
     2021, 17, 4250-4261. DOI: 10.1021/acs.jctc.1c00471
   
   for DFT-D4:
   * E. Caldeweyher, C. Bannwarth and S. Grimme, J. Chem. Phys., 2017,
     147, 034112. DOI: 10.1063/1.4993215
   * E. Caldeweyher, S. Ehlert, A. Hansen, H. Neugebauer, S. Spicher,
     C. Bannwarth and S. Grimme, J. Chem. Phys., 2019, 150, 154122.
     DOI: 10.1063/1.5090222
   * E. Caldeweyher, J.-M. Mewes, S. Ehlert and S. Grimme, Phys. Chem. Chem. Phys.
     2020, 22, 8499-8512. DOI: 10.1039/D0CP00502A
   
   for sTDA-xTB:
   * S. Grimme and C. Bannwarth, J. Chem. Phys., 2016, 145, 054103.
     DOI: 10.1063/1.4959605
   
   in the mass-spec context:
   * V. Asgeirsson, C. Bauer and S. Grimme, Chem. Sci., 2017, 8, 4879.
     DOI: 10.1039/c7sc00601b
   * J. Koopman and S. Grimme, ACS Omega 2019, 4, 12, 15120-15133.
     DOI: 10.1021/acsomega.9b02011
   
   for metadynamics refer to:
   * S. Grimme, J. Chem. Theory Comput., 2019, 155, 2847-2862
     DOI: 10.1021/acs.jctc.9b00143
   
   for SPH calculations refer to:
   * S. Spicher and S. Grimme, J. Chem. Theory Comput., 2021, 17, 1701-1714
     DOI: 10.1021/acs.jctc.0c01306
   
   with help from (in alphabetical order)
   P. Atkinson, C. Bannwarth, F. Bohle, G. Brandenburg, E. Caldeweyher
   M. Checinski, S. Dohm, S. Ehlert, S. Ehrlich, I. Gerasimov, C. Hölzer
   A. Katbashev, J. Koopman, C. Lavigne, S. Lehtola, F. März, M. Müller,
   F. Musil, H. Neugebauer, J. Pisarek, C. Plett, P. Pracht, F. Pultar,
   J. Seibert, P. Shushkov, S. Spicher, M. Stahn, M. Steiner, T. Strunk,
   J. Stückrath, T. Rose, and J. Unsleber
   
 * started run on 2024/05/10 at 18:08:54.194     

           -------------------------------------------------
          |                Calculation Setup                |
           -------------------------------------------------

          program call               : xtb Fe_39H2O_solvated_radius_9_3_6.xyz --gfn2 --chrg 3 --uhf 6 --hess --alpb water
          coordinate file            : Fe_39H2O_solvated_radius_9_3_6.xyz
          omp threads                :                     8

   ID    Z sym.   atoms
    1   26 Fe     1
    2    8 O      2-7, 20-31, 56, 59, 62, 65, 68, 71, 74, 77, 80, 83, 86, 89,
                  92, 95, 98, 101, 104, 107, 110, 113, 116, 119, 122, 125,
                  128, 131, 134, 137, 140, 143, 146, 149, 152, 155, 158, 161,
                  164, 167, 170, 173, 176, 179, 182, 185, 188, 191, 194, 197
    3    1 H      8-19, 32-55, 57, 58, 60, 61, 63, 64, 66, 67, 69, 70, 72,
                  73, 75, 76, 78, 79, 81, 82, 84, 85, 87, 88, 90, 91, 93, 94,
                  96, 97, 99, 100, 102, 103, 105, 106, 108, 109, 111, 112,
                  114, 115, 117, 118, 120, 121, 123, 124, 126, 127, 129, 130,
                  132, 133, 135, 136, 138, 139, 141, 142, 144, 145, 147, 148,
                  150, 151, 153, 154, 156, 157, 159, 160, 162, 163, 165, 166,
                  168, 169, 171, 172, 174, 175, 177, 178, 180, 181, 183, 184,
                  186, 187, 189, 190, 192, 193, 195, 196, 198, 199

molecular fragmentation (1/2 indicates fragments):
111122222221212112222222222222222222222222222222222222222222222222222222
222222222222222222222222222222222222222222222222222222222222222222222222
2222222222222222222222222222222222222222222222222222222
# atoms in fragment 1/2:     8   191
 fragment masses (1/2) :      107.88     1136.98
CMA distance (Bohr)    :   0.942
constraining FC (au)   :  0.0500

           -------------------------------------------------
          |                 G F N 2 - x T B                 |
           -------------------------------------------------

        Reference                      10.1021/acs.jctc.8b01176
      * Hamiltonian:
        H0-scaling (s, p, d)           1.850000    2.230000    2.230000
        zeta-weighting                 0.500000
      * Dispersion:
        s8                             2.700000
        a1                             0.520000
        a2                             5.000000
        s9                             5.000000
      * Repulsion:
        kExp                           1.500000    1.000000
        rExp                           1.000000
      * Coulomb:
        alpha                          2.000000
        third order                    shell-resolved
        anisotropic                    true
        a3                             3.000000
        a5                             4.000000
        cn-shift                       1.200000
        cn-exp                         4.000000
        max-rad                        5.000000

      * Solvation model:               ALPB
        Solvent                        water
        Parameter file                 internal GFN2-xTB/ALPB
        Dielectric constant                8.0200E+01
        Reference state                gsolv [1 M gas/solution]
        Free energy shift                  1.0808E-03 Eh       6.7819E-01 kcal/mol
        Temperature                        2.9815E+02 K
        Density                            1.0000E+00 kg/L
        Solvent mass                       1.8000E+01 g/mol
        Interaction kernel             P16
        Born radius scaling (c1)           1.4744E+00
        Born radii integrator          GBOBC
        Born offset                        0.0000E+00 a0       0.0000E+00 AA
        H-bond correction              true
        Ion screening                  false
        Surface tension                    1.0000E-05 Eh       1.5569E+01 dyn/cm
        Grid points                               230 per atom
q/qsh data taken from xtbrestart
CAMM data taken from xtbrestart

          ...................................................
          :                      SETUP                      :
          :.................................................:
          :  # basis functions                 406          :
          :  # atomic orbitals                 405          :
          :  # shells                          267          :
          :  # electrons                       533          :
          :  max. iterations                   250          :
          :  Hamiltonian                  GFN2-xTB          :
          :  restarted?                       true          :
          :  GBSA solvation                   true          :
          :  PC potential                    false          :
          :  electronic temp.          300.0000000     K    :
          :  accuracy                    1.0000000          :
          :  -> integral cutoff          0.2500000E+02      :
          :  -> integral neglect         0.1000000E-07      :
          :  -> SCF convergence          0.1000000E-05 Eh   :
          :  -> wf. convergence          0.1000000E-03 e    :
          :  Broyden damping             0.4000000          :
          ...................................................

 iter      E             dE          RMSdq      gap      omega  full diag
   1   -340.4887531 -0.340489E+03  0.700E-07    7.86       0.0  T
   2   -340.4887531  0.738964E-12  0.434E-07    7.86   16349.4  T
   3   -340.4887531 -0.284217E-12  0.149E-07    7.86   47467.0  T

   *** convergence criteria satisfied after 3 iterations ***

         #    Occupation            Energy/Eh            Energy/eV
      -------------------------------------------------------------
         1        2.0000           -0.6669718             -18.1492
       ...           ...                  ...                  ...
       263        2.0000           -0.3867759             -10.5247
       264        2.0000           -0.3827321             -10.4147
       265        1.0000           -0.3427216              -9.3259
       266        1.0000           -0.3406467              -9.2695
       267        1.0000           -0.3248099              -8.8385
       268        1.0000           -0.3163450              -8.6082
       269        1.0000           -0.3091273              -8.4118 (HOMO)
       270                         -0.0201830              -0.5492 (LUMO)
       271                          0.0193738               0.5272
       272                          0.0455998               1.2408
       273                          0.0545692               1.4849
       274                          0.0559035               1.5212
       ...                                ...                  ...
       405                          1.3471741              36.6585
      -------------------------------------------------------------
                  HL-Gap            0.2889443 Eh            7.8626 eV
             Fermi-level           -0.2637087 Eh           -7.1759 eV

 SCC (total)                   0 d,  0 h,  0 min,  0.350 sec
 SCC setup                      ...        0 min,  0.008 sec (  2.244%)
 Dispersion                     ...        0 min,  0.006 sec (  1.594%)
 classical contributions        ...        0 min,  0.001 sec (  0.305%)
 integral evaluation            ...        0 min,  0.015 sec (  4.332%)
 iterations                     ...        0 min,  0.093 sec ( 26.418%)
 molecular gradient             ...        0 min,  0.225 sec ( 64.167%)
 printout                       ...        0 min,  0.003 sec (  0.933%)

         :::::::::::::::::::::::::::::::::::::::::::::::::::::
         ::                     SUMMARY                     ::
         :::::::::::::::::::::::::::::::::::::::::::::::::::::
         :: total energy            -338.372874492050 Eh    ::
         :: total w/o Gsasa/hb      -337.884477200804 Eh    ::
         :: gradient norm              0.000045424128 Eh/a0 ::
         :: HOMO-LUMO gap              7.862574941148 eV    ::
         ::.................................................::
         :: SCC energy              -340.488753113462 Eh    ::
         :: -> isotropic ES            2.823263002347 Eh    ::
         :: -> anisotropic ES         -0.336576053656 Eh    ::
         :: -> anisotropic XC         -0.021700288915 Eh    ::
         :: -> dispersion             -0.079263808624 Eh    ::
         :: -> Gsolv                  -1.234418141216 Eh    ::
         ::    -> Gelec               -0.746020849969 Eh    ::
         ::    -> Gsasa                0.051648885837 Eh    ::
         ::    -> Ghb                 -0.541126936782 Eh    ::
         ::    -> Gshift               0.001080759698 Eh    ::
         :: repulsion energy           2.110547709624 Eh    ::
         :: add. restraining           0.000000000000 Eh    ::
         :: total charge               2.999999999943 e     ::
         :::::::::::::::::::::::::::::::::::::::::::::::::::::

           ------------------------------------------------- 
          |                Numerical Hessian                |
           ------------------------------------------------- 
step length          :   0.00500
SCC accuracy         :   0.30000
Hessian scale factor :   1.00000
frozen atoms in %    :   0.00000    0
RMS gradient         :   0.00005
estimated CPU  time    240.84 min
estimated wall time     34.00 min

writing file <hessian>.

 projected vibrational frequencies (cm⁻¹)
eigval :       -0.00    -0.00    -0.00     0.00     0.00     0.00
eigval :        9.57    14.41    15.42    16.31    16.60    17.42
eigval :       17.77    19.01    19.90    20.50    21.35    22.21
eigval :       22.90    24.04    24.57    24.86    25.57    26.37
eigval :       26.93    27.78    28.00    28.87    29.66    29.87
eigval :       30.54    31.11    31.43    32.10    33.10    33.77
eigval :       34.10    34.97    36.21    36.59    36.89    37.72
eigval :       38.10    38.84    38.91    39.72    41.05    41.41
eigval :       41.85    42.44    42.83    43.42    44.46    45.06
eigval :       45.62    45.93    46.20    46.91    47.76    47.92
eigval :       48.18    49.47    50.08    50.85    51.60    52.20
eigval :       52.89    53.44    54.14    54.81    55.00    56.14
eigval :       56.88    57.30    57.97    58.35    58.95    60.08
eigval :       60.23    61.23    62.47    63.03    63.97    64.44
eigval :       65.30    65.80    66.79    67.03    67.72    69.01
eigval :       69.27    69.51    71.08    71.56    72.64    73.32
eigval :       74.55    74.84    76.24    76.72    77.63    77.83
eigval :       80.14    80.87    81.45    81.82    82.05    83.68
eigval :       83.98    84.48    85.68    86.41    87.76    89.57
eigval :       90.04    90.69    91.68    92.52    94.13    96.80
eigval :       97.47    98.97   100.48   102.14   104.33   107.89
eigval :      110.35   111.59   115.05   117.08   120.34   121.12
eigval :      126.86   128.06   131.85   133.41   134.33   136.30
eigval :      136.97   138.67   140.21   144.01   145.08   147.83
eigval :      149.33   151.62   154.57   155.68   156.55   158.07
eigval :      158.37   159.57   161.34   162.28   163.11   165.59
eigval :      166.49   167.07   168.08   169.73   171.32   171.73
eigval :      172.03   172.99   174.02   174.44   175.52   177.63
eigval :      178.45   179.76   180.62   181.95   182.52   184.92
eigval :      185.06   187.64   189.18   190.70   191.58   194.00
eigval :      195.60   197.07   198.26   198.69   199.98   201.70
eigval :      203.20   204.57   206.54   207.47   208.89   210.27
eigval :      212.87   213.66   216.49   216.72   218.11   219.05
eigval :      219.43   221.69   222.28   222.64   224.06   225.73
eigval :      226.00   227.92   228.96   229.87   231.41   232.57
eigval :      234.09   234.54   236.44   237.38   238.57   239.75
eigval :      241.03   243.84   244.68   245.64   247.65   247.98
eigval :      249.05   251.13   253.27   256.97   259.33   260.02
eigval :      262.11   264.63   265.36   265.62   267.37   269.08
eigval :      271.08   273.14   274.73   275.08   277.18   281.02
eigval :      282.02   283.73   285.73   286.25   286.39   290.80
eigval :      294.86   295.43   296.68   297.78   298.46   300.94
eigval :      301.41   303.89   304.11   307.84   309.10   310.25
eigval :      313.07   314.00   316.02   317.63   318.19   321.59
eigval :      325.10   326.00   329.85   332.88   335.84   338.70
eigval :      339.82   340.14   342.58   344.48   346.51   354.53
eigval :      355.17   356.09   359.13   362.52   366.41   368.45
eigval :      370.36   370.89   371.71   373.57   383.30   384.99
eigval :      389.44   399.07   401.22   403.60   404.23   408.60
eigval :      409.35   413.39   413.58   416.27   418.56   419.43
eigval :      423.67   426.14   429.48   432.77   434.23   436.67
eigval :      437.94   441.47   447.72   450.00   455.51   460.73
eigval :      463.06   467.65   476.46   481.01   486.19   489.00
eigval :      490.73   500.26   501.79   505.83   514.07   525.17
eigval :      527.47   528.52   531.43   535.33   540.05   542.06
eigval :      545.75   548.10   552.08   554.78   559.49   560.11
eigval :      562.75   564.30   568.29   570.11   572.34   576.17
eigval :      577.87   579.75   581.46   585.14   586.38   587.85
eigval :      589.74   590.46   594.26   595.95   596.34   601.63
eigval :      608.69   609.16   612.91   616.23   618.05   622.64
eigval :      624.95   629.04   634.13   637.00   645.10   648.03
eigval :      648.33   653.12   655.33   657.41   660.30   664.90
eigval :      676.17   679.41   681.02   692.22   700.78   705.49
eigval :      706.01   717.07   720.89   731.76   733.88   748.34
eigval :      752.05   754.52   759.32   774.91   783.88   798.65
eigval :      809.17   815.70   824.84   839.13   841.73   861.65
eigval :      880.29   885.56   904.57  1429.94  1435.34  1438.94
eigval :     1442.35  1446.57  1450.72  1456.15  1457.11  1458.04
eigval :     1458.37  1458.83  1459.88  1460.72  1461.06  1461.75
eigval :     1462.82  1463.50  1464.50  1464.64  1464.80  1464.96
eigval :     1465.21  1465.79  1465.91  1467.90  1468.02  1469.78
eigval :     1470.87  1471.30  1475.36  1475.77  1477.43  1479.93
eigval :     1483.31  1487.85  1488.23  1488.72  1489.22  1491.10
eigval :     1492.28  1493.04  1493.40  1494.05  1494.58  1494.77
eigval :     1495.17  1495.91  1496.32  1496.34  1496.92  1497.17
eigval :     1498.44  1499.34  1499.71  1500.39  1500.53  1501.91
eigval :     1503.36  1503.70  1504.49  1505.54  1507.82  1508.89
eigval :     1514.95  1527.41  1533.48  2983.50  3050.68  3101.02
eigval :     3109.10  3120.55  3127.83  3133.87  3149.41  3162.52
eigval :     3200.93  3208.74  3221.42  3230.26  3231.84  3238.18
eigval :     3245.34  3251.40  3276.24  3282.85  3292.15  3307.67
eigval :     3311.06  3317.39  3323.71  3324.80  3325.92  3328.55
eigval :     3347.15  3352.16  3353.52  3362.47  3363.24  3366.31
eigval :     3374.85  3376.12  3376.37  3378.18  3403.65  3410.99
eigval :     3412.28  3415.84  3419.71  3424.81  3434.94  3436.12
eigval :     3438.20  3438.41  3445.93  3459.96  3468.27  3478.74
eigval :     3480.64  3488.17  3489.78  3492.23  3498.11  3499.43
eigval :     3510.67  3513.47  3524.77  3527.64  3528.83  3536.06
eigval :     3571.34  3572.06  3579.19  3581.51  3585.19  3586.06
eigval :     3586.80  3588.95  3590.19  3592.62  3595.69  3596.43
eigval :     3596.72  3597.87  3597.99  3598.77  3601.17  3604.61
eigval :     3605.43  3606.27  3606.83  3607.31  3607.58  3608.77
eigval :     3610.50  3610.95  3611.13  3612.02  3613.85  3614.64
eigval :     3615.57  3615.98  3616.18  3617.75  3619.46  3620.07
eigval :     3621.39  3623.12  3627.37  3628.40  3628.64  3629.33
eigval :     3629.75  3630.09  3630.17  3630.85  3630.94  3631.52
eigval :     3634.65  3634.75  3634.86  3635.19  3637.43  3637.63
eigval :     3638.08  3638.44  3641.24  3642.64  3643.68  3645.27
eigval :     3645.52  3647.77  3648.58  3650.63  3653.18  3657.82
eigval :     3658.35  3664.51  3667.40
           -------------------------------------------------
          |                Property Printout                |
           -------------------------------------------------

    * Orbital Energies and Occupations

         #    Occupation            Energy/Eh            Energy/eV
      -------------------------------------------------------------
         1        2.0000           -0.6669718             -18.1492
       ...           ...                  ...                  ...
       257        2.0000           -0.3905100             -10.6263
       258        2.0000           -0.3891160             -10.5884
       259        2.0000           -0.3887699             -10.5790
       260        2.0000           -0.3884095             -10.5692
       261        2.0000           -0.3877118             -10.5502
       262        2.0000           -0.3874274             -10.5424
       263        2.0000           -0.3867760             -10.5247
       264        2.0000           -0.3827321             -10.4147
       265        1.0000           -0.3427216              -9.3259
       266        1.0000           -0.3406467              -9.2695
       267        1.0000           -0.3248099              -8.8385
       268        1.0000           -0.3163450              -8.6082
       269        1.0000           -0.3091273              -8.4118 (HOMO)
       270                         -0.0201830              -0.5492 (LUMO)
       271                          0.0193738               0.5272
       272                          0.0455998               1.2408
       273                          0.0545692               1.4849
       274                          0.0559035               1.5212
       275                          0.0658173               1.7910
       276                          0.0707760               1.9259
       277                          0.0748382               2.0365
       278                          0.0761631               2.0725
       279                          0.0773426               2.1046
       280                          0.0799176               2.1747
       ...                                ...                  ...
       405                          1.3471741              36.6585
      -------------------------------------------------------------
                  HL-Gap            0.2889443 Eh            7.8626 eV
             Fermi-level           -0.2637087 Eh           -7.1759 eV

     #   Z          covCN         q      C6AA      α(0)
     1  26 Fe       2.283     1.716     4.540     6.873
     2   8 O        1.987    -0.646    26.231     6.917
     3   8 O        2.019    -0.637    25.994     6.886
     4   8 O        1.995    -0.642    26.124     6.903
     5   8 O        1.872    -0.642    26.133     6.904
     6   8 O        1.943    -0.641    26.097     6.899
     7   8 O        1.939    -0.627    25.760     6.854
     8   1 H        0.804     0.380     0.522     1.135
     9   1 H        0.803     0.380     0.522     1.135
    10   1 H        0.804     0.378     0.526     1.139
    11   1 H        0.804     0.382     0.520     1.132
    12   1 H        0.804     0.379     0.526     1.139
    13   1 H        0.803     0.385     0.513     1.126
    14   1 H        0.804     0.385     0.514     1.126
    15   1 H        0.803     0.383     0.518     1.131
    16   1 H        0.804     0.383     0.517     1.130
    17   1 H        0.803     0.387     0.510     1.122
    18   1 H        0.802     0.386     0.512     1.124
    19   1 H        0.806     0.376     0.530     1.144
    20   8 O        1.610    -0.653    26.494     6.947
    21   8 O        1.606    -0.672    26.975     7.010
    22   8 O        1.609    -0.644    26.265     6.917
    23   8 O        1.779    -0.634    25.952     6.879
    24   8 O        1.608    -0.658    26.625     6.964
    25   8 O        1.607    -0.661    26.701     6.974
    26   8 O        1.609    -0.667    26.837     6.992
    27   8 O        1.607    -0.697    27.624     7.094
    28   8 O        1.608    -0.657    26.602     6.961
    29   8 O        1.608    -0.666    26.823     6.990
    30   8 O        1.607    -0.662    26.721     6.977
    31   8 O        1.609    -0.660    26.680     6.971
    32   1 H        0.802     0.369     0.546     1.161
    33   1 H        0.805     0.313     0.683     1.299
    34   1 H        0.805     0.319     0.668     1.284
    35   1 H        0.805     0.370     0.543     1.158
    36   1 H        0.805     0.319     0.666     1.282
    37   1 H        0.803     0.370     0.544     1.159
    38   1 H        0.805     0.325     0.650     1.267
    39   1 H        0.804     0.373     0.538     1.153
    40   1 H        0.804     0.329     0.640     1.257
    41   1 H        0.804     0.363     0.559     1.174
    42   1 H        0.803     0.378     0.528     1.142
    43   1 H        0.805     0.371     0.541     1.156
    44   1 H        0.804     0.324     0.653     1.270
    45   1 H        0.804     0.370     0.543     1.158
    46   1 H        0.805     0.310     0.693     1.307
    47   1 H        0.802     0.361     0.564     1.180
    48   1 H        0.805     0.317     0.673     1.288
    49   1 H        0.803     0.363     0.558     1.173
    50   1 H        0.804     0.353     0.582     1.199
    51   1 H        0.804     0.354     0.580     1.196
    52   1 H        0.805     0.320     0.663     1.279
    53   1 H        0.804     0.360     0.566     1.182
    54   1 H        0.804     0.346     0.598     1.215
    55   1 H        0.802     0.369     0.545     1.160
    56   8 O        1.610    -0.677    27.111     7.027
    57   1 H        0.805     0.318     0.670     1.286
    58   1 H        0.805     0.366     0.552     1.167
    59   8 O        1.610    -0.725    28.383     7.190
    60   1 H        0.805     0.381     0.522     1.134
    61   1 H        0.805     0.366     0.551     1.166
    62   8 O        1.609    -0.717    28.167     7.163
    63   1 H        0.805     0.382     0.518     1.131
    64   1 H        0.805     0.317     0.671     1.287
    65   8 O        1.608    -0.674    27.031     7.017
    66   1 H        0.805     0.298     0.726     1.338
    67   1 H        0.803     0.358     0.570     1.186
    68   8 O        1.610    -0.678    27.123     7.029
    69   1 H        0.805     0.358     0.570     1.186
    70   1 H        0.805     0.366     0.552     1.167
    71   8 O        1.609    -0.725    28.394     7.192
    72   1 H        0.804     0.330     0.637     1.254
    73   1 H        0.805     0.377     0.530     1.143
    74   8 O        1.610    -0.719    28.225     7.170
    75   1 H        0.805     0.391     0.501     1.112
    76   1 H        0.805     0.350     0.589     1.206
    77   8 O        1.609    -0.717    28.170     7.163
    78   1 H        0.805     0.380     0.522     1.135
    79   1 H        0.805     0.321     0.662     1.278
    80   8 O        1.606    -0.697    27.640     7.096
    81   1 H        0.805     0.313     0.682     1.297
    82   1 H        0.801     0.359     0.568     1.184
    83   8 O        1.606    -0.701    27.726     7.107
    84   1 H        0.803     0.361     0.564     1.180
    85   1 H        0.803     0.359     0.569     1.185
    86   8 O        1.610    -0.675    27.066     7.022
    87   1 H        0.805     0.349     0.591     1.207
    88   1 H        0.804     0.322     0.657     1.273
    89   8 O        1.610    -0.718    28.182     7.165
    90   1 H        0.805     0.355     0.576     1.192
    91   1 H        0.805     0.381     0.521     1.134
    92   8 O        1.610    -0.674    27.038     7.018
    93   1 H        0.805     0.360     0.565     1.180
    94   1 H        0.805     0.319     0.666     1.282
    95   8 O        1.610    -0.678    27.137     7.031
    96   1 H        0.804     0.325     0.651     1.267
    97   1 H        0.805     0.349     0.591     1.208
    98   8 O        1.609    -0.662    26.722     6.977
    99   1 H        0.805     0.361     0.563     1.179
   100   1 H        0.804     0.334     0.628     1.245
   101   8 O        1.610    -0.672    26.975     7.010
   102   1 H        0.805     0.349     0.590     1.206
   103   1 H        0.804     0.322     0.659     1.275
   104   8 O        1.608    -0.672    26.987     7.011
   105   1 H        0.804     0.326     0.647     1.264
   106   1 H        0.804     0.329     0.641     1.257
   107   8 O        1.609    -0.673    26.997     7.013
   108   1 H        0.804     0.331     0.634     1.251
   109   1 H        0.806     0.341     0.610     1.226
   110   8 O        1.609    -0.694    27.554     7.085
   111   1 H        0.805     0.380     0.522     1.135
   112   1 H        0.804     0.326     0.648     1.264
   113   8 O        1.609    -0.716    28.134     7.159
   114   1 H        0.805     0.319     0.668     1.283
   115   1 H        0.805     0.381     0.520     1.133
   116   8 O        1.608    -0.699    27.674     7.100
   117   1 H        0.803     0.348     0.593     1.209
   118   1 H        0.805     0.343     0.605     1.222
   119   8 O        1.610    -0.700    27.707     7.104
   120   1 H        0.805     0.363     0.559     1.174
   121   1 H        0.805     0.356     0.573     1.189
   122   8 O        1.609    -0.712    28.041     7.147
   123   1 H        0.804     0.348     0.593     1.209
   124   1 H        0.805     0.342     0.607     1.223
   125   8 O        1.610    -0.696    27.600     7.091
   126   1 H        0.805     0.362     0.561     1.177
   127   1 H        0.805     0.351     0.585     1.201
   128   8 O        1.610    -0.695    27.573     7.087
   129   1 H        0.805     0.349     0.590     1.206
   130   1 H        0.805     0.361     0.563     1.179
   131   8 O        1.609    -0.719    28.210     7.168
   132   1 H        0.803     0.345     0.601     1.218
   133   1 H        0.805     0.347     0.595     1.212
   134   8 O        1.610    -0.711    27.998     7.141
   135   1 H        0.805     0.347     0.594     1.210
   136   1 H        0.805     0.382     0.519     1.131
   137   8 O        1.609    -0.705    27.856     7.123
   138   1 H        0.805     0.341     0.609     1.226
   139   1 H        0.804     0.343     0.605     1.221
   140   8 O        1.610    -0.700    27.722     7.106
   141   1 H        0.805     0.369     0.547     1.161
   142   1 H        0.805     0.348     0.593     1.209
   143   8 O        1.610    -0.705    27.838     7.121
   144   1 H        0.805     0.352     0.584     1.200
   145   1 H        0.805     0.368     0.549     1.163
   146   8 O        1.607    -0.734    28.632     7.222
   147   1 H        0.802     0.359     0.568     1.184
   148   1 H        0.805     0.334     0.627     1.244
   149   8 O        1.610    -0.699    27.680     7.101
   150   1 H        0.805     0.358     0.569     1.184
   151   1 H        0.805     0.361     0.562     1.177
   152   8 O        1.609    -0.714    28.090     7.153
   153   1 H        0.805     0.358     0.570     1.186
   154   1 H        0.804     0.338     0.617     1.234
   155   8 O        1.610    -0.696    27.602     7.091
   156   1 H        0.805     0.360     0.566     1.181
   157   1 H        0.805     0.352     0.583     1.199
   158   8 O        1.610    -0.703    27.796     7.116
   159   1 H        0.805     0.357     0.572     1.188
   160   1 H        0.805     0.370     0.544     1.158
   161   8 O        1.608    -0.713    28.059     7.149
   162   1 H        0.805     0.335     0.625     1.241
   163   1 H        0.803     0.346     0.597     1.214
   164   8 O        1.610    -0.700    27.706     7.104
   165   1 H        0.805     0.365     0.553     1.168
   166   1 H        0.805     0.357     0.572     1.188
   167   8 O        1.607    -0.704    27.821     7.119
   168   1 H        0.805     0.342     0.607     1.223
   169   1 H        0.802     0.347     0.595     1.212
   170   8 O        1.610    -0.734    28.621     7.220
   171   1 H        0.805     0.362     0.562     1.177
   172   1 H        0.805     0.372     0.539     1.153
   173   8 O        1.610    -0.714    28.083     7.152
   174   1 H        0.805     0.354     0.579     1.196
   175   1 H        0.805     0.360     0.565     1.180
   176   8 O        1.610    -0.713    28.065     7.150
   177   1 H        0.805     0.349     0.590     1.206
   178   1 H        0.805     0.364     0.556     1.172
   179   8 O        1.610    -0.721    28.271     7.176
   180   1 H        0.805     0.371     0.542     1.156
   181   1 H        0.805     0.350     0.588     1.204
   182   8 O        1.610    -0.700    27.696     7.103
   183   1 H        0.805     0.340     0.611     1.228
   184   1 H        0.805     0.380     0.523     1.136
   185   8 O        1.611    -0.697    27.624     7.094
   186   1 H        0.805     0.355     0.576     1.192
   187   1 H        0.805     0.363     0.559     1.174
   188   8 O        1.610    -0.697    27.619     7.093
   189   1 H        0.805     0.364     0.557     1.172
   190   1 H        0.805     0.351     0.586     1.202
   191   8 O        1.610    -0.706    27.880     7.127
   192   1 H        0.805     0.362     0.561     1.177
   193   1 H        0.805     0.361     0.564     1.180
   194   8 O        1.609    -0.690    27.454     7.072
   195   1 H        0.804     0.336     0.623     1.239
   196   1 H        0.805     0.356     0.573     1.189
   197   8 O        1.609    -0.690    27.450     7.071
   198   1 H        0.803     0.343     0.606     1.223
   199   1 H        0.805     0.349     0.590     1.206

 Mol. C6AA /au·bohr⁶  :     198710.480755
 Mol. C8AA /au·bohr⁸  :    3639633.447707
 Mol. α(0) /au        :        631.114173


Wiberg/Mayer (AO) data.
largest (>0.10) Wiberg bond orders for each atom

 ---------------------------------------------------------------------------
     #   Z sym  total        # sym  WBO       # sym  WBO       # sym  WBO
 ---------------------------------------------------------------------------
     1  26 Fe   1.685 --     3 O    0.265     4 O    0.256     2 O    0.247
                             6 O    0.235     7 O    0.233     5 O    0.203
                            23 O    0.181
     2   8 O    1.901 --    12 H    0.806    13 H    0.781     1 Fe   0.247
     3   8 O    1.910 --    16 H    0.800    17 H    0.777     1 Fe   0.265
     4   8 O    1.905 --    14 H    0.793    15 H    0.787     1 Fe   0.256
     5   8 O    1.924 --    19 H    0.852    18 H    0.769     1 Fe   0.203
     6   8 O    1.911 --     8 H    0.805     9 H    0.791     1 Fe   0.235
     7   8 O    1.916 --    10 H    0.810    11 H    0.801     1 Fe   0.233
     8   1 H    0.853 --     6 O    0.805
     9   1 H    0.854 --     6 O    0.791
    10   1 H    0.854 --     7 O    0.810
    11   1 H    0.852 --     7 O    0.801
    12   1 H    0.855 --     2 O    0.806
    13   1 H    0.846 --     2 O    0.781
    14   1 H    0.847 --     4 O    0.793
    15   1 H    0.850 --     4 O    0.787
    16   1 H    0.851 --     3 O    0.800
    17   1 H    0.848 --     3 O    0.777
    18   1 H    0.850 --     5 O    0.769
    19   1 H    0.856 --     5 O    0.852
    20   8 O    1.857 --    34 H    0.863    35 H    0.851
    21   8 O    1.901 --    54 H    0.837    55 H    0.795
    22   8 O    1.908 --    40 H    0.848    41 H    0.828
    23   8 O    1.915 --    43 H    0.853    42 H    0.795     1 Fe   0.181
    24   8 O    1.873 --    36 H    0.861    37 H    0.808
    25   8 O    1.878 --    33 H    0.864    32 H    0.804
    26   8 O    1.839 --    52 H    0.853    53 H    0.842
    27   8 O    1.828 --    51 H    0.830    50 H    0.821
    28   8 O    1.866 --    48 H    0.866    49 H    0.814
    29   8 O    1.865 --    38 H    0.855    39 H    0.820
    30   8 O    1.854 --    46 H    0.868    47 H    0.810
    31   8 O    1.877 --    44 H    0.843    45 H    0.826
    32   1 H    0.864 --    25 O    0.804
    33   1 H    0.902 --    25 O    0.864
    34   1 H    0.898 --    20 O    0.863
    35   1 H    0.863 --    20 O    0.851
    36   1 H    0.898 --    24 O    0.861
    37   1 H    0.863 --    24 O    0.808
    38   1 H    0.894 --    29 O    0.855
    39   1 H    0.861 --    29 O    0.820
    40   1 H    0.892 --    22 O    0.848
    41   1 H    0.868 --    22 O    0.828
    42   1 H    0.856 --    23 O    0.795
    43   1 H    0.862 --    23 O    0.853
    44   1 H    0.895 --    31 O    0.843
    45   1 H    0.863 --    31 O    0.826
    46   1 H    0.904 --    30 O    0.868
    47   1 H    0.870 --    30 O    0.810
    48   1 H    0.900 --    28 O    0.866
    49   1 H    0.868 --    28 O    0.814
    50   1 H    0.876 --    27 O    0.821
    51   1 H    0.875 --    27 O    0.830
    52   1 H    0.897 --    26 O    0.853
    53   1 H    0.870 --    26 O    0.842
    54   1 H    0.880 --    21 O    0.837
    55   1 H    0.864 --    21 O    0.795
    56   8 O    1.800 --    57 H    0.870    58 H    0.864
    57   1 H    0.899 --    56 O    0.870
    58   1 H    0.866 --    56 O    0.864
    59   8 O    1.756 --    61 H    0.863    60 H    0.851
    60   1 H    0.855 --    59 O    0.851
    61   1 H    0.866 --    59 O    0.863
    62   8 O    1.742 --    64 H    0.875    63 H    0.854
    63   1 H    0.854 --    62 O    0.854
    64   1 H    0.899 --    62 O    0.875
    65   8 O    1.798 --    66 H    0.883    67 H    0.829
    66   1 H    0.911 --    65 O    0.883
    67   1 H    0.872 --    65 O    0.829
    68   8 O    1.829 --    69 H    0.871    70 H    0.864
    69   1 H    0.872 --    68 O    0.871
    70   1 H    0.866 --    68 O    0.864
    71   8 O    1.737 --    72 H    0.864    73 H    0.858
    72   1 H    0.891 --    71 O    0.864
    73   1 H    0.858 --    71 O    0.858
    74   8 O    1.760 --    76 H    0.875    75 H    0.844
    75   1 H    0.847 --    74 O    0.844
    76   1 H    0.878 --    74 O    0.875
    77   8 O    1.742 --    79 H    0.874    78 H    0.855
    78   1 H    0.855 --    77 O    0.855
    79   1 H    0.897 --    77 O    0.874
    80   8 O    1.803 --    81 H    0.877    82 H    0.795
    81   1 H    0.902 --    80 O    0.877
    82   1 H    0.871 --    80 O    0.795
    83   8 O    1.852 --    85 H    0.828    84 H    0.805
    84   1 H    0.870 --    83 O    0.805
    85   1 H    0.871 --    83 O    0.828
    86   8 O    1.787 --    87 H    0.875    88 H    0.863
    87   1 H    0.878 --    86 O    0.875
    88   1 H    0.896 --    86 O    0.863
    89   8 O    1.758 --    90 H    0.871    91 H    0.851
    90   1 H    0.874 --    89 O    0.871
    91   1 H    0.855 --    89 O    0.851
    92   8 O    1.791 --    94 H    0.871    93 H    0.866
    93   1 H    0.870 --    92 O    0.866
    94   1 H    0.898 --    92 O    0.871
    95   8 O    1.790 --    97 H    0.875    96 H    0.860
    96   1 H    0.894 --    95 O    0.860
    97   1 H    0.878 --    95 O    0.875
    98   8 O    1.848 --    99 H    0.867   100 H    0.855
    99   1 H    0.870 --    98 O    0.867
   100   1 H    0.889 --    98 O    0.855
   101   8 O    1.796 --   102 H    0.874   103 H    0.862
   102   1 H    0.878 --   101 O    0.874
   103   1 H    0.896 --   101 O    0.862
   104   8 O    1.815 --   106 H    0.861   105 H    0.852
   105   1 H    0.894 --   104 O    0.852
   106   1 H    0.892 --   104 O    0.861
   107   8 O    1.800 --   109 H    0.880   108 H    0.850
   108   1 H    0.890 --   107 O    0.850
   109   1 H    0.884 --   107 O    0.880
   110   8 O    1.791 --   112 H    0.865   111 H    0.853
   111   1 H    0.855 --   110 O    0.853
   112   1 H    0.894 --   110 O    0.865
   113   8 O    1.743 --   114 H    0.876   115 H    0.855
   114   1 H    0.898 --   113 O    0.876
   115   1 H    0.855 --   113 O    0.855
   116   8 O    1.778 --   118 H    0.878   117 H    0.831
   117   1 H    0.879 --   116 O    0.831
   118   1 H    0.882 --   116 O    0.878
   119   8 O    1.775 --   121 H    0.870   120 H    0.866
   120   1 H    0.868 --   119 O    0.866
   121   1 H    0.873 --   119 O    0.870
   122   8 O    1.746 --   124 H    0.883   123 H    0.847
   123   1 H    0.879 --   122 O    0.847
   124   1 H    0.883 --   122 O    0.883
   125   8 O    1.776 --   127 H    0.874   126 H    0.867
   126   1 H    0.869 --   125 O    0.867
   127   1 H    0.877 --   125 O    0.874
   128   8 O    1.775 --   129 H    0.876   130 H    0.869
   129   1 H    0.878 --   128 O    0.876
   130   1 H    0.870 --   128 O    0.869
   131   8 O    1.742 --   133 H    0.879   132 H    0.844
   132   1 H    0.881 --   131 O    0.844
   133   1 H    0.880 --   131 O    0.879
   134   8 O    1.765 --   135 H    0.877   136 H    0.851
   135   1 H    0.879 --   134 O    0.877
   136   1 H    0.854 --   134 O    0.851
   137   8 O    1.751 --   138 H    0.884   139 H    0.852
   138   1 H    0.884 --   137 O    0.884
   139   1 H    0.882 --   137 O    0.852
   140   8 O    1.770 --   142 H    0.877   141 H    0.862
   141   1 H    0.864 --   140 O    0.862
   142   1 H    0.879 --   140 O    0.877
   143   8 O    1.766 --   144 H    0.874   145 H    0.863
   144   1 H    0.876 --   143 O    0.874
   145   1 H    0.865 --   143 O    0.863
   146   8 O    1.728 --   148 H    0.888   147 H    0.813
   147   1 H    0.871 --   146 O    0.813
   148   1 H    0.889 --   146 O    0.888
   149   8 O    1.778 --   150 H    0.869   151 H    0.867
   150   1 H    0.871 --   149 O    0.869
   151   1 H    0.869 --   149 O    0.867
   152   8 O    1.745 --   153 H    0.872   154 H    0.859
   153   1 H    0.872 --   152 O    0.872
   154   1 H    0.886 --   152 O    0.859
   155   8 O    1.772 --   157 H    0.873   156 H    0.868
   156   1 H    0.871 --   155 O    0.868
   157   1 H    0.876 --   155 O    0.873
   158   8 O    1.778 --   159 H    0.870   160 H    0.861
   159   1 H    0.873 --   158 O    0.870
   160   1 H    0.863 --   158 O    0.861
   161   8 O    1.745 --   162 H    0.887   163 H    0.836
   162   1 H    0.888 --   161 O    0.887
   163   1 H    0.880 --   161 O    0.836
   164   8 O    1.779 --   166 H    0.870   165 H    0.865
   165   1 H    0.866 --   164 O    0.865
   166   1 H    0.873 --   164 O    0.870
   167   8 O    1.784 --   168 H    0.880   169 H    0.817
   168   1 H    0.883 --   167 O    0.880
   169   1 H    0.880 --   167 O    0.817
   170   8 O    1.730 --   171 H    0.869   172 H    0.861
   171   1 H    0.869 --   170 O    0.869
   172   1 H    0.862 --   170 O    0.861
   173   8 O    1.745 --   174 H    0.875   175 H    0.870
   174   1 H    0.875 --   173 O    0.875
   175   1 H    0.870 --   173 O    0.870
   176   8 O    1.745 --   177 H    0.878   178 H    0.867
   177   1 H    0.878 --   176 O    0.878
   178   1 H    0.868 --   176 O    0.867
   179   8 O    1.740 --   181 H    0.877   180 H    0.862
   180   1 H    0.863 --   179 O    0.862
   181   1 H    0.877 --   179 O    0.877
   182   8 O    1.778 --   183 H    0.883   184 H    0.854
   183   1 H    0.884 --   182 O    0.883
   184   1 H    0.856 --   182 O    0.854
   185   8 O    1.776 --   186 H    0.870   187 H    0.865
   186   1 H    0.874 --   185 O    0.870
   187   1 H    0.868 --   185 O    0.865
   188   8 O    1.775 --   190 H    0.874   189 H    0.865
   189   1 H    0.868 --   188 O    0.865
   190   1 H    0.877 --   188 O    0.874
   191   8 O    1.765 --   193 H    0.868   192 H    0.867
   192   1 H    0.869 --   191 O    0.867
   193   1 H    0.870 --   191 O    0.868
   194   8 O    1.790 --   196 H    0.870   195 H    0.849
   195   1 H    0.887 --   194 O    0.849
   196   1 H    0.873 --   194 O    0.870
   197   8 O    1.795 --   199 H    0.875   198 H    0.836
   198   1 H    0.883 --   197 O    0.836
   199   1 H    0.878 --   197 O    0.875
 ---------------------------------------------------------------------------

Topologies differ in total number of bonds
Writing topology from bond orders to xtbtopo.mol

molecular dipole:
                 x           y           z       tot (Debye)
 q only:        1.853       3.492      -1.140
   full:        2.034       4.109      -1.454      12.225
molecular quadrupole (traceless):
                xx          xy          yy          xz          yz          zz
 q only:      -35.718       8.890       3.577      16.379      15.195      32.142
  q+dip:      -46.783       8.975       6.464      19.769      20.555      40.320
   full:      -47.808       8.540       6.713      19.526      21.161      41.096

           -------------------------------------------------
          |               Frequency Printout                |
           -------------------------------------------------
 projected vibrational frequencies (cm⁻¹)
eigval :       -0.00    -0.00    -0.00     0.00     0.00     0.00
eigval :        9.57    14.41    15.42    16.31    16.60    17.42
eigval :       17.77    19.01    19.90    20.50    21.35    22.21
eigval :       22.90    24.04    24.57    24.86    25.57    26.37
eigval :       26.93    27.78    28.00    28.87    29.66    29.87
eigval :       30.54    31.11    31.43    32.10    33.10    33.77
eigval :       34.10    34.97    36.21    36.59    36.89    37.72
eigval :       38.10    38.84    38.91    39.72    41.05    41.41
eigval :       41.85    42.44    42.83    43.42    44.46    45.06
eigval :       45.62    45.93    46.20    46.91    47.76    47.92
eigval :       48.18    49.47    50.08    50.85    51.60    52.20
eigval :       52.89    53.44    54.14    54.81    55.00    56.14
eigval :       56.88    57.30    57.97    58.35    58.95    60.08
eigval :       60.23    61.23    62.47    63.03    63.97    64.44
eigval :       65.30    65.80    66.79    67.03    67.72    69.01
eigval :       69.27    69.51    71.08    71.56    72.64    73.32
eigval :       74.55    74.84    76.24    76.72    77.63    77.83
eigval :       80.14    80.87    81.45    81.82    82.05    83.68
eigval :       83.98    84.48    85.68    86.41    87.76    89.57
eigval :       90.04    90.69    91.68    92.52    94.13    96.80
eigval :       97.47    98.97   100.48   102.14   104.33   107.89
eigval :      110.35   111.59   115.05   117.08   120.34   121.12
eigval :      126.86   128.06   131.85   133.41   134.33   136.30
eigval :      136.97   138.67   140.21   144.01   145.08   147.83
eigval :      149.33   151.62   154.57   155.68   156.55   158.07
eigval :      158.37   159.57   161.34   162.28   163.11   165.59
eigval :      166.49   167.07   168.08   169.73   171.32   171.73
eigval :      172.03   172.99   174.02   174.44   175.52   177.63
eigval :      178.45   179.76   180.62   181.95   182.52   184.92
eigval :      185.06   187.64   189.18   190.70   191.58   194.00
eigval :      195.60   197.07   198.26   198.69   199.98   201.70
eigval :      203.20   204.57   206.54   207.47   208.89   210.27
eigval :      212.87   213.66   216.49   216.72   218.11   219.05
eigval :      219.43   221.69   222.28   222.64   224.06   225.73
eigval :      226.00   227.92   228.96   229.87   231.41   232.57
eigval :      234.09   234.54   236.44   237.38   238.57   239.75
eigval :      241.03   243.84   244.68   245.64   247.65   247.98
eigval :      249.05   251.13   253.27   256.97   259.33   260.02
eigval :      262.11   264.63   265.36   265.62   267.37   269.08
eigval :      271.08   273.14   274.73   275.08   277.18   281.02
eigval :      282.02   283.73   285.73   286.25   286.39   290.80
eigval :      294.86   295.43   296.68   297.78   298.46   300.94
eigval :      301.41   303.89   304.11   307.84   309.10   310.25
eigval :      313.07   314.00   316.02   317.63   318.19   321.59
eigval :      325.10   326.00   329.85   332.88   335.84   338.70
eigval :      339.82   340.14   342.58   344.48   346.51   354.53
eigval :      355.17   356.09   359.13   362.52   366.41   368.45
eigval :      370.36   370.89   371.71   373.57   383.30   384.99
eigval :      389.44   399.07   401.22   403.60   404.23   408.60
eigval :      409.35   413.39   413.58   416.27   418.56   419.43
eigval :      423.67   426.14   429.48   432.77   434.23   436.67
eigval :      437.94   441.47   447.72   450.00   455.51   460.73
eigval :      463.06   467.65   476.46   481.01   486.19   489.00
eigval :      490.73   500.26   501.79   505.83   514.07   525.17
eigval :      527.47   528.52   531.43   535.33   540.05   542.06
eigval :      545.75   548.10   552.08   554.78   559.49   560.11
eigval :      562.75   564.30   568.29   570.11   572.34   576.17
eigval :      577.87   579.75   581.46   585.14   586.38   587.85
eigval :      589.74   590.46   594.26   595.95   596.34   601.63
eigval :      608.69   609.16   612.91   616.23   618.05   622.64
eigval :      624.95   629.04   634.13   637.00   645.10   648.03
eigval :      648.33   653.12   655.33   657.41   660.30   664.90
eigval :      676.17   679.41   681.02   692.22   700.78   705.49
eigval :      706.01   717.07   720.89   731.76   733.88   748.34
eigval :      752.05   754.52   759.32   774.91   783.88   798.65
eigval :      809.17   815.70   824.84   839.13   841.73   861.65
eigval :      880.29   885.56   904.57  1429.94  1435.34  1438.94
eigval :     1442.35  1446.57  1450.72  1456.15  1457.11  1458.04
eigval :     1458.37  1458.83  1459.88  1460.72  1461.06  1461.75
eigval :     1462.82  1463.50  1464.50  1464.64  1464.80  1464.96
eigval :     1465.21  1465.79  1465.91  1467.90  1468.02  1469.78
eigval :     1470.87  1471.30  1475.36  1475.77  1477.43  1479.93
eigval :     1483.31  1487.85  1488.23  1488.72  1489.22  1491.10
eigval :     1492.28  1493.04  1493.40  1494.05  1494.58  1494.77
eigval :     1495.17  1495.91  1496.32  1496.34  1496.92  1497.17
eigval :     1498.44  1499.34  1499.71  1500.39  1500.53  1501.91
eigval :     1503.36  1503.70  1504.49  1505.54  1507.82  1508.89
eigval :     1514.95  1527.41  1533.48  2983.50  3050.68  3101.02
eigval :     3109.10  3120.55  3127.83  3133.87  3149.41  3162.52
eigval :     3200.93  3208.74  3221.42  3230.26  3231.84  3238.18
eigval :     3245.34  3251.40  3276.24  3282.85  3292.15  3307.67
eigval :     3311.06  3317.39  3323.71  3324.80  3325.92  3328.55
eigval :     3347.15  3352.16  3353.52  3362.47  3363.24  3366.31
eigval :     3374.85  3376.12  3376.37  3378.18  3403.65  3410.99
eigval :     3412.28  3415.84  3419.71  3424.81  3434.94  3436.12
eigval :     3438.20  3438.41  3445.93  3459.96  3468.27  3478.74
eigval :     3480.64  3488.17  3489.78  3492.23  3498.11  3499.43
eigval :     3510.67  3513.47  3524.77  3527.64  3528.83  3536.06
eigval :     3571.34  3572.06  3579.19  3581.51  3585.19  3586.06
eigval :     3586.80  3588.95  3590.19  3592.62  3595.69  3596.43
eigval :     3596.72  3597.87  3597.99  3598.77  3601.17  3604.61
eigval :     3605.43  3606.27  3606.83  3607.31  3607.58  3608.77
eigval :     3610.50  3610.95  3611.13  3612.02  3613.85  3614.64
eigval :     3615.57  3615.98  3616.18  3617.75  3619.46  3620.07
eigval :     3621.39  3623.12  3627.37  3628.40  3628.64  3629.33
eigval :     3629.75  3630.09  3630.17  3630.85  3630.94  3631.52
eigval :     3634.65  3634.75  3634.86  3635.19  3637.43  3637.63
eigval :     3638.08  3638.44  3641.24  3642.64  3643.68  3645.27
eigval :     3645.52  3647.77  3648.58  3650.63  3653.18  3657.82
eigval :     3658.35  3664.51  3667.40
 reduced masses (amu)
   1: 15.95   2: 14.44   3: 16.13   4: 16.07   5: 14.34   6: 14.36   7: 14.42   8: 14.45
   9: 14.45  10: 14.67  11: 14.34  12: 14.51  13: 14.32  14: 14.25  15: 14.95  16: 14.73
  17: 15.04  18: 14.30  19: 14.56  20: 14.47  21: 14.72  22: 14.33  23: 14.49  24: 14.52
  25: 14.49  26: 14.72  27: 14.47  28: 14.33  29: 14.52  30: 14.40  31: 14.79  32: 14.60
  33: 14.60  34: 14.68  35: 14.77  36: 14.38  37: 14.44  38: 14.49  39: 14.74  40: 14.91
  41: 14.44  42: 14.60  43: 14.58  44: 14.52  45: 14.58  46: 14.59  47: 14.62  48: 15.19
  49: 14.70  50: 14.56  51: 14.79  52: 14.59  53: 14.61  54: 14.70  55: 14.29  56: 14.68
  57: 14.57  58: 14.48  59: 14.79  60: 14.44  61: 14.54  62: 14.41  63: 14.29  64: 14.57
  65: 14.45  66: 14.50  67: 14.46  68: 14.71  69: 14.54  70: 14.48  71: 14.76  72: 14.64
  73: 14.79  74: 14.62  75: 14.24  76: 14.78  77: 14.57  78: 14.55  79: 14.78  80: 14.88
  81: 14.72  82: 14.62  83: 14.89  84: 14.81  85: 15.08  86: 14.57  87: 15.13  88: 14.66
  89: 14.55  90: 14.99  91: 14.76  92: 14.81  93: 15.20  94: 14.72  95: 17.09  96: 14.68
  97: 14.88  98: 14.52  99: 15.29 100: 15.16 101: 14.81 102: 14.75 103: 14.39 104: 14.60
 105: 15.01 106: 14.44 107: 14.96 108: 15.17 109: 14.62 110: 15.84 111: 14.86 112: 15.51
 113: 14.53 114: 14.54 115: 14.84 116: 14.48 117: 14.58 118: 15.97 119: 15.26 120: 14.08
 121: 15.14 122: 15.18 123: 15.56 124: 15.22 125: 17.30 126: 14.76 127: 16.88 128: 16.97
 129:  6.15 130: 14.67 131: 14.66 132:  1.33 133: 17.37 134: 17.26 135: 14.12 136:  3.05
 137: 15.94 138:  9.26 139: 12.76 140: 10.33 141:  9.44 142: 13.67 143: 13.17 144: 14.67
 145: 14.09 146: 14.80 147:  8.32 148: 11.55 149:  9.19 150: 11.87 151: 10.78 152: 10.48
 153: 10.44 154:  5.22 155: 10.51 156:  7.00 157: 10.79 158: 10.94 159:  7.58 160:  6.11
 161: 11.16 162: 11.20 163: 10.76 164:  8.43 165:  7.74 166: 10.03 167:  6.29 168: 12.19
 169:  4.11 170:  3.97 171:  8.50 172:  7.16 173: 10.24 174:  8.01 175: 10.16 176:  8.55
 177: 13.34 178:  9.06 179: 11.10 180: 13.35 181: 10.90 182:  9.39 183: 10.72 184:  7.53
 185:  7.56 186:  9.91 187:  7.91 188:  6.16 189:  2.29 190:  9.70 191:  9.99 192: 11.72
 193: 11.46 194:  5.37 195:  8.43 196:  8.36 197:  5.91 198:  5.29 199:  5.38 200:  4.57
 201:  5.77 202:  4.74 203:  5.07 204:  5.27 205:  5.40 206:  6.23 207:  9.03 208: 11.51
 209:  6.64 210:  4.29 211:  5.48 212:  4.12 213:  5.88 214:  8.47 215:  4.46 216:  4.79
 217:  3.84 218:  9.64 219: 13.53 220:  5.25 221:  4.19 222:  4.38 223: 10.23 224: 12.42
 225:  5.34 226:  8.23 227:  4.47 228:  5.53 229:  5.61 230:  7.31 231:  5.99 232:  7.40
 233:  5.79 234:  9.79 235:  8.52 236:  3.99 237:  5.55 238:  7.58 239:  5.83 240:  6.94
 241: 13.00 242:  5.05 243:  5.66 244:  3.43 245:  2.18 246:  6.72 247:  6.54 248:  6.87
 249:  4.74 250:  8.93 251: 10.45 252:  4.18 253:  7.31 254:  5.06 255:  8.50 256:  8.84
 257: 12.75 258:  2.50 259:  4.35 260: 10.56 261:  1.97 262:  6.14 263:  8.29 264:  3.11
 265: 12.09 266:  4.62 267:  7.14 268: 10.44 269:  2.62 270:  8.83 271:  5.57 272:  4.60
 273:  9.17 274:  5.30 275:  3.54 276:  3.99 277:  5.85 278:  9.20 279: 16.68 280:  1.83
 281:  8.46 282:  2.63 283:  9.67 284:  5.01 285:  2.15 286:  2.37 287:  1.64 288:  2.10
 289:  2.11 290:  2.34 291:  1.65 292:  1.82 293:  1.79 294:  1.77 295:  2.47 296:  2.45
 297:  2.25 298:  1.55 299:  1.78 300:  1.84 301:  2.10 302:  2.11 303:  1.94 304:  1.89
 305:  1.96 306:  1.94 307:  2.04 308:  1.86 309:  2.19 310:  1.71 311:  2.12 312:  1.84
 313:  1.65 314:  1.66 315:  1.70 316:  1.50 317:  1.50 318:  2.15 319:  2.21 320:  1.86
 321:  1.79 322:  1.76 323:  1.58 324:  1.78 325:  1.63 326:  1.69 327:  1.46 328:  1.66
 329:  1.68 330:  1.65 331:  1.86 332:  1.72 333:  1.73 334:  1.76 335:  1.70 336:  1.46
 337:  1.78 338:  1.68 339:  1.60 340:  1.64 341:  1.72 342:  1.56 343:  1.73 344:  1.85
 345:  1.67 346:  1.58 347:  1.72 348:  1.85 349:  1.68 350:  1.88 351:  1.80 352:  1.61
 353:  1.52 354:  1.70 355:  1.79 356:  1.78 357:  1.76 358:  1.70 359:  1.73 360:  1.79
 361:  1.91 362:  1.89 363:  1.80 364:  1.59 365:  1.81 366:  1.94 367:  1.85 368:  1.81
 369:  1.72 370:  1.79 371:  1.65 372:  1.78 373:  1.78 374:  1.79 375:  1.89 376:  1.77
 377:  1.86 378:  1.85 379:  1.61 380:  1.88 381:  1.82 382:  1.62 383:  1.64 384:  1.87
 385:  1.90 386:  1.76 387:  1.87 388:  1.69 389:  1.62 390:  1.90 391:  1.92 392:  1.89
 393:  1.77 394:  1.90 395:  2.05 396:  1.74 397:  1.76 398:  2.08 399:  2.10 400:  2.09
 401:  2.02 402:  1.99 403:  2.06 404:  2.00 405:  1.99 406:  2.14 407:  2.15 408:  2.15
 409:  2.15 410:  2.12 411:  2.14 412:  2.14 413:  2.14 414:  2.14 415:  2.13 416:  2.17
 417:  2.07 418:  2.13 419:  2.13 420:  2.13 421:  2.14 422:  2.16 423:  2.17 424:  2.03
 425:  2.12 426:  2.12 427:  2.10 428:  2.04 429:  2.04 430:  2.07 431:  2.05 432:  2.01
 433:  2.10 434:  2.01 435:  2.07 436:  2.12 437:  2.10 438:  2.14 439:  2.08 440:  2.08
 441:  2.08 442:  2.08 443:  2.07 444:  2.09 445:  2.07 446:  2.08 447:  2.07 448:  2.06
 449:  2.07 450:  2.09 451:  2.05 452:  2.09 453:  2.07 454:  2.01 455:  2.07 456:  2.10
 457:  2.10 458:  2.06 459:  2.01 460:  1.98 461:  2.08 462:  2.05 463:  1.99 464:  1.97
 465:  2.03 466:  1.93 467:  1.90 468:  1.89 469:  1.90 470:  2.00 471:  1.97 472:  1.97
 473:  1.92 474:  1.93 475:  2.01 476:  2.01 477:  1.91 478:  1.97 479:  2.03 480:  1.90
 481:  1.88 482:  1.89 483:  2.05 484:  1.90 485:  1.88 486:  1.75 487:  1.74 488:  1.88
 489:  1.82 490:  1.97 491:  1.92 492:  2.00 493:  1.96 494:  1.86 495:  1.75 496:  2.12
 497:  1.93 498:  1.88 499:  1.74 500:  1.77 501:  1.87 502:  1.87 503:  1.58 504:  1.88
 505:  1.88 506:  2.04 507:  1.67 508:  1.88 509:  1.88 510:  1.88 511:  1.71 512:  1.66
 513:  1.88 514:  1.61 515:  1.89 516:  1.85 517:  1.77 518:  1.89 519:  1.89 520:  1.78
 521:  1.81 522:  1.89 523:  2.14 524:  1.89 525:  1.56 526:  1.83 527:  1.82 528:  1.78
 529:  1.83 530:  1.85 531:  1.85 532:  1.81 533:  1.83 534:  1.84 535:  1.80 536:  1.81
 537:  1.84 538:  1.82 539:  1.87 540:  1.97 541:  1.89 542:  1.81 543:  1.85 544:  1.82
 545:  1.89 546:  1.81 547:  1.86 548:  1.98 549:  1.93 550:  1.86 551:  1.86 552:  1.89
 553:  1.67 554:  1.87 555:  1.85 556:  2.06 557:  1.81 558:  1.71 559:  1.84 560:  1.84
 561:  1.59 562:  1.86 563:  1.78 564:  1.79 565:  1.80 566:  1.75 567:  1.89 568:  1.83
 569:  1.82 570:  1.83 571:  1.82 572:  1.83 573:  1.81 574:  1.82 575:  1.83 576:  1.81
 577:  1.83 578:  1.86 579:  1.84 580:  1.83 581:  1.84 582:  1.83 583:  1.84 584:  1.88
 585:  1.84 586:  1.83 587:  1.84 588:  1.82 589:  1.82 590:  1.84 591:  1.84 592:  1.82
 593:  1.84 594:  1.84 595:  1.82 596:  1.83 597:  1.84
 IR intensities (km·mol⁻¹)
   1:  6.73   2:  0.39   3:  6.84   4:  6.98   5:  0.65   6:  0.22   7:  0.34   8:  0.83
   9:  1.37  10:  0.10  11:  0.26  12:  2.93  13:  0.43  14:  1.90  15:  0.91  16:  4.16
  17:  2.79  18:  0.36  19:  3.92  20:  1.29  21:  1.37  22:  0.74  23:  2.17  24:  0.15
  25:  1.31  26:  3.00  27:  0.30  28:  0.45  29:  0.23  30:  0.29  31:  4.08  32:  3.17
  33:  1.75  34:  2.66  35:  1.36  36:  2.72  37:  2.40  38:  1.26  39:  1.43  40:  2.76
  41:  0.31  42:  2.42  43:  0.65  44:  5.87  45: 10.09  46: 12.33  47:  3.08  48:  3.78
  49:  6.30  50:  5.42  51:  7.50  52:  2.05  53:  7.92  54:  4.86  55:  0.52  56:  2.54
  57: 11.28  58:  4.92  59:  1.87  60:  4.53  61:  5.73  62:  4.34  63:  5.47  64:  5.19
  65:  8.97  66:  3.35  67:  4.12  68:  1.54  69:  8.73  70:  2.33  71:  6.17  72:  6.63
  73:  9.25  74:  1.04  75:  7.71  76:  1.88  77:  5.47  78:  3.25  79:  3.68  80:  0.90
  81:  9.22  82: 11.27  83:  7.33  84:  5.21  85:  0.28  86:  2.28  87: 17.52  88:  0.11
  89:  1.01  90:  2.98  91:  8.80  92:  6.23  93:  2.81  94:  2.75  95:  2.85  96:  1.16
  97:  4.94  98:  3.88  99:  0.54 100:  5.40 101:  5.05 102:  8.88 103:  5.23 104:  9.33
 105: 12.71 106: 11.21 107: 19.01 108:  4.67 109:  3.23 110: 15.08 111:  8.73 112:  0.58
 113:  3.31 114:  2.62 115: 18.97 116:  1.90 117:  6.95 118: 11.11 119: 10.29 120:  1.61
 121:  4.24 122: 35.55 123:  0.52 124:  1.99 125:  8.03 126:  3.88 127:  0.07 128:  2.72
 129: 78.18 130:  5.31 131:  0.53 132: 23.49 133: 30.66 134: 13.52 135: 13.05 136: 37.57
 137:  2.44 138: 82.65 139: 34.48 140: 57.73 141: 45.32 142: 19.42 143: 12.72 144:  3.71
 145:  3.34 146: 13.52 147:123.64 148: 83.14 149: 70.64 150: 47.03 151:135.49 152: 21.59
 153:169.30 154: 71.73 155: 30.55 156: 84.73 157: 15.99 158:101.56 159: 36.22 160: 87.66
 161: 13.04 162: 14.19 163: 63.86 164:105.34 165:  6.38 166:183.65 167: 30.18 168:118.55
 169:263.72 170: 43.50 171:102.95 172: 44.86 173: 65.22 174:169.39 175: 50.26 176:114.79
 177: 10.64 178: 58.93 179: 89.53 180: 15.95 181: 93.45 182: 87.78 183: 41.68 184: 43.23
 185:103.50 186: 97.31 187: 52.87 188: 47.59 189: 37.10 190: 27.68 191: 55.18 192:  6.59
 193: 71.51 194:138.02 195: 83.77 196:315.81 197:114.29 198:  2.80 199:143.57 200:128.38
 201: 24.86 202:115.91 203:367.99 204:105.13 205:559.95 206: 11.19 207:257.08 208: 66.84
 209:168.34 210: 40.16 211:570.44 212:122.63 213:173.70 214: 61.68 215:282.32 216:176.83
 217:368.46 218: 39.84 219: 46.08 220:416.81 221: 94.08 222:  0.22 223: 52.96 224: 52.41
 225:148.39 226: 67.36 227: 95.86 228: 34.78 229: 69.30 230:176.17 231:177.53 232: 35.30
 233:132.22 234: 31.04 235:228.13 236:147.27 237:323.29 238:297.10 239: 67.72 240:205.46
 241: 73.27 242: 95.98 243:166.30 244:185.06 245: 39.16 246: 79.11 247:106.78 248: 40.58
 249: 42.48 250:124.93 251:261.92 252: 84.11 253:445.23 254: 81.79 255: 46.72 256: 42.91
 257: 52.56 258: 96.02 259:169.42 260: 22.00 261:  3.12 262: 81.96 263: 49.80 264:747.13
 265: 38.13 266:310.58 267:160.24 268:113.58 269: 51.80 270: 36.27 271: 74.63 272:103.52
 273: 23.60 274: 46.58 275: 52.19 276: 69.28 277: 22.00 278: 16.08 279:  3.81 280:  6.61
 281: 54.91 282:590.54 283:154.47 284: 42.85 285:214.41 286:  3.05 287:225.02 288: 97.91
 289: 98.89 290:208.91 291: 92.14 292:106.99 293:147.11 294: 51.12 295:275.10 296:206.33
 297: 54.15 298: 75.09 299:102.17 300: 83.94 301:132.95 302: 31.82 303: 90.81 304:124.96
 305: 56.94 306: 79.69 307: 46.19 308:120.03 309: 90.06 310: 37.92 311: 63.61 312: 82.71
 313:  3.25 314:129.96 315: 38.32 316: 41.87 317: 56.20 318: 91.54 319:110.08 320: 13.25
 321: 71.86 322:106.16 323: 22.68 324:331.18 325:381.41 326:327.11 327:176.09 328: 86.55
 329: 96.16 330:517.93 331:289.11 332:309.64 333:111.42 334: 12.82 335:285.11 336: 18.98
 337: 10.44 338: 20.02 339: 85.71 340:124.19 341: 83.98 342:219.28 343:249.80 344:105.48
 345:370.19 346: 97.66 347:229.43 348:121.72 349:242.33 350:139.49 351:146.51 352: 52.29
 353: 35.41 354: 93.19 355:220.41 356:485.66 357:470.12 358: 97.19 359: 66.70 360:125.57
 361:165.29 362:310.41 363:226.79 364: 50.88 365: 28.53 366:560.93 367:248.25 368:232.43
 369: 22.47 370:233.83 371: 78.87 372:138.17 373:187.19 374:428.35 375:101.22 376:246.94
 377:593.42 378:520.09 379:195.77 380:102.43 381:264.55 382:763.78 383:155.93 384:256.39
 385:672.28 386: 83.29 387:****** 388:292.01 389:187.15 390:268.78 391:717.45 392:603.25
 393: 66.29 394:208.01 395:771.46 396:216.13 397:504.97 398: 86.69 399:238.80 400:137.77
 401:450.70 402:185.17 403:  0.37 404: 56.09 405:503.78 406: 68.67 407: 96.58 408:362.02
 409:243.83 410:697.44 411:189.76 412: 89.07 413:148.59 414:224.47 415:136.80 416:235.49
 417:256.61 418:562.27 419:314.71 420:154.91 421:211.71 422:119.19 423:217.53 424:190.48
 425:346.66 426:145.59 427: 54.61 428:117.84 429:381.14 430:174.31 431:115.67 432:272.86
 433:183.81 434: 37.50 435: 52.17 436:153.31 437:147.33 438:247.85 439:410.42 440:228.39
 441:373.89 442: 14.77 443:280.02 444: 49.31 445:392.73 446:358.59 447:259.97 448:196.86
 449: 62.61 450:245.17 451:122.17 452:287.08 453: 83.19 454: 78.40 455:401.97 456: 28.29
 457:196.83 458:117.40 459:105.27 460:157.52 461:228.34 462:215.67 463:313.23 464: 12.34
 465:225.18 466:****** 467:****** 468:****** 469:****** 470:****** 471:806.31 472:664.29
 473:****** 474:975.60 475:****** 476:677.84 477:****** 478:****** 479:583.34 480:301.98
 481:976.11 482:604.08 483:950.49 484:960.40 485:572.27 486:****** 487:****** 488:520.72
 489:573.53 490:671.15 491:353.87 492:440.45 493:****** 494:909.16 495: 56.71 496:440.80
 497:861.49 498:727.77 499:263.52 500:****** 501:348.62 502:169.47 503:149.38 504:535.60
 505:533.93 506:517.66 507:333.22 508:384.60 509:380.55 510:546.45 511:241.07 512:313.06
 513:434.13 514: 57.05 515:364.56 516:353.04 517:257.16 518:472.50 519:212.44 520:289.84
 521:233.22 522:346.98 523:431.20 524:169.68 525: 35.87 526:238.14 527:297.69 528:158.01
 529:286.75 530: 99.15 531: 99.79 532: 96.32 533:124.58 534: 98.23 535: 93.61 536: 89.50
 537: 83.70 538: 87.24 539:175.03 540:114.34 541: 44.58 542:148.57 543: 62.56 544: 89.00
 545:126.15 546: 44.66 547:118.27 548: 30.48 549: 70.62 550:157.98 551:131.17 552: 78.83
 553: 73.51 554: 74.63 555:115.27 556:140.26 557: 20.20 558: 64.26 559: 68.98 560:125.81
 561: 25.31 562:139.22 563: 73.03 564: 72.44 565: 84.95 566: 63.87 567: 80.76 568: 25.76
 569: 89.95 570: 94.89 571: 73.14 572: 88.94 573: 51.39 574:125.81 575: 51.12 576:114.56
 577: 87.25 578: 66.72 579: 29.40 580: 93.74 581: 83.54 582: 77.35 583: 72.33 584: 82.61
 585: 65.92 586: 62.64 587: 61.56 588: 83.01 589:102.34 590: 58.38 591: 68.92 592: 73.34
 593: 74.06 594: 47.92 595: 64.82 596: 60.60 597: 53.33
 Raman intensities (amu)
   1:  0.00   2:  0.00   3:  0.00   4:  0.00   5:  0.00   6:  0.00   7:  0.00   8:  0.00
   9:  0.00  10:  0.00  11:  0.00  12:  0.00  13:  0.00  14:  0.00  15:  0.00  16:  0.00
  17:  0.00  18:  0.00  19:  0.00  20:  0.00  21:  0.00  22:  0.00  23:  0.00  24:  0.00
  25:  0.00  26:  0.00  27:  0.00  28:  0.00  29:  0.00  30:  0.00  31:  0.00  32:  0.00
  33:  0.00  34:  0.00  35:  0.00  36:  0.00  37:  0.00  38:  0.00  39:  0.00  40:  0.00
  41:  0.00  42:  0.00  43:  0.00  44:  0.00  45:  0.00  46:  0.00  47:  0.00  48:  0.00
  49:  0.00  50:  0.00  51:  0.00  52:  0.00  53:  0.00  54:  0.00  55:  0.00  56:  0.00
  57:  0.00  58:  0.00  59:  0.00  60:  0.00  61:  0.00  62:  0.00  63:  0.00  64:  0.00
  65:  0.00  66:  0.00  67:  0.00  68:  0.00  69:  0.00  70:  0.00  71:  0.00  72:  0.00
  73:  0.00  74:  0.00  75:  0.00  76:  0.00  77:  0.00  78:  0.00  79:  0.00  80:  0.00
  81:  0.00  82:  0.00  83:  0.00  84:  0.00  85:  0.00  86:  0.00  87:  0.00  88:  0.00
  89:  0.00  90:  0.00  91:  0.00  92:  0.00  93:  0.00  94:  0.00  95:  0.00  96:  0.00
  97:  0.00  98:  0.00  99:  0.00 100:  0.00 101:  0.00 102:  0.00 103:  0.00 104:  0.00
 105:  0.00 106:  0.00 107:  0.00 108:  0.00 109:  0.00 110:  0.00 111:  0.00 112:  0.00
 113:  0.00 114:  0.00 115:  0.00 116:  0.00 117:  0.00 118:  0.00 119:  0.00 120:  0.00
 121:  0.00 122:  0.00 123:  0.00 124:  0.00 125:  0.00 126:  0.00 127:  0.00 128:  0.00
 129:  0.00 130:  0.00 131:  0.00 132:  0.00 133:  0.00 134:  0.00 135:  0.00 136:  0.00
 137:  0.00 138:  0.00 139:  0.00 140:  0.00 141:  0.00 142:  0.00 143:  0.00 144:  0.00
 145:  0.00 146:  0.00 147:  0.00 148:  0.00 149:  0.00 150:  0.00 151:  0.00 152:  0.00
 153:  0.00 154:  0.00 155:  0.00 156:  0.00 157:  0.00 158:  0.00 159:  0.00 160:  0.00
 161:  0.00 162:  0.00 163:  0.00 164:  0.00 165:  0.00 166:  0.00 167:  0.00 168:  0.00
 169:  0.00 170:  0.00 171:  0.00 172:  0.00 173:  0.00 174:  0.00 175:  0.00 176:  0.00
 177:  0.00 178:  0.00 179:  0.00 180:  0.00 181:  0.00 182:  0.00 183:  0.00 184:  0.00
 185:  0.00 186:  0.00 187:  0.00 188:  0.00 189:  0.00 190:  0.00 191:  0.00 192:  0.00
 193:  0.00 194:  0.00 195:  0.00 196:  0.00 197:  0.00 198:  0.00 199:  0.00 200:  0.00
 201:  0.00 202:  0.00 203:  0.00 204:  0.00 205:  0.00 206:  0.00 207:  0.00 208:  0.00
 209:  0.00 210:  0.00 211:  0.00 212:  0.00 213:  0.00 214:  0.00 215:  0.00 216:  0.00
 217:  0.00 218:  0.00 219:  0.00 220:  0.00 221:  0.00 222:  0.00 223:  0.00 224:  0.00
 225:  0.00 226:  0.00 227:  0.00 228:  0.00 229:  0.00 230:  0.00 231:  0.00 232:  0.00
 233:  0.00 234:  0.00 235:  0.00 236:  0.00 237:  0.00 238:  0.00 239:  0.00 240:  0.00
 241:  0.00 242:  0.00 243:  0.00 244:  0.00 245:  0.00 246:  0.00 247:  0.00 248:  0.00
 249:  0.00 250:  0.00 251:  0.00 252:  0.00 253:  0.00 254:  0.00 255:  0.00 256:  0.00
 257:  0.00 258:  0.00 259:  0.00 260:  0.00 261:  0.00 262:  0.00 263:  0.00 264:  0.00
 265:  0.00 266:  0.00 267:  0.00 268:  0.00 269:  0.00 270:  0.00 271:  0.00 272:  0.00
 273:  0.00 274:  0.00 275:  0.00 276:  0.00 277:  0.00 278:  0.00 279:  0.00 280:  0.00
 281:  0.00 282:  0.00 283:  0.00 284:  0.00 285:  0.00 286:  0.00 287:  0.00 288:  0.00
 289:  0.00 290:  0.00 291:  0.00 292:  0.00 293:  0.00 294:  0.00 295:  0.00 296:  0.00
 297:  0.00 298:  0.00 299:  0.00 300:  0.00 301:  0.00 302:  0.00 303:  0.00 304:  0.00
 305:  0.00 306:  0.00 307:  0.00 308:  0.00 309:  0.00 310:  0.00 311:  0.00 312:  0.00
 313:  0.00 314:  0.00 315:  0.00 316:  0.00 317:  0.00 318:  0.00 319:  0.00 320:  0.00
 321:  0.00 322:  0.00 323:  0.00 324:  0.00 325:  0.00 326:  0.00 327:  0.00 328:  0.00
 329:  0.00 330:  0.00 331:  0.00 332:  0.00 333:  0.00 334:  0.00 335:  0.00 336:  0.00
 337:  0.00 338:  0.00 339:  0.00 340:  0.00 341:  0.00 342:  0.00 343:  0.00 344:  0.00
 345:  0.00 346:  0.00 347:  0.00 348:  0.00 349:  0.00 350:  0.00 351:  0.00 352:  0.00
 353:  0.00 354:  0.00 355:  0.00 356:  0.00 357:  0.00 358:  0.00 359:  0.00 360:  0.00
 361:  0.00 362:  0.00 363:  0.00 364:  0.00 365:  0.00 366:  0.00 367:  0.00 368:  0.00
 369:  0.00 370:  0.00 371:  0.00 372:  0.00 373:  0.00 374:  0.00 375:  0.00 376:  0.00
 377:  0.00 378:  0.00 379:  0.00 380:  0.00 381:  0.00 382:  0.00 383:  0.00 384:  0.00
 385:  0.00 386:  0.00 387:  0.00 388:  0.00 389:  0.00 390:  0.00 391:  0.00 392:  0.00
 393:  0.00 394:  0.00 395:  0.00 396:  0.00 397:  0.00 398:  0.00 399:  0.00 400:  0.00
 401:  0.00 402:  0.00 403:  0.00 404:  0.00 405:  0.00 406:  0.00 407:  0.00 408:  0.00
 409:  0.00 410:  0.00 411:  0.00 412:  0.00 413:  0.00 414:  0.00 415:  0.00 416:  0.00
 417:  0.00 418:  0.00 419:  0.00 420:  0.00 421:  0.00 422:  0.00 423:  0.00 424:  0.00
 425:  0.00 426:  0.00 427:  0.00 428:  0.00 429:  0.00 430:  0.00 431:  0.00 432:  0.00
 433:  0.00 434:  0.00 435:  0.00 436:  0.00 437:  0.00 438:  0.00 439:  0.00 440:  0.00
 441:  0.00 442:  0.00 443:  0.00 444:  0.00 445:  0.00 446:  0.00 447:  0.00 448:  0.00
 449:  0.00 450:  0.00 451:  0.00 452:  0.00 453:  0.00 454:  0.00 455:  0.00 456:  0.00
 457:  0.00 458:  0.00 459:  0.00 460:  0.00 461:  0.00 462:  0.00 463:  0.00 464:  0.00
 465:  0.00 466:  0.00 467:  0.00 468:  0.00 469:  0.00 470:  0.00 471:  0.00 472:  0.00
 473:  0.00 474:  0.00 475:  0.00 476:  0.00 477:  0.00 478:  0.00 479:  0.00 480:  0.00
 481:  0.00 482:  0.00 483:  0.00 484:  0.00 485:  0.00 486:  0.00 487:  0.00 488:  0.00
 489:  0.00 490:  0.00 491:  0.00 492:  0.00 493:  0.00 494:  0.00 495:  0.00 496:  0.00
 497:  0.00 498:  0.00 499:  0.00 500:  0.00 501:  0.00 502:  0.00 503:  0.00 504:  0.00
 505:  0.00 506:  0.00 507:  0.00 508:  0.00 509:  0.00 510:  0.00 511:  0.00 512:  0.00
 513:  0.00 514:  0.00 515:  0.00 516:  0.00 517:  0.00 518:  0.00 519:  0.00 520:  0.00
 521:  0.00 522:  0.00 523:  0.00 524:  0.00 525:  0.00 526:  0.00 527:  0.00 528:  0.00
 529:  0.00 530:  0.00 531:  0.00 532:  0.00 533:  0.00 534:  0.00 535:  0.00 536:  0.00
 537:  0.00 538:  0.00 539:  0.00 540:  0.00 541:  0.00 542:  0.00 543:  0.00 544:  0.00
Molecule has no symmetry elements
It seems to be the C1 point group
 545:  0.00 546:  0.00 547:  0.00 548:  0.00 549:  0.00 550:  0.00 551:  0.00 552:  0.00
 553:  0.00 554:  0.00 555:  0.00 556:  0.00 557:  0.00 558:  0.00 559:  0.00 560:  0.00
 561:  0.00 562:  0.00 563:  0.00 564:  0.00 565:  0.00 566:  0.00 567:  0.00 568:  0.00
 569:  0.00 570:  0.00 571:  0.00 572:  0.00 573:  0.00 574:  0.00 575:  0.00 576:  0.00
 577:  0.00 578:  0.00 579:  0.00 580:  0.00 581:  0.00 582:  0.00 583:  0.00 584:  0.00
 585:  0.00 586:  0.00 587:  0.00 588:  0.00 589:  0.00 590:  0.00 591:  0.00 592:  0.00
 593:  0.00 594:  0.00 595:  0.00 596:  0.00 597:  0.00
 output can be read by thermo (or use thermo option).
 writing <g98.out> molden fake output.
 recommended (thermochemical) frequency scaling factor: 1.0
           -------------------------------------------------
          |             Thermodynamic Functions             |
           -------------------------------------------------

c1  symmetry found (for desy threshold:  0.10E+00) used in thermo

          ...................................................
          :                      SETUP                      :
          :.................................................:
          :  # frequencies                         591      :
          :  # imaginary freq.                       0      :
          :  linear?                             false      :
          :  only rotor calc.                    false      :
          :  symmetry                               c1      :
          :  rotational number                       1      :
          :  scaling factor                  1.0000000      :
          :  rotor cutoff                   50.0000000 cm⁻¹ :
          :  imag. cutoff                  -20.0000000 cm⁻¹ :
          :.................................................:

    mode    ω/cm⁻¹     T·S(HO)/kcal·mol⁻¹    T·S(FR)/kcal·mol⁻¹   T·S(vib)
   ------------------------------------------------------------------------
       1      9.57    -2.41441 (  0.13%)    -1.54628 ( 99.87%)    -1.54745
       2     14.41    -2.17199 (  0.69%)    -1.42504 ( 99.31%)    -1.43016
       3     15.42    -2.13204 (  0.90%)    -1.40506 ( 99.10%)    -1.41158
       4     16.31    -2.09875 (  1.12%)    -1.38841 ( 98.88%)    -1.39636
       5     16.60    -2.08830 (  1.20%)    -1.38318 ( 98.80%)    -1.39164
       6     17.42    -2.05965 (  1.45%)    -1.36885 ( 98.55%)    -1.37889
       7     17.77    -2.04792 (  1.57%)    -1.36298 ( 98.43%)    -1.37374
       8     19.01    -2.00805 (  2.05%)    -1.34303 ( 97.95%)    -1.35664
       9     19.90    -1.98083 (  2.45%)    -1.32941 ( 97.55%)    -1.34537
      10     20.50    -1.96337 (  2.75%)    -1.32067 ( 97.25%)    -1.33834
      11     21.35    -1.93943 (  3.21%)    -1.30870 ( 96.79%)    -1.32898
      12     22.21    -1.91595 (  3.75%)    -1.29695 ( 96.25%)    -1.32014
      13     22.90    -1.89778 (  4.22%)    -1.28785 ( 95.78%)    -1.31357
      14     24.04    -1.86899 (  5.08%)    -1.27344 ( 94.92%)    -1.30367
      15     24.57    -1.85626 (  5.51%)    -1.26707 ( 94.49%)    -1.29951
      16     24.86    -1.84915 (  5.76%)    -1.26351 ( 94.24%)    -1.29726
      17     25.57    -1.83254 (  6.40%)    -1.25519 ( 93.60%)    -1.29216
      18     26.37    -1.81428 (  7.18%)    -1.24605 ( 92.82%)    -1.28687
      19     26.93    -1.80186 (  7.76%)    -1.23983 ( 92.24%)    -1.28347
      20     27.78    -1.78355 (  8.70%)    -1.23067 ( 91.30%)    -1.27876
      21     28.00    -1.77886 (  8.95%)    -1.22832 ( 91.05%)    -1.27761
      22     28.87    -1.76067 ( 10.01%)    -1.21921 ( 89.99%)    -1.27340
      23     29.66    -1.74483 ( 11.02%)    -1.21127 ( 88.98%)    -1.27005
      24     29.87    -1.74063 ( 11.30%)    -1.20917 ( 88.70%)    -1.26921
      25     30.54    -1.72741 ( 12.22%)    -1.20255 ( 87.78%)    -1.26671
      26     31.11    -1.71648 ( 13.04%)    -1.19708 ( 86.96%)    -1.26480
      27     31.43    -1.71051 ( 13.50%)    -1.19408 ( 86.50%)    -1.26382
      28     32.10    -1.69804 ( 14.52%)    -1.18784 ( 85.48%)    -1.26192
      29     33.10    -1.67988 ( 16.11%)    -1.17874 ( 83.89%)    -1.25948
      30     33.77    -1.66798 ( 17.23%)    -1.17277 ( 82.77%)    -1.25810
      31     34.10    -1.66234 ( 17.78%)    -1.16995 ( 82.22%)    -1.25750
      32     34.97    -1.64741 ( 19.31%)    -1.16247 ( 80.69%)    -1.25609
      33     36.21    -1.62677 ( 21.58%)    -1.15212 ( 78.42%)    -1.25454
      34     36.59    -1.62068 ( 22.28%)    -1.14907 ( 77.72%)    -1.25416
      35     36.89    -1.61582 ( 22.86%)    -1.14663 ( 77.14%)    -1.25388
      36     37.72    -1.60271 ( 24.46%)    -1.14006 ( 75.54%)    -1.25322
      37     38.10    -1.59680 ( 25.21%)    -1.13710 ( 74.79%)    -1.25297
      38     38.84    -1.58543 ( 26.69%)    -1.13140 ( 73.31%)    -1.25256
      39     38.91    -1.58424 ( 26.84%)    -1.13080 ( 73.16%)    -1.25252
      40     39.72    -1.57210 ( 28.49%)    -1.12471 ( 71.51%)    -1.25216
      41     41.05    -1.55268 ( 31.24%)    -1.11497 ( 68.76%)    -1.25172
      42     41.41    -1.54749 ( 32.00%)    -1.11237 ( 68.00%)    -1.25161
      43     41.85    -1.54128 ( 32.92%)    -1.10925 ( 67.08%)    -1.25149
      44     42.44    -1.53301 ( 34.17%)    -1.10510 ( 65.83%)    -1.25133
      45     42.83    -1.52766 ( 34.99%)    -1.10242 ( 65.01%)    -1.25122
      46     43.42    -1.51955 ( 36.25%)    -1.09835 ( 63.75%)    -1.25105
      47     44.46    -1.50563 ( 38.46%)    -1.09136 ( 61.54%)    -1.25069
      48     45.06    -1.49772 ( 39.74%)    -1.08739 ( 60.26%)    -1.25044
      49     45.62    -1.49037 ( 40.93%)    -1.08370 ( 59.07%)    -1.25017
      50     45.93    -1.48644 ( 41.58%)    -1.08173 ( 58.42%)    -1.25001
      51     46.20    -1.48286 ( 42.17%)    -1.07993 ( 57.83%)    -1.24985
      52     46.91    -1.47395 ( 43.65%)    -1.07546 ( 56.35%)    -1.24940
      53     47.76    -1.46329 ( 45.44%)    -1.07010 ( 54.56%)    -1.24875
      54     47.92    -1.46133 ( 45.77%)    -1.06912 ( 54.23%)    -1.24862
      55     48.18    -1.45814 ( 46.30%)    -1.06752 ( 53.70%)    -1.24839
      56     49.47    -1.44262 ( 48.93%)    -1.05972 ( 51.07%)    -1.24707
      57     50.08    -1.43539 ( 50.15%)    -1.05609 ( 49.85%)    -1.24633
      58     50.85    -1.42639 ( 51.68%)    -1.05157 ( 48.32%)    -1.24528
      59     51.60    -1.41770 ( 53.15%)    -1.04720 ( 46.85%)    -1.24413
      60     52.20    -1.41086 ( 54.30%)    -1.04376 ( 45.70%)    -1.24312
      61     52.89    -1.40316 ( 55.60%)    -1.03989 ( 44.40%)    -1.24187
      62     53.44    -1.39703 ( 56.62%)    -1.03681 ( 43.38%)    -1.24078
      63     54.14    -1.38946 ( 57.88%)    -1.03301 ( 42.12%)    -1.23933
      64     54.81    -1.38219 ( 59.08%)    -1.02935 ( 40.92%)    -1.23781
      65     55.00    -1.38018 ( 59.41%)    -1.02834 ( 40.59%)    -1.23737
      66     56.14    -1.36802 ( 61.39%)    -1.02222 ( 38.61%)    -1.23449
      67     56.88    -1.36037 ( 62.61%)    -1.01837 ( 37.39%)    -1.23249
      68     57.30    -1.35602 ( 63.30%)    -1.01618 ( 36.70%)    -1.23129
      69     57.97    -1.34920 ( 64.37%)    -1.01275 ( 35.63%)    -1.22932
      70     58.35    -1.34533 ( 64.97%)    -1.01080 ( 35.03%)    -1.22814
      71     58.95    -1.33931 ( 65.89%)    -1.00777 ( 34.11%)    -1.22624
      72     60.08    -1.32811 ( 67.58%)    -1.00213 ( 32.42%)    -1.22244
      73     60.23    -1.32667 ( 67.80%)    -1.00141 ( 32.20%)    -1.22193
      74     61.23    -1.31698 ( 69.22%)    -0.99653 ( 30.78%)    -1.21835
      75     62.47    -1.30515 ( 70.91%)    -0.99057 ( 29.09%)    -1.21363
      76     63.03    -1.29997 ( 71.63%)    -0.98796 ( 28.37%)    -1.21145
      77     63.97    -1.29125 ( 72.82%)    -0.98357 ( 27.18%)    -1.20762
      78     64.44    -1.28689 ( 73.40%)    -0.98137 ( 26.60%)    -1.20563
      79     65.30    -1.27915 ( 74.42%)    -0.97747 ( 25.58%)    -1.20197
      80     65.80    -1.27462 ( 75.00%)    -0.97518 ( 25.00%)    -1.19976
      81     66.79    -1.26587 ( 76.10%)    -0.97077 ( 23.90%)    -1.19534
      82     67.03    -1.26379 ( 76.36%)    -0.96972 ( 23.64%)    -1.19427
      83     67.72    -1.25773 ( 77.09%)    -0.96667 ( 22.91%)    -1.19106
      84     69.01    -1.24672 ( 78.39%)    -0.96111 ( 21.61%)    -1.18501
      85     69.27    -1.24447 ( 78.65%)    -0.95998 ( 21.35%)    -1.18373
      86     69.51    -1.24242 ( 78.88%)    -0.95894 ( 21.12%)    -1.18256
      87     71.08    -1.22933 ( 80.33%)    -0.95233 ( 19.67%)    -1.17485
      88     71.56    -1.22538 ( 80.75%)    -0.95034 ( 19.25%)    -1.17245
      89     72.64    -1.21660 ( 81.67%)    -0.94590 ( 18.33%)    -1.16698
      90     73.32    -1.21116 ( 82.22%)    -0.94315 ( 17.78%)    -1.16350
      91     74.55    -1.20141 ( 83.17%)    -0.93823 ( 16.83%)    -1.15712
      92     74.84    -1.19908 ( 83.39%)    -0.93705 ( 16.61%)    -1.15556
      93     76.24    -1.18826 ( 84.39%)    -0.93158 ( 15.61%)    -1.14819
      94     76.72    -1.18454 ( 84.72%)    -0.92970 ( 15.28%)    -1.14560
      95     77.63    -1.17765 ( 85.32%)    -0.92622 ( 14.68%)    -1.14074
      96     77.83    -1.17614 ( 85.45%)    -0.92545 ( 14.55%)    -1.13966
      97     80.14    -1.15903 ( 86.84%)    -0.91679 ( 13.16%)    -1.12716
      98     80.87    -1.15370 ( 87.25%)    -0.91409 ( 12.75%)    -1.12316
      99     81.45    -1.14957 ( 87.56%)    -0.91200 ( 12.44%)    -1.12002
     100     81.82    -1.14692 ( 87.76%)    -0.91066 ( 12.24%)    -1.11800
     101     82.05    -1.14523 ( 87.88%)    -0.90980 ( 12.12%)    -1.11670
     102     83.68    -1.13379 ( 88.69%)    -0.90401 ( 11.31%)    -1.10781
     103     83.98    -1.13165 ( 88.84%)    -0.90292 ( 11.16%)    -1.10612
     104     84.48    -1.12819 ( 89.07%)    -0.90117 ( 10.93%)    -1.10338
     105     85.68    -1.11996 ( 89.61%)    -0.89700 ( 10.39%)    -1.09679
     106     86.41    -1.11502 ( 89.92%)    -0.89449 ( 10.08%)    -1.09278
     107     87.76    -1.10597 ( 90.47%)    -0.88990 (  9.53%)    -1.08537
     108     89.57    -1.09405 ( 91.15%)    -0.88385 (  8.85%)    -1.07545
     109     90.04    -1.09099 ( 91.32%)    -0.88229 (  8.68%)    -1.07287
     110     90.69    -1.08677 ( 91.54%)    -0.88015 (  8.46%)    -1.06930
     111     91.68    -1.08047 ( 91.87%)    -0.87695 (  8.13%)    -1.06393
     112     92.52    -1.07517 ( 92.14%)    -0.87426 (  7.86%)    -1.05938
     113     94.13    -1.06513 ( 92.62%)    -0.86915 (  7.38%)    -1.05067
     114     96.80    -1.04881 ( 93.35%)    -0.86084 (  6.65%)    -1.03632
     115     97.47    -1.04482 ( 93.52%)    -0.85881 (  6.48%)    -1.03278
     116     98.97    -1.03594 ( 93.88%)    -0.85429 (  6.12%)    -1.02483
     117    100.48    -1.02710 ( 94.22%)    -0.84978 (  5.78%)    -1.01686
     118    102.14    -1.01758 ( 94.57%)    -0.84493 (  5.43%)    -1.00820
     119    104.33    -1.00529 ( 94.99%)    -0.83865 (  5.01%)    -0.99694
     120    107.89    -0.98586 ( 95.59%)    -0.82872 (  4.41%)    -0.97893
     121    110.35    -0.97277 ( 95.96%)    -0.82202 (  4.04%)    -0.96667
     122    111.59    -0.96633 ( 96.13%)    -0.81873 (  3.87%)    -0.96061
     123    115.05    -0.94865 ( 96.56%)    -0.80967 (  3.44%)    -0.94387
     124    117.08    -0.93857 ( 96.78%)    -0.80449 (  3.22%)    -0.93425
     125    120.34    -0.92274 ( 97.11%)    -0.79636 (  2.89%)    -0.91908
     126    121.12    -0.91903 ( 97.18%)    -0.79445 (  2.82%)    -0.91551
     127    126.86    -0.89238 ( 97.64%)    -0.78072 (  2.36%)    -0.88974
     128    128.06    -0.88700 ( 97.73%)    -0.77795 (  2.27%)    -0.88452
     129    131.85    -0.87028 ( 97.97%)    -0.76931 (  2.03%)    -0.86824
     130    133.41    -0.86354 ( 98.07%)    -0.76582 (  1.93%)    -0.86165
     131    134.33    -0.85961 ( 98.12%)    -0.76379 (  1.88%)    -0.85781
     132    136.30    -0.85127 ( 98.22%)    -0.75947 (  1.78%)    -0.84964
     133    136.97    -0.84845 ( 98.26%)    -0.75801 (  1.74%)    -0.84687
     134    138.67    -0.84143 ( 98.34%)    -0.75436 (  1.66%)    -0.83998
     135    140.21    -0.83511 ( 98.41%)    -0.75108 (  1.59%)    -0.83377
     136    144.01    -0.81988 ( 98.57%)    -0.74317 (  1.43%)    -0.81878
     137    145.08    -0.81567 ( 98.61%)    -0.74098 (  1.39%)    -0.81463
     138    147.83    -0.80498 ( 98.71%)    -0.73540 (  1.29%)    -0.80408
     139    149.33    -0.79928 ( 98.76%)    -0.73243 (  1.24%)    -0.79845
     140    151.62    -0.79062 ( 98.83%)    -0.72790 (  1.17%)    -0.78988
     141    154.57    -0.77973 ( 98.92%)    -0.72221 (  1.08%)    -0.77911
     142    155.68    -0.77566 ( 98.95%)    -0.72008 (  1.05%)    -0.77508
     143    156.55    -0.77252 ( 98.97%)    -0.71843 (  1.03%)    -0.77196
     144    158.07    -0.76708 ( 99.01%)    -0.71558 (  0.99%)    -0.76657
     145    158.37    -0.76601 ( 99.02%)    -0.71502 (  0.98%)    -0.76551
     146    159.57    -0.76174 ( 99.05%)    -0.71278 (  0.95%)    -0.76128
     147    161.34    -0.75552 ( 99.09%)    -0.70950 (  0.91%)    -0.75510
     148    162.28    -0.75225 ( 99.11%)    -0.70778 (  0.89%)    -0.75185
     149    163.11    -0.74936 ( 99.12%)    -0.70626 (  0.88%)    -0.74898
     150    165.59    -0.74087 ( 99.18%)    -0.70180 (  0.82%)    -0.74055
     151    166.49    -0.73784 ( 99.19%)    -0.70019 (  0.81%)    -0.73753
     152    167.07    -0.73590 ( 99.20%)    -0.69917 (  0.80%)    -0.73560
     153    168.08    -0.73249 ( 99.22%)    -0.69737 (  0.78%)    -0.73222
     154    169.73    -0.72702 ( 99.25%)    -0.69448 (  0.75%)    -0.72678
     155    171.32    -0.72181 ( 99.28%)    -0.69173 (  0.72%)    -0.72159
     156    171.73    -0.72046 ( 99.29%)    -0.69101 (  0.71%)    -0.72025
     157    172.03    -0.71948 ( 99.29%)    -0.69049 (  0.71%)    -0.71927
     158    172.99    -0.71637 ( 99.31%)    -0.68884 (  0.69%)    -0.71617
     159    174.02    -0.71308 ( 99.32%)    -0.68710 (  0.68%)    -0.71290
     160    174.44    -0.71170 ( 99.33%)    -0.68637 (  0.67%)    -0.71153
     161    175.52    -0.70827 ( 99.35%)    -0.68455 (  0.65%)    -0.70812
     162    177.63    -0.70159 ( 99.38%)    -0.68100 (  0.62%)    -0.70146
     163    178.45    -0.69902 ( 99.39%)    -0.67964 (  0.61%)    -0.69890
     164    179.76    -0.69496 ( 99.40%)    -0.67748 (  0.60%)    -0.69486
     165    180.62    -0.69232 ( 99.42%)    -0.67607 (  0.58%)    -0.69222
     166    181.95    -0.68822 ( 99.43%)    -0.67389 (  0.57%)    -0.68813
     167    182.52    -0.68648 ( 99.44%)    -0.67296 (  0.56%)    -0.68640
     168    184.92    -0.67923 ( 99.47%)    -0.66910 (  0.53%)    -0.67918
     169    185.06    -0.67882 ( 99.47%)    -0.66888 (  0.53%)    -0.67877
     170    187.64    -0.67115 ( 99.50%)    -0.66477 (  0.50%)    -0.67112
     171    189.18    -0.66662 ( 99.51%)    -0.66235 (  0.49%)    -0.66660
     172    190.70    -0.66219 ( 99.53%)    -0.65997 (  0.47%)    -0.66218
     173    191.58    -0.65965 ( 99.54%)    -0.65861 (  0.46%)    -0.65965
     174    194.00    -0.65274 ( 99.56%)    -0.65490 (  0.44%)    -0.65275
     175    195.60    -0.64821 ( 99.57%)    -0.65246 (  0.43%)    -0.64822
     176    197.07    -0.64408 ( 99.59%)    -0.65024 (  0.41%)    -0.64410
     177    198.26    -0.64078 ( 99.60%)    -0.64846 (  0.40%)    -0.64081
     178    198.69    -0.63960 ( 99.60%)    -0.64782 (  0.40%)    -0.63963
     179    199.98    -0.63604 ( 99.61%)    -0.64590 (  0.39%)    -0.63608
     180    201.70    -0.63133 ( 99.62%)    -0.64336 (  0.38%)    -0.63138
     181    203.20    -0.62728 ( 99.63%)    -0.64117 (  0.37%)    -0.62733
     182    204.57    -0.62361 ( 99.64%)    -0.63918 (  0.36%)    -0.62366
     183    206.54    -0.61838 ( 99.66%)    -0.63634 (  0.34%)    -0.61844
     184    207.47    -0.61591 ( 99.66%)    -0.63500 (  0.34%)    -0.61598
     185    208.89    -0.61220 ( 99.67%)    -0.63298 (  0.33%)    -0.61227
     186    210.27    -0.60863 ( 99.68%)    -0.63104 (  0.32%)    -0.60870
     187    212.87    -0.60195 ( 99.70%)    -0.62740 (  0.30%)    -0.60202
     188    213.66    -0.59992 ( 99.70%)    -0.62629 (  0.30%)    -0.60000
     189    216.49    -0.59279 ( 99.72%)    -0.62240 (  0.28%)    -0.59288
     190    216.72    -0.59222 ( 99.72%)    -0.62208 (  0.28%)    -0.59230
     191    218.11    -0.58875 ( 99.72%)    -0.62019 (  0.28%)    -0.58884
     192    219.05    -0.58645 ( 99.73%)    -0.61892 (  0.27%)    -0.58654
     193    219.43    -0.58551 ( 99.73%)    -0.61841 (  0.27%)    -0.58560
     194    221.69    -0.57997 ( 99.74%)    -0.61537 (  0.26%)    -0.58006
     195    222.28    -0.57854 ( 99.74%)    -0.61458 (  0.26%)    -0.57863
     196    222.64    -0.57766 ( 99.75%)    -0.61410 (  0.25%)    -0.57775
     197    224.06    -0.57425 ( 99.75%)    -0.61222 (  0.25%)    -0.57434
     198    225.73    -0.57026 ( 99.76%)    -0.61002 (  0.24%)    -0.57035
     199    226.00    -0.56961 ( 99.76%)    -0.60967 (  0.24%)    -0.56971
     200    227.92    -0.56507 ( 99.77%)    -0.60716 (  0.23%)    -0.56517
     201    228.96    -0.56264 ( 99.77%)    -0.60581 (  0.23%)    -0.56273
     202    229.87    -0.56051 ( 99.78%)    -0.60464 (  0.22%)    -0.56061
     203    231.41    -0.55694 ( 99.78%)    -0.60266 (  0.22%)    -0.55704
     204    232.57    -0.55426 ( 99.79%)    -0.60117 (  0.21%)    -0.55436
     205    234.09    -0.55080 ( 99.79%)    -0.59925 (  0.21%)    -0.55090
     206    234.54    -0.54977 ( 99.79%)    -0.59868 (  0.21%)    -0.54987
     207    236.44    -0.54548 ( 99.80%)    -0.59629 (  0.20%)    -0.54558
     208    237.38    -0.54335 ( 99.80%)    -0.59511 (  0.20%)    -0.54346
     209    238.57    -0.54069 ( 99.81%)    -0.59363 (  0.19%)    -0.54080
     210    239.75    -0.53807 ( 99.81%)    -0.59216 (  0.19%)    -0.53818
     211    241.03    -0.53525 ( 99.82%)    -0.59059 (  0.18%)    -0.53535
     212    243.84    -0.52912 ( 99.82%)    -0.58716 (  0.18%)    -0.52922
     213    244.68    -0.52730 ( 99.83%)    -0.58614 (  0.17%)    -0.52740
     214    245.64    -0.52524 ( 99.83%)    -0.58498 (  0.17%)    -0.52535
     215    247.65    -0.52094 ( 99.83%)    -0.58256 (  0.17%)    -0.52104
     216    247.98    -0.52024 ( 99.83%)    -0.58217 (  0.17%)    -0.52034
     217    249.05    -0.51796 ( 99.84%)    -0.58089 (  0.16%)    -0.51807
     218    251.13    -0.51361 ( 99.84%)    -0.57843 (  0.16%)    -0.51371
     219    253.27    -0.50915 ( 99.85%)    -0.57592 (  0.15%)    -0.50925
     220    256.97    -0.50157 ( 99.86%)    -0.57162 (  0.14%)    -0.50167
     221    259.33    -0.49681 ( 99.86%)    -0.56892 (  0.14%)    -0.49690
     222    260.02    -0.49541 ( 99.86%)    -0.56812 (  0.14%)    -0.49551
     223    262.11    -0.49125 ( 99.87%)    -0.56575 (  0.13%)    -0.49135
     224    264.63    -0.48630 ( 99.87%)    -0.56292 (  0.13%)    -0.48640
     225    265.36    -0.48486 ( 99.87%)    -0.56210 (  0.13%)    -0.48496
     226    265.62    -0.48436 ( 99.87%)    -0.56181 (  0.13%)    -0.48445
     227    267.37    -0.48095 ( 99.88%)    -0.55986 (  0.12%)    -0.48105
     228    269.08    -0.47766 ( 99.88%)    -0.55797 (  0.12%)    -0.47776
     229    271.08    -0.47385 ( 99.88%)    -0.55579 (  0.12%)    -0.47395
     230    273.14    -0.46996 ( 99.89%)    -0.55354 (  0.11%)    -0.47005
     231    274.73    -0.46699 ( 99.89%)    -0.55183 (  0.11%)    -0.46708
     232    275.08    -0.46632 ( 99.89%)    -0.55144 (  0.11%)    -0.46641
     233    277.18    -0.46243 ( 99.89%)    -0.54919 (  0.11%)    -0.46252
     234    281.02    -0.45542 ( 99.90%)    -0.54512 (  0.10%)    -0.45551
     235    282.02    -0.45361 ( 99.90%)    -0.54407 (  0.10%)    -0.45369
     236    283.73    -0.45053 ( 99.90%)    -0.54228 (  0.10%)    -0.45062
     237    285.73    -0.44697 ( 99.91%)    -0.54020 (  0.09%)    -0.44706
     238    286.25    -0.44603 ( 99.91%)    -0.53965 (  0.09%)    -0.44612
     239    286.39    -0.44580 ( 99.91%)    -0.53951 (  0.09%)    -0.44589
     240    290.80    -0.43808 ( 99.91%)    -0.53499 (  0.09%)    -0.43816
     241    294.86    -0.43109 ( 99.92%)    -0.53087 (  0.08%)    -0.43117
     242    295.43    -0.43013 ( 99.92%)    -0.53030 (  0.08%)    -0.43021
     243    296.68    -0.42802 ( 99.92%)    -0.52906 (  0.08%)    -0.42810
     244    297.78    -0.42616 ( 99.92%)    -0.52796 (  0.08%)    -0.42625
     245    298.46    -0.42501 ( 99.92%)    -0.52728 (  0.08%)    -0.42509
   ------------------------------------------------------------------------

   temp. (K)  partition function   enthalpy   heat capacity  entropy
                                   cal/mol     cal/K/mol   cal/K/mol   J/K/mol
 298.15  VIB  0.200+117           127261.107    588.683    861.666
         ROT  0.637E+09              888.752      2.981     43.268
         INT  0.127+126           128149.859    591.664    904.935
         TR   0.425E+29             1481.254      4.968     47.213
         TOT                      129631.1134   596.6324   952.1476  3983.7855

       T/K    H(0)-H(T)+PV         H(T)/Eh          T*S/Eh         G(T)/Eh
   ------------------------------------------------------------------------
    298.15    0.206580E+00    0.172909E+01    0.452396E+00    0.127669E+01
   ------------------------------------------------------------------------

         :::::::::::::::::::::::::::::::::::::::::::::::::::::
         ::                  THERMODYNAMIC                  ::
         :::::::::::::::::::::::::::::::::::::::::::::::::::::
         :: total free energy        -337.096180647405 Eh   ::
         ::.................................................::
         :: total energy             -338.372874502775 Eh   ::
         :: zero point energy           1.522509568125 Eh   ::
         :: G(RRHO) w/o ZPVE           -0.245815712755 Eh   ::
         :: G(RRHO) contrib.            1.276693855370 Eh   ::
         :::::::::::::::::::::::::::::::::::::::::::::::::::::

           -------------------------------------------------
          | TOTAL ENERGY             -338.372874502775 Eh   |
          | TOTAL ENTHALPY           -336.643784606070 Eh   |
          | TOTAL FREE ENERGY        -337.096180647405 Eh   |
          | GRADIENT NORM               0.000045419984 Eh/α |
          | HOMO-LUMO GAP               7.862575067984 eV   |
           -------------------------------------------------

------------------------------------------------------------------------
 * finished run on 2024/05/10 at 18:15:33.160     
------------------------------------------------------------------------
 total:
 * wall-time:     0 d,  0 h,  6 min, 38.965 sec
 *  cpu-time:     0 d,  0 h, 33 min, 42.729 sec
 * ratio c/w:     5.070 speedup
 SCF:
 * wall-time:     0 d,  0 h,  0 min,  0.351 sec
 *  cpu-time:     0 d,  0 h,  0 min,  2.565 sec
 * ratio c/w:     7.313 speedup
 analytical hessian:
 * wall-time:     0 d,  0 h,  6 min, 37.990 sec
 *  cpu-time:     0 d,  0 h, 33 min, 36.882 sec
 * ratio c/w:     5.068 speedup

