      -----------------------------------------------------------      
     |                   =====================                   |     
     |                           x T B                           |     
     |                   =====================                   |     
     |                         S. Grimme                         |     
     |          Mulliken Center for Theoretical Chemistry        |     
     |                    University of Bonn                     |     
      -----------------------------------------------------------      

   * xtb version 6.6.0 (conda-forge) compiled by 'runner@Mac-1676020848589.local' on 2023-02-10

   xtb is free software: you can redistribute it and/or modify it under
   the terms of the GNU Lesser General Public License as published by
   the Free Software Foundation, either version 3 of the License, or
   (at your option) any later version.
   
   xtb is distributed in the hope that it will be useful,
   but WITHOUT ANY WARRANTY; without even the implied warranty of
   MERCHANTABILITY or FITNESS FOR A PARTICULAR PURPOSE.  See the
   GNU Lesser General Public License for more details.
   
   Cite this work as:
   * C. Bannwarth, E. Caldeweyher, S. Ehlert, A. Hansen, P. Pracht,
     J. Seibert, S. Spicher, S. Grimme, WIREs Comput. Mol. Sci., 2020, 11,
     e01493. DOI: 10.1002/wcms.1493
   
   for GFN2-xTB:
   * C. Bannwarth, S. Ehlert and S. Grimme., J. Chem. Theory Comput., 2019,
     15, 1652-1671. DOI: 10.1021/acs.jctc.8b01176
   for GFN1-xTB:
   * S. Grimme, C. Bannwarth, P. Shushkov, J. Chem. Theory Comput., 2017,
     13, 1989-2009. DOI: 10.1021/acs.jctc.7b00118
   for GFN0-xTB:
   * P. Pracht, E. Caldeweyher, S. Ehlert, S. Grimme, ChemRxiv, 2019, preprint.
     DOI: 10.26434/chemrxiv.8326202.v1
   for GFN-FF:
   * S. Spicher and S. Grimme, Angew. Chem. Int. Ed., 2020, 59, 15665-15673.
     DOI: 10.1002/anie.202004239
   
   for ALPB and GBSA implicit solvation:
   * S. Ehlert, M. Stahn, S. Spicher, S. Grimme, J. Chem. Theory Comput.,
     2021, 17, 4250-4261. DOI: 10.1021/acs.jctc.1c00471
   
   for DFT-D4:
   * E. Caldeweyher, C. Bannwarth and S. Grimme, J. Chem. Phys., 2017,
     147, 034112. DOI: 10.1063/1.4993215
   * E. Caldeweyher, S. Ehlert, A. Hansen, H. Neugebauer, S. Spicher,
     C. Bannwarth and S. Grimme, J. Chem. Phys., 2019, 150, 154122.
     DOI: 10.1063/1.5090222
   * E. Caldeweyher, J.-M. Mewes, S. Ehlert and S. Grimme, Phys. Chem. Chem. Phys.
     2020, 22, 8499-8512. DOI: 10.1039/D0CP00502A
   
   for sTDA-xTB:
   * S. Grimme and C. Bannwarth, J. Chem. Phys., 2016, 145, 054103.
     DOI: 10.1063/1.4959605
   
   in the mass-spec context:
   * V. Asgeirsson, C. Bauer and S. Grimme, Chem. Sci., 2017, 8, 4879.
     DOI: 10.1039/c7sc00601b
   * J. Koopman and S. Grimme, ACS Omega 2019, 4, 12, 15120-15133.
     DOI: 10.1021/acsomega.9b02011
   
   for metadynamics refer to:
   * S. Grimme, J. Chem. Theory Comput., 2019, 155, 2847-2862
     DOI: 10.1021/acs.jctc.9b00143
   
   for SPH calculations refer to:
   * S. Spicher and S. Grimme, J. Chem. Theory Comput., 2021, 17, 1701-1714
     DOI: 10.1021/acs.jctc.0c01306
   
   with help from (in alphabetical order)
   P. Atkinson, C. Bannwarth, F. Bohle, G. Brandenburg, E. Caldeweyher
   M. Checinski, S. Dohm, S. Ehlert, S. Ehrlich, I. Gerasimov, C. Hölzer
   A. Katbashev, J. Koopman, C. Lavigne, S. Lehtola, F. März, M. Müller,
   F. Musil, H. Neugebauer, J. Pisarek, C. Plett, P. Pracht, F. Pultar,
   J. Seibert, P. Shushkov, S. Spicher, M. Stahn, M. Steiner, T. Strunk,
   J. Stückrath, T. Rose, and J. Unsleber
   
 * started run on 2024/05/10 at 18:05:42.204     

           -------------------------------------------------
          |                Calculation Setup                |
           -------------------------------------------------

          program call               : xtb Fe_39H2O_solvated_radius_9.xyz --opt extreme --gfn2 --chrg 3 --uhf 6 --alpb water
          coordinate file            : Fe_39H2O_solvated_radius_9.xyz
          omp threads                :                     8

   ID    Z sym.   atoms
    1   26 Fe     1
    2    8 O      2-7, 20-31, 56, 59, 62, 65, 68, 71, 74, 77, 80, 83, 86, 89,
                  92, 95, 98, 101, 104, 107, 110, 113, 116, 119, 122, 125,
                  128, 131, 134, 137, 140, 143, 146, 149, 152, 155, 158, 161,
                  164, 167, 170, 173, 176, 179, 182, 185, 188, 191, 194, 197
    3    1 H      8-19, 32-55, 57, 58, 60, 61, 63, 64, 66, 67, 69, 70, 72,
                  73, 75, 76, 78, 79, 81, 82, 84, 85, 87, 88, 90, 91, 93, 94,
                  96, 97, 99, 100, 102, 103, 105, 106, 108, 109, 111, 112,
                  114, 115, 117, 118, 120, 121, 123, 124, 126, 127, 129, 130,
                  132, 133, 135, 136, 138, 139, 141, 142, 144, 145, 147, 148,
                  150, 151, 153, 154, 156, 157, 159, 160, 162, 163, 165, 166,
                  168, 169, 171, 172, 174, 175, 177, 178, 180, 181, 183, 184,
                  186, 187, 189, 190, 192, 193, 195, 196, 198, 199

molecular fragmentation (1/2 indicates fragments):
111222222221222122222222222222222222222222222222222222222222222222222222
222222222222222222222222222222222222222222222222222222222222222222222222
2222222222222222222222222222222222222222222222222222222
# atoms in fragment 1/2:     5   194
 fragment masses (1/2) :       89.86     1154.99
CMA distance (Bohr)    :   0.974
constraining FC (au)   :  0.0500

           -------------------------------------------------
          |                 G F N 2 - x T B                 |
           -------------------------------------------------

        Reference                      10.1021/acs.jctc.8b01176
      * Hamiltonian:
        H0-scaling (s, p, d)           1.850000    2.230000    2.230000
        zeta-weighting                 0.500000
      * Dispersion:
        s8                             2.700000
        a1                             0.520000
        a2                             5.000000
        s9                             5.000000
      * Repulsion:
        kExp                           1.500000    1.000000
        rExp                           1.000000
      * Coulomb:
        alpha                          2.000000
        third order                    shell-resolved
        anisotropic                    true
        a3                             3.000000
        a5                             4.000000
        cn-shift                       1.200000
        cn-exp                         4.000000
        max-rad                        5.000000

      * Solvation model:               ALPB
        Solvent                        water
        Parameter file                 internal GFN2-xTB/ALPB
        Dielectric constant                8.0200E+01
        Reference state                gsolv [1 M gas/solution]
        Free energy shift                  1.0808E-03 Eh       6.7819E-01 kcal/mol
        Temperature                        2.9815E+02 K
        Density                            1.0000E+00 kg/L
        Solvent mass                       1.8000E+01 g/mol
        Interaction kernel             P16
        Born radius scaling (c1)           1.4744E+00
        Born radii integrator          GBOBC
        Born offset                        0.0000E+00 a0       0.0000E+00 AA
        H-bond correction              true
        Ion screening                  false
        Surface tension                    1.0000E-05 Eh       1.5569E+01 dyn/cm
        Grid points                               230 per atom

          ...................................................
          :                      SETUP                      :
          :.................................................:
          :  # basis functions                 406          :
          :  # atomic orbitals                 405          :
          :  # shells                          267          :
          :  # electrons                       533          :
          :  max. iterations                   250          :
          :  Hamiltonian                  GFN2-xTB          :
          :  restarted?                      false          :
          :  GBSA solvation                   true          :
          :  PC potential                    false          :
          :  electronic temp.          300.0000000     K    :
          :  accuracy                    1.0000000          :
          :  -> integral cutoff          0.2500000E+02      :
          :  -> integral neglect         0.1000000E-07      :
          :  -> SCF convergence          0.1000000E-05 Eh   :
          :  -> wf. convergence          0.1000000E-03 e    :
          :  Broyden damping             0.4000000          :
          ...................................................

 iter      E             dE          RMSdq      gap      omega  full diag
   1   -340.6323661 -0.340632E+03  0.467E+00    6.87       0.0  T
   2   -340.7437449 -0.111379E+00  0.270E+00    7.72       1.0  T
   3   -340.3332889  0.410456E+00  0.173E+00    8.39       1.0  T
   4   -340.2079569  0.125332E+00  0.195E+00    8.33       1.0  T
   5   -340.4977643 -0.289807E+00  0.138E+00    8.28       1.0  T
   6   -340.7831322 -0.285368E+00  0.643E-01    7.84       1.0  T
   7   -340.7818859  0.124626E-02  0.540E-01    7.75       1.0  T
   8   -340.7808571  0.102885E-02  0.345E-01    7.70       1.0  T
   9   -340.7823468 -0.148976E-02  0.277E-01    7.75       1.0  T
  10   -340.7846100 -0.226319E-02  0.245E-01    7.84       1.0  T
  11   -340.7858372 -0.122722E-02  0.189E-01    7.89       1.0  T
  12   -340.7878505 -0.201327E-02  0.885E-02    8.04       1.0  T
  13   -340.7881531 -0.302626E-03  0.689E-02    8.07       1.0  T
  14   -340.7883299 -0.176721E-03  0.686E-02    8.10       1.0  T
  15   -340.7884342 -0.104360E-03  0.590E-02    8.14       1.0  T
  16   -340.7885753 -0.141067E-03  0.186E-02    8.13       1.0  T
  17   -340.7886077 -0.323837E-04  0.102E-02    8.15       1.0  T
  18   -340.7886134 -0.576211E-05  0.314E-03    8.15       2.3  T
  19   -340.7886093  0.410813E-05  0.636E-03    8.15       1.1  T
  20   -340.7886136 -0.423600E-05  0.143E-03    8.15       5.0  T
  21   -340.7886137 -0.178090E-06  0.731E-04    8.15       9.7  T
  22   -340.7886137 -0.981453E-08  0.540E-04    8.15      13.1  T

   *** convergence criteria satisfied after 22 iterations ***

         #    Occupation            Energy/Eh            Energy/eV
      -------------------------------------------------------------
         1        2.0000           -0.6882242             -18.7275
       ...           ...                  ...                  ...
       263        2.0000           -0.3620330              -9.8514
       264        1.9671           -0.3466670              -9.4333
       265        1.0322           -0.3402212              -9.2579
       266        1.0007           -0.3365785              -9.1588
       267        1.0000           -0.3250193              -8.8442
       268        1.0000           -0.3177526              -8.6465
       269        1.0000           -0.3133294              -8.5261 (HOMO)
       270                         -0.0139272              -0.3790 (LUMO)
       271                          0.0247306               0.6730
       272                          0.0501103               1.3636
       273                          0.0597256               1.6252
       274                          0.0735837               2.0023
       ...                                ...                  ...
       405                          1.1759902              32.0003
      -------------------------------------------------------------
                  HL-Gap            0.2994023 Eh            8.1472 eV
             Fermi-level           -0.2535416 Eh           -6.8992 eV

 SCC (total)                   0 d,  0 h,  0 min,  0.985 sec
 SCC setup                      ...        0 min,  0.012 sec (  1.252%)
 Dispersion                     ...        0 min,  0.006 sec (  0.593%)
 classical contributions        ...        0 min,  0.001 sec (  0.102%)
 integral evaluation            ...        0 min,  0.020 sec (  1.985%)
 iterations                     ...        0 min,  0.777 sec ( 78.924%)
 molecular gradient             ...        0 min,  0.166 sec ( 16.828%)
 printout                       ...        0 min,  0.003 sec (  0.313%)

         :::::::::::::::::::::::::::::::::::::::::::::::::::::
         ::                     SUMMARY                     ::
         :::::::::::::::::::::::::::::::::::::::::::::::::::::
         :: total energy            -337.374566079996 Eh    ::
         :: total w/o Gsasa/hb      -337.004829405029 Eh    ::
         :: gradient norm              0.869376953290 Eh/a0 ::
         :: HOMO-LUMO gap              8.147150166858 eV    ::
         ::.................................................::
         :: SCC energy              -340.788613742263 Eh    ::
         :: -> isotropic ES            2.845624753749 Eh    ::
         :: -> anisotropic ES         -0.144652581099 Eh    ::
         :: -> anisotropic XC         -0.055549298321 Eh    ::
         :: -> dispersion             -0.072955632153 Eh    ::
         :: -> Gsolv                  -1.198851073943 Eh    ::
         ::    -> Gelec               -0.829114398975 Eh    ::
         ::    -> Gsasa                0.056085935625 Eh    ::
         ::    -> Ghb                 -0.426903370290 Eh    ::
         ::    -> Gshift               0.001080759698 Eh    ::
         :: repulsion energy           3.409523269249 Eh    ::
         :: add. restraining           0.000000000000 Eh    ::
         :: total charge               3.000000000001 e     ::
         :::::::::::::::::::::::::::::::::::::::::::::::::::::

      ----------------------------------------------------------- 
     |                   =====================                   |
     |                        A N C O P T                        |
     |                   =====================                   |
     |               Approximate Normal Coordinate               |
     |                Rational Function Optimizer                |
      ----------------------------------------------------------- 

          ...................................................
          :                      SETUP                      :
          :.................................................:
          :   optimization level           extreme          :
          :   max. optcycles                  3980          :
          :   ANC micro-cycles                  20          :
          :   degrees of freedom               591          :
          :.................................................:
          :   RF solver                   davidson          :
          :   write xtbopt.log                true          :
          :   linear?                        false          :
          :   energy convergence         0.5000000E-07 Eh   :
          :   grad. convergence          0.5000000E-04 Eh/α :
          :   maxmium RF displ.          1.0000000          :
          :   Hlow (freq-cutoff)         0.1000000E-01      :
          :   Hmax (freq-cutoff)         5.0000000          :
          :   S6 in model hess.         20.0000000          :
          ...................................................

generating ANC from model Hessian ...
Using Lindh-Hessian (1995)
 Shifting diagonal of input Hessian by    1.0461787575079554E-002
 Lowest  eigenvalues of input Hessian
    0.010000    0.010042    0.010139    0.010145    0.010150    0.010172
    0.010199    0.010225    0.010227    0.010234    0.010240    0.010248
    0.010252    0.010261    0.010262    0.010264    0.010266    0.010269
 Highest eigenvalues
    1.709648    1.711623    1.715426    1.715583    1.716546    1.742320


........................................................................
.............................. CYCLE    1 ..............................
........................................................................

 iter      E             dE          RMSdq      gap      omega  full diag
   1   -340.7886138 -0.340789E+03  0.288E-04    8.15       0.0  T
   2   -340.7886137  0.234985E-07  0.542E-04    8.15      13.1  T
   3   -340.7886138 -0.324360E-07  0.160E-05    8.15     444.1  T
     SCC iter.                  ...        0 min,  0.088 sec
     gradient                   ...        0 min,  0.164 sec
 * total energy  :  -337.3745661 Eh     change       -0.3856127E-07 Eh
   gradient norm :     0.8693339 Eh/α   predicted     0.0000000E+00 (-100.00%)
   displ. norm   :     0.6690722 α      lambda       -0.5192586E+00
   maximum displ.:     0.1810348 α      in ANC's #392, #390, #387, ...

........................................................................
.............................. CYCLE    2 ..............................
........................................................................

 iter      E             dE          RMSdq      gap      omega  full diag
   1   -340.3990789 -0.340399E+03  0.246E-01    8.13       0.0  T
   2   -340.3993689 -0.290040E-03  0.144E-01    8.18       1.0  T
   3   -340.3994611 -0.921303E-04  0.278E-02    8.18       1.0  T
   4   -340.3994754 -0.143300E-04  0.127E-02    8.19       1.0  T
   5   -340.3994778 -0.245772E-05  0.440E-03    8.19       1.6  T
   6   -340.3994779 -0.952119E-07  0.196E-03    8.19       3.6  T
   7   -340.3994780 -0.307876E-07  0.417E-04    8.19      17.0  T
   8   -340.3994780 -0.252140E-08  0.934E-05    8.19      75.9  T
     SCC iter.                  ...        0 min,  0.191 sec
     gradient                   ...        0 min,  0.162 sec
 * total energy  :  -337.7238028 Eh     change       -0.3492367E+00 Eh
   gradient norm :     0.3933462 Eh/α   predicted    -0.3758660E+00 (   7.62%)
   displ. norm   :     0.6419659 α      lambda       -0.1955137E+00
   maximum displ.:     0.1928000 α      in ANC's #386, #392, #390, ...

........................................................................
.............................. CYCLE    3 ..............................
........................................................................

 iter      E             dE          RMSdq      gap      omega  full diag
   1   -340.0992106 -0.340099E+03  0.206E-01    8.15       0.0  T
   2   -340.0994677 -0.257195E-03  0.119E-01    8.16       1.0  T
   3   -340.0995529 -0.851566E-04  0.208E-02    8.16       1.0  T
   4   -340.0995595 -0.655195E-05  0.683E-03    8.16       1.0  T
   5   -340.0995599 -0.468408E-06  0.319E-03    8.16       2.2  T
   6   -340.0995600 -0.688545E-07  0.772E-04    8.16       9.2  T
   7   -340.0995600 -0.107558E-07  0.127E-04    8.16      55.9  T
     SCC iter.                  ...        0 min,  0.209 sec
     gradient                   ...        0 min,  0.156 sec
 * total energy  :  -337.8515816 Eh     change       -0.1277787E+00 Eh
   gradient norm :     0.1088801 Eh/α   predicted    -0.1380485E+00 (   8.04%)
   displ. norm   :     0.7425147 α      lambda       -0.6948313E-01
   maximum displ.:     0.2167760 α      in ANC's #386, #375, #387, ...

........................................................................
.............................. CYCLE    4 ..............................
........................................................................

 iter      E             dE          RMSdq      gap      omega  full diag
   1   -340.0843826 -0.340084E+03  0.113E-01    8.10       0.0  T
   2   -340.0844456 -0.629746E-04  0.666E-02    8.11       1.0  T
   3   -340.0844631 -0.174981E-04  0.128E-02    8.11       1.0  T
   4   -340.0844643 -0.128110E-05  0.429E-03    8.12       1.7  T
   5   -340.0844647 -0.353650E-06  0.143E-03    8.12       4.9  T
   6   -340.0844647 -0.163213E-07  0.581E-04    8.12      12.2  T
   7   -340.0844647 -0.419993E-08  0.161E-04    8.12      44.0  T
     SCC iter.                  ...        0 min,  0.173 sec
     gradient                   ...        0 min,  0.165 sec
 * total energy  :  -337.9080921 Eh     change       -0.5651056E-01 Eh
   gradient norm :     0.0719828 Eh/α   predicted    -0.5389559E-01 (  -4.63%)
   displ. norm   :     0.7753051 α      lambda       -0.4634950E-01
   maximum displ.:     0.1867840 α      in ANC's #386, #304, #307, ...

........................................................................
.............................. CYCLE    5 ..............................
........................................................................

 iter      E             dE          RMSdq      gap      omega  full diag
   1   -340.0979763 -0.340098E+03  0.100E-01    8.04       0.0  T
   2   -340.0980207 -0.443360E-04  0.598E-02    8.06       1.0  T
   3   -340.0980330 -0.122939E-04  0.137E-02    8.07       1.0  T
   4   -340.0980343 -0.130904E-05  0.371E-03    8.07       1.9  T
   5   -340.0980346 -0.304532E-06  0.123E-03    8.07       5.8  T
   6   -340.0980346 -0.117474E-07  0.506E-04    8.07      14.0  T
   7   -340.0980346 -0.324485E-08  0.147E-04    8.07      48.4  T
     SCC iter.                  ...        0 min,  0.176 sec
     gradient                   ...        0 min,  0.161 sec
 * total energy  :  -337.9474703 Eh     change       -0.3937814E-01 Eh
   gradient norm :     0.0657575 Eh/α   predicted    -0.3710510E-01 (  -5.77%)
   displ. norm   :     0.7983640 α      lambda       -0.3589384E-01
   maximum displ.:     0.1663185 α      in ANC's #386, #324, #304, ...

........................................................................
.............................. CYCLE    6 ..............................
........................................................................

 iter      E             dE          RMSdq      gap      omega  full diag
   1   -340.1366866 -0.340137E+03  0.901E-02    8.01       0.0  T
   2   -340.1367209 -0.343013E-04  0.539E-02    8.03       1.0  T
   3   -340.1367300 -0.916514E-05  0.132E-02    8.03       1.0  T
   4   -340.1367311 -0.109960E-05  0.314E-03    8.03       2.3  T
   5   -340.1367313 -0.210756E-06  0.109E-03    8.03       6.5  T
   6   -340.1367313 -0.811980E-08  0.459E-04    8.03      15.4  T
   7   -340.1367313 -0.264316E-08  0.116E-04    8.03      60.9  T
     SCC iter.                  ...        0 min,  0.168 sec
     gradient                   ...        0 min,  0.157 sec
 * total energy  :  -337.9784224 Eh     change       -0.3095218E-01 Eh
   gradient norm :     0.0532245 Eh/α   predicted    -0.2938602E-01 (  -5.06%)
   displ. norm   :     0.8576976 α      lambda       -0.3026783E-01
   maximum displ.:     0.1768586 α      in ANC's #1, #386, #313, ...

........................................................................
.............................. CYCLE    7 ..............................
........................................................................

 iter      E             dE          RMSdq      gap      omega  full diag
   1   -340.1488976 -0.340149E+03  0.122E-01    7.99       0.0  T
   2   -340.1489505 -0.528826E-04  0.741E-02    8.00       1.0  T
   3   -340.1489680 -0.175298E-04  0.115E-02    8.00       1.0  T
   4   -340.1489695 -0.142962E-05  0.404E-03    8.01       1.8  T
   5   -340.1489698 -0.282616E-06  0.133E-03    8.00       5.3  T
   6   -340.1489698 -0.112156E-07  0.531E-04    8.00      13.4  T
   7   -340.1489698 -0.369170E-08  0.115E-04    8.00      61.9  T
     SCC iter.                  ...        0 min,  0.164 sec
     gradient                   ...        0 min,  0.163 sec
 * total energy  :  -338.0015585 Eh     change       -0.2313611E-01 Eh
   gradient norm :     0.0847725 Eh/α   predicted    -0.2626710E-01 (  13.53%)
   displ. norm   :     0.8560224 α      lambda       -0.3423277E-01
   maximum displ.:     0.1617689 α      in ANC's #386, #387, #313, ...

........................................................................
.............................. CYCLE    8 ..............................
........................................................................

 iter      E             dE          RMSdq      gap      omega  full diag
   1   -340.1922239 -0.340192E+03  0.132E-01    7.97       0.0  T
   2   -340.1922925 -0.686219E-04  0.799E-02    7.98       1.0  T
   3   -340.1923179 -0.253725E-04  0.121E-02    7.99       1.0  T
   4   -340.1923194 -0.156101E-05  0.510E-03    7.99       1.4  T
   5   -340.1923198 -0.362961E-06  0.152E-03    7.99       4.7  T
   6   -340.1923198 -0.115879E-07  0.577E-04    7.99      12.3  T
   7   -340.1923198 -0.314105E-08  0.100E-04    7.99      70.7  T
     SCC iter.                  ...        0 min,  0.169 sec
     gradient                   ...        0 min,  0.169 sec
 * total energy  :  -338.0233973 Eh     change       -0.2183873E-01 Eh
   gradient norm :     0.0695458 Eh/α   predicted    -0.2965883E-01 (  35.81%)
   displ. norm   :     0.7977236 α      lambda       -0.2155567E-01
   maximum displ.:     0.1343072 α      in ANC's #273, #271, #324, ...

........................................................................
.............................. CYCLE    9 ..............................
........................................................................

 iter      E             dE          RMSdq      gap      omega  full diag
   1   -340.2007790 -0.340201E+03  0.105E-01    7.96       0.0  T
   2   -340.2008097 -0.307535E-04  0.638E-02    7.96       1.0  T
   3   -340.2008232 -0.134581E-04  0.690E-03    7.96       1.0  T
   4   -340.2008239 -0.701371E-06  0.293E-03    7.96       2.4  T
   5   -340.2008240 -0.937382E-07  0.103E-03    7.96       6.9  T
   6   -340.2008240 -0.107928E-07  0.279E-04    7.96      25.4  T
   7   -340.2008240 -0.143189E-08  0.829E-05    7.96      85.5  T
     SCC iter.                  ...        0 min,  0.166 sec
     gradient                   ...        0 min,  0.163 sec
 * total energy  :  -338.0401896 Eh     change       -0.1679231E-01 Eh
   gradient norm :     0.0697435 Eh/α   predicted    -0.1763648E-01 (   5.03%)
   displ. norm   :     0.8300462 α      lambda       -0.2458541E-01
   maximum displ.:     0.1775786 α      in ANC's #315, #313, #297, ...

........................................................................
.............................. CYCLE   10 ..............................
........................................................................

 iter      E             dE          RMSdq      gap      omega  full diag
   1   -340.2081403 -0.340208E+03  0.136E-01    7.96       0.0  T
   2   -340.2082087 -0.684756E-04  0.825E-02    7.96       1.0  T
   3   -340.2082365 -0.277595E-04  0.109E-02    7.96       1.0  T
   4   -340.2082382 -0.175436E-05  0.447E-03    7.96       1.6  T
   5   -340.2082385 -0.239939E-06  0.158E-03    7.96       4.5  T
   6   -340.2082385 -0.247969E-07  0.299E-04    7.96      23.7  T
   7   -340.2082385 -0.144155E-08  0.107E-04    7.96      66.5  T
     SCC iter.                  ...        0 min,  0.175 sec
     gradient                   ...        0 min,  0.171 sec
 * total energy  :  -338.0546944 Eh     change       -0.1450483E-01 Eh
   gradient norm :     0.0851014 Eh/α   predicted    -0.2076208E-01 (  43.14%)
   displ. norm   :     0.6913048 α      lambda       -0.1979663E-01
   maximum displ.:     0.1686238 α      in ANC's #202, #295, #273, ...

........................................................................
.............................. CYCLE   11 ..............................
........................................................................

 iter      E             dE          RMSdq      gap      omega  full diag
   1   -340.2400243 -0.340240E+03  0.113E-01    8.00       0.0  T
   2   -340.2400735 -0.492089E-04  0.682E-02    8.00       1.0  T
   3   -340.2400931 -0.195871E-04  0.951E-03    8.00       1.0  T
   4   -340.2400944 -0.131331E-05  0.399E-03    8.00       1.8  T
   5   -340.2400946 -0.226019E-06  0.137E-03    8.00       5.2  T
   6   -340.2400946 -0.221654E-07  0.349E-04    8.00      20.3  T
   7   -340.2400946 -0.231694E-08  0.105E-04    8.00      67.3  T
     SCC iter.                  ...        0 min,  0.166 sec
     gradient                   ...        0 min,  0.163 sec
 * total energy  :  -338.0668937 Eh     change       -0.1219923E-01 Eh
   gradient norm :     0.0885900 Eh/α   predicted    -0.1462875E-01 (  19.92%)
   displ. norm   :     0.7350241 α      lambda       -0.3039785E-01
   maximum displ.:     0.1631731 α      in ANC's #177, #356, #291, ...

........................................................................
.............................. CYCLE   12 ..............................
........................................................................

 iter      E             dE          RMSdq      gap      omega  full diag
   1   -340.3339901 -0.340334E+03  0.189E-01    8.08       0.0  T
   2   -340.3341769 -0.186812E-03  0.112E-01    8.07       1.0  T
   3   -340.3342487 -0.717855E-04  0.190E-02    8.07       1.0  T
   4   -340.3342531 -0.437930E-05  0.811E-03    8.06       1.0  T
   5   -340.3342539 -0.832813E-06  0.244E-03    8.07       2.9  T
   6   -340.3342540 -0.443221E-07  0.652E-04    8.07      10.9  T
   7   -340.3342540 -0.495015E-08  0.145E-04    8.07      48.9  T
     SCC iter.                  ...        0 min,  0.169 sec
     gradient                   ...        0 min,  0.156 sec
 * total energy  :  -338.0612904 Eh     change        0.5603286E-02 Eh
   gradient norm :     0.1905263 Eh/α   predicted    -0.2341033E-01 (-517.80%)
   displ. norm   :     0.4779730 α      lambda       -0.4404261E-01
   maximum displ.:     0.1544681 α      in ANC's #315, #202, #313, ...

........................................................................
.............................. CYCLE   13 ..............................
........................................................................

 iter      E             dE          RMSdq      gap      omega  full diag
   1   -340.1844829 -0.340184E+03  0.150E-01    8.00       0.0  T
   2   -340.1846110 -0.128007E-03  0.884E-02    8.01       1.0  T
   3   -340.1846596 -0.486218E-04  0.149E-02    8.01       1.0  T
   4   -340.1846636 -0.398708E-05  0.389E-03    8.01       1.8  T
   5   -340.1846637 -0.127085E-06  0.190E-03    8.01       3.7  T
   6   -340.1846637 -0.487208E-07  0.304E-04    8.01      23.3  T
   7   -340.1846637 -0.190278E-08  0.136E-04    8.01      52.1  T
     SCC iter.                  ...        0 min,  0.192 sec
     gradient                   ...        0 min,  0.163 sec
 * total energy  :  -338.0804912 Eh     change       -0.1920083E-01 Eh
   gradient norm :     0.1086396 Eh/α   predicted    -0.2705226E-01 (  40.89%)
   displ. norm   :     0.6604732 α      lambda       -0.3534752E-01
   maximum displ.:     0.1520749 α      in ANC's #315, #1, #260, ...

........................................................................
.............................. CYCLE   14 ..............................
........................................................................

 iter      E             dE          RMSdq      gap      omega  full diag
   1   -340.2915035 -0.340292E+03  0.212E-01    7.99       0.0  T
   2   -340.2917638 -0.260298E-03  0.125E-01    7.99       1.0  T
   3   -340.2918644 -0.100603E-03  0.214E-02    7.99       1.0  T
   4   -340.2918722 -0.772395E-05  0.592E-03    7.99       1.2  T
   5   -340.2918724 -0.279205E-06  0.308E-03    7.99       2.3  T
   6   -340.2918725 -0.960714E-07  0.517E-04    7.99      13.7  T
   7   -340.2918725 -0.460938E-08  0.180E-04    7.99      39.5  T
     SCC iter.                  ...        0 min,  0.218 sec
     gradient                   ...        0 min,  0.156 sec
 * total energy  :  -338.0634897 Eh     change        0.1700148E-01 Eh
   gradient norm :     0.2089842 Eh/α   predicted    -0.2538350E-01 (-249.30%)
   displ. norm   :     0.4584875 α      lambda       -0.5248955E-01
   maximum displ.:     0.1543304 α      in ANC's #315, #313, #277, ...

........................................................................
.............................. CYCLE   15 ..............................
........................................................................

 iter      E             dE          RMSdq      gap      omega  full diag
   1   -340.2812664 -0.340281E+03  0.155E-01    8.03       0.0  T
   2   -340.2814005 -0.134150E-03  0.919E-02    8.03       1.0  T
   3   -340.2814559 -0.554067E-04  0.153E-02    8.03       1.0  T
   4   -340.2814602 -0.422366E-05  0.390E-03    8.03       1.8  T
   5   -340.2814603 -0.119973E-06  0.168E-03    8.03       4.2  T
   6   -340.2814603 -0.373102E-07  0.238E-04    8.03      29.8  T
   7   -340.2814603 -0.101568E-08  0.133E-04    8.03      53.3  T
     SCC iter.                  ...        0 min,  0.169 sec
     gradient                   ...        0 min,  0.161 sec
 * total energy  :  -338.0883310 Eh     change       -0.2484130E-01 Eh
   gradient norm :     0.1033835 Eh/α   predicted    -0.3176174E-01 (  27.86%)
   displ. norm   :     0.7586756 α      lambda       -0.4474040E-01
   maximum displ.:     0.2014688 α      in ANC's #133, #177, #291, ...

........................................................................
.............................. CYCLE   16 ..............................
........................................................................

 iter      E             dE          RMSdq      gap      omega  full diag
   1   -340.1614620 -0.340161E+03  0.261E-01    8.03       0.0  T
   2   -340.1618572 -0.395226E-03  0.154E-01    8.03       1.0  T
   3   -340.1620045 -0.147308E-03  0.263E-02    8.03       1.0  T
   4   -340.1620164 -0.119127E-04  0.665E-03    8.03       1.1  T
   5   -340.1620167 -0.316773E-06  0.310E-03    8.03       2.3  T
   6   -340.1620169 -0.104880E-06  0.557E-04    8.03      12.7  T
   7   -340.1620169 -0.582622E-08  0.212E-04    8.03      33.5  T
     SCC iter.                  ...        0 min,  0.165 sec
     gradient                   ...        0 min,  0.165 sec
 * total energy  :  -338.0579363 Eh     change        0.3039474E-01 Eh
   gradient norm :     0.2557899 Eh/α   predicted    -0.3524626E-01 (-215.96%)
   displ. norm   :     0.4156158 α      lambda       -0.7220718E-01
   maximum displ.:     0.1198371 α      in ANC's #313, #133, #177, ...

........................................................................
.............................. CYCLE   17 ..............................
........................................................................

 iter      E             dE          RMSdq      gap      omega  full diag
   1   -340.2542133 -0.340254E+03  0.158E-01    8.04       0.0  T
   2   -340.2543628 -0.149498E-03  0.927E-02    8.04       1.0  T
   3   -340.2544199 -0.570273E-04  0.161E-02    8.04       1.0  T
   4   -340.2544243 -0.448338E-05  0.416E-03    8.04       1.7  T
   5   -340.2544245 -0.119891E-06  0.219E-03    8.04       3.2  T
   6   -340.2544245 -0.474634E-07  0.253E-04    8.04      28.1  T
   7   -340.2544245 -0.108076E-08  0.108E-04    8.04      65.9  T
     SCC iter.                  ...        0 min,  0.168 sec
     gradient                   ...        0 min,  0.168 sec
 * total energy  :  -338.0997573 Eh     change       -0.4182105E-01 Eh
   gradient norm :     0.0658957 Eh/α   predicted    -0.4233998E-01 (   1.24%)
   displ. norm   :     0.7734201 α      lambda       -0.2715758E-01
   maximum displ.:     0.1830540 α      in ANC's #202, #16, #291, ...

........................................................................
.............................. CYCLE   18 ..............................
........................................................................

 iter      E             dE          RMSdq      gap      omega  full diag
   1   -340.2343984 -0.340234E+03  0.232E-01    8.01       0.0  T
   2   -340.2347080 -0.309524E-03  0.138E-01    8.00       1.0  T
   3   -340.2348389 -0.130890E-03  0.234E-02    8.00       1.0  T
   4   -340.2348489 -0.100088E-04  0.713E-03    8.00       1.0  T
   5   -340.2348493 -0.468901E-06  0.362E-03    8.00       2.0  T
   6   -340.2348495 -0.166344E-06  0.490E-04    8.00      14.5  T
   7   -340.2348495 -0.529735E-08  0.192E-04    8.00      36.9  T
     SCC iter.                  ...        0 min,  0.164 sec
     gradient                   ...        0 min,  0.169 sec
 * total energy  :  -338.0636154 Eh     change        0.3614198E-01 Eh
   gradient norm :     0.2573478 Eh/α   predicted    -0.2170133E-01 (-160.04%)
   displ. norm   :     0.4339361 α      lambda       -0.7594381E-01
   maximum displ.:     0.1075968 α      in ANC's #313, #197, #195, ...

........................................................................
.............................. CYCLE   19 ..............................
........................................................................

 iter      E             dE          RMSdq      gap      omega  full diag
   1   -340.2686648 -0.340269E+03  0.160E-01    8.03       0.0  T
   2   -340.2688182 -0.153354E-03  0.945E-02    8.04       1.0  T
   3   -340.2688840 -0.658431E-04  0.164E-02    8.04       1.0  T
   4   -340.2688889 -0.489458E-05  0.426E-03    8.04       1.7  T
   5   -340.2688890 -0.140232E-06  0.185E-03    8.04       3.8  T
   6   -340.2688891 -0.409099E-07  0.234E-04    8.04      30.3  T
   7   -340.2688891 -0.103552E-08  0.127E-04    8.04      55.7  T
     SCC iter.                  ...        0 min,  0.171 sec
     gradient                   ...        0 min,  0.157 sec
 * total energy  :  -338.1080059 Eh     change       -0.4439057E-01 Eh
   gradient norm :     0.0763404 Eh/α   predicted    -0.4512206E-01 (   1.65%)
   displ. norm   :     0.7646292 α      lambda       -0.2797008E-01
   maximum displ.:     0.2038136 α      in ANC's #202, #180, #177, ...

........................................................................
.............................. CYCLE   20 ..............................
........................................................................

 iter      E             dE          RMSdq      gap      omega  full diag
   1   -340.2405478 -0.340241E+03  0.249E-01    8.05       0.0  T
   2   -340.2409098 -0.362057E-03  0.147E-01    8.05       1.0  T
   3   -340.2410554 -0.145530E-03  0.253E-02    8.06       1.0  T
   4   -340.2410667 -0.113771E-04  0.622E-03    8.06       1.1  T
   5   -340.2410671 -0.366514E-06  0.214E-03    8.06       3.3  T
   6   -340.2410672 -0.620606E-07  0.437E-04    8.06      16.2  T
   7   -340.2410672 -0.418731E-08  0.202E-04    8.06      35.1  T
     SCC iter.                  ...        0 min,  0.185 sec
     gradient                   ...        0 min,  0.171 sec
 * total energy  :  -338.0644254 Eh     change        0.4358051E-01 Eh
   gradient norm :     0.2850128 Eh/α   predicted    -0.2216152E-01 (-150.85%)
   displ. norm   :     0.4447744 α      lambda       -0.8668622E-01
   maximum displ.:     0.1625320 α      in ANC's #315, #202, #291, ...
 * RMSD in coord.:     0.6076701 α      energy gain  -0.6898593E+00 Eh

generating ANC from model Hessian ...
Using Lindh-Hessian (1995)
 Shifting diagonal of input Hessian by    1.0626101098746893E-002
 Lowest  eigenvalues of input Hessian
    0.010000    0.010156    0.010192    0.010283    0.010306    0.010359
    0.010375    0.010396    0.010398    0.010401    0.010429    0.010456
    0.010461    0.010464    0.010469    0.010472    0.010478    0.010479
 Highest eigenvalues
    1.456033    1.457019    1.467770    1.473681    1.487944    1.533775


........................................................................
.............................. CYCLE   21 ..............................
........................................................................

 iter      E             dE          RMSdq      gap      omega  full diag
   1   -340.2687581 -0.340269E+03  0.170E-01    8.05       0.0  T
   2   -340.2689323 -0.174192E-03  0.100E-01    8.05       1.0  T
   3   -340.2690056 -0.733584E-04  0.175E-02    8.05       1.0  T
   4   -340.2690112 -0.556099E-05  0.437E-03    8.05       1.6  T
   5   -340.2690114 -0.182953E-06  0.121E-03    8.05       5.9  T
   6   -340.2690114 -0.213975E-07  0.244E-04    8.05      29.1  T
   7   -340.2690114 -0.118973E-08  0.140E-04    8.05      50.5  T
     SCC iter.                  ...        0 min,  0.165 sec
     gradient                   ...        0 min,  0.170 sec
 * total energy  :  -338.1129769 Eh     change       -0.4855153E-01 Eh
   gradient norm :     0.0905693 Eh/α   predicted     0.0000000E+00 (-100.00%)
   displ. norm   :     0.6210680 α      lambda       -0.1810279E-01
   maximum displ.:     0.1322946 α      in ANC's #7, #217, #9, ...

........................................................................
.............................. CYCLE   22 ..............................
........................................................................

 iter      E             dE          RMSdq      gap      omega  full diag
   1   -340.2826503 -0.340283E+03  0.126E-01    8.05       0.0  T
   2   -340.2826784 -0.280641E-04  0.775E-02    8.06       1.0  T
   3   -340.2826930 -0.146099E-04  0.562E-03    8.06       1.3  T
   4   -340.2826934 -0.438025E-06  0.257E-03    8.06       2.8  T
   5   -340.2826935 -0.589835E-07  0.832E-04    8.06       8.5  T
   6   -340.2826935 -0.811542E-08  0.220E-04    8.06      32.2  T
     SCC iter.                  ...        0 min,  0.196 sec
     gradient                   ...        0 min,  0.159 sec
 * total energy  :  -338.1276831 Eh     change       -0.1470620E-01 Eh
   gradient norm :     0.0439772 Eh/α   predicted    -0.1254479E-01 ( -14.70%)
   displ. norm   :     0.7571542 α      lambda       -0.1445226E-01
   maximum displ.:     0.1241761 α      in ANC's #1, #165, #282, ...

........................................................................
.............................. CYCLE   23 ..............................
........................................................................

 iter      E             dE          RMSdq      gap      omega  full diag
   1   -340.2807818 -0.340281E+03  0.128E-01    8.05       0.0  T
   2   -340.2808121 -0.302346E-04  0.789E-02    8.05       1.0  T
   3   -340.2808279 -0.158338E-04  0.620E-03    8.05       1.1  T
   4   -340.2808284 -0.503909E-06  0.297E-03    8.05       2.4  T
   5   -340.2808285 -0.985219E-07  0.939E-04    8.05       7.6  T
   6   -340.2808285 -0.120888E-07  0.245E-04    8.05      29.0  T
     SCC iter.                  ...        0 min,  0.143 sec
     gradient                   ...        0 min,  0.166 sec
 * total energy  :  -338.1390916 Eh     change       -0.1140842E-01 Eh
   gradient norm :     0.0513032 Eh/α   predicted    -0.1136880E-01 (  -0.35%)
   displ. norm   :     0.7840452 α      lambda       -0.1184941E-01
   maximum displ.:     0.1598627 α      in ANC's #7, #1, #197, ...

........................................................................
.............................. CYCLE   24 ..............................
........................................................................

 iter      E             dE          RMSdq      gap      omega  full diag
   1   -340.2753903 -0.340275E+03  0.116E-01    8.05       0.0  T
   2   -340.2754186 -0.283615E-04  0.710E-02    8.05       1.0  T
   3   -340.2754303 -0.116230E-04  0.609E-03    8.05       1.2  T
   4   -340.2754311 -0.785427E-06  0.231E-03    8.05       3.1  T
   5   -340.2754311 -0.717415E-07  0.946E-04    8.05       7.5  T
   6   -340.2754311 -0.120131E-07  0.236E-04    8.05      30.0  T
     SCC iter.                  ...        0 min,  0.142 sec
     gradient                   ...        0 min,  0.163 sec
 * total energy  :  -338.1488539 Eh     change       -0.9762340E-02 Eh
   gradient norm :     0.0660991 Eh/α   predicted    -0.9566810E-02 (  -2.00%)
   displ. norm   :     0.7908285 α      lambda       -0.1482883E-01
   maximum displ.:     0.1604472 α      in ANC's #1, #232, #197, ...

........................................................................
.............................. CYCLE   25 ..............................
........................................................................

 iter      E             dE          RMSdq      gap      omega  full diag
   1   -340.3007357 -0.340301E+03  0.117E-01    8.06       0.0  T
   2   -340.3007667 -0.309333E-04  0.711E-02    8.06       1.0  T
   3   -340.3007805 -0.137906E-04  0.684E-03    8.06       1.0  T
   4   -340.3007813 -0.801213E-06  0.298E-03    8.06       2.4  T
   5   -340.3007814 -0.121263E-06  0.107E-03    8.06       6.6  T
   6   -340.3007814 -0.165957E-07  0.256E-04    8.06      27.7  T
   7   -340.3007814 -0.150499E-08  0.912E-05    8.06      77.8  T
     SCC iter.                  ...        0 min,  0.176 sec
     gradient                   ...        0 min,  0.170 sec
 * total energy  :  -338.1589250 Eh     change       -0.1007112E-01 Eh
   gradient norm :     0.0630406 Eh/α   predicted    -0.1205146E-01 (  19.66%)
   displ. norm   :     0.7252345 α      lambda       -0.1401245E-01
   maximum displ.:     0.1312329 α      in ANC's #274, #165, #1, ...

........................................................................
.............................. CYCLE   26 ..............................
........................................................................

 iter      E             dE          RMSdq      gap      omega  full diag
   1   -340.3433541 -0.340343E+03  0.118E-01    8.09       0.0  T
   2   -340.3433971 -0.430157E-04  0.716E-02    8.09       1.0  T
   3   -340.3434164 -0.192504E-04  0.835E-03    8.09       1.0  T
   4   -340.3434176 -0.123844E-05  0.231E-03    8.09       3.1  T
   5   -340.3434176 -0.446632E-07  0.116E-03    8.09       6.1  T
   6   -340.3434177 -0.197759E-07  0.274E-04    8.09      25.8  T
   7   -340.3434177 -0.182854E-08  0.945E-05    8.09      75.0  T
     SCC iter.                  ...        0 min,  0.166 sec
     gradient                   ...        0 min,  0.167 sec
 * total energy  :  -338.1658553 Eh     change       -0.6930325E-02 Eh
   gradient norm :     0.0795361 Eh/α   predicted    -0.1069125E-01 (  54.27%)
   displ. norm   :     0.6875420 α      lambda       -0.1596778E-01
   maximum displ.:     0.1385097 α      in ANC's #197, #274, #1, ...

........................................................................
.............................. CYCLE   27 ..............................
........................................................................

 iter      E             dE          RMSdq      gap      omega  full diag
   1   -340.3231946 -0.340323E+03  0.134E-01    8.10       0.0  T
   2   -340.3232577 -0.631751E-04  0.807E-02    8.10       1.0  T
   3   -340.3232847 -0.269416E-04  0.104E-02    8.10       1.0  T
   4   -340.3232865 -0.186877E-05  0.261E-03    8.10       2.7  T
   5   -340.3232866 -0.516505E-07  0.130E-03    8.10       5.4  T
   6   -340.3232866 -0.225424E-07  0.252E-04    8.10      28.1  T
   7   -340.3232866 -0.132093E-08  0.967E-05    8.10      73.3  T
     SCC iter.                  ...        0 min,  0.167 sec
     gradient                   ...        0 min,  0.161 sec
 * total energy  :  -338.1718211 Eh     change       -0.5965756E-02 Eh
   gradient norm :     0.0887821 Eh/α   predicted    -0.1175799E-01 (  97.09%)
   displ. norm   :     0.6511978 α      lambda       -0.2189676E-01
   maximum displ.:     0.1380271 α      in ANC's #271, #216, #186, ...

........................................................................
.............................. CYCLE   28 ..............................
........................................................................

 iter      E             dE          RMSdq      gap      omega  full diag
   1   -340.3091941 -0.340309E+03  0.173E-01    8.09       0.0  T
   2   -340.3093348 -0.140732E-03  0.103E-01    8.09       1.0  T
   3   -340.3093933 -0.585400E-04  0.161E-02    8.09       1.0  T
   4   -340.3093973 -0.393736E-05  0.375E-03    8.09       1.9  T
   5   -340.3093974 -0.927105E-07  0.191E-03    8.09       3.7  T
   6   -340.3093974 -0.375346E-07  0.319E-04    8.09      22.2  T
   7   -340.3093974 -0.180415E-08  0.111E-04    8.09      64.1  T
     SCC iter.                  ...        0 min,  0.166 sec
     gradient                   ...        0 min,  0.159 sec
 * total energy  :  -338.1631982 Eh     change        0.8622853E-02 Eh
   gradient norm :     0.1639405 Eh/α   predicted    -0.1559115E-01 (-280.81%)
   displ. norm   :     0.4955830 α      lambda       -0.3734788E-01
   maximum displ.:     0.2074119 α      in ANC's #217, #248, #9, ...

........................................................................
.............................. CYCLE   29 ..............................
........................................................................

 iter      E             dE          RMSdq      gap      omega  full diag
   1   -340.3214951 -0.340321E+03  0.146E-01    8.07       0.0  T
   2   -340.3215920 -0.968993E-04  0.872E-02    8.07       1.0  T
   3   -340.3216349 -0.429898E-04  0.133E-02    8.07       1.0  T
   4   -340.3216377 -0.274575E-05  0.343E-03    8.07       2.1  T
   5   -340.3216378 -0.839180E-07  0.171E-03    8.07       4.1  T
   6   -340.3216378 -0.333937E-07  0.225E-04    8.07      31.6  T
   7   -340.3216378 -0.105319E-08  0.997E-05    8.07      71.1  T
     SCC iter.                  ...        0 min,  0.161 sec
     gradient                   ...        0 min,  0.178 sec
 * total energy  :  -338.1783915 Eh     change       -0.1519321E-01 Eh
   gradient norm :     0.0931960 Eh/α   predicted    -0.2326031E-01 (  53.10%)
   displ. norm   :     0.6096954 α      lambda       -0.2418944E-01
   maximum displ.:     0.1227237 α      in ANC's #133, #217, #63, ...

........................................................................
.............................. CYCLE   30 ..............................
........................................................................

 iter      E             dE          RMSdq      gap      omega  full diag
   1   -340.3650799 -0.340365E+03  0.164E-01    8.10       0.0  T
   2   -340.3652005 -0.120652E-03  0.981E-02    8.10       1.0  T
   3   -340.3652548 -0.542581E-04  0.147E-02    8.10       1.0  T
   4   -340.3652584 -0.358227E-05  0.438E-03    8.10       1.6  T
   5   -340.3652585 -0.154559E-06  0.215E-03    8.10       3.3  T
   6   -340.3652586 -0.613912E-07  0.311E-04    8.10      22.8  T
   7   -340.3652586 -0.202840E-08  0.132E-04    8.10      53.8  T
     SCC iter.                  ...        0 min,  0.178 sec
     gradient                   ...        0 min,  0.167 sec
 * total energy  :  -338.1735488 Eh     change        0.4842615E-02 Eh
   gradient norm :     0.1463345 Eh/α   predicted    -0.1659068E-01 (-442.60%)
   displ. norm   :     0.4437929 α      lambda       -0.2759041E-01
   maximum displ.:     0.0816706 α      in ANC's #197, #216, #105, ...

........................................................................
.............................. CYCLE   31 ..............................
........................................................................

 iter      E             dE          RMSdq      gap      omega  full diag
   1   -340.3409725 -0.340341E+03  0.114E-01    8.09       0.0  T
   2   -340.3410293 -0.567974E-04  0.678E-02    8.09       1.0  T
   3   -340.3410546 -0.252521E-04  0.100E-02    8.09       1.0  T
   4   -340.3410563 -0.169870E-05  0.251E-03    8.09       2.8  T
   5   -340.3410563 -0.600579E-07  0.735E-04    8.09       9.6  T
   6   -340.3410563 -0.753477E-08  0.144E-04    8.09      49.2  T
     SCC iter.                  ...        0 min,  0.143 sec
     gradient                   ...        0 min,  0.169 sec
 * total energy  :  -338.1863380 Eh     change       -0.1278912E-01 Eh
   gradient norm :     0.0706359 Eh/α   predicted    -0.1651222E-01 (  29.11%)
   displ. norm   :     0.6875112 α      lambda       -0.2306995E-01
   maximum displ.:     0.1609673 α      in ANC's #165, #179, #136, ...

........................................................................
.............................. CYCLE   32 ..............................
........................................................................

 iter      E             dE          RMSdq      gap      omega  full diag
   1   -340.2658565 -0.340266E+03  0.199E-01    8.03       0.0  T
   2   -340.2660567 -0.200243E-03  0.118E-01    8.03       1.0  T
   3   -340.2661421 -0.853465E-04  0.190E-02    8.04       1.0  T
   4   -340.2661482 -0.615163E-05  0.567E-03    8.04       1.3  T
   5   -340.2661485 -0.278958E-06  0.271E-03    8.04       2.6  T
   6   -340.2661486 -0.961339E-07  0.432E-04    8.04      16.4  T
   7   -340.2661486 -0.376292E-08  0.181E-04    8.04      39.2  T
     SCC iter.                  ...        0 min,  0.170 sec
     gradient                   ...        0 min,  0.167 sec
 * total energy  :  -338.1640301 Eh     change        0.2230789E-01 Eh
   gradient norm :     0.2108716 Eh/α   predicted    -0.1698726E-01 (-176.15%)
   displ. norm   :     0.3946346 α      lambda       -0.4997297E-01
   maximum displ.:     0.1223547 α      in ANC's #165, #179, #161, ...

........................................................................
.............................. CYCLE   33 ..............................
........................................................................

 iter      E             dE          RMSdq      gap      omega  full diag
   1   -340.3589930 -0.340359E+03  0.137E-01    8.08       0.0  T
   2   -340.3590973 -0.104368E-03  0.810E-02    8.08       1.0  T
   3   -340.3591415 -0.442074E-04  0.138E-02    8.08       1.0  T
   4   -340.3591446 -0.307719E-05  0.341E-03    8.08       2.1  T
   5   -340.3591447 -0.757266E-07  0.177E-03    8.08       4.0  T
   6   -340.3591447 -0.321080E-07  0.205E-04    8.08      34.6  T
   7   -340.3591447 -0.867715E-09  0.980E-05    8.08      72.3  T
     SCC iter.                  ...        0 min,  0.178 sec
     gradient                   ...        0 min,  0.166 sec
 * total energy  :  -338.1907265 Eh     change       -0.2669640E-01 Eh
   gradient norm :     0.0679443 Eh/α   predicted    -0.2887782E-01 (   8.17%)
   displ. norm   :     0.7772736 α      lambda       -0.2810509E-01
   maximum displ.:     0.1717126 α      in ANC's #165, #301, #274, ...

........................................................................
.............................. CYCLE   34 ..............................
........................................................................

 iter      E             dE          RMSdq      gap      omega  full diag
   1   -340.2708052 -0.340271E+03  0.225E-01    7.92       0.0  T
   2   -340.2710818 -0.276531E-03  0.133E-01    7.91       1.0  T
   3   -340.2712015 -0.119733E-03  0.226E-02    7.90       1.0  T
   4   -340.2712109 -0.940316E-05  0.733E-03    7.91       1.0  T
   5   -340.2712115 -0.564385E-06  0.354E-03    7.91       2.0  T
   6   -340.2712116 -0.181143E-06  0.524E-04    7.91      13.5  T
   7   -340.2712117 -0.604729E-08  0.225E-04    7.91      31.6  T
     SCC iter.                  ...        0 min,  0.161 sec
     gradient                   ...        0 min,  0.170 sec
 * total energy  :  -338.1569798 Eh     change        0.3374665E-01 Eh
   gradient norm :     0.2328398 Eh/α   predicted    -0.2254245E-01 (-166.80%)
   displ. norm   :     0.4114826 α      lambda       -0.6692307E-01
   maximum displ.:     0.1075276 α      in ANC's #165, #359, #161, ...

........................................................................
.............................. CYCLE   35 ..............................
........................................................................

 iter      E             dE          RMSdq      gap      omega  full diag
   1   -340.3469171 -0.340347E+03  0.144E-01    8.09       0.0  T
   2   -340.3470322 -0.115134E-03  0.848E-02    8.09       1.0  T
   3   -340.3470861 -0.539289E-04  0.146E-02    8.09       1.0  T
   4   -340.3470899 -0.372453E-05  0.415E-03    8.09       1.7  T
   5   -340.3470900 -0.141966E-06  0.207E-03    8.09       3.4  T
   6   -340.3470900 -0.548376E-07  0.241E-04    8.09      29.5  T
   7   -340.3470900 -0.122037E-08  0.133E-04    8.09      53.4  T
     SCC iter.                  ...        0 min,  0.170 sec
     gradient                   ...        0 min,  0.162 sec
 * total energy  :  -338.1960033 Eh     change       -0.3902343E-01 Eh
   gradient norm :     0.0589151 Eh/α   predicted    -0.3912718E-01 (   0.27%)
   displ. norm   :     0.7233198 α      lambda       -0.1952506E-01
   maximum displ.:     0.1989308 α      in ANC's #248, #217, #319, ...

........................................................................
.............................. CYCLE   36 ..............................
........................................................................

 iter      E             dE          RMSdq      gap      omega  full diag
   1   -340.3315987 -0.340332E+03  0.215E-01    8.09       0.0  T
   2   -340.3318534 -0.254746E-03  0.127E-01    8.09       1.0  T
   3   -340.3319577 -0.104266E-03  0.213E-02    8.09       1.0  T
   4   -340.3319658 -0.810988E-05  0.559E-03    8.09       1.3  T
   5   -340.3319661 -0.270732E-06  0.280E-03    8.09       2.5  T
   6   -340.3319662 -0.112071E-06  0.436E-04    8.09      16.3  T
   7   -340.3319662 -0.424052E-08  0.209E-04    8.09      33.9  T
     SCC iter.                  ...        0 min,  0.172 sec
     gradient                   ...        0 min,  0.164 sec
 * total energy  :  -338.1615887 Eh     change        0.3441458E-01 Eh
   gradient norm :     0.2634533 Eh/α   predicted    -0.1487022E-01 (-143.21%)
   displ. norm   :     0.4116816 α      lambda       -0.6672239E-01
   maximum displ.:     0.1438467 α      in ANC's #248, #165, #217, ...

........................................................................
.............................. CYCLE   37 ..............................
........................................................................

 iter      E             dE          RMSdq      gap      omega  full diag
   1   -340.3484055 -0.340348E+03  0.146E-01    8.09       0.0  T
   2   -340.3485264 -0.120923E-03  0.861E-02    8.09       1.0  T
   3   -340.3485773 -0.508261E-04  0.148E-02    8.09       1.0  T
   4   -340.3485810 -0.375475E-05  0.364E-03    8.09       1.9  T
   5   -340.3485811 -0.104043E-06  0.174E-03    8.09       4.1  T
   6   -340.3485812 -0.378057E-07  0.213E-04    8.09      33.3  T
   7   -340.3485812 -0.101704E-08  0.119E-04    8.09      59.7  T
     SCC iter.                  ...        0 min,  0.167 sec
     gradient                   ...        0 min,  0.169 sec
 * total energy  :  -338.1998099 Eh     change       -0.3822127E-01 Eh
   gradient norm :     0.0599457 Eh/α   predicted    -0.3901529E-01 (   2.08%)
   displ. norm   :     0.7184017 α      lambda       -0.1943392E-01
   maximum displ.:     0.2149557 α      in ANC's #319, #238, #297, ...

........................................................................
.............................. CYCLE   38 ..............................
........................................................................

 iter      E             dE          RMSdq      gap      omega  full diag
   1   -340.3328476 -0.340333E+03  0.213E-01    7.98       0.0  T
   2   -340.3331399 -0.292307E-03  0.125E-01    7.97       1.0  T
   3   -340.3332515 -0.111606E-03  0.225E-02    7.96       1.0  T
   4   -340.3332615 -0.996591E-05  0.689E-03    7.97       1.0  T
   5   -340.3332620 -0.506556E-06  0.296E-03    7.97       2.4  T
   6   -340.3332621 -0.126634E-06  0.678E-04    7.97      10.5  T
   7   -340.3332621 -0.107218E-07  0.215E-04    7.97      32.9  T
     SCC iter.                  ...        0 min,  0.166 sec
     gradient                   ...        0 min,  0.169 sec
 * total energy  :  -338.1696753 Eh     change        0.3013462E-01 Eh
   gradient norm :     0.2195008 Eh/α   predicted    -0.1473191E-01 (-148.89%)
   displ. norm   :     0.4250137 α      lambda       -0.5821669E-01
   maximum displ.:     0.1460376 α      in ANC's #319, #297, #236, ...

........................................................................
.............................. CYCLE   39 ..............................
........................................................................

 iter      E             dE          RMSdq      gap      omega  full diag
   1   -340.3869900 -0.340387E+03  0.145E-01    8.09       0.0  T
   2   -340.3871156 -0.125650E-03  0.862E-02    8.09       1.0  T
   3   -340.3871702 -0.545925E-04  0.149E-02    8.09       1.0  T
   4   -340.3871741 -0.392246E-05  0.422E-03    8.09       1.7  T
   5   -340.3871743 -0.119350E-06  0.211E-03    8.09       3.4  T
   6   -340.3871743 -0.528772E-07  0.252E-04    8.09      28.2  T
   7   -340.3871743 -0.133582E-08  0.138E-04    8.09      51.4  T
     SCC iter.                  ...        0 min,  0.169 sec
     gradient                   ...        0 min,  0.173 sec
 * total energy  :  -338.2032777 Eh     change       -0.3360239E-01 Eh
   gradient norm :     0.0638436 Eh/α   predicted    -0.3436638E-01 (   2.27%)
   displ. norm   :     0.7696348 α      lambda       -0.2322923E-01
   maximum displ.:     0.1595392 α      in ANC's #110, #246, #169, ...

........................................................................
.............................. CYCLE   40 ..............................
........................................................................

 iter      E             dE          RMSdq      gap      omega  full diag
   1   -340.2155233 -0.340216E+03  0.222E-01    8.05       0.0  T
   2   -340.2158027 -0.279452E-03  0.131E-01    8.05       1.0  T
   3   -340.2159224 -0.119684E-03  0.225E-02    8.05       1.0  T
   4   -340.2159326 -0.101988E-04  0.640E-03    8.05       1.1  T
   5   -340.2159331 -0.518224E-06  0.207E-03    8.06       3.4  T
   6   -340.2159332 -0.860064E-07  0.565E-04    8.05      12.5  T
   7   -340.2159332 -0.786133E-08  0.228E-04    8.05      31.1  T
     SCC iter.                  ...        0 min,  0.169 sec
     gradient                   ...        0 min,  0.177 sec
 * total energy  :  -338.1672547 Eh     change        0.3602305E-01 Eh
   gradient norm :     0.2331968 Eh/α   predicted    -0.1849441E-01 (-151.34%)
   displ. norm   :     0.4274583 α      lambda       -0.6784551E-01
   maximum displ.:     0.1080333 α      in ANC's #192, #179, #169, ...

........................................................................
.............................. CYCLE   41 ..............................
........................................................................

 iter      E             dE          RMSdq      gap      omega  full diag
   1   -340.3452472 -0.340345E+03  0.152E-01    8.09       0.0  T
   2   -340.3453834 -0.136161E-03  0.895E-02    8.09       1.0  T
   3   -340.3454455 -0.620521E-04  0.157E-02    8.09       1.0  T
   4   -340.3454501 -0.465448E-05  0.412E-03    8.09       1.7  T
   5   -340.3454503 -0.169697E-06  0.198E-03    8.09       3.6  T
   6   -340.3454503 -0.565316E-07  0.300E-04    8.09      23.7  T
   7   -340.3454503 -0.191409E-08  0.157E-04    8.09      45.1  T
     SCC iter.                  ...        0 min,  0.172 sec
     gradient                   ...        0 min,  0.168 sec
 * total energy  :  -338.2062535 Eh     change       -0.3899885E-01 Eh
   gradient norm :     0.0717262 Eh/α   predicted    -0.4012111E-01 (   2.88%)
   displ. norm   :     0.7877046 α      lambda       -0.3016879E-01
   maximum displ.:     0.1813329 α      in ANC's #135, #193, #171, ...

........................................................................
.............................. CYCLE   42 ..............................
........................................................................

 iter      E             dE          RMSdq      gap      omega  full diag
   1   -340.3993054 -0.340399E+03  0.247E-01    8.10       0.0  T
   2   -340.3996546 -0.349199E-03  0.145E-01    8.10       1.0  T
   3   -340.3998034 -0.148855E-03  0.250E-02    8.10       1.0  T
   4   -340.3998158 -0.124135E-04  0.727E-03    8.10       1.0  T
   5   -340.3998165 -0.633221E-06  0.330E-03    8.10       2.1  T
   6   -340.3998166 -0.186167E-06  0.715E-04    8.10       9.9  T
   7   -340.3998167 -0.127698E-07  0.275E-04    8.10      25.8  T
     SCC iter.                  ...        0 min,  0.167 sec
     gradient                   ...        0 min,  0.174 sec
 * total energy  :  -338.1542998 Eh     change        0.5195370E-01 Eh
   gradient norm :     0.3159651 Eh/α   predicted    -0.2444389E-01 (-147.05%)
   displ. norm   :     0.4145561 α      lambda       -0.9270622E-01
   maximum displ.:     0.1150560 α      in ANC's #135, #193, #171, ...
 * RMSD in coord.:     0.4817105 α      energy gain  -0.8987441E-01 Eh

generating ANC from model Hessian ...
Using Lindh-Hessian (1995)
 Shifting diagonal of input Hessian by    1.0252104964696895E-002
 Lowest  eigenvalues of input Hessian
    0.010000    0.010041    0.010064    0.010065    0.010077    0.010080
    0.010083    0.010097    0.010101    0.010109    0.010132    0.010139
    0.010145    0.010147    0.010148    0.010150    0.010156    0.010163
 Highest eigenvalues
    1.454581    1.457506    1.460204    1.474782    1.506979    1.508286


........................................................................
.............................. CYCLE   43 ..............................
........................................................................

 iter      E             dE          RMSdq      gap      omega  full diag
   1   -340.3535437 -0.340354E+03  0.153E-01    8.09       0.0  T
   2   -340.3536857 -0.142043E-03  0.900E-02    8.09       1.0  T
   3   -340.3537509 -0.651665E-04  0.160E-02    8.09       1.0  T
   4   -340.3537561 -0.515157E-05  0.425E-03    8.09       1.7  T
   5   -340.3537563 -0.243721E-06  0.129E-03    8.09       5.5  T
   6   -340.3537563 -0.302724E-07  0.290E-04    8.09      24.4  T
   7   -340.3537563 -0.175805E-08  0.166E-04    8.09      42.8  T
     SCC iter.                  ...        0 min,  0.173 sec
     gradient                   ...        0 min,  0.166 sec
 * total energy  :  -338.2074871 Eh     change       -0.5318732E-01 Eh
   gradient norm :     0.0794942 Eh/α   predicted     0.0000000E+00 (-100.00%)
   displ. norm   :     0.5270302 α      lambda       -0.1141139E-01
   maximum displ.:     0.1765619 α      in ANC's #37, #241, #226, ...

........................................................................
.............................. CYCLE   44 ..............................
........................................................................

 iter      E             dE          RMSdq      gap      omega  full diag
   1   -340.3614958 -0.340361E+03  0.104E-01    8.09       0.0  T
   2   -340.3615144 -0.186225E-04  0.639E-02    8.09       1.0  T
   3   -340.3615247 -0.103271E-04  0.462E-03    8.09       1.5  T
   4   -340.3615250 -0.281035E-06  0.194E-03    8.09       3.7  T
   5   -340.3615250 -0.314008E-07  0.709E-04    8.09      10.0  T
   6   -340.3615250 -0.743984E-08  0.184E-04    8.09      38.5  T
     SCC iter.                  ...        0 min,  0.145 sec
     gradient                   ...        0 min,  0.174 sec
 * total energy  :  -338.2162400 Eh     change       -0.8752883E-02 Eh
   gradient norm :     0.0401739 Eh/α   predicted    -0.7291772E-02 ( -16.69%)
   displ. norm   :     0.6284523 α      lambda       -0.8073809E-02
   maximum displ.:     0.1273446 α      in ANC's #90, #206, #226, ...

........................................................................
.............................. CYCLE   45 ..............................
........................................................................

 iter      E             dE          RMSdq      gap      omega  full diag
   1   -340.3676922 -0.340368E+03  0.903E-02    8.09       0.0  T
   2   -340.3677102 -0.179842E-04  0.551E-02    8.09       1.0  T
   3   -340.3677190 -0.878020E-05  0.520E-03    8.09       1.4  T
   4   -340.3677194 -0.443829E-06  0.208E-03    8.09       3.4  T
   5   -340.3677195 -0.456243E-07  0.837E-04    8.09       8.5  T
   6   -340.3677195 -0.105310E-07  0.210E-04    8.09      33.7  T
     SCC iter.                  ...        0 min,  0.161 sec
     gradient                   ...        0 min,  0.170 sec
 * total energy  :  -338.2219294 Eh     change       -0.5689415E-02 Eh
   gradient norm :     0.0387623 Eh/α   predicted    -0.5631352E-02 (  -1.02%)
   displ. norm   :     0.7064289 α      lambda       -0.6501607E-02
   maximum displ.:     0.1911842 α      in ANC's #37, #90, #241, ...

........................................................................
.............................. CYCLE   46 ..............................
........................................................................

 iter      E             dE          RMSdq      gap      omega  full diag
   1   -340.3567926 -0.340357E+03  0.993E-02    8.09       0.0  T
   2   -340.3568131 -0.204704E-04  0.607E-02    8.09       1.0  T
   3   -340.3568229 -0.979309E-05  0.548E-03    8.09       1.3  T
   4   -340.3568233 -0.478112E-06  0.235E-03    8.09       3.0  T
   5   -340.3568234 -0.633768E-07  0.858E-04    8.09       8.3  T
   6   -340.3568234 -0.102929E-07  0.223E-04    8.09      31.7  T
     SCC iter.                  ...        0 min,  0.143 sec
     gradient                   ...        0 min,  0.173 sec
 * total energy  :  -338.2260258 Eh     change       -0.4096364E-02 Eh
   gradient norm :     0.0626169 Eh/α   predicted    -0.4873104E-02 (  18.96%)
   displ. norm   :     0.6604221 α      lambda       -0.8880788E-02
   maximum displ.:     0.1441020 α      in ANC's #90, #226, #206, ...

........................................................................
.............................. CYCLE   47 ..............................
........................................................................

 iter      E             dE          RMSdq      gap      omega  full diag
   1   -340.3644908 -0.340364E+03  0.891E-02    8.08       0.0  T
   2   -340.3645136 -0.228295E-04  0.543E-02    8.09       1.0  T
   3   -340.3645248 -0.111544E-04  0.616E-03    8.09       1.2  T
   4   -340.3645254 -0.582687E-06  0.273E-03    8.09       2.6  T
   5   -340.3645254 -0.914644E-07  0.978E-04    8.09       7.2  T
   6   -340.3645255 -0.134798E-07  0.298E-04    8.09      23.8  T
     SCC iter.                  ...        0 min,  0.141 sec
     gradient                   ...        0 min,  0.172 sec
 * total energy  :  -338.2314113 Eh     change       -0.5385464E-02 Eh
   gradient norm :     0.0418148 Eh/α   predicted    -0.6377124E-02 (  18.41%)
   displ. norm   :     0.6476198 α      lambda       -0.7210898E-02
   maximum displ.:     0.1467653 α      in ANC's #90, #206, #228, ...

........................................................................
.............................. CYCLE   48 ..............................
........................................................................

 iter      E             dE          RMSdq      gap      omega  full diag
   1   -340.4016917 -0.340402E+03  0.864E-02    8.09       0.0  T
   2   -340.4017215 -0.297895E-04  0.519E-02    8.09       1.0  T
   3   -340.4017335 -0.119389E-04  0.722E-03    8.09       1.0  T
   4   -340.4017343 -0.818459E-06  0.251E-03    8.09       2.8  T
   5   -340.4017344 -0.612681E-07  0.101E-03    8.09       7.0  T
   6   -340.4017344 -0.115764E-07  0.215E-04    8.09      33.0  T
   7   -340.4017344 -0.728448E-09  0.791E-05    8.09      89.6  T
     SCC iter.                  ...        0 min,  0.162 sec
     gradient                   ...        0 min,  0.176 sec
 * total energy  :  -338.2336819 Eh     change       -0.2270648E-02 Eh
   gradient norm :     0.0622116 Eh/α   predicted    -0.5117614E-02 ( 125.38%)
   displ. norm   :     0.6098298 α      lambda       -0.9360868E-02
   maximum displ.:     0.2117703 α      in ANC's #226, #219, #90, ...

........................................................................
.............................. CYCLE   49 ..............................
........................................................................

 iter      E             dE          RMSdq      gap      omega  full diag
   1   -340.3813006 -0.340381E+03  0.109E-01    8.10       0.0  T
   2   -340.3813463 -0.457172E-04  0.656E-02    8.10       1.0  T
   3   -340.3813658 -0.195049E-04  0.883E-03    8.10       1.0  T
   4   -340.3813672 -0.138588E-05  0.262E-03    8.10       2.7  T
   5   -340.3813673 -0.580476E-07  0.129E-03    8.10       5.5  T
   6   -340.3813673 -0.227946E-07  0.225E-04    8.10      31.5  T
   7   -340.3813673 -0.113437E-08  0.928E-05    8.10      76.4  T
     SCC iter.                  ...        0 min,  0.168 sec
     gradient                   ...        0 min,  0.169 sec
 * total energy  :  -338.2362678 Eh     change       -0.2585897E-02 Eh
   gradient norm :     0.0766328 Eh/α   predicted    -0.6421055E-02 ( 148.31%)
   displ. norm   :     0.5533601 α      lambda       -0.1277259E-01
   maximum displ.:     0.2132402 α      in ANC's #111, #144, #208, ...

........................................................................
.............................. CYCLE   50 ..............................
........................................................................

 iter      E             dE          RMSdq      gap      omega  full diag
   1   -340.3638521 -0.340364E+03  0.126E-01    8.11       0.0  T
   2   -340.3639227 -0.706758E-04  0.758E-02    8.11       1.0  T
   3   -340.3639524 -0.296276E-04  0.113E-02    8.11       1.0  T
   4   -340.3639544 -0.203299E-05  0.341E-03    8.10       2.1  T
   5   -340.3639545 -0.880297E-07  0.158E-03    8.11       4.5  T
   6   -340.3639545 -0.279385E-07  0.189E-04    8.11      37.5  T
   7   -340.3639545 -0.644889E-09  0.990E-05    8.11      71.6  T
     SCC iter.                  ...        0 min,  0.168 sec
     gradient                   ...        0 min,  0.166 sec
 * total energy  :  -338.2357229 Eh     change        0.5449372E-03 Eh
   gradient norm :     0.0947655 Eh/α   predicted    -0.8341825E-02 (*******%)
   displ. norm   :     0.5025305 α      lambda       -0.1790550E-01
   maximum displ.:     0.2329455 α      in ANC's #100, #111, #219, ...

........................................................................
.............................. CYCLE   51 ..............................
........................................................................

 iter      E             dE          RMSdq      gap      omega  full diag
   1   -340.3913976 -0.340391E+03  0.130E-01    8.10       0.0  T
   2   -340.3914670 -0.694381E-04  0.785E-02    8.11       1.0  T
   3   -340.3914989 -0.319297E-04  0.112E-02    8.11       1.0  T
   4   -340.3915009 -0.191267E-05  0.287E-03    8.11       2.5  T
   5   -340.3915009 -0.583952E-07  0.141E-03    8.11       5.0  T
   6   -340.3915009 -0.264824E-07  0.225E-04    8.11      31.5  T
   7   -340.3915009 -0.122503E-08  0.116E-04    8.11      61.3  T
     SCC iter.                  ...        0 min,  0.168 sec
     gradient                   ...        0 min,  0.177 sec
 * total energy  :  -338.2368933 Eh     change       -0.1170464E-02 Eh
   gradient norm :     0.0982066 Eh/α   predicted    -0.1121364E-01 ( 858.05%)
   displ. norm   :     0.5670196 α      lambda       -0.1786531E-01
   maximum displ.:     0.2690864 α      in ANC's #37, #219, #239, ...

........................................................................
.............................. CYCLE   52 ..............................
........................................................................

 iter      E             dE          RMSdq      gap      omega  full diag
   1   -340.4209995 -0.340421E+03  0.141E-01    8.11       0.0  T
   2   -340.4210786 -0.790966E-04  0.849E-02    8.11       1.0  T
   3   -340.4211153 -0.366854E-04  0.118E-02    8.11       1.0  T
   4   -340.4211174 -0.213839E-05  0.358E-03    8.11       2.0  T
   5   -340.4211175 -0.980395E-07  0.162E-03    8.11       4.4  T
   6   -340.4211176 -0.361036E-07  0.246E-04    8.11      28.8  T
   7   -340.4211176 -0.129887E-08  0.128E-04    8.11      55.2  T
     SCC iter.                  ...        0 min,  0.171 sec
     gradient                   ...        0 min,  0.173 sec
 * total energy  :  -338.2357368 Eh     change        0.1156488E-02 Eh
   gradient norm :     0.1201701 Eh/α   predicted    -0.1180461E-01 (*******%)
   displ. norm   :     0.4953466 α      lambda       -0.1949915E-01
   maximum displ.:     0.1930630 α      in ANC's #37, #100, #226, ...

........................................................................
.............................. CYCLE   53 ..............................
........................................................................

 iter      E             dE          RMSdq      gap      omega  full diag
   1   -340.3837475 -0.340384E+03  0.139E-01    8.11       0.0  T
   2   -340.3838436 -0.961358E-04  0.826E-02    8.11       1.0  T
   3   -340.3838822 -0.385592E-04  0.131E-02    8.11       1.0  T
   4   -340.3838850 -0.278924E-05  0.308E-03    8.11       2.3  T
   5   -340.3838850 -0.572811E-07  0.132E-03    8.11       5.4  T
   6   -340.3838851 -0.190876E-07  0.203E-04    8.11      35.0  T
   7   -340.3838851 -0.749935E-09  0.916E-05    8.11      77.4  T
     SCC iter.                  ...        0 min,  0.164 sec
     gradient                   ...        0 min,  0.167 sec
 * total energy  :  -338.2377467 Eh     change       -0.2009887E-02 Eh
   gradient norm :     0.1065671 Eh/α   predicted    -0.1214182E-01 ( 504.10%)
   displ. norm   :     0.5505832 α      lambda       -0.2397926E-01
   maximum displ.:     0.2501671 α      in ANC's #100, #101, #111, ...

........................................................................
.............................. CYCLE   54 ..............................
........................................................................

 iter      E             dE          RMSdq      gap      omega  full diag
   1   -340.3571281 -0.340357E+03  0.142E-01    8.11       0.0  T
   2   -340.3572050 -0.768952E-04  0.851E-02    8.11       1.0  T
   3   -340.3572410 -0.360275E-04  0.117E-02    8.11       1.0  T
   4   -340.3572433 -0.225493E-05  0.345E-03    8.11       2.1  T
   5   -340.3572434 -0.848381E-07  0.169E-03    8.11       4.2  T
   6   -340.3572434 -0.413119E-07  0.208E-04    8.11      34.1  T
   7   -340.3572434 -0.930243E-09  0.117E-04    8.11      60.8  T
     SCC iter.                  ...        0 min,  0.216 sec
     gradient                   ...        0 min,  0.173 sec
 * total energy  :  -338.2394872 Eh     change       -0.1740471E-02 Eh
   gradient norm :     0.0986987 Eh/α   predicted    -0.1562420E-01 ( 797.70%)
   displ. norm   :     0.4378756 α      lambda       -0.1617045E-01
   maximum displ.:     0.1712944 α      in ANC's #111, #37, #244, ...

........................................................................
.............................. CYCLE   55 ..............................
........................................................................

 iter      E             dE          RMSdq      gap      omega  full diag
   1   -340.4048818 -0.340405E+03  0.101E-01    8.11       0.0  T
   2   -340.4049205 -0.386516E-04  0.605E-02    8.11       1.0  T
   3   -340.4049389 -0.184885E-04  0.832E-03    8.11       1.0  T
   4   -340.4049400 -0.106986E-05  0.261E-03    8.11       2.7  T
   5   -340.4049401 -0.575231E-07  0.116E-03    8.11       6.1  T
   6   -340.4049401 -0.198566E-07  0.180E-04    8.11      39.3  T
[...]
    41   1 H    0.868 --    22 O    0.828
    42   1 H    0.856 --    23 O    0.795
    43   1 H    0.862 --    23 O    0.853
    44   1 H    0.895 --    31 O    0.843
    45   1 H    0.863 --    31 O    0.826
    46   1 H    0.904 --    30 O    0.868
    47   1 H    0.870 --    30 O    0.810
    48   1 H    0.900 --    28 O    0.866
    49   1 H    0.868 --    28 O    0.814
    50   1 H    0.876 --    27 O    0.821
    51   1 H    0.875 --    27 O    0.830
    52   1 H    0.897 --    26 O    0.853
    53   1 H    0.870 --    26 O    0.842
    54   1 H    0.880 --    21 O    0.837
    55   1 H    0.864 --    21 O    0.795
    56   8 O    1.800 --    57 H    0.870    58 H    0.864
    57   1 H    0.899 --    56 O    0.870
    58   1 H    0.866 --    56 O    0.864
    59   8 O    1.756 --    61 H    0.863    60 H    0.851
    60   1 H    0.855 --    59 O    0.851
    61   1 H    0.866 --    59 O    0.863
    62   8 O    1.742 --    64 H    0.875    63 H    0.854
    63   1 H    0.854 --    62 O    0.854
    64   1 H    0.899 --    62 O    0.875
    65   8 O    1.798 --    66 H    0.883    67 H    0.829
    66   1 H    0.911 --    65 O    0.883
    67   1 H    0.872 --    65 O    0.829
    68   8 O    1.829 --    69 H    0.871    70 H    0.864
    69   1 H    0.872 --    68 O    0.871
    70   1 H    0.866 --    68 O    0.864
    71   8 O    1.737 --    72 H    0.864    73 H    0.858
    72   1 H    0.891 --    71 O    0.864
    73   1 H    0.858 --    71 O    0.858
    74   8 O    1.760 --    76 H    0.875    75 H    0.844
    75   1 H    0.847 --    74 O    0.844
    76   1 H    0.878 --    74 O    0.875
    77   8 O    1.742 --    79 H    0.874    78 H    0.855
    78   1 H    0.855 --    77 O    0.855
    79   1 H    0.897 --    77 O    0.874
    80   8 O    1.803 --    81 H    0.877    82 H    0.795
    81   1 H    0.902 --    80 O    0.877
    82   1 H    0.871 --    80 O    0.795
    83   8 O    1.852 --    85 H    0.828    84 H    0.805
    84   1 H    0.870 --    83 O    0.805
    85   1 H    0.871 --    83 O    0.828
    86   8 O    1.787 --    87 H    0.875    88 H    0.863
    87   1 H    0.878 --    86 O    0.875
    88   1 H    0.896 --    86 O    0.863
    89   8 O    1.758 --    90 H    0.871    91 H    0.851
    90   1 H    0.874 --    89 O    0.871
    91   1 H    0.855 --    89 O    0.851
    92   8 O    1.791 --    94 H    0.871    93 H    0.866
    93   1 H    0.870 --    92 O    0.866
    94   1 H    0.898 --    92 O    0.871
    95   8 O    1.790 --    97 H    0.875    96 H    0.860
    96   1 H    0.894 --    95 O    0.860
    97   1 H    0.878 --    95 O    0.875
    98   8 O    1.848 --    99 H    0.867   100 H    0.855
    99   1 H    0.870 --    98 O    0.867
   100   1 H    0.889 --    98 O    0.855
   101   8 O    1.796 --   102 H    0.874   103 H    0.862
   102   1 H    0.878 --   101 O    0.874
   103   1 H    0.896 --   101 O    0.862
   104   8 O    1.815 --   106 H    0.861   105 H    0.852
   105   1 H    0.894 --   104 O    0.852
   106   1 H    0.892 --   104 O    0.861
   107   8 O    1.800 --   109 H    0.880   108 H    0.850
   108   1 H    0.890 --   107 O    0.850
   109   1 H    0.884 --   107 O    0.880
   110   8 O    1.791 --   112 H    0.865   111 H    0.853
   111   1 H    0.855 --   110 O    0.853
   112   1 H    0.894 --   110 O    0.865
   113   8 O    1.743 --   114 H    0.876   115 H    0.855
   114   1 H    0.898 --   113 O    0.876
   115   1 H    0.855 --   113 O    0.855
   116   8 O    1.778 --   118 H    0.878   117 H    0.831
   117   1 H    0.879 --   116 O    0.831
   118   1 H    0.882 --   116 O    0.878
   119   8 O    1.775 --   121 H    0.870   120 H    0.866
   120   1 H    0.868 --   119 O    0.866
   121   1 H    0.873 --   119 O    0.870
   122   8 O    1.746 --   124 H    0.883   123 H    0.847
   123   1 H    0.879 --   122 O    0.847
   124   1 H    0.883 --   122 O    0.883
   125   8 O    1.776 --   127 H    0.874   126 H    0.867
   126   1 H    0.869 --   125 O    0.867
   127   1 H    0.877 --   125 O    0.874
   128   8 O    1.775 --   129 H    0.876   130 H    0.869
   129   1 H    0.878 --   128 O    0.876
   130   1 H    0.870 --   128 O    0.869
   131   8 O    1.742 --   133 H    0.879   132 H    0.844
   132   1 H    0.881 --   131 O    0.844
   133   1 H    0.880 --   131 O    0.879
   134   8 O    1.765 --   135 H    0.877   136 H    0.851
   135   1 H    0.879 --   134 O    0.877
   136   1 H    0.854 --   134 O    0.851
   137   8 O    1.751 --   138 H    0.884   139 H    0.852
   138   1 H    0.884 --   137 O    0.884
   139   1 H    0.882 --   137 O    0.852
   140   8 O    1.770 --   142 H    0.877   141 H    0.862
   141   1 H    0.864 --   140 O    0.862
   142   1 H    0.879 --   140 O    0.877
   143   8 O    1.766 --   144 H    0.874   145 H    0.863
   144   1 H    0.876 --   143 O    0.874
   145   1 H    0.865 --   143 O    0.863
   146   8 O    1.728 --   148 H    0.888   147 H    0.813
   147   1 H    0.871 --   146 O    0.813
   148   1 H    0.889 --   146 O    0.888
   149   8 O    1.778 --   150 H    0.869   151 H    0.867
   150   1 H    0.871 --   149 O    0.869
   151   1 H    0.869 --   149 O    0.867
   152   8 O    1.745 --   153 H    0.872   154 H    0.859
   153   1 H    0.872 --   152 O    0.872
   154   1 H    0.886 --   152 O    0.859
   155   8 O    1.772 --   157 H    0.873   156 H    0.868
   156   1 H    0.871 --   155 O    0.868
   157   1 H    0.876 --   155 O    0.873
   158   8 O    1.778 --   159 H    0.870   160 H    0.861
   159   1 H    0.873 --   158 O    0.870
   160   1 H    0.863 --   158 O    0.861
   161   8 O    1.745 --   162 H    0.887   163 H    0.836
   162   1 H    0.888 --   161 O    0.887
   163   1 H    0.880 --   161 O    0.836
   164   8 O    1.779 --   166 H    0.870   165 H    0.865
   165   1 H    0.866 --   164 O    0.865
   166   1 H    0.873 --   164 O    0.870
   167   8 O    1.784 --   168 H    0.880   169 H    0.817
   168   1 H    0.883 --   167 O    0.880
   169   1 H    0.880 --   167 O    0.817
   170   8 O    1.730 --   171 H    0.869   172 H    0.861
   171   1 H    0.869 --   170 O    0.869
   172   1 H    0.862 --   170 O    0.861
   173   8 O    1.745 --   174 H    0.875   175 H    0.870
   174   1 H    0.875 --   173 O    0.875
   175   1 H    0.870 --   173 O    0.870
   176   8 O    1.745 --   177 H    0.878   178 H    0.867
   177   1 H    0.878 --   176 O    0.878
   178   1 H    0.868 --   176 O    0.867
   179   8 O    1.740 --   181 H    0.877   180 H    0.862
   180   1 H    0.863 --   179 O    0.862
   181   1 H    0.877 --   179 O    0.877
   182   8 O    1.778 --   183 H    0.883   184 H    0.854
   183   1 H    0.884 --   182 O    0.883
   184   1 H    0.856 --   182 O    0.854
   185   8 O    1.776 --   186 H    0.870   187 H    0.865
   186   1 H    0.874 --   185 O    0.870
   187   1 H    0.868 --   185 O    0.865
   188   8 O    1.775 --   190 H    0.874   189 H    0.865
   189   1 H    0.868 --   188 O    0.865
   190   1 H    0.877 --   188 O    0.874
   191   8 O    1.765 --   193 H    0.868   192 H    0.867
   192   1 H    0.869 --   191 O    0.867
   193   1 H    0.870 --   191 O    0.868
   194   8 O    1.790 --   196 H    0.870   195 H    0.849
   195   1 H    0.887 --   194 O    0.849
   196   1 H    0.873 --   194 O    0.870
   197   8 O    1.795 --   199 H    0.875   198 H    0.836
   198   1 H    0.883 --   197 O    0.836
   199   1 H    0.878 --   197 O    0.875
 ---------------------------------------------------------------------------

Topologies differ in total number of bonds
Writing topology from bond orders to xtbtopo.mol

molecular dipole:
                 x           y           z       tot (Debye)
 q only:        1.853       3.492      -1.140
   full:        2.034       4.109      -1.454      12.225
molecular quadrupole (traceless):
                xx          xy          yy          xz          yz          zz
 q only:      -35.719       8.889       3.577      16.379      15.195      32.142
  q+dip:      -46.784       8.975       6.464      19.768      20.555      40.320
   full:      -47.809       8.540       6.713      19.526      21.161      41.096

           -------------------------------------------------
          |                Geometry Summary                 |
           -------------------------------------------------

      molecular mass/u    :     1244.8540481
   center of mass at/Å    :        0.2226820       0.2476012       0.0002999
  moments of inertia/u·Å² :        0.3903490E+05   0.4137625E+05   0.4309950E+05
rotational constants/cm⁻¹ :        0.4318605E-03   0.4074229E-03   0.3911329E-03

 * 132 selected distances

     #   Z          #   Z                                           value/Å
     6   8 O        8   1 H                                       0.9719934
     6   8 O        9   1 H                                       0.9777405
     7   8 O       10   1 H                                       0.9707858
     7   8 O       11   1 H                                       0.9712219
     2   8 O       12   1 H                                       0.9715636
     2   8 O       13   1 H                                       0.9792354
     4   8 O       14   1 H                                       0.9747579
     4   8 O       15   1 H                                       0.9763623
     3   8 O       16   1 H                                       0.9748279
     3   8 O       17   1 H                                       0.9827164
     5   8 O       18   1 H                                       0.9868144
     5   8 O       19   1 H                                       0.9582583 (min)
    25   8 O       32   1 H                                       0.9829486
    25   8 O       33   1 H                                       0.9648681
    20   8 O       34   1 H                                       0.9636311
    20   8 O       35   1 H                                       0.9664121
    24   8 O       36   1 H                                       0.9663860
    24   8 O       37   1 H                                       0.9795210
    29   8 O       38   1 H                                       0.9663033
    29   8 O       39   1 H                                       0.9752939
    22   8 O       40   1 H                                       0.9687291
    22   8 O       41   1 H                                       0.9729541
    23   8 O       42   1 H                                       0.9792186
    23   8 O       43   1 H                                       0.9615217
    31   8 O       44   1 H                                       0.9699790
    31   8 O       45   1 H                                       0.9716471
    30   8 O       46   1 H                                       0.9637568
    30   8 O       47   1 H                                       0.9828168
    28   8 O       48   1 H                                       0.9642588
    28   8 O       49   1 H                                       0.9794287
    27   8 O       50   1 H                                       0.9752806
    27   8 O       51   1 H                                       0.9748262
    26   8 O       52   1 H                                       0.9677890
    26   8 O       53   1 H                                       0.9706020
    21   8 O       54   1 H                                       0.9730104
    21   8 O       55   1 H                                       0.9837185
    56   8 O       57   1 H                                       0.9673363
    56   8 O       58   1 H                                       0.9614491
    59   8 O       60   1 H                                       0.9634451
    59   8 O       61   1 H                                       0.9615708
    62   8 O       63   1 H                                       0.9644374
    62   8 O       64   1 H                                       0.9672797
    65   8 O       66   1 H                                       0.9618941
    65   8 O       67   1 H                                       0.9781994
    68   8 O       69   1 H                                       0.9619205
    68   8 O       70   1 H                                       0.9634295
    71   8 O       72   1 H                                       0.9704622
    71   8 O       73   1 H                                       0.9642272
    74   8 O       75   1 H                                       0.9650897
    74   8 O       76   1 H                                       0.9601316
    77   8 O       78   1 H                                       0.9647133
    77   8 O       79   1 H                                       0.9675402
    80   8 O       81   1 H                                       0.9651963
    80   8 O       82   1 H                                       0.9914352 (max)
    83   8 O       84   1 H                                       0.9821904
    83   8 O       85   1 H                                       0.9757281
    86   8 O       87   1 H                                       0.9597787
    86   8 O       88   1 H                                       0.9686833
    89   8 O       90   1 H                                       0.9605008
    89   8 O       91   1 H                                       0.9639915
    92   8 O       93   1 H                                       0.9609170
    92   8 O       94   1 H                                       0.9656061
    95   8 O       96   1 H                                       0.9705978
    95   8 O       97   1 H                                       0.9599981
    98   8 O       99   1 H                                       0.9622421
    98   8 O      100   1 H                                       0.9711118
   101   8 O      102   1 H                                       0.9591169
   101   8 O      103   1 H                                       0.9690348
   104   8 O      105   1 H                                       0.9748038
   104   8 O      106   1 H                                       0.9703469
   107   8 O      108   1 H                                       0.9728651
   107   8 O      109   1 H                                       0.9585003
   110   8 O      111   1 H                                       0.9636437
   110   8 O      112   1 H                                       0.9682936
   113   8 O      114   1 H                                       0.9668922
   113   8 O      115   1 H                                       0.9648236
   116   8 O      117   1 H                                       0.9792491
   116   8 O      118   1 H                                       0.9593876
   119   8 O      120   1 H                                       0.9620921
   119   8 O      121   1 H                                       0.9614115
   122   8 O      123   1 H                                       0.9748327
   122   8 O      124   1 H                                       0.9602076
   125   8 O      126   1 H                                       0.9622571
   125   8 O      127   1 H                                       0.9606051
   128   8 O      129   1 H                                       0.9602816
   128   8 O      130   1 H                                       0.9621930
   131   8 O      132   1 H                                       0.9761775
   131   8 O      133   1 H                                       0.9607172
   134   8 O      135   1 H                                       0.9599183
   134   8 O      136   1 H                                       0.9647933
   137   8 O      138   1 H                                       0.9598585
   137   8 O      139   1 H                                       0.9737751
   140   8 O      141   1 H                                       0.9633094
   140   8 O      142   1 H                                       0.9601424
   143   8 O      144   1 H                                       0.9605714
   143   8 O      145   1 H                                       0.9628151
   146   8 O      147   1 H                                       0.9863156
   146   8 O      148   1 H                                       0.9590168
   149   8 O      150   1 H                                       0.9616552
   149   8 O      151   1 H                                       0.9619600
   152   8 O      153   1 H                                       0.9618885
   152   8 O      154   1 H                                       0.9713866
   155   8 O      156   1 H                                       0.9617352
   155   8 O      157   1 H                                       0.9604619
   158   8 O      159   1 H                                       0.9612571
   158   8 O      160   1 H                                       0.9629804
   161   8 O      162   1 H                                       0.9592509
   161   8 O      163   1 H                                       0.9791352
   164   8 O      165   1 H                                       0.9623273
   164   8 O      166   1 H                                       0.9612190
   167   8 O      168   1 H                                       0.9600103
   167   8 O      169   1 H                                       0.9861208
   170   8 O      171   1 H                                       0.9622267
   170   8 O      172   1 H                                       0.9636518
   173   8 O      174   1 H                                       0.9611345
   173   8 O      175   1 H                                       0.9621418
   176   8 O      177   1 H                                       0.9603442
   176   8 O      178   1 H                                       0.9626041
   179   8 O      180   1 H                                       0.9634165
   179   8 O      181   1 H                                       0.9606329
   182   8 O      183   1 H                                       0.9592205
   182   8 O      184   1 H                                       0.9642240
   185   8 O      186   1 H                                       0.9605610
   185   8 O      187   1 H                                       0.9614297
   188   8 O      189   1 H                                       0.9623293
   188   8 O      190   1 H                                       0.9601827
   191   8 O      192   1 H                                       0.9621731
   191   8 O      193   1 H                                       0.9618567
   194   8 O      195   1 H                                       0.9731788
   194   8 O      196   1 H                                       0.9615089
   197   8 O      198   1 H                                       0.9768028
   197   8 O      199   1 H                                       0.9598444

 * 1 distinct bonds (by element types)

   Z      Z             #   av. dist./Å        max./Å        min./Å
   1 H    8 O         132     0.9673590     0.9914352     0.9582583


optimized geometry written to: xtbopt.xyz


           -------------------------------------------------
          | TOTAL ENERGY             -338.372874492050 Eh   |
          | GRADIENT NORM               0.000045440110 Eh/α |
          | HOMO-LUMO GAP               7.862574998717 eV   |
           -------------------------------------------------

------------------------------------------------------------------------
 * finished run on 2024/05/10 at 18:08:54.096     
------------------------------------------------------------------------
 total:
 * wall-time:     0 d,  0 h,  3 min, 11.892 sec
 *  cpu-time:     0 d,  0 h, 22 min, 26.025 sec
 * ratio c/w:     7.014 speedup
 SCF:
 * wall-time:     0 d,  0 h,  0 min,  0.987 sec
 *  cpu-time:     0 d,  0 h,  0 min,  6.292 sec
 * ratio c/w:     6.377 speedup
 ANC optimizer:
 * wall-time:     0 d,  0 h,  3 min,  1.997 sec
 *  cpu-time:     0 d,  0 h, 22 min, 17.977 sec
 * ratio c/w:     7.352 speedup

