      -----------------------------------------------------------      
     |                   =====================                   |     
     |                           x T B                           |     
     |                   =====================                   |     
     |                         S. Grimme                         |     
     |          Mulliken Center for Theoretical Chemistry        |     
     |                    University of Bonn                     |     
      -----------------------------------------------------------      

   * xtb version 6.6.0 (conda-forge) compiled by 'runner@Mac-1676020848589.local' on 2023-02-10

   xtb is free software: you can redistribute it and/or modify it under
   the terms of the GNU Lesser General Public License as published by
   the Free Software Foundation, either version 3 of the License, or
   (at your option) any later version.
   
   xtb is distributed in the hope that it will be useful,
   but WITHOUT ANY WARRANTY; without even the implied warranty of
   MERCHANTABILITY or FITNESS FOR A PARTICULAR PURPOSE.  See the
   GNU Lesser General Public License for more details.
   
   Cite this work as:
   * C. Bannwarth, E. Caldeweyher, S. Ehlert, A. Hansen, P. Pracht,
     J. Seibert, S. Spicher, S. Grimme, WIREs Comput. Mol. Sci., 2020, 11,
     e01493. DOI: 10.1002/wcms.1493
   
   for GFN2-xTB:
   * C. Bannwarth, S. Ehlert and S. Grimme., J. Chem. Theory Comput., 2019,
     15, 1652-1671. DOI: 10.1021/acs.jctc.8b01176
   for GFN1-xTB:
   * S. Grimme, C. Bannwarth, P. Shushkov, J. Chem. Theory Comput., 2017,
     13, 1989-2009. DOI: 10.1021/acs.jctc.7b00118
   for GFN0-xTB:
   * P. Pracht, E. Caldeweyher, S. Ehlert, S. Grimme, ChemRxiv, 2019, preprint.
     DOI: 10.26434/chemrxiv.8326202.v1
   for GFN-FF:
   * S. Spicher and S. Grimme, Angew. Chem. Int. Ed., 2020, 59, 15665-15673.
     DOI: 10.1002/anie.202004239
   
   for ALPB and GBSA implicit solvation:
   * S. Ehlert, M. Stahn, S. Spicher, S. Grimme, J. Chem. Theory Comput.,
     2021, 17, 4250-4261. DOI: 10.1021/acs.jctc.1c00471
   
   for DFT-D4:
   * E. Caldeweyher, C. Bannwarth and S. Grimme, J. Chem. Phys., 2017,
     147, 034112. DOI: 10.1063/1.4993215
   * E. Caldeweyher, S. Ehlert, A. Hansen, H. Neugebauer, S. Spicher,
     C. Bannwarth and S. Grimme, J. Chem. Phys., 2019, 150, 154122.
     DOI: 10.1063/1.5090222
   * E. Caldeweyher, J.-M. Mewes, S. Ehlert and S. Grimme, Phys. Chem. Chem. Phys.
     2020, 22, 8499-8512. DOI: 10.1039/D0CP00502A
   
   for sTDA-xTB:
   * S. Grimme and C. Bannwarth, J. Chem. Phys., 2016, 145, 054103.
     DOI: 10.1063/1.4959605
   
   in the mass-spec context:
   * V. Asgeirsson, C. Bauer and S. Grimme, Chem. Sci., 2017, 8, 4879.
     DOI: 10.1039/c7sc00601b
   * J. Koopman and S. Grimme, ACS Omega 2019, 4, 12, 15120-15133.
     DOI: 10.1021/acsomega.9b02011
   
   for metadynamics refer to:
   * S. Grimme, J. Chem. Theory Comput., 2019, 155, 2847-2862
     DOI: 10.1021/acs.jctc.9b00143
   
   for SPH calculations refer to:
   * S. Spicher and S. Grimme, J. Chem. Theory Comput., 2021, 17, 1701-1714
     DOI: 10.1021/acs.jctc.0c01306
   
   with help from (in alphabetical order)
   P. Atkinson, C. Bannwarth, F. Bohle, G. Brandenburg, E. Caldeweyher
   M. Checinski, S. Dohm, S. Ehlert, S. Ehrlich, I. Gerasimov, C. Hölzer
   A. Katbashev, J. Koopman, C. Lavigne, S. Lehtola, F. März, M. Müller,
   F. Musil, H. Neugebauer, J. Pisarek, C. Plett, P. Pracht, F. Pultar,
   J. Seibert, P. Shushkov, S. Spicher, M. Stahn, M. Steiner, T. Strunk,
   J. Stückrath, T. Rose, and J. Unsleber
   
 * started run on 2024/05/10 at 18:15:33.261     

           -------------------------------------------------
          |                Calculation Setup                |
           -------------------------------------------------

          program call               : xtb Fe_39H2O_solvated_radius_9.xyz --opt extreme --gfn2 --chrg 2 --uhf 5 --alpb water
          coordinate file            : Fe_39H2O_solvated_radius_9.xyz
          omp threads                :                     8

   ID    Z sym.   atoms
    1   26 Fe     1
    2    8 O      2-7, 20-31, 56, 59, 62, 65, 68, 71, 74, 77, 80, 83, 86, 89,
                  92, 95, 98, 101, 104, 107, 110, 113, 116, 119, 122, 125,
                  128, 131, 134, 137, 140, 143, 146, 149, 152, 155, 158, 161,
                  164, 167, 170, 173, 176, 179, 182, 185, 188, 191, 194, 197
    3    1 H      8-19, 32-55, 57, 58, 60, 61, 63, 64, 66, 67, 69, 70, 72,
                  73, 75, 76, 78, 79, 81, 82, 84, 85, 87, 88, 90, 91, 93, 94,
                  96, 97, 99, 100, 102, 103, 105, 106, 108, 109, 111, 112,
                  114, 115, 117, 118, 120, 121, 123, 124, 126, 127, 129, 130,
                  132, 133, 135, 136, 138, 139, 141, 142, 144, 145, 147, 148,
                  150, 151, 153, 154, 156, 157, 159, 160, 162, 163, 165, 166,
                  168, 169, 171, 172, 174, 175, 177, 178, 180, 181, 183, 184,
                  186, 187, 189, 190, 192, 193, 195, 196, 198, 199

molecular fragmentation (1/2 indicates fragments):
111222222221222122222222222222222222222222222222222222222222222222222222
222222222222222222222222222222222222222222222222222222222222222222222222
2222222222222222222222222222222222222222222222222222222
# atoms in fragment 1/2:     5   194
 fragment masses (1/2) :       89.86     1154.99
CMA distance (Bohr)    :   0.974
constraining FC (au)   :  0.0500

           -------------------------------------------------
          |                 G F N 2 - x T B                 |
           -------------------------------------------------

        Reference                      10.1021/acs.jctc.8b01176
      * Hamiltonian:
        H0-scaling (s, p, d)           1.850000    2.230000    2.230000
        zeta-weighting                 0.500000
      * Dispersion:
        s8                             2.700000
        a1                             0.520000
        a2                             5.000000
        s9                             5.000000
      * Repulsion:
        kExp                           1.500000    1.000000
        rExp                           1.000000
      * Coulomb:
        alpha                          2.000000
        third order                    shell-resolved
        anisotropic                    true
        a3                             3.000000
        a5                             4.000000
        cn-shift                       1.200000
        cn-exp                         4.000000
        max-rad                        5.000000

      * Solvation model:               ALPB
        Solvent                        water
        Parameter file                 internal GFN2-xTB/ALPB
        Dielectric constant                8.0200E+01
        Reference state                gsolv [1 M gas/solution]
        Free energy shift                  1.0808E-03 Eh       6.7819E-01 kcal/mol
        Temperature                        2.9815E+02 K
        Density                            1.0000E+00 kg/L
        Solvent mass                       1.8000E+01 g/mol
        Interaction kernel             P16
        Born radius scaling (c1)           1.4744E+00
        Born radii integrator          GBOBC
        Born offset                        0.0000E+00 a0       0.0000E+00 AA
        H-bond correction              true
        Ion screening                  false
        Surface tension                    1.0000E-05 Eh       1.5569E+01 dyn/cm
        Grid points                               230 per atom
q/qsh data taken from xtbrestart
CAMM data taken from xtbrestart

          ...................................................
          :                      SETUP                      :
          :.................................................:
          :  # basis functions                 406          :
          :  # atomic orbitals                 405          :
          :  # shells                          267          :
          :  # electrons                       534          :
          :  max. iterations                   250          :
          :  Hamiltonian                  GFN2-xTB          :
          :  restarted?                       true          :
          :  GBSA solvation                   true          :
          :  PC potential                    false          :
          :  electronic temp.          300.0000000     K    :
          :  accuracy                    1.0000000          :
          :  -> integral cutoff          0.2500000E+02      :
          :  -> integral neglect         0.1000000E-07      :
          :  -> SCF convergence          0.1000000E-05 Eh   :
          :  -> wf. convergence          0.1000000E-03 e    :
          :  Broyden damping             0.4000000          :
          ...................................................

 iter      E             dE          RMSdq      gap      omega  full diag
   1   -340.7299304 -0.340730E+03  0.280E+00    8.38       0.0  T
   2   -341.0701500 -0.340220E+00  0.157E+00    5.58       1.0  T
   3   -341.0807439 -0.105939E-01  0.110E+00    6.06       1.0  T
   4   -341.0853803 -0.463641E-02  0.711E-01    6.25       1.0  T
   5   -341.0879673 -0.258700E-02  0.158E-01    6.38       1.0  T
   6   -341.0882463 -0.278989E-03  0.116E-01    6.30       1.0  T
   7   -341.0883157 -0.694406E-04  0.677E-02    6.27       1.0  T
   8   -341.0883536 -0.379078E-04  0.150E-02    6.25       1.0  T
   9   -341.0883570 -0.336667E-05  0.984E-03    6.26       1.0  T
  10   -341.0883582 -0.124087E-05  0.264E-03    6.26       2.7  T
  11   -341.0883583 -0.396420E-07  0.226E-03    6.26       3.1  T
  12   -341.0883583 -0.393245E-07  0.257E-04    6.26      27.6  T
  13   -341.0883583 -0.831164E-09  0.288E-04    6.26      24.6  T

   *** convergence criteria satisfied after 13 iterations ***

         #    Occupation            Energy/Eh            Energy/eV
      -------------------------------------------------------------
         1        2.0000           -0.6881606             -18.7258
       ...           ...                  ...                  ...
       263        2.0000           -0.3434373              -9.3454
       264        2.0000           -0.3376045              -9.1867
       265        1.6735           -0.2480225              -6.7490
       266        1.3265           -0.2466467              -6.7116
       267        1.0000           -0.2375527              -6.4641
       268        1.0000           -0.2321738              -6.3178
       269        1.0000           -0.2264178              -6.1611 (HOMO)
       270                          0.0037649               0.1024 (LUMO)
       271                          0.0313763               0.8538
       272                          0.0552175               1.5025
       273                          0.0628140               1.7093
       274                          0.0781962               2.1278
       ...                                ...                  ...
       405                          1.1834038              32.2021
      -------------------------------------------------------------
                  HL-Gap            0.2301827 Eh            6.2636 eV
             Fermi-level           -0.1793306 Eh           -4.8798 eV

 SCC (total)                   0 d,  0 h,  0 min,  0.767 sec
 SCC setup                      ...        0 min,  0.008 sec (  0.979%)
 Dispersion                     ...        0 min,  0.006 sec (  0.740%)
 classical contributions        ...        0 min,  0.001 sec (  0.184%)
 integral evaluation            ...        0 min,  0.017 sec (  2.270%)
 iterations                     ...        0 min,  0.424 sec ( 55.212%)
 molecular gradient             ...        0 min,  0.307 sec ( 40.023%)
 printout                       ...        0 min,  0.005 sec (  0.587%)

         :::::::::::::::::::::::::::::::::::::::::::::::::::::
         ::                     SUMMARY                     ::
         :::::::::::::::::::::::::::::::::::::::::::::::::::::
         :: total energy            -337.674310654550 Eh    ::
         :: total w/o Gsasa/hb      -337.306328597694 Eh    ::
         :: gradient norm              0.873456756632 Eh/a0 ::
         :: HOMO-LUMO gap              6.263589217720 eV    ::
         ::.................................................::
         :: SCC energy              -341.088358316818 Eh    ::
         :: -> isotropic ES            2.579473390670 Eh    ::
         :: -> anisotropic ES         -0.107310270576 Eh    ::
         :: -> anisotropic XC         -0.055746259098 Eh    ::
         :: -> dispersion             -0.073459899137 Eh    ::
         :: -> Gsolv                  -0.880976058655 Eh    ::
         ::    -> Gelec               -0.512994001798 Eh    ::
         ::    -> Gsasa                0.056085935625 Eh    ::
         ::    -> Ghb                 -0.425148752180 Eh    ::
         ::    -> Gshift               0.001080759698 Eh    ::
         :: repulsion energy           3.409523269249 Eh    ::
         :: add. restraining           0.000000000000 Eh    ::
         :: total charge               1.999998768041 e     ::
         :::::::::::::::::::::::::::::::::::::::::::::::::::::

      ----------------------------------------------------------- 
     |                   =====================                   |
     |                        A N C O P T                        |
     |                   =====================                   |
     |               Approximate Normal Coordinate               |
     |                Rational Function Optimizer                |
      ----------------------------------------------------------- 

          ...................................................
          :                      SETUP                      :
          :.................................................:
          :   optimization level           extreme          :
          :   max. optcycles                  3980          :
          :   ANC micro-cycles                  20          :
          :   degrees of freedom               591          :
          :.................................................:
          :   RF solver                   davidson          :
          :   write xtbopt.log                true          :
          :   linear?                        false          :
          :   energy convergence         0.5000000E-07 Eh   :
          :   grad. convergence          0.5000000E-04 Eh/α :
          :   maxmium RF displ.          1.0000000          :
          :   Hlow (freq-cutoff)         0.1000000E-01      :
          :   Hmax (freq-cutoff)         5.0000000          :
          :   S6 in model hess.         20.0000000          :
          ...................................................

generating ANC from model Hessian ...
Using Lindh-Hessian (1995)
 Shifting diagonal of input Hessian by    1.0461787575079554E-002
 Lowest  eigenvalues of input Hessian
    0.010000    0.010042    0.010139    0.010145    0.010150    0.010172
    0.010199    0.010225    0.010227    0.010234    0.010240    0.010248
    0.010252    0.010261    0.010262    0.010264    0.010266    0.010269
 Highest eigenvalues
    1.709648    1.711623    1.715426    1.715583    1.716546    1.742320


........................................................................
.............................. CYCLE    1 ..............................
........................................................................

 iter      E             dE          RMSdq      gap      omega  full diag
   1   -341.0883583 -0.341088E+03  0.100E-04    6.26       0.0  T
   2   -341.0883583  0.770228E-10  0.145E-04    6.26      49.0  T
   3   -341.0883583 -0.151317E-09  0.136E-05    6.26     522.2  T
     SCC iter.                  ...        0 min,  0.115 sec
     gradient                   ...        0 min,  0.374 sec
 * total energy  :  -337.6743107 Eh     change       -0.6381242E-09 Eh
   gradient norm :     0.8734080 Eh/α   predicted     0.0000000E+00 (-100.00%)
   displ. norm   :     0.6711092 α      lambda       -0.5235408E+00
   maximum displ.:     0.1858871 α      in ANC's #392, #390, #387, ...

........................................................................
.............................. CYCLE    2 ..............................
........................................................................

 iter      E             dE          RMSdq      gap      omega  full diag
   1   -340.7127525 -0.340713E+03  0.247E-01    6.31       0.0  T
   2   -340.7129811 -0.228589E-03  0.152E-01    6.31       1.0  T
   3   -340.7129690  0.120782E-04  0.155E-01    6.31       1.0  T
   4   -340.7130907 -0.121733E-03  0.198E-02    6.31       1.0  T
   5   -340.7130931 -0.239111E-05  0.156E-02    6.31       1.0  T
   6   -340.7130948 -0.170001E-05  0.859E-03    6.31       1.0  T
   7   -340.7130954 -0.553252E-06  0.235E-03    6.31       3.0  T
   8   -340.7130954 -0.462053E-07  0.555E-04    6.31      12.8  T
   9   -340.7130954 -0.226657E-08  0.129E-04    6.31      54.8  T
     SCC iter.                  ...        0 min,  0.469 sec
     gradient                   ...        0 min,  0.383 sec
 * total energy  :  -338.0272184 Eh     change       -0.3529078E+00 Eh
   gradient norm :     0.3976537 Eh/α   predicted    -0.3796801E+00 (   7.59%)
   displ. norm   :     0.6441398 α      lambda       -0.1992293E+00
   maximum displ.:     0.1878896 α      in ANC's #386, #392, #390, ...

........................................................................
.............................. CYCLE    3 ..............................
........................................................................

 iter      E             dE          RMSdq      gap      omega  full diag
   1   -340.4240809 -0.340424E+03  0.217E-01    6.37       0.0  T
   2   -340.4243239 -0.242987E-03  0.153E-01    6.37       1.0  T
   3   -340.4243668 -0.429153E-04  0.133E-01    6.37       1.0  T
   4   -340.4244608 -0.940147E-04  0.263E-02    6.37       1.0  T
   5   -340.4244639 -0.311808E-05  0.184E-02    6.37       1.0  T
   6   -340.4244665 -0.263340E-05  0.989E-03    6.37       1.0  T
   7   -340.4244675 -0.904836E-06  0.249E-03    6.37       2.8  T
   8   -340.4244675 -0.420475E-07  0.730E-04    6.37       9.7  T
   9   -340.4244675 -0.413308E-08  0.172E-04    6.37      41.3  T
     SCC iter.                  ...        0 min,  0.447 sec
     gradient                   ...        0 min,  0.392 sec
 * total energy  :  -338.1582286 Eh     change       -0.1310102E+00 Eh
   gradient norm :     0.1128721 Eh/α   predicted    -0.1409506E+00 (   7.59%)
   displ. norm   :     0.7471616 α      lambda       -0.7296269E-01
   maximum displ.:     0.2095051 α      in ANC's #386, #375, #387, ...

........................................................................
.............................. CYCLE    4 ..............................
........................................................................

 iter      E             dE          RMSdq      gap      omega  full diag
   1   -340.4048941 -0.340405E+03  0.162E-01    6.45       0.0  T
   2   -340.4048978 -0.365792E-05  0.176E-01    6.45       1.0  T
   3   -340.4050378 -0.140021E-03  0.656E-02    6.45       1.0  T
   4   -340.4050524 -0.146079E-04  0.304E-02    6.45       1.0  T
   5   -340.4050542 -0.184930E-05  0.171E-02    6.45       1.0  T
   6   -340.4050566 -0.238653E-05  0.420E-03    6.45       1.7  T
   7   -340.4050569 -0.277843E-06  0.106E-03    6.45       6.7  T
   8   -340.4050569 -0.885711E-08  0.513E-04    6.45      13.8  T
   9   -340.4050569 -0.353356E-08  0.140E-04    6.45      50.7  T
     SCC iter.                  ...        0 min,  0.451 sec
     gradient                   ...        0 min,  0.385 sec
 * total energy  :  -338.2176042 Eh     change       -0.5937557E-01 Eh
   gradient norm :     0.0742169 Eh/α   predicted    -0.5684796E-01 (  -4.26%)
   displ. norm   :     0.7748162 α      lambda       -0.4820349E-01
   maximum displ.:     0.1811547 α      in ANC's #386, #324, #304, ...

........................................................................
.............................. CYCLE    5 ..............................
........................................................................

 iter      E             dE          RMSdq      gap      omega  full diag
   1   -340.4145431 -0.340415E+03  0.141E-01    6.54       0.0  T
   2   -340.4145393  0.386406E-05  0.154E-01    6.54       1.0  T
   3   -340.4146455 -0.106180E-03  0.582E-02    6.54       1.0  T
   4   -340.4146555 -0.100770E-04  0.287E-02    6.55       1.0  T
   5   -340.4146577 -0.217592E-05  0.148E-02    6.55       1.0  T
   6   -340.4146595 -0.180522E-05  0.316E-03    6.55       2.2  T
   7   -340.4146597 -0.176258E-06  0.866E-04    6.55       8.2  T
   8   -340.4146597 -0.752289E-08  0.390E-04    6.55      18.2  T
     SCC iter.                  ...        0 min,  0.399 sec
     gradient                   ...        0 min,  0.390 sec
 * total energy  :  -338.2583399 Eh     change       -0.4073574E-01 Eh
   gradient norm :     0.0667214 Eh/α   predicted    -0.3857106E-01 (  -5.31%)
   displ. norm   :     0.7954423 α      lambda       -0.3658504E-01
   maximum displ.:     0.1753186 α      in ANC's #324, #386, #304, ...

........................................................................
.............................. CYCLE    6 ..............................
........................................................................

 iter      E             dE          RMSdq      gap      omega  full diag
   1   -340.4543130 -0.340454E+03  0.112E-01    6.66       0.0  T
   2   -340.4543183 -0.537816E-05  0.114E-01    6.67       1.0  T
   3   -340.4543730 -0.546465E-04  0.511E-02    6.67       1.0  T
   4   -340.4543811 -0.813866E-05  0.229E-02    6.67       1.0  T
   5   -340.4543828 -0.168758E-05  0.109E-02    6.67       1.0  T
   6   -340.4543838 -0.980369E-06  0.260E-03    6.67       2.7  T
   7   -340.4543839 -0.116868E-06  0.742E-04    6.67       9.6  T
   8   -340.4543839 -0.673202E-08  0.273E-04    6.67      26.0  T
     SCC iter.                  ...        0 min,  0.394 sec
     gradient                   ...        0 min,  0.385 sec
 * total energy  :  -338.2898073 Eh     change       -0.3146742E-01 Eh
   gradient norm :     0.0542042 Eh/α   predicted    -0.2986674E-01 (  -5.09%)
   displ. norm   :     0.8439067 α      lambda       -0.3005054E-01
   maximum displ.:     0.1656026 α      in ANC's #324, #1, #386, ...

........................................................................
.............................. CYCLE    7 ..............................
........................................................................

 iter      E             dE          RMSdq      gap      omega  full diag
   1   -340.4751285 -0.340475E+03  0.123E-01    6.76       0.0  T
   2   -340.4751596 -0.311509E-04  0.987E-02    6.77       1.0  T
   3   -340.4751817 -0.220520E-04  0.706E-02    6.77       1.0  T
   4   -340.4752013 -0.196187E-04  0.210E-02    6.78       1.0  T
   5   -340.4752029 -0.159092E-05  0.976E-03    6.78       1.0  T
   6   -340.4752036 -0.768763E-06  0.343E-03    6.78       2.1  T
   7   -340.4752038 -0.143507E-06  0.881E-04    6.78       8.0  T
   8   -340.4752038 -0.835405E-08  0.240E-04    6.78      29.5  T
     SCC iter.                  ...        0 min,  0.400 sec
     gradient                   ...        0 min,  0.395 sec
 * total energy  :  -338.3140669 Eh     change       -0.2425957E-01 Eh
   gradient norm :     0.0741697 Eh/α   predicted    -0.2572595E-01 (   6.04%)
   displ. norm   :     0.8862657 α      lambda       -0.3274744E-01
   maximum displ.:     0.1745976 α      in ANC's #324, #386, #387, ...

........................................................................
.............................. CYCLE    8 ..............................
........................................................................

 iter      E             dE          RMSdq      gap      omega  full diag
   1   -340.5211862 -0.340521E+03  0.149E-01    6.86       0.0  T
   2   -340.5212290 -0.428539E-04  0.127E-01    6.87       1.0  T
   3   -340.5212783 -0.492675E-04  0.801E-02    6.87       1.0  T
   4   -340.5213037 -0.253791E-04  0.271E-02    6.87       1.0  T
   5   -340.5213067 -0.300439E-05  0.120E-02    6.87       1.0  T
   6   -340.5213078 -0.115870E-05  0.453E-03    6.87       1.6  T
   7   -340.5213081 -0.230531E-06  0.113E-03    6.87       6.3  T
   8   -340.5213081 -0.103368E-07  0.344E-04    6.87      20.6  T
   9   -340.5213081 -0.127699E-08  0.101E-04    6.87      69.8  T
     SCC iter.                  ...        0 min,  0.445 sec
     gradient                   ...        0 min,  0.389 sec
 * total energy  :  -338.3349233 Eh     change       -0.2085635E-01 Eh
   gradient norm :     0.0723038 Eh/α   predicted    -0.2923475E-01 (  40.17%)
   displ. norm   :     0.7850077 α      lambda       -0.2116100E-01
   maximum displ.:     0.1344286 α      in ANC's #273, #202, #291, ...

........................................................................
.............................. CYCLE    9 ..............................
........................................................................

 iter      E             dE          RMSdq      gap      omega  full diag
   1   -340.5153112 -0.340515E+03  0.107E-01    6.91       0.0  T
   2   -340.5153312 -0.200168E-04  0.792E-02    6.91       1.0  T
   3   -340.5153338 -0.260751E-05  0.696E-02    6.92       1.0  T
   4   -340.5153569 -0.230916E-04  0.101E-02    6.92       1.0  T
   5   -340.5153575 -0.561641E-06  0.557E-03    6.92       1.3  T
   6   -340.5153577 -0.249317E-06  0.262E-03    6.92       2.7  T
   7   -340.5153578 -0.612691E-07  0.788E-04    6.92       9.0  T
   8   -340.5153578 -0.678403E-08  0.333E-04    6.92      21.3  T
     SCC iter.                  ...        0 min,  0.400 sec
     gradient                   ...        0 min,  0.397 sec
 * total energy  :  -338.3524275 Eh     change       -0.1750426E-01 Eh
   gradient norm :     0.0714015 Eh/α   predicted    -0.1710061E-01 (  -2.31%)
   displ. norm   :     0.8247677 α      lambda       -0.2478856E-01
   maximum displ.:     0.1916012 α      in ANC's #313, #1, #315, ...

........................................................................
.............................. CYCLE   10 ..............................
........................................................................

 iter      E             dE          RMSdq      gap      omega  full diag
   1   -340.5523553 -0.340552E+03  0.133E-01    6.93       0.0  T
   2   -340.5524302 -0.749159E-04  0.817E-02    6.93       1.0  T
   3   -340.5524295  0.740132E-06  0.732E-02    6.93       1.0  T
   4   -340.5524606 -0.310985E-04  0.164E-02    6.93       1.0  T
   5   -340.5524624 -0.183454E-05  0.565E-03    6.93       1.3  T
   6   -340.5524628 -0.369601E-06  0.373E-03    6.93       1.9  T
   7   -340.5524629 -0.708516E-07  0.141E-03    6.93       5.0  T
   8   -340.5524629 -0.148705E-07  0.566E-04    6.93      12.5  T
   9   -340.5524629 -0.381669E-08  0.996E-05    6.93      71.2  T
     SCC iter.                  ...        0 min,  0.448 sec
     gradient                   ...        0 min,  0.392 sec
 * total energy  :  -338.3655222 Eh     change       -0.1309464E-01 Eh
   gradient norm :     0.0900934 Eh/α   predicted    -0.2082541E-01 (  59.04%)
   displ. norm   :     0.6912889 α      lambda       -0.2132679E-01
   maximum displ.:     0.1987065 α      in ANC's #202, #295, #230, ...

........................................................................
.............................. CYCLE   11 ..............................
........................................................................

 iter      E             dE          RMSdq      gap      omega  full diag
   1   -340.5585191 -0.340559E+03  0.126E-01    6.92       0.0  T
   2   -340.5585792 -0.600842E-04  0.763E-02    6.92       1.0  T
   3   -340.5585956 -0.163880E-04  0.453E-02    6.92       1.0  T
   4   -340.5586046 -0.896362E-05  0.160E-02    6.92       1.0  T
   5   -340.5586062 -0.159726E-05  0.543E-03    6.92       1.3  T
   6   -340.5586064 -0.292609E-06  0.357E-03    6.92       2.0  T
   7   -340.5586065 -0.742509E-07  0.137E-03    6.92       5.2  T
   8   -340.5586065 -0.185759E-07  0.499E-04    6.92      14.2  T
   9   -340.5586065 -0.348064E-08  0.113E-04    6.92      62.6  T
     SCC iter.                  ...        0 min,  0.448 sec
     gradient                   ...        0 min,  0.391 sec
 * total energy  :  -338.3778108 Eh     change       -0.1228863E-01 Eh
   gradient norm :     0.0911423 Eh/α   predicted    -0.1575925E-01 (  28.24%)
   displ. norm   :     0.7118390 α      lambda       -0.2744096E-01
   maximum displ.:     0.1352401 α      in ANC's #291, #195, #273, ...

........................................................................
.............................. CYCLE   12 ..............................
........................................................................

 iter      E             dE          RMSdq      gap      omega  full diag
   1   -340.5523834 -0.340552E+03  0.176E-01    6.94       0.0  T
   2   -340.5524942 -0.110823E-03  0.127E-01    6.95       1.0  T
   3   -340.5525104 -0.161910E-04  0.113E-01    6.95       1.0  T
   4   -340.5525806 -0.702161E-04  0.189E-02    6.95       1.0  T
   5   -340.5525832 -0.257949E-05  0.124E-02    6.95       1.0  T
   6   -340.5525844 -0.119251E-05  0.634E-03    6.95       1.1  T
   7   -340.5525847 -0.267470E-06  0.169E-03    6.95       4.2  T
   8   -340.5525847 -0.244245E-07  0.665E-04    6.95      10.7  T
   9   -340.5525847 -0.544907E-08  0.139E-04    6.95      50.8  T
     SCC iter.                  ...        0 min,  0.450 sec
     gradient                   ...        0 min,  0.389 sec
 * total energy  :  -338.3804611 Eh     change       -0.2650258E-02 Eh
   gradient norm :     0.1425882 Eh/α   predicted    -0.2067286E-01 ( 680.03%)
   displ. norm   :     0.5515519 α      lambda       -0.3158898E-01
   maximum displ.:     0.1928954 α      in ANC's #315, #313, #195, ...

........................................................................
.............................. CYCLE   13 ..............................
........................................................................

 iter      E             dE          RMSdq      gap      omega  full diag
   1   -340.5464179 -0.340546E+03  0.155E-01    6.94       0.0  T
   2   -340.5465381 -0.120158E-03  0.946E-02    6.95       1.0  T
   3   -340.5465412 -0.309928E-05  0.893E-02    6.95       1.0  T
   4   -340.5465940 -0.528031E-04  0.139E-02    6.95       1.0  T
   5   -340.5465960 -0.203994E-05  0.101E-02    6.95       1.0  T
   6   -340.5465967 -0.619981E-06  0.432E-03    6.95       1.6  T
   7   -340.5465968 -0.101289E-06  0.163E-03    6.95       4.4  T
   8   -340.5465968 -0.298388E-07  0.344E-04    6.95      20.6  T
   9   -340.5465968 -0.161617E-08  0.125E-04    6.95      56.8  T
     SCC iter.                  ...        0 min,  0.453 sec
     gradient                   ...        0 min,  0.393 sec
 * total energy  :  -338.3877589 Eh     change       -0.7297792E-02 Eh
   gradient norm :     0.1413099 Eh/α   predicted    -0.2059933E-01 ( 182.27%)
   displ. norm   :     0.6302405 α      lambda       -0.4378456E-01
   maximum displ.:     0.1420500 α      in ANC's #1, #195, #197, ...

........................................................................
.............................. CYCLE   14 ..............................
........................................................................

 iter      E             dE          RMSdq      gap      omega  full diag
   1   -340.5828388 -0.340583E+03  0.222E-01    6.86       0.0  T
   2   -340.5830376 -0.198852E-03  0.170E-01    6.86       1.0  T
   3   -340.5831117 -0.740228E-04  0.130E-01    6.86       1.0  T
   4   -340.5832103 -0.986309E-04  0.360E-02    6.86       1.0  T
   5   -340.5832206 -0.102945E-04  0.114E-02    6.86       1.0  T
   6   -340.5832224 -0.179605E-05  0.448E-03    6.86       1.6  T
   7   -340.5832224 -0.725145E-07  0.329E-03    6.86       2.2  T
   8   -340.5832225 -0.752040E-07  0.880E-04    6.86       8.1  T
   9   -340.5832225 -0.100464E-07  0.202E-04    6.86      35.1  T
     SCC iter.                  ...        0 min,  0.445 sec
     gradient                   ...        0 min,  0.387 sec
 * total energy  :  -338.3821167 Eh     change        0.5642136E-02 Eh
   gradient norm :     0.1854238 Eh/α   predicted    -0.3058796E-01 (-642.13%)
   displ. norm   :     0.4625807 α      lambda       -0.4544993E-01
   maximum displ.:     0.1308841 α      in ANC's #315, #291, #331, ...

........................................................................
.............................. CYCLE   15 ..............................
........................................................................

 iter      E             dE          RMSdq      gap      omega  full diag
   1   -340.5889216 -0.340589E+03  0.153E-01    6.91       0.0  T
   2   -340.5890398 -0.118194E-03  0.104E-01    6.91       1.0  T
   3   -340.5890455 -0.575812E-05  0.103E-01    6.91       1.0  T
   4   -340.5891107 -0.652092E-04  0.174E-02    6.91       1.0  T
   5   -340.5891137 -0.297967E-05  0.829E-03    6.91       1.0  T
   6   -340.5891145 -0.815618E-06  0.489E-03    6.91       1.5  T
   7   -340.5891147 -0.129608E-06  0.197E-03    6.91       3.6  T
   8   -340.5891147 -0.410720E-07  0.487E-04    6.91      14.6  T
   9   -340.5891147 -0.352992E-08  0.137E-04    6.91      51.7  T
     SCC iter.                  ...        0 min,  0.451 sec
     gradient                   ...        0 min,  0.398 sec
 * total energy  :  -338.4012980 Eh     change       -0.1918123E-01 Eh
   gradient norm :     0.1040622 Eh/α   predicted    -0.2758767E-01 (  43.83%)
   displ. norm   :     0.7378168 α      lambda       -0.4358416E-01
   maximum displ.:     0.2538346 α      in ANC's #315, #365, #1, ...

........................................................................
.............................. CYCLE   16 ..............................
........................................................................

 iter      E             dE          RMSdq      gap      omega  full diag
   1   -340.5001847 -0.340500E+03  0.271E-01    6.93       0.0  T
   2   -340.5004651 -0.280334E-03  0.210E-01    6.93       1.0  T
   3   -340.5005849 -0.119767E-03  0.157E-01    6.94       1.0  T
   4   -340.5007342 -0.149346E-03  0.440E-02    6.94       1.0  T
   5   -340.5007497 -0.155095E-04  0.136E-02    6.94       1.0  T
   6   -340.5007523 -0.261394E-05  0.417E-03    6.94       1.7  T
   7   -340.5007524 -0.583659E-07  0.362E-03    6.94       2.0  T
   8   -340.5007525 -0.888188E-07  0.119E-03    6.94       5.9  T
   9   -340.5007525 -0.148238E-07  0.246E-04    6.94      28.8  T
  10   -340.5007525 -0.104683E-08  0.107E-04    6.94      66.5  T
     SCC iter.                  ...        0 min,  0.491 sec
     gradient                   ...        0 min,  0.398 sec
 * total energy  :  -338.3706662 Eh     change        0.3063175E-01 Eh
   gradient norm :     0.2740070 Eh/α   predicted    -0.3365511E-01 (-209.87%)
   displ. norm   :     0.3957335 α      lambda       -0.7248655E-01
   maximum displ.:     0.1411811 α      in ANC's #315, #313, #374, ...

........................................................................
.............................. CYCLE   17 ..............................
........................................................................

 iter      E             dE          RMSdq      gap      omega  full diag
   1   -340.5806401 -0.340581E+03  0.165E-01    6.95       0.0  T
   2   -340.5807501 -0.110004E-03  0.127E-01    6.95       1.0  T
   3   -340.5807961 -0.460301E-04  0.957E-02    6.95       1.0  T
   4   -340.5808544 -0.582705E-04  0.274E-02    6.95       1.0  T
   5   -340.5808601 -0.575315E-05  0.989E-03    6.95       1.0  T
   6   -340.5808608 -0.739075E-06  0.838E-03    6.95       1.0  T
   7   -340.5808613 -0.471776E-06  0.195E-03    6.95       3.6  T
   8   -340.5808614 -0.316306E-07  0.693E-04    6.95      10.2  T
   9   -340.5808614 -0.508169E-08  0.111E-04    6.95      63.6  T
     SCC iter.                  ...        0 min,  0.451 sec
     gradient                   ...        0 min,  0.381 sec
 * total energy  :  -338.4118659 Eh     change       -0.4119967E-01 Eh
   gradient norm :     0.0733235 Eh/α   predicted    -0.4191915E-01 (   1.75%)
   displ. norm   :     0.7216098 α      lambda       -0.2944553E-01
   maximum displ.:     0.2014205 α      in ANC's #315, #331, #291, ...

........................................................................
.............................. CYCLE   18 ..............................
........................................................................

 iter      E             dE          RMSdq      gap      omega  full diag
   1   -340.5512063 -0.340551E+03  0.230E-01    6.51       0.0  T
   2   -340.5514927 -0.286434E-03  0.157E-01    6.49       1.0  T
   3   -340.5515222 -0.294789E-04  0.147E-01    6.48       1.0  T
   4   -340.5516499 -0.127743E-03  0.353E-02    6.48       1.0  T
   5   -340.5516610 -0.110920E-04  0.133E-02    6.48       1.0  T
   6   -340.5516630 -0.201282E-05  0.111E-02    6.48       1.0  T
   7   -340.5516638 -0.756770E-06  0.317E-03    6.49       2.2  T
   8   -340.5516639 -0.111832E-06  0.110E-03    6.49       6.4  T
   9   -340.5516639 -0.168660E-07  0.258E-04    6.49      27.5  T
  10   -340.5516639 -0.101835E-08  0.120E-04    6.49      59.2  T
     SCC iter.                  ...        0 min,  0.501 sec
     gradient                   ...        0 min,  0.392 sec
 * total energy  :  -338.3816835 Eh     change        0.3018240E-01 Eh
   gradient norm :     0.2249667 Eh/α   predicted    -0.2238922E-01 (-174.18%)
   displ. norm   :     0.4245661 α      lambda       -0.6663232E-01
   maximum displ.:     0.1520279 α      in ANC's #315, #331, #202, ...

........................................................................
.............................. CYCLE   19 ..............................
........................................................................

 iter      E             dE          RMSdq      gap      omega  full diag
   1   -340.5748812 -0.340575E+03  0.154E-01    6.92       0.0  T
   2   -340.5750120 -0.130724E-03  0.100E-01    6.92       1.0  T
   3   -340.5750155 -0.357894E-05  0.105E-01    6.92       1.0  T
   4   -340.5750838 -0.682678E-04  0.179E-02    6.92       1.0  T
   5   -340.5750870 -0.322008E-05  0.869E-03    6.92       1.0  T
   6   -340.5750879 -0.895815E-06  0.502E-03    6.92       1.4  T
   7   -340.5750881 -0.134712E-06  0.206E-03    6.92       3.4  T
   8   -340.5750881 -0.433116E-07  0.509E-04    6.92      13.9  T
   9   -340.5750881 -0.357250E-08  0.134E-04    6.92      52.7  T
     SCC iter.                  ...        0 min,  0.445 sec
     gradient                   ...        0 min,  0.399 sec
 * total energy  :  -338.4204024 Eh     change       -0.3871890E-01 Eh
   gradient norm :     0.0770262 Eh/α   predicted    -0.3932163E-01 (   1.56%)
   displ. norm   :     0.7151104 α      lambda       -0.2891325E-01
   maximum displ.:     0.1714512 α      in ANC's #313, #197, #177, ...

........................................................................
.............................. CYCLE   20 ..............................
........................................................................

 iter      E             dE          RMSdq      gap      omega  full diag
   1   -340.6679607 -0.340668E+03  0.239E-01    7.00       0.0  T
   2   -340.6682791 -0.318407E-03  0.147E-01    7.00       1.0  T
   3   -340.6683151 -0.359702E-04  0.142E-01    7.00       1.0  T
   4   -340.6684255 -0.110458E-03  0.278E-02    7.00       1.0  T
   5   -340.6684321 -0.658483E-05  0.151E-02    7.00       1.0  T
   6   -340.6684340 -0.191638E-05  0.111E-02    7.00       1.0  T
   7   -340.6684348 -0.770435E-06  0.272E-03    7.00       2.6  T
   8   -340.6684349 -0.789566E-07  0.101E-03    7.00       7.0  T
   9   -340.6684349 -0.147497E-07  0.230E-04    7.00      30.8  T
  10   -340.6684349 -0.119951E-08  0.110E-04    7.00      64.4  T
     SCC iter.                  ...        0 min,  0.498 sec
     gradient                   ...        0 min,  0.394 sec
 * total energy  :  -338.3763711 Eh     change        0.4403125E-01 Eh
   gradient norm :     0.3156140 Eh/α   predicted    -0.2184953E-01 (-149.62%)
   displ. norm   :     0.4187266 α      lambda       -0.8910239E-01
   maximum displ.:     0.1371758 α      in ANC's #313, #202, #295, ...
 * RMSD in coord.:     0.6028439 α      energy gain  -0.7020605E+00 Eh

generating ANC from model Hessian ...
Using Lindh-Hessian (1995)
 Shifting diagonal of input Hessian by    1.0669655736598140E-002
 Lowest  eigenvalues of input Hessian
    0.010000    0.010147    0.010319    0.010352    0.010414    0.010437
    0.010463    0.010473    0.010489    0.010495    0.010502    0.010503
    0.010510    0.010514    0.010516    0.010519    0.010525    0.010530
 Highest eigenvalues
    1.458534    1.462705    1.467560    1.482671    1.485933    1.546317


........................................................................
.............................. CYCLE   21 ..............................
........................................................................

 iter      E             dE          RMSdq      gap      omega  full diag
   1   -340.5838749 -0.340584E+03  0.165E-01    6.97       0.0  T
   2   -340.5840525 -0.177588E-03  0.996E-02    6.97       1.0  T
   3   -340.5840750 -0.224670E-04  0.947E-02    6.97       1.0  T
   4   -340.5841283 -0.532513E-04  0.181E-02    6.97       1.0  T
   5   -340.5841322 -0.392242E-05  0.857E-03    6.97       1.0  T
   6   -340.5841331 -0.932208E-06  0.264E-03    6.97       2.7  T
   7   -340.5841332 -0.763479E-07  0.134E-03    6.97       5.3  T
   8   -340.5841332 -0.143999E-07  0.864E-04    6.97       8.2  T
   9   -340.5841332 -0.602677E-08  0.162E-04    6.97      43.8  T
     SCC iter.                  ...        0 min,  0.438 sec
     gradient                   ...        0 min,  0.392 sec
 * total energy  :  -338.4239792 Eh     change       -0.4760812E-01 Eh
   gradient norm :     0.0933486 Eh/α   predicted     0.0000000E+00 (-100.00%)
   displ. norm   :     0.6190519 α      lambda       -0.1878701E-01
   maximum displ.:     0.1300567 α      in ANC's #220, #70, #7, ...

........................................................................
.............................. CYCLE   22 ..............................
........................................................................

 iter      E             dE          RMSdq      gap      omega  full diag
   1   -340.6007298 -0.340601E+03  0.126E-01    6.97       0.0  T
   2   -340.6007575 -0.277010E-04  0.784E-02    6.98       1.0  T
   3   -340.6007559  0.168871E-05  0.602E-02    6.98       1.0  T
   4   -340.6007733 -0.174505E-04  0.762E-03    6.98       1.0  T
   5   -340.6007737 -0.377717E-06  0.386E-03    6.98       1.8  T
   6   -340.6007738 -0.684191E-07  0.331E-03    6.98       2.1  T
   7   -340.6007738 -0.721155E-07  0.706E-04    6.98      10.0  T
   8   -340.6007738 -0.507578E-08  0.292E-04    6.98      24.3  T
     SCC iter.                  ...        0 min,  0.395 sec
     gradient                   ...        0 min,  0.395 sec
 * total energy  :  -338.4394095 Eh     change       -0.1543023E-01 Eh
   gradient norm :     0.0423072 Eh/α   predicted    -0.1299642E-01 ( -15.77%)
   displ. norm   :     0.7797931 α      lambda       -0.1531966E-01
   maximum displ.:     0.1383270 α      in ANC's #138, #276, #270, ...

........................................................................
.............................. CYCLE   23 ..............................
........................................................................

 iter      E             dE          RMSdq      gap      omega  full diag
   1   -340.5935648 -0.340594E+03  0.141E-01    6.97       0.0  T
   2   -340.5936029 -0.381133E-04  0.892E-02    6.97       1.0  T
   3   -340.5935901  0.128281E-04  0.856E-02    6.97       1.0  T
   4   -340.5936247 -0.345999E-04  0.108E-02    6.97       1.0  T
   5   -340.5936254 -0.765358E-06  0.637E-03    6.97       1.1  T
   6   -340.5936257 -0.303735E-06  0.345E-03    6.97       2.1  T
   7   -340.5936258 -0.879136E-07  0.878E-04    6.97       8.1  T
   8   -340.5936258 -0.904407E-08  0.346E-04    6.97      20.5  T
     SCC iter.                  ...        0 min,  0.398 sec
     gradient                   ...        0 min,  0.399 sec
 * total energy  :  -338.4509420 Eh     change       -0.1153252E-01 Eh
   gradient norm :     0.0614816 Eh/α   predicted    -0.1231763E-01 (   6.81%)
   displ. norm   :     0.7540882 α      lambda       -0.1206788E-01
   maximum displ.:     0.1389689 α      in ANC's #2, #270, #260, ...

........................................................................
.............................. CYCLE   24 ..............................
........................................................................

 iter      E             dE          RMSdq      gap      omega  full diag
   1   -340.5970568 -0.340597E+03  0.114E-01    6.96       0.0  T
   2   -340.5970838 -0.269877E-04  0.707E-02    6.96       1.0  T
   3   -340.5970837  0.155088E-06  0.524E-02    6.97       1.0  T
   4   -340.5970970 -0.133377E-04  0.665E-03    6.97       1.1  T
   5   -340.5970974 -0.380964E-06  0.451E-03    6.97       1.6  T
   6   -340.5970975 -0.140828E-06  0.302E-03    6.97       2.3  T
   7   -340.5970976 -0.582473E-07  0.771E-04    6.97       9.2  T
   8   -340.5970976 -0.770035E-08  0.253E-04    6.97      28.0  T
     SCC iter.                  ...        0 min,  0.394 sec
     gradient                   ...        0 min,  0.390 sec
 * total energy  :  -338.4598741 Eh     change       -0.8932065E-02 Eh
   gradient norm :     0.0719722 Eh/α   predicted    -0.9465249E-02 (   5.97%)
   displ. norm   :     0.7396381 α      lambda       -0.1375751E-01
   maximum displ.:     0.1400733 α      in ANC's #2, #190, #270, ...

........................................................................
.............................. CYCLE   25 ..............................
........................................................................

 iter      E             dE          RMSdq      gap      omega  full diag
   1   -340.6255505 -0.340626E+03  0.105E-01    6.97       0.0  T
   2   -340.6255727 -0.222429E-04  0.648E-02    6.97       1.0  T
   3   -340.6255687  0.405229E-05  0.561E-02    6.98       1.0  T
   4   -340.6255847 -0.159839E-04  0.680E-03    6.98       1.0  T
   5   -340.6255850 -0.370749E-06  0.455E-03    6.98       1.6  T
   6   -340.6255852 -0.168236E-06  0.266E-03    6.98       2.7  T
   7   -340.6255853 -0.489302E-07  0.729E-04    6.98       9.7  T
   8   -340.6255853 -0.956794E-08  0.130E-04    6.98      54.5  T
     SCC iter.                  ...        0 min,  0.396 sec
     gradient                   ...        0 min,  0.410 sec
 * total energy  :  -338.4705325 Eh     change       -0.1065849E-01 Eh
   gradient norm :     0.0505008 Eh/α   predicted    -0.1064188E-01 (  -0.16%)
   displ. norm   :     0.7814164 α      lambda       -0.1442837E-01
   maximum displ.:     0.1705398 α      in ANC's #276, #138, #208, ...

........................................................................
.............................. CYCLE   26 ..............................
........................................................................

 iter      E             dE          RMSdq      gap      omega  full diag
   1   -340.6370356 -0.340637E+03  0.131E-01    7.00       0.0  T
   2   -340.6370914 -0.558130E-04  0.818E-02    7.00       1.0  T
   3   -340.6370736  0.178066E-04  0.868E-02    7.00       1.0  T
   4   -340.6371173 -0.437676E-04  0.925E-03    7.00       1.0  T
   5   -340.6371183 -0.965317E-06  0.542E-03    7.00       1.3  T
   6   -340.6371185 -0.248197E-06  0.373E-03    7.00       1.9  T
   7   -340.6371186 -0.945292E-07  0.126E-03    7.00       5.6  T
   8   -340.6371187 -0.208135E-07  0.286E-04    7.00      24.8  T
   9   -340.6371187 -0.134139E-08  0.102E-04    7.00      69.3  T
     SCC iter.                  ...        0 min,  0.448 sec
     gradient                   ...        0 min,  0.396 sec
 * total energy  :  -338.4772066 Eh     change       -0.6674092E-02 Eh
   gradient norm :     0.0817852 Eh/α   predicted    -0.1161925E-01 (  74.09%)
   displ. norm   :     0.6473172 α      lambda       -0.1739171E-01
   maximum displ.:     0.1132685 α      in ANC's #277, #236, #279, ...

........................................................................
.............................. CYCLE   27 ..............................
........................................................................

 iter      E             dE          RMSdq      gap      omega  full diag
   1   -340.6573724 -0.340657E+03  0.123E-01    7.02       0.0  T
   2   -340.6574418 -0.693926E-04  0.748E-02    7.02       1.0  T
   3   -340.6574541 -0.123584E-04  0.545E-02    7.03       1.0  T
   4   -340.6574699 -0.157761E-04  0.994E-03    7.03       1.0  T
   5   -340.6574711 -0.118835E-05  0.696E-03    7.03       1.0  T
   6   -340.6574714 -0.324952E-06  0.329E-03    7.03       2.2  T
   7   -340.6574715 -0.800212E-07  0.126E-03    7.03       5.6  T
   8   -340.6574715 -0.220880E-07  0.273E-04    7.03      26.0  T
   9   -340.6574715 -0.116535E-08  0.105E-04    7.03      67.7  T
     SCC iter.                  ...        0 min,  0.450 sec
     gradient                   ...        0 min,  0.383 sec
 * total energy  :  -338.4838247 Eh     change       -0.6618040E-02 Eh
   gradient norm :     0.0926681 Eh/α   predicted    -0.1233960E-01 (  86.45%)
   displ. norm   :     0.6727691 α      lambda       -0.1999178E-01
   maximum displ.:     0.1640851 α      in ANC's #223, #244, #138, ...

........................................................................
.............................. CYCLE   28 ..............................
........................................................................

 iter      E             dE          RMSdq      gap      omega  full diag
   1   -340.6514982 -0.340651E+03  0.146E-01    7.00       0.0  T
   2   -340.6515868 -0.885911E-04  0.883E-02    7.00       1.0  T
   3   -340.6516206 -0.337996E-04  0.327E-02    7.00       1.0  T
   4   -340.6516271 -0.657710E-05  0.120E-02    7.00       1.0  T
   5   -340.6516287 -0.156448E-05  0.604E-03    7.00       1.2  T
   6   -340.6516289 -0.169484E-06  0.365E-03    7.00       1.9  T
   7   -340.6516290 -0.708786E-07  0.151E-03    7.00       4.7  T
   8   -340.6516290 -0.240930E-07  0.288E-04    7.00      24.6  T
   9   -340.6516290 -0.104848E-08  0.101E-04    7.00      70.4  T
     SCC iter.                  ...        0 min,  0.454 sec
     gradient                   ...        0 min,  0.398 sec
 * total energy  :  -338.4854208 Eh     change       -0.1596134E-02 Eh
   gradient norm :     0.1131364 Eh/α   predicted    -0.1452022E-01 ( 809.71%)
   displ. norm   :     0.5269617 α      lambda       -0.1956462E-01
   maximum displ.:     0.1715440 α      in ANC's #138, #70, #208, ...

........................................................................
.............................. CYCLE   29 ..............................
........................................................................

 iter      E             dE          RMSdq      gap      omega  full diag
   1   -340.6283730 -0.340628E+03  0.117E-01    6.98       0.0  T
   2   -340.6284308 -0.578181E-04  0.717E-02    6.99       1.0  T
   3   -340.6284400 -0.914032E-05  0.615E-02    6.99       1.0  T
   4   -340.6284594 -0.194350E-04  0.958E-03    6.99       1.0  T
   5   -340.6284602 -0.791283E-06  0.761E-03    6.99       1.0  T
   6   -340.6284606 -0.383122E-06  0.325E-03    6.99       2.2  T
   7   -340.6284607 -0.773915E-07  0.119E-03    6.99       6.0  T
   8   -340.6284607 -0.180397E-07  0.294E-04    6.99      24.1  T
   9   -340.6284607 -0.909438E-09  0.896E-05    6.99      79.1  T
     SCC iter.                  ...        0 min,  0.470 sec
     gradient                   ...        0 min,  0.392 sec
 * total energy  :  -338.4930863 Eh     change       -0.7665529E-02 Eh
   gradient norm :     0.0894595 Eh/α   predicted    -0.1249876E-01 (  63.05%)
   displ. norm   :     0.6402699 α      lambda       -0.2268911E-01
   maximum displ.:     0.2491207 α      in ANC's #276, #223, #153, ...

........................................................................
.............................. CYCLE   30 ..............................
........................................................................

 iter      E             dE          RMSdq      gap      omega  full diag
   1   -340.6966860 -0.340697E+03  0.168E-01    7.01       0.0  T
   2   -340.6968301 -0.144134E-03  0.103E-01    7.01       1.0  T
   3   -340.6968222  0.798181E-05  0.108E-01    7.00       1.0  T
   4   -340.6968951 -0.729268E-04  0.134E-02    7.00       1.0  T
   5   -340.6968980 -0.288772E-05  0.580E-03    7.00       1.2  T
   6   -340.6968981 -0.158471E-06  0.349E-03    7.00       2.0  T
   7   -340.6968982 -0.961662E-07  0.950E-04    7.00       7.5  T
   8   -340.6968982 -0.110502E-07  0.265E-04    7.00      26.7  T
     SCC iter.                  ...        0 min,  0.404 sec
     gradient                   ...        0 min,  0.385 sec
 * total energy  :  -338.4862093 Eh     change        0.6877016E-02 Eh
   gradient norm :     0.1563759 Eh/α   predicted    -0.1599522E-01 (-332.59%)
   displ. norm   :     0.4573108 α      lambda       -0.3361838E-01
   maximum displ.:     0.1228730 α      in ANC's #223, #70, #276, ...

........................................................................
.............................. CYCLE   31 ..............................
........................................................................

 iter      E             dE          RMSdq      gap      omega  full diag
   1   -340.6493080 -0.340649E+03  0.123E-01    7.00       0.0  T
   2   -340.6493799 -0.719619E-04  0.737E-02    7.00       1.0  T
   3   -340.6494079 -0.280087E-04  0.305E-02    7.00       1.0  T
   4   -340.6494137 -0.574194E-05  0.117E-02    7.00       1.0  T
   5   -340.6494152 -0.152495E-05  0.626E-03    7.00       1.1  T
   6   -340.6494154 -0.236049E-06  0.318E-03    7.00       2.2  T
   7   -340.6494155 -0.570544E-07  0.139E-03    7.00       5.1  T
   8   -340.6494155 -0.257521E-07  0.180E-04    7.00      39.3  T
   9   -340.6494155 -0.473449E-09  0.988E-05    7.00      71.8  T
     SCC iter.                  ...        0 min,  0.456 sec
     gradient                   ...        0 min,  0.383 sec
 * total energy  :  -338.5005296 Eh     change       -0.1432030E-01 Eh
   gradient norm :     0.0819376 Eh/α   predicted    -0.2032455E-01 (  41.93%)
   displ. norm   :     0.6693752 α      lambda       -0.2337984E-01
   maximum displ.:     0.1628660 α      in ANC's #152, #153, #168, ...

........................................................................
.............................. CYCLE   32 ..............................
........................................................................

 iter      E             dE          RMSdq      gap      omega  full diag
   1   -340.6616343 -0.340662E+03  0.176E-01    6.97       0.0  T
   2   -340.6617675 -0.133211E-03  0.107E-01    6.98       1.0  T
   3   -340.6617779 -0.104132E-04  0.924E-02    6.98       1.0  T
   4   -340.6618361 -0.581549E-04  0.153E-02    6.98       1.0  T
   5   -340.6618380 -0.191910E-05  0.132E-02    6.98       1.0  T
   6   -340.6618392 -0.119477E-05  0.495E-03    6.98       1.4  T
   7   -340.6618394 -0.168308E-06  0.175E-03    6.98       4.1  T
   8   -340.6618394 -0.500565E-07  0.412E-04    6.98      17.2  T
   9   -340.6618394 -0.216505E-08  0.161E-04    6.98      44.0  T
     SCC iter.                  ...        0 min,  0.455 sec
     gradient                   ...        0 min,  0.378 sec
 * total energy  :  -338.4889999 Eh     change        0.1152976E-01 Eh
   gradient norm :     0.1742292 Eh/α   predicted    -0.1692773E-01 (-246.82%)
   displ. norm   :     0.4041391 α      lambda       -0.3231755E-01
   maximum displ.:     0.0935301 α      in ANC's #152, #153, #122, ...

........................................................................
.............................. CYCLE   33 ..............................
........................................................................

 iter      E             dE          RMSdq      gap      omega  full diag
   1   -340.6714823 -0.340671E+03  0.115E-01    6.99       0.0  T
   2   -340.6715428 -0.604994E-04  0.698E-02    6.99       1.0  T
   3   -340.6715495 -0.666550E-05  0.577E-02    6.99       1.0  T
   4   -340.6715718 -0.222829E-04  0.913E-03    6.99       1.0  T
   5   -340.6715728 -0.106640E-05  0.577E-03    6.99       1.2  T
   6   -340.6715730 -0.212671E-06  0.278E-03    6.99       2.6  T
   7   -340.6715731 -0.457438E-07  0.118E-03    6.99       6.0  T
   8   -340.6715731 -0.196735E-07  0.195E-04    6.99      36.3  T
   9   -340.6715731 -0.605780E-09  0.963E-05    6.99      73.6  T
     SCC iter.                  ...        0 min,  0.464 sec
     gradient                   ...        0 min,  0.402 sec
 * total energy  :  -338.5070640 Eh     change       -0.1806417E-01 Eh
   gradient norm :     0.0549518 Eh/α   predicted    -0.1879795E-01 (   4.06%)
   displ. norm   :     0.7733910 α      lambda       -0.2077039E-01
   maximum displ.:     0.2738506 α      in ANC's #250, #276, #70, ...

........................................................................
.............................. CYCLE   34 ..............................
........................................................................

 iter      E             dE          RMSdq      gap      omega  full diag
   1   -340.6333776 -0.340633E+03  0.197E-01    7.00       0.0  T
   2   -340.6335743 -0.196718E-03  0.118E-01    7.00       1.0  T
   3   -340.6336469 -0.725948E-04  0.619E-02    7.00       1.0  T
   4   -340.6336690 -0.221543E-04  0.174E-02    7.00       1.0  T
   5   -340.6336732 -0.421379E-05  0.868E-03    7.00       1.0  T
   6   -340.6336737 -0.411877E-06  0.479E-03    7.00       1.5  T
   7   -340.6336738 -0.172407E-06  0.252E-03    7.00       2.8  T
   8   -340.6336739 -0.813170E-07  0.322E-04    7.00      22.0  T
   9   -340.6336739 -0.195342E-08  0.164E-04    7.00      43.2  T
     SCC iter.                  ...        0 min,  0.461 sec
     gradient                   ...        0 min,  0.388 sec
 * total energy  :  -338.4859070 Eh     change        0.2115708E-01 Eh
   gradient norm :     0.1969901 Eh/α   predicted    -0.1659693E-01 (-178.45%)
   displ. norm   :     0.4122221 α      lambda       -0.4732921E-01
   maximum displ.:     0.1843313 α      in ANC's #250, #276, #194, ...

........................................................................
.............................. CYCLE   35 ..............................
........................................................................

 iter      E             dE          RMSdq      gap      omega  full diag
   1   -340.6609060 -0.340661E+03  0.130E-01    7.00       0.0  T
   2   -340.6609947 -0.886528E-04  0.779E-02    7.00       1.0  T
   3   -340.6610346 -0.399768E-04  0.226E-02    7.00       1.0  T
   4   -340.6610378 -0.317739E-05  0.125E-02    7.00       1.0  T
   5   -340.6610397 -0.185238E-05  0.430E-03    7.00       1.7  T
   6   -340.6610397 -0.785986E-07  0.325E-03    7.00       2.2  T
   7   -340.6610398 -0.688744E-07  0.136E-03    7.00       5.2  T
   8   -340.6610398 -0.226336E-07  0.188E-04    7.00      37.8  T
   9   -340.6610398 -0.495447E-09  0.111E-04    7.00      63.9  T
     SCC iter.                  ...        0 min,  0.455 sec
     gradient                   ...        0 min,  0.395 sec
 * total energy  :  -338.5131473 Eh     change       -0.2724037E-01 Eh
   gradient norm :     0.0595106 Eh/α   predicted    -0.2768587E-01 (   1.64%)
   displ. norm   :     0.6820308 α      lambda       -0.1763036E-01
   maximum displ.:     0.1402996 α      in ANC's #207, #90, #122, ...

........................................................................
.............................. CYCLE   36 ..............................
........................................................................

 iter      E             dE          RMSdq      gap      omega  full diag
   1   -340.7100144 -0.340710E+03  0.181E-01    6.98       0.0  T
   2   -340.7101778 -0.163309E-03  0.108E-01    6.98       1.0  T
   3   -340.7102380 -0.602891E-04  0.486E-02    6.98       1.0  T
   4   -340.7102515 -0.134188E-04  0.153E-02    6.98       1.0  T
   5   -340.7102545 -0.303224E-05  0.496E-03    6.98       1.4  T
   6   -340.7102546 -0.144484E-06  0.254E-03    6.98       2.8  T
   7   -340.7102547 -0.183790E-07  0.246E-03    6.98       2.9  T
   8   -340.7102547 -0.442410E-07  0.424E-04    6.98      16.7  T
   9   -340.7102547 -0.193086E-08  0.135E-04    6.98      52.5  T
     SCC iter.                  ...        0 min,  0.447 sec
     gradient                   ...        0 min,  0.391 sec
 * total energy  :  -338.4895881 Eh     change        0.2355925E-01 Eh
   gradient norm :     0.2148526 Eh/α   predicted    -0.1291571E-01 (-154.82%)
   displ. norm   :     0.4020856 α      lambda       -0.4943043E-01
   maximum displ.:     0.1261159 α      in ANC's #208, #207, #152, ...

........................................................................
.............................. CYCLE   37 ..............................
........................................................................

 iter      E             dE          RMSdq      gap      omega  full diag
   1   -340.6680763 -0.340668E+03  0.132E-01    6.98       0.0  T
   2   -340.6681784 -0.102132E-03  0.777E-02    6.98       1.0  T
   3   -340.6682166 -0.382094E-04  0.257E-02    6.98       1.0  T
   4   -340.6682201 -0.345054E-05  0.143E-02    6.98       1.0  T
   5   -340.6682221 -0.204143E-05  0.547E-03    6.98       1.3  T
   6   -340.6682222 -0.135709E-06  0.312E-03    6.98       2.3  T
   7   -340.6682223 -0.556857E-07  0.175E-03    6.98       4.1  T
   8   -340.6682223 -0.309807E-07  0.155E-04    6.98      45.7  T
   9   -340.6682223 -0.402281E-09  0.860E-05    6.98      82.4  T
     SCC iter.                  ...        0 min,  0.465 sec
     gradient                   ...        0 min,  0.394 sec
 * total energy  :  -338.5165938 Eh     change       -0.2700575E-01 Eh
   gradient norm :     0.0628648 Eh/α   predicted    -0.2871099E-01 (   6.31%)
   displ. norm   :     0.7548646 α      lambda       -0.2381271E-01
   maximum displ.:     0.2025895 α      in ANC's #207, #208, #227, ...

........................................................................
.............................. CYCLE   38 ..............................
........................................................................

 iter      E             dE          RMSdq      gap      omega  full diag
   1   -340.6555508 -0.340656E+03  0.230E-01    7.01       0.0  T
   2   -340.6558432 -0.292412E-03  0.137E-01    7.01       1.0  T
   3   -340.6559541 -0.110878E-03  0.533E-02    7.01       1.0  T
   4   -340.6559705 -0.164127E-04  0.207E-02    7.01       1.0  T
   5   -340.6559761 -0.560188E-05  0.669E-03    7.01       1.1  T
   6   -340.6559763 -0.195314E-06  0.536E-03    7.01       1.3  T
   7   -340.6559765 -0.164583E-06  0.271E-03    7.01       2.6  T
   8   -340.6559765 -0.715136E-07  0.398E-04    7.01      17.8  T
   9   -340.6559766 -0.256267E-08  0.177E-04    7.01      40.0  T
     SCC iter.                  ...        0 min,  0.457 sec
     gradient                   ...        0 min,  0.394 sec
 * total energy  :  -338.4795574 Eh     change        0.3703641E-01 Eh
   gradient norm :     0.2679599 Eh/α   predicted    -0.1869085E-01 (-150.47%)
   displ. norm   :     0.4084285 α      lambda       -0.6611980E-01
   maximum displ.:     0.1446696 α      in ANC's #208, #207, #220, ...

........................................................................
.............................. CYCLE   39 ..............................
........................................................................

 iter      E             dE          RMSdq      gap      omega  full diag
   1   -340.6964142 -0.340696E+03  0.147E-01    7.00       0.0  T
   2   -340.6965451 -0.130931E-03  0.869E-02    7.00       1.0  T
   3   -340.6965839 -0.387734E-04  0.554E-02    7.00       1.0  T
   4   -340.6966011 -0.172447E-04  0.135E-02    7.00       1.0  T
   5   -340.6966037 -0.254345E-05  0.508E-03    7.00       1.4  T
   6   -340.6966039 -0.186470E-06  0.205E-03    7.00       3.5  T
   7   -340.6966039 -0.448613E-07  0.270E-04    7.00      26.3  T
   8   -340.6966039 -0.766988E-09  0.210E-04    7.00      33.7  T
     SCC iter.                  ...        0 min,  0.406 sec
     gradient                   ...        0 min,  0.387 sec
 * total energy  :  -338.5186450 Eh     change       -0.3908758E-01 Eh
   gradient norm :     0.0672606 Eh/α   predicted    -0.3857475E-01 (  -1.31%)
   displ. norm   :     0.7538632 α      lambda       -0.2450821E-01
   maximum displ.:     0.3212665 α      in ANC's #138, #90, #190, ...

........................................................................
.............................. CYCLE   40 ..............................
........................................................................

 iter      E             dE          RMSdq      gap      omega  full diag
   1   -340.6074549 -0.340607E+03  0.215E-01    6.96       0.0  T
   2   -340.6077169 -0.262016E-03  0.128E-01    6.96       1.0  T
   3   -340.6078197 -0.102772E-03  0.481E-02    6.96       1.0  T
   4   -340.6078331 -0.134130E-04  0.208E-02    6.96       1.0  T
   5   -340.6078388 -0.575534E-05  0.644E-03    6.96       1.1  T
   6   -340.6078391 -0.226990E-06  0.421E-03    6.96       1.7  T
   7   -340.6078391 -0.703769E-07  0.348E-03    6.96       2.0  T
   8   -340.6078392 -0.103580E-06  0.371E-04    6.96      19.1  T
   9   -340.6078392 -0.207950E-08  0.172E-04    6.96      41.3  T
     SCC iter.                  ...        0 min,  0.456 sec
     gradient                   ...        0 min,  0.389 sec
 * total energy  :  -338.4881597 Eh     change        0.3048535E-01 Eh
   gradient norm :     0.2312013 Eh/α   predicted    -0.1921824E-01 (-163.04%)
   displ. norm   :     0.4298769 α      lambda       -0.6474195E-01
   maximum displ.:     0.2838163 α      in ANC's #138, #250, #70, ...

........................................................................
.............................. CYCLE   41 ..............................
........................................................................

 iter      E             dE          RMSdq      gap      omega  full diag
   1   -340.6648116 -0.340665E+03  0.149E-01    6.98       0.0  T
   2   -340.6649409 -0.129385E-03  0.887E-02    6.98       1.0  T
   3   -340.6650021 -0.611986E-04  0.223E-02    6.98       1.0  T
   4   -340.6650049 -0.271084E-05  0.172E-02    6.98       1.0  T
   5   -340.6650074 -0.252700E-05  0.451E-03    6.98       1.6  T
   6   -340.6650075 -0.696586E-07  0.334E-03    6.98       2.1  T
   7   -340.6650075 -0.856652E-07  0.108E-03    6.98       6.6  T
   8   -340.6650075 -0.106893E-07  0.155E-04    6.98      45.7  T
   9   -340.6650075 -0.475893E-09  0.899E-05    6.98      78.8  T
     SCC iter.                  ...        0 min,  0.451 sec
     gradient                   ...        0 min,  0.390 sec
 * total energy  :  -338.5219085 Eh     change       -0.3374888E-01 Eh
   gradient norm :     0.0814379 Eh/α   predicted    -0.3835290E-01 (  13.64%)
   displ. norm   :     0.8041999 α      lambda       -0.3817631E-01
   maximum displ.:     0.2711726 α      in ANC's #138, #90, #220, ...

........................................................................
.............................. CYCLE   42 ..............................
........................................................................

 iter      E             dE          RMSdq      gap      omega  full diag
   1   -340.7005746 -0.340701E+03  0.266E-01    7.01       0.0  T
   2   -340.7009690 -0.394480E-03  0.158E-01    7.01       1.0  T
   3   -340.7011185 -0.149473E-03  0.695E-02    7.01       1.0  T
   4   -340.7011479 -0.293951E-04  0.260E-02    7.01       1.0  T
   5   -340.7011570 -0.906481E-05  0.664E-03    7.01       1.1  T
   6   -340.7011572 -0.228617E-06  0.522E-03    7.01       1.4  T
   7   -340.7011574 -0.186896E-06  0.220E-03    7.01       3.2  T
   8   -340.7011574 -0.452984E-07  0.444E-04    7.01      16.0  T
   9   -340.7011574 -0.391407E-08  0.162E-04    7.01      43.8  T
     SCC iter.                  ...        0 min,  0.453 sec
     gradient                   ...        0 min,  0.396 sec
 * total energy  :  -338.4667295 Eh     change        0.5517899E-01 Eh
   gradient norm :     0.3126160 Eh/α   predicted    -0.3143320E-01 (-156.97%)
   displ. norm   :     0.4127215 α      lambda       -0.9344329E-01
   maximum displ.:     0.1648187 α      in ANC's #138, #194, #179, ...
 * RMSD in coord.:     0.4967351 α      energy gain  -0.9035842E-01 Eh

generating ANC from model Hessian ...
Using Lindh-Hessian (1995)
 Shifting diagonal of input Hessian by    1.0270276004981859E-002
 Lowest  eigenvalues of input Hessian
    0.010000    0.010043    0.010049    0.010050    0.010075    0.010087
    0.010097    0.010099    0.010102    0.010117    0.010126    0.010137
    0.010146    0.010154    0.010160    0.010166    0.010168    0.010176
 Highest eigenvalues
    1.454671    1.456341    1.456687    1.468259    1.523720    1.550474


........................................................................
.............................. CYCLE   43 ..............................
........................................................................

 iter      E             dE          RMSdq      gap      omega  full diag
   1   -340.6897719 -0.340690E+03  0.155E-01    6.99       0.0  T
   2   -340.6899054 -0.133530E-03  0.919E-02    6.99       1.0  T
   3   -340.6899511 -0.457324E-04  0.524E-02    6.99       1.0  T
   4   -340.6899696 -0.184959E-04  0.146E-02    6.99       1.0  T
   5   -340.6899724 -0.276223E-05  0.838E-03    6.99       1.0  T
   6   -340.6899727 -0.352525E-06  0.363E-03    6.99       2.0  T
   7   -340.6899728 -0.907067E-07  0.152E-03    6.99       4.6  T
   8   -340.6899728 -0.286543E-07  0.192E-04    6.99      36.8  T
   9   -340.6899728 -0.596117E-09  0.111E-04    6.99      63.9  T
     SCC iter.                  ...        0 min,  0.506 sec
     gradient                   ...        0 min,  0.388 sec
 * total energy  :  -338.5231989 Eh     change       -0.5646931E-01 Eh
   gradient norm :     0.0774606 Eh/α   predicted     0.0000000E+00 (-100.00%)
   displ. norm   :     0.5295392 α      lambda       -0.1100530E-01
   maximum displ.:     0.1568521 α      in ANC's #254, #204, #104, ...

........................................................................
.............................. CYCLE   44 ..............................
........................................................................

 iter      E             dE          RMSdq      gap      omega  full diag
   1   -340.6870993 -0.340687E+03  0.105E-01    6.99       0.0  T
   2   -340.6871189 -0.195674E-04  0.666E-02    6.99       1.0  T
   3   -340.6871065  0.124060E-04  0.688E-02    6.99       1.0  T
   4   -340.6871317 -0.251644E-04  0.587E-03    6.99       1.2  T
   5   -340.6871318 -0.164711E-06  0.406E-03    6.99       1.7  T
   6   -340.6871319 -0.100999E-06  0.232E-03    6.99       3.1  T
   7   -340.6871320 -0.405451E-07  0.543E-04    6.99      13.0  T
   8   -340.6871320 -0.437421E-08  0.173E-04    6.99      40.9  T
     SCC iter.                  ...        0 min,  0.405 sec
     gradient                   ...        0 min,  0.397 sec
 * total energy  :  -338.5317112 Eh     change       -0.8512376E-02 Eh
   gradient norm :     0.0374267 Eh/α   predicted    -0.7046770E-02 ( -17.22%)
   displ. norm   :     0.6791796 α      lambda       -0.8580067E-02
   maximum displ.:     0.1374206 α      in ANC's #119, #205, #147, ...

........................................................................
.............................. CYCLE   45 ..............................
........................................................................

 iter      E             dE          RMSdq      gap      omega  full diag
   1   -340.6767296 -0.340677E+03  0.114E-01    6.99       0.0  T
   2   -340.6767616 -0.319386E-04  0.704E-02    6.99       1.0  T
   3   -340.6767643 -0.270708E-05  0.522E-02    6.99       1.0  T
   4   -340.6767781 -0.138427E-04  0.747E-03    6.99       1.0  T
   5   -340.6767785 -0.405753E-06  0.509E-03    6.99       1.4  T
   6   -340.6767787 -0.167430E-06  0.305E-03    6.99       2.3  T
   7   -340.6767788 -0.678037E-07  0.760E-04    6.99       9.3  T
   8   -340.6767788 -0.882591E-08  0.132E-04    6.99      53.7  T
     SCC iter.                  ...        0 min,  0.405 sec
     gradient                   ...        0 min,  0.397 sec
 * total energy  :  -338.5362216 Eh     change       -0.4510361E-02 Eh
   gradient norm :     0.0582250 Eh/α   predicted    -0.6269025E-02 (  38.99%)
   displ. norm   :     0.5964140 α      lambda       -0.7053072E-02
   maximum displ.:     0.1340502 α      in ANC's #119, #129, #87, ...

........................................................................
.............................. CYCLE   46 ..............................
........................................................................

 iter      E             dE          RMSdq      gap      omega  full diag
   1   -340.6832811 -0.340683E+03  0.909E-02    6.98       0.0  T
   2   -340.6832975 -0.164502E-04  0.558E-02    6.98       1.0  T
   3   -340.6833017 -0.414653E-05  0.283E-02    6.98       1.0  T
   4   -340.6833060 -0.434751E-05  0.540E-03    6.98       1.3  T
   5   -340.6833063 -0.252887E-06  0.226E-03    6.98       3.1  T
   6   -340.6833063 -0.457956E-07  0.877E-04    6.98       8.1  T
   7   -340.6833063 -0.248002E-08  0.742E-04    6.98       9.5  T
     SCC iter.                  ...        0 min,  0.352 sec
     gradient                   ...        0 min,  0.395 sec
 * total energy  :  -338.5406953 Eh     change       -0.4473712E-02 Eh
   gradient norm :     0.0486868 Eh/α   predicted    -0.4781004E-02 (   6.87%)
   displ. norm   :     0.6871362 α      lambda       -0.7973163E-02
   maximum displ.:     0.2028228 α      in ANC's #104, #230, #149, ...

........................................................................
.............................. CYCLE   47 ..............................
........................................................................

 iter      E             dE          RMSdq      gap      omega  full diag
   1   -340.6861688 -0.340686E+03  0.111E-01    6.98       0.0  T
   2   -340.6861986 -0.297547E-04  0.682E-02    6.98       1.0  T
   3   -340.6861955  0.308845E-05  0.512E-02    6.98       1.0  T
   4   -340.6862134 -0.179081E-04  0.791E-03    6.98       1.0  T
   5   -340.6862139 -0.448350E-06  0.553E-03    6.98       1.3  T
   6   -340.6862140 -0.181391E-06  0.280E-03    6.98       2.5  T
   7   -340.6862141 -0.451701E-07  0.732E-04    6.98       9.7  T
   8   -340.6862141 -0.681911E-08  0.187E-04    6.98      38.0  T
     SCC iter.                  ...        0 min,  0.397 sec
     gradient                   ...        0 min,  0.392 sec
 * total energy  :  -338.5436055 Eh     change       -0.2910245E-02 Eh
   gradient norm :     0.0629349 Eh/α   predicted    -0.5868924E-02 ( 101.66%)
   displ. norm   :     0.5235865 α      lambda       -0.8997755E-02
   maximum displ.:     0.1238611 α      in ANC's #104, #205, #134, ...

........................................................................
.............................. CYCLE   48 ..............................
........................................................................

 iter      E             dE          RMSdq      gap      omega  full diag
   1   -340.7111154 -0.340711E+03  0.826E-02    6.98       0.0  T
   2   -340.7111389 -0.234696E-04  0.504E-02    6.98       1.0  T
   3   -340.7111436 -0.472630E-05  0.353E-02    6.98       1.0  T
   4   -340.7111503 -0.667300E-05  0.691E-03    6.98       1.0  T
   5   -340.7111507 -0.434426E-06  0.318E-03    6.98       2.2  T
   6   -340.7111508 -0.694295E-07  0.232E-03    6.98       3.1  T
   7   -340.7111508 -0.333088E-07  0.770E-04    6.98       9.2  T
   8   -340.7111508 -0.688607E-08  0.185E-04    6.98      38.3  T
     SCC iter.                  ...        0 min,  0.398 sec
     gradient                   ...        0 min,  0.389 sec
 * total energy  :  -338.5481984 Eh     change       -0.4592842E-02 Eh
   gradient norm :     0.0349685 Eh/α   predicted    -0.5732221E-02 (  24.81%)
   displ. norm   :     0.7074688 α      lambda       -0.7922640E-02
   maximum displ.:     0.2074025 α      in ANC's #104, #204, #254, ...

........................................................................
.............................. CYCLE   49 ..............................
........................................................................

 iter      E             dE          RMSdq      gap      omega  full diag
   1   -340.6817517 -0.340682E+03  0.125E-01    6.98       0.0  T
   2   -340.6817957 -0.440246E-04  0.780E-02    6.98       1.0  T
   3   -340.6817898  0.589856E-05  0.738E-02    6.98       1.0  T
   4   -340.6818181 -0.282941E-04  0.901E-03    6.98       1.0  T
   5   -340.6818187 -0.573733E-06  0.647E-03    6.98       1.1  T
   6   -340.6818190 -0.282836E-06  0.367E-03    6.98       1.9  T
   7   -340.6818191 -0.101516E-06  0.988E-04    6.98       7.2  T
   8   -340.6818191 -0.128339E-07  0.229E-04    6.98      31.0  T
     SCC iter.                  ...        0 min,  0.399 sec
     gradient                   ...        0 min,  0.424 sec
 * total energy  :  -338.5495794 Eh     change       -0.1380974E-02 Eh
   gradient norm :     0.0790852 Eh/α   predicted    -0.5944007E-02 ( 330.42%)
   displ. norm   :     0.4921950 α      lambda       -0.1052256E-01
   maximum displ.:     0.1671332 α      in ANC's #204, #230, #254, ...

........................................................................
.............................. CYCLE   50 ..............................
........................................................................

 iter      E             dE          RMSdq      gap      omega  full diag
   1   -340.6931264 -0.340693E+03  0.896E-02    6.98       0.0  T
   2   -340.6931532 -0.267646E-04  0.543E-02    6.98       1.0  T
   3   -340.6931608 -0.765523E-05  0.289E-02    6.98       1.0  T
   4   -340.6931657 -0.484784E-05  0.678E-03    6.98       1.0  T
   5   -340.6931661 -0.442901E-06  0.324E-03    6.98       2.2  T
   6   -340.6931662 -0.679333E-07  0.221E-03    6.98       3.2  T
   7   -340.6931662 -0.267801E-07  0.812E-04    6.98       8.7  T
   8   -340.6931662 -0.606042E-08  0.251E-04    6.98      28.2  T
     SCC iter.                  ...        0 min,  0.403 sec
     gradient                   ...        0 min,  0.387 sec
 * total energy  :  -338.5539853 Eh     change       -0.4405906E-02 Eh
   gradient norm :     0.0573727 Eh/α   predicted    -0.6535859E-02 (  48.34%)
   displ. norm   :     0.6228711 α      lambda       -0.1080811E-01
[...]
    48   1 H    0.899 --    28 O    0.868
    49   1 H    0.873 --    28 O    0.810
    50   1 H    0.883 --    27 O    0.820
    51   1 H    0.882 --    27 O    0.819
    52   1 H    0.900 --    26 O    0.863
    53   1 H    0.875 --    26 O    0.836
    54   1 H    0.882 --    21 O    0.825
    55   1 H    0.872 --    21 O    0.802
    56   8 O    1.791 --    57 H    0.873    58 H    0.859
    57   1 H    0.875 --    56 O    0.873
    58   1 H    0.894 --    56 O    0.859
    59   8 O    1.763 --    61 H    0.864    60 H    0.851
    60   1 H    0.854 --    59 O    0.851
    61   1 H    0.867 --    59 O    0.864
    62   8 O    1.741 --    64 H    0.868    63 H    0.859
    63   1 H    0.859 --    62 O    0.859
    64   1 H    0.895 --    62 O    0.868
    65   8 O    1.822 --    66 H    0.872    67 H    0.821
    66   1 H    0.904 --    65 O    0.872
    67   1 H    0.874 --    65 O    0.821
    68   8 O    1.813 --    69 H    0.873    70 H    0.866
    69   1 H    0.875 --    68 O    0.873
    70   1 H    0.868 --    68 O    0.866
    71   8 O    1.743 --    72 H    0.870    73 H    0.860
    72   1 H    0.894 --    71 O    0.870
    73   1 H    0.860 --    71 O    0.860
    74   8 O    1.762 --    75 H    0.858    76 H    0.856
    75   1 H    0.860 --    74 O    0.858
    76   1 H    0.859 --    74 O    0.856
    77   8 O    1.787 --    78 H    0.859    79 H    0.855
    78   1 H    0.862 --    77 O    0.859
    79   1 H    0.889 --    77 O    0.855
    80   8 O    1.775 --    81 H    0.872    82 H    0.803
    81   1 H    0.900 --    80 O    0.872
    82   1 H    0.877 --    80 O    0.803
    83   8 O    1.835 --    85 H    0.832    84 H    0.813
    84   1 H    0.875 --    83 O    0.813
    85   1 H    0.877 --    83 O    0.832
    86   8 O    1.781 --    87 H    0.873    88 H    0.861
    87   1 H    0.877 --    86 O    0.873
    88   1 H    0.894 --    86 O    0.861
    89   8 O    1.761 --    90 H    0.873    91 H    0.852
    90   1 H    0.876 --    89 O    0.873
    91   1 H    0.855 --    89 O    0.852
    92   8 O    1.788 --    93 H    0.870    94 H    0.864
    93   1 H    0.872 --    92 O    0.870
    94   1 H    0.893 --    92 O    0.864
    95   8 O    1.791 --    97 H    0.873    96 H    0.856
    96   1 H    0.892 --    95 O    0.856
    97   1 H    0.876 --    95 O    0.873
    98   8 O    1.843 --    99 H    0.865   100 H    0.858
    99   1 H    0.868 --    98 O    0.865
   100   1 H    0.889 --    98 O    0.858
   101   8 O    1.800 --   102 H    0.877   103 H    0.852
   102   1 H    0.879 --   101 O    0.877
   103   1 H    0.889 --   101 O    0.852
   104   8 O    1.800 --   106 H    0.871   105 H    0.850
   105   1 H    0.893 --   104 O    0.850
   106   1 H    0.874 --   104 O    0.871
   107   8 O    1.786 --   109 H    0.877   108 H    0.849
   108   1 H    0.892 --   107 O    0.849
   109   1 H    0.881 --   107 O    0.877
   110   8 O    1.795 --   112 H    0.862   111 H    0.854
   111   1 H    0.858 --   110 O    0.854
   112   1 H    0.893 --   110 O    0.862
   113   8 O    1.744 --   114 H    0.873   115 H    0.859
   114   1 H    0.895 --   113 O    0.873
   115   1 H    0.859 --   113 O    0.859
   116   8 O    1.795 --   118 H    0.868   117 H    0.834
   117   1 H    0.882 --   116 O    0.834
   118   1 H    0.870 --   116 O    0.868
   119   8 O    1.778 --   121 H    0.870   120 H    0.862
   120   1 H    0.864 --   119 O    0.862
   121   1 H    0.872 --   119 O    0.870
   122   8 O    1.744 --   124 H    0.878   123 H    0.848
   123   1 H    0.883 --   122 O    0.848
   124   1 H    0.878 --   122 O    0.878
   125   8 O    1.769 --   127 H    0.875   126 H    0.858
   126   1 H    0.860 --   125 O    0.858
   127   1 H    0.877 --   125 O    0.875
   128   8 O    1.776 --   129 H    0.871   130 H    0.869
   129   1 H    0.873 --   128 O    0.871
   130   1 H    0.871 --   128 O    0.869
   131   8 O    1.743 --   133 H    0.876   132 H    0.848
   132   1 H    0.885 --   131 O    0.848
   133   1 H    0.876 --   131 O    0.876
   134   8 O    1.767 --   135 H    0.874   136 H    0.860
   135   1 H    0.877 --   134 O    0.874
   136   1 H    0.863 --   134 O    0.860
   137   8 O    1.749 --   138 H    0.883   139 H    0.849
   138   1 H    0.883 --   137 O    0.883
   139   1 H    0.884 --   137 O    0.849
   140   8 O    1.773 --   142 H    0.873   141 H    0.858
   141   1 H    0.861 --   140 O    0.858
   142   1 H    0.876 --   140 O    0.873
   143   8 O    1.764 --   144 H    0.874   145 H    0.862
   144   1 H    0.876 --   143 O    0.874
   145   1 H    0.864 --   143 O    0.862
   146   8 O    1.735 --   148 H    0.884   147 H    0.827
   147   1 H    0.876 --   146 O    0.827
   148   1 H    0.884 --   146 O    0.884
   149   8 O    1.775 --   150 H    0.869   151 H    0.864
   150   1 H    0.872 --   149 O    0.869
   151   1 H    0.866 --   149 O    0.864
   152   8 O    1.740 --   154 H    0.863   153 H    0.863
   153   1 H    0.863 --   152 O    0.863
   154   1 H    0.890 --   152 O    0.863
   155   8 O    1.772 --   157 H    0.874   156 H    0.863
   156   1 H    0.866 --   155 O    0.863
   157   1 H    0.876 --   155 O    0.874
   158   8 O    1.778 --   159 H    0.865   160 H    0.864
   159   1 H    0.867 --   158 O    0.865
   160   1 H    0.866 --   158 O    0.864
   161   8 O    1.738 --   162 H    0.873   163 H    0.845
   162   1 H    0.873 --   161 O    0.873
   163   1 H    0.887 --   161 O    0.845
   164   8 O    1.789 --   165 H    0.878   166 H    0.841
   165   1 H    0.882 --   164 O    0.878
   166   1 H    0.884 --   164 O    0.841
   167   8 O    1.796 --   168 H    0.878   169 H    0.836
   168   1 H    0.881 --   167 O    0.878
   169   1 H    0.880 --   167 O    0.836
   170   8 O    1.729 --   171 H    0.865   172 H    0.865
   171   1 H    0.865 --   170 O    0.865
   172   1 H    0.865 --   170 O    0.865
   173   8 O    1.741 --   175 H    0.874   174 H    0.867
   174   1 H    0.867 --   173 O    0.867
   175   1 H    0.875 --   173 O    0.874
   176   8 O    1.741 --   177 H    0.874   178 H    0.866
   177   1 H    0.875 --   176 O    0.874
   178   1 H    0.866 --   176 O    0.866
   179   8 O    1.732 --   180 H    0.868   181 H    0.865
   180   1 H    0.868 --   179 O    0.868
   181   1 H    0.865 --   179 O    0.865
   182   8 O    1.726 --   183 H    0.868   184 H    0.858
   183   1 H    0.869 --   182 O    0.868
   184   1 H    0.858 --   182 O    0.858
   185   8 O    1.774 --   187 H    0.870   186 H    0.865
   186   1 H    0.869 --   185 O    0.865
   187   1 H    0.873 --   185 O    0.870
   188   8 O    1.776 --   189 H    0.870   190 H    0.867
   189   1 H    0.873 --   188 O    0.870
   190   1 H    0.869 --   188 O    0.867
   191   8 O    1.763 --   192 H    0.869   193 H    0.865
   192   1 H    0.872 --   191 O    0.869
   193   1 H    0.868 --   191 O    0.865
   194   8 O    1.789 --   196 H    0.874   195 H    0.833
   195   1 H    0.885 --   194 O    0.833
   196   1 H    0.878 --   194 O    0.874
   197   8 O    1.800 --   199 H    0.877   198 H    0.837
   198   1 H    0.884 --   197 O    0.837
   199   1 H    0.881 --   197 O    0.877
 ---------------------------------------------------------------------------

Topologies differ in total number of bonds
Writing topology from bond orders to xtbtopo.mol

molecular dipole:
                 x           y           z       tot (Debye)
 q only:        2.831       4.430      -1.101
   full:        3.725       5.403      -1.306      17.007
molecular quadrupole (traceless):
                xx          xy          yy          xz          yz          zz
 q only:      -31.932      -3.572       1.257      21.702       9.648      30.675
  q+dip:      -39.713      -6.351       1.753      28.477      13.354      37.960
   full:      -40.599      -6.426       2.261      28.688      14.563      38.338

           -------------------------------------------------
          |                Geometry Summary                 |
           -------------------------------------------------

      molecular mass/u    :     1244.8540481
   center of mass at/Å    :        0.2028899       0.2348824       0.0005420
  moments of inertia/u·Å² :        0.3999735E+05   0.4209922E+05   0.4431580E+05
rotational constants/cm⁻¹ :        0.4214687E-03   0.4004262E-03   0.3803978E-03

 * 132 selected distances

     #   Z          #   Z                                           value/Å
     6   8 O        8   1 H                                       0.9653705
     6   8 O        9   1 H                                       0.9722665
     7   8 O       10   1 H                                       0.9625624
     7   8 O       11   1 H                                       0.9595092
     2   8 O       12   1 H                                       0.9635710
     2   8 O       13   1 H                                       0.9731271
     4   8 O       14   1 H                                       0.9678778
     4   8 O       15   1 H                                       0.9706673
     3   8 O       16   1 H                                       0.9669997
     3   8 O       17   1 H                                       0.9720002
     5   8 O       18   1 H                                       0.9762853
     5   8 O       19   1 H                                       0.9601681
    25   8 O       32   1 H                                       0.9865294
    25   8 O       33   1 H                                       0.9660259
    20   8 O       34   1 H                                       0.9607703
    20   8 O       35   1 H                                       0.9754135
    24   8 O       36   1 H                                       0.9675244
    24   8 O       37   1 H                                       0.9782143
    29   8 O       38   1 H                                       0.9689768
    29   8 O       39   1 H                                       0.9789596
    22   8 O       40   1 H                                       0.9678806
    22   8 O       41   1 H                                       0.9745897
    23   8 O       42   1 H                                       0.9759883
    23   8 O       43   1 H                                       0.9606725
    31   8 O       44   1 H                                       0.9693613
    31   8 O       45   1 H                                       0.9784813
    30   8 O       46   1 H                                       0.9670266
    30   8 O       47   1 H                                       0.9812131
    28   8 O       48   1 H                                       0.9648478
    28   8 O       49   1 H                                       0.9833507
    27   8 O       50   1 H                                       0.9768312
    27   8 O       51   1 H                                       0.9807972
    26   8 O       52   1 H                                       0.9668003
    26   8 O       53   1 H                                       0.9742213
    21   8 O       54   1 H                                       0.9786360
    21   8 O       55   1 H                                       0.9860338
    56   8 O       57   1 H                                       0.9609040
    56   8 O       58   1 H                                       0.9710178
    59   8 O       60   1 H                                       0.9638996
    59   8 O       61   1 H                                       0.9615581
    62   8 O       63   1 H                                       0.9643337
    62   8 O       64   1 H                                       0.9691108
    65   8 O       66   1 H                                       0.9643795
    65   8 O       67   1 H                                       0.9814051
    68   8 O       69   1 H                                       0.9614893
    68   8 O       70   1 H                                       0.9635038
    71   8 O       72   1 H                                       0.9689137
    71   8 O       73   1 H                                       0.9642543
    74   8 O       75   1 H                                       0.9631223
    74   8 O       76   1 H                                       0.9633455
    77   8 O       78   1 H                                       0.9631453
    77   8 O       79   1 H                                       0.9709774
    80   8 O       81   1 H                                       0.9653731
    80   8 O       82   1 H                                       0.9889295 (max)
    83   8 O       84   1 H                                       0.9810427
    83   8 O       85   1 H                                       0.9752130
    86   8 O       87   1 H                                       0.9603573
    86   8 O       88   1 H                                       0.9697466
    89   8 O       90   1 H                                       0.9608147
    89   8 O       91   1 H                                       0.9642850
    92   8 O       93   1 H                                       0.9612069
    92   8 O       94   1 H                                       0.9677379
    95   8 O       96   1 H                                       0.9721362
    95   8 O       97   1 H                                       0.9605690
    98   8 O       99   1 H                                       0.9628139
    98   8 O      100   1 H                                       0.9708360
   101   8 O      102   1 H                                       0.9601392
   101   8 O      103   1 H                                       0.9728875
   104   8 O      105   1 H                                       0.9745511
   104   8 O      106   1 H                                       0.9603586
   107   8 O      108   1 H                                       0.9733047
   107   8 O      109   1 H                                       0.9590988 (min)
   110   8 O      111   1 H                                       0.9633852
   110   8 O      112   1 H                                       0.9696303
   113   8 O      114   1 H                                       0.9674661
   113   8 O      115   1 H                                       0.9641638
   116   8 O      117   1 H                                       0.9783583
   116   8 O      118   1 H                                       0.9624061
   119   8 O      120   1 H                                       0.9629382
   119   8 O      121   1 H                                       0.9613733
   122   8 O      123   1 H                                       0.9752374
   122   8 O      124   1 H                                       0.9615246
   125   8 O      126   1 H                                       0.9636950
   125   8 O      127   1 H                                       0.9604118
   128   8 O      129   1 H                                       0.9610258
   128   8 O      130   1 H                                       0.9617018
   131   8 O      132   1 H                                       0.9751598
   131   8 O      133   1 H                                       0.9612294
   134   8 O      135   1 H                                       0.9605331
   134   8 O      136   1 H                                       0.9634699
   137   8 O      138   1 H                                       0.9600078
   137   8 O      139   1 H                                       0.9751688
   140   8 O      141   1 H                                       0.9632818
   140   8 O      142   1 H                                       0.9606585
   143   8 O      144   1 H                                       0.9604850
   143   8 O      145   1 H                                       0.9632328
   146   8 O      147   1 H                                       0.9817554
   146   8 O      148   1 H                                       0.9597101
   149   8 O      150   1 H                                       0.9614471
   149   8 O      151   1 H                                       0.9626743
   152   8 O      153   1 H                                       0.9636884
   152   8 O      154   1 H                                       0.9706400
   155   8 O      156   1 H                                       0.9626964
   155   8 O      157   1 H                                       0.9604170
   158   8 O      159   1 H                                       0.9620794
   158   8 O      160   1 H                                       0.9627094
   161   8 O      162   1 H                                       0.9616737
   161   8 O      163   1 H                                       0.9769023
   164   8 O      165   1 H                                       0.9595812
   164   8 O      166   1 H                                       0.9763945
   167   8 O      168   1 H                                       0.9599430
   167   8 O      169   1 H                                       0.9783436
   170   8 O      171   1 H                                       0.9631585
   170   8 O      172   1 H                                       0.9631514
   173   8 O      174   1 H                                       0.9628564
   173   8 O      175   1 H                                       0.9611788
   176   8 O      177   1 H                                       0.9611578
   176   8 O      178   1 H                                       0.9627844
   179   8 O      180   1 H                                       0.9626151
   179   8 O      181   1 H                                       0.9629766
   182   8 O      183   1 H                                       0.9621166
   182   8 O      184   1 H                                       0.9639069
   185   8 O      186   1 H                                       0.9615565
   185   8 O      187   1 H                                       0.9606113
   188   8 O      189   1 H                                       0.9610305
   188   8 O      190   1 H                                       0.9617861
   191   8 O      192   1 H                                       0.9612916
   191   8 O      193   1 H                                       0.9622302
   194   8 O      195   1 H                                       0.9798771
   194   8 O      196   1 H                                       0.9601699
   197   8 O      198   1 H                                       0.9777089
   197   8 O      199   1 H                                       0.9595465

 * 1 distinct bonds (by element types)

   Z      Z             #   av. dist./Å        max./Å        min./Å
   1 H    8 O         132     0.9673123     0.9889295     0.9590988


optimized geometry written to: xtbopt.xyz


           -------------------------------------------------
          | TOTAL ENERGY             -338.705266267803 Eh   |
          | GRADIENT NORM               0.000041255358 Eh/α |
          | HOMO-LUMO GAP               7.172623876663 eV   |
           -------------------------------------------------
########################################################################
[WARNING] Runtime exception occurred
-2- restart_readRestart: Multiplicity missmatch in restart file.
-1- restart_readRestart: Number of electron missmatch in restart file.
########################################################################

------------------------------------------------------------------------
 * finished run on 2024/05/10 at 18:23:13.892     
------------------------------------------------------------------------
 total:
 * wall-time:     0 d,  0 h,  7 min, 40.630 sec
 *  cpu-time:     0 d,  0 h, 48 min, 45.131 sec
 * ratio c/w:     6.350 speedup
 SCF:
 * wall-time:     0 d,  0 h,  0 min,  0.768 sec
 *  cpu-time:     0 d,  0 h,  0 min,  5.636 sec
 * ratio c/w:     7.340 speedup
 ANC optimizer:
 * wall-time:     0 d,  0 h,  7 min, 39.536 sec
 *  cpu-time:     0 d,  0 h, 48 min, 37.569 sec
 * ratio c/w:     6.349 speedup

