      -----------------------------------------------------------      
     |                   =====================                   |     
     |                           x T B                           |     
     |                   =====================                   |     
     |                         S. Grimme                         |     
     |          Mulliken Center for Theoretical Chemistry        |     
     |                    University of Bonn                     |     
      -----------------------------------------------------------      

   * xtb version 6.6.0 (conda-forge) compiled by 'runner@Mac-1676020848589.local' on 2023-02-10

   xtb is free software: you can redistribute it and/or modify it under
   the terms of the GNU Lesser General Public License as published by
   the Free Software Foundation, either version 3 of the License, or
   (at your option) any later version.
   
   xtb is distributed in the hope that it will be useful,
   but WITHOUT ANY WARRANTY; without even the implied warranty of
   MERCHANTABILITY or FITNESS FOR A PARTICULAR PURPOSE.  See the
   GNU Lesser General Public License for more details.
   
   Cite this work as:
   * C. Bannwarth, E. Caldeweyher, S. Ehlert, A. Hansen, P. Pracht,
     J. Seibert, S. Spicher, S. Grimme, WIREs Comput. Mol. Sci., 2020, 11,
     e01493. DOI: 10.1002/wcms.1493
   
   for GFN2-xTB:
   * C. Bannwarth, S. Ehlert and S. Grimme., J. Chem. Theory Comput., 2019,
     15, 1652-1671. DOI: 10.1021/acs.jctc.8b01176
   for GFN1-xTB:
   * S. Grimme, C. Bannwarth, P. Shushkov, J. Chem. Theory Comput., 2017,
     13, 1989-2009. DOI: 10.1021/acs.jctc.7b00118
   for GFN0-xTB:
   * P. Pracht, E. Caldeweyher, S. Ehlert, S. Grimme, ChemRxiv, 2019, preprint.
     DOI: 10.26434/chemrxiv.8326202.v1
   for GFN-FF:
   * S. Spicher and S. Grimme, Angew. Chem. Int. Ed., 2020, 59, 15665-15673.
     DOI: 10.1002/anie.202004239
   
   for ALPB and GBSA implicit solvation:
   * S. Ehlert, M. Stahn, S. Spicher, S. Grimme, J. Chem. Theory Comput.,
     2021, 17, 4250-4261. DOI: 10.1021/acs.jctc.1c00471
   
   for DFT-D4:
   * E. Caldeweyher, C. Bannwarth and S. Grimme, J. Chem. Phys., 2017,
     147, 034112. DOI: 10.1063/1.4993215
   * E. Caldeweyher, S. Ehlert, A. Hansen, H. Neugebauer, S. Spicher,
     C. Bannwarth and S. Grimme, J. Chem. Phys., 2019, 150, 154122.
     DOI: 10.1063/1.5090222
   * E. Caldeweyher, J.-M. Mewes, S. Ehlert and S. Grimme, Phys. Chem. Chem. Phys.
     2020, 22, 8499-8512. DOI: 10.1039/D0CP00502A
   
   for sTDA-xTB:
   * S. Grimme and C. Bannwarth, J. Chem. Phys., 2016, 145, 054103.
     DOI: 10.1063/1.4959605
   
   in the mass-spec context:
   * V. Asgeirsson, C. Bauer and S. Grimme, Chem. Sci., 2017, 8, 4879.
     DOI: 10.1039/c7sc00601b
   * J. Koopman and S. Grimme, ACS Omega 2019, 4, 12, 15120-15133.
     DOI: 10.1021/acsomega.9b02011
   
   for metadynamics refer to:
   * S. Grimme, J. Chem. Theory Comput., 2019, 155, 2847-2862
     DOI: 10.1021/acs.jctc.9b00143
   
   for SPH calculations refer to:
   * S. Spicher and S. Grimme, J. Chem. Theory Comput., 2021, 17, 1701-1714
     DOI: 10.1021/acs.jctc.0c01306
   
   with help from (in alphabetical order)
   P. Atkinson, C. Bannwarth, F. Bohle, G. Brandenburg, E. Caldeweyher
   M. Checinski, S. Dohm, S. Ehlert, S. Ehrlich, I. Gerasimov, C. Hölzer
   A. Katbashev, J. Koopman, C. Lavigne, S. Lehtola, F. März, M. Müller,
   F. Musil, H. Neugebauer, J. Pisarek, C. Plett, P. Pracht, F. Pultar,
   J. Seibert, P. Shushkov, S. Spicher, M. Stahn, M. Steiner, T. Strunk,
   J. Stückrath, T. Rose, and J. Unsleber
   
 * started run on 2024/05/10 at 18:37:15.248     

           -------------------------------------------------
          |                Calculation Setup                |
           -------------------------------------------------

          program call               : xtb Fe_39H2O_solvated_radius_9_0_5.xyz --gfn2 --chrg 0 --uhf 5 --hess --alpb water
          coordinate file            : Fe_39H2O_solvated_radius_9_0_5.xyz
          omp threads                :                     8

   ID    Z sym.   atoms
    1   26 Fe     1
    2    8 O      2-7, 20-31, 56, 59, 62, 65, 68, 71, 74, 77, 80, 83, 86, 89,
                  92, 95, 98, 101, 104, 107, 110, 113, 116, 119, 122, 125,
                  128, 131, 134, 137, 140, 143, 146, 149, 152, 155, 158, 161,
                  164, 167, 170, 173, 176, 179, 182, 185, 188, 191, 194, 197
    3    1 H      8-19, 32-55, 57, 58, 60, 61, 63, 64, 66, 67, 69, 70, 72,
                  73, 75, 76, 78, 79, 81, 82, 84, 85, 87, 88, 90, 91, 93, 94,
                  96, 97, 99, 100, 102, 103, 105, 106, 108, 109, 111, 112,
                  114, 115, 117, 118, 120, 121, 123, 124, 126, 127, 129, 130,
                  132, 133, 135, 136, 138, 139, 141, 142, 144, 145, 147, 148,
                  150, 151, 153, 154, 156, 157, 159, 160, 162, 163, 165, 166,
                  168, 169, 171, 172, 174, 175, 177, 178, 180, 181, 183, 184,
                  186, 187, 189, 190, 192, 193, 195, 196, 198, 199

molecular fragmentation (1/2 indicates fragments):
112222222221222222222222222222222222222222222222222222222222222222222222
222222222222222222222222222222222222222222222222222222222222222222222222
2222222222222222222222222222222222222222222222222222222
# atoms in fragment 1/2:     3   196
 fragment masses (1/2) :       72.85     1172.00
CMA distance (Bohr)    :   2.314
constraining FC (au)   :  0.0500

           -------------------------------------------------
          |                 G F N 2 - x T B                 |
           -------------------------------------------------

        Reference                      10.1021/acs.jctc.8b01176
      * Hamiltonian:
        H0-scaling (s, p, d)           1.850000    2.230000    2.230000
        zeta-weighting                 0.500000
      * Dispersion:
        s8                             2.700000
        a1                             0.520000
        a2                             5.000000
        s9                             5.000000
      * Repulsion:
        kExp                           1.500000    1.000000
        rExp                           1.000000
      * Coulomb:
        alpha                          2.000000
        third order                    shell-resolved
        anisotropic                    true
        a3                             3.000000
        a5                             4.000000
        cn-shift                       1.200000
        cn-exp                         4.000000
        max-rad                        5.000000

      * Solvation model:               ALPB
        Solvent                        water
        Parameter file                 internal GFN2-xTB/ALPB
        Dielectric constant                8.0200E+01
        Reference state                gsolv [1 M gas/solution]
        Free energy shift                  1.0808E-03 Eh       6.7819E-01 kcal/mol
        Temperature                        2.9815E+02 K
        Density                            1.0000E+00 kg/L
        Solvent mass                       1.8000E+01 g/mol
        Interaction kernel             P16
        Born radius scaling (c1)           1.4744E+00
        Born radii integrator          GBOBC
        Born offset                        0.0000E+00 a0       0.0000E+00 AA
        H-bond correction              true
        Ion screening                  false
        Surface tension                    1.0000E-05 Eh       1.5569E+01 dyn/cm
        Grid points                               230 per atom
q/qsh data taken from xtbrestart
CAMM data taken from xtbrestart

          ...................................................
          :                      SETUP                      :
          :.................................................:
          :  # basis functions                 406          :
          :  # atomic orbitals                 405          :
          :  # shells                          267          :
          :  # electrons                       536          :
          :  max. iterations                   250          :
          :  Hamiltonian                  GFN2-xTB          :
          :  restarted?                       true          :
          :  GBSA solvation                   true          :
          :  PC potential                    false          :
          :  electronic temp.          300.0000000     K    :
          :  accuracy                    1.0000000          :
          :  -> integral cutoff          0.2500000E+02      :
          :  -> integral neglect         0.1000000E-07      :
          :  -> SCF convergence          0.1000000E-05 Eh   :
          :  -> wf. convergence          0.1000000E-03 e    :
          :  Broyden damping             0.4000000          :
          ...................................................

 iter      E             dE          RMSdq      gap      omega  full diag
   1   -341.4188793 -0.341419E+03  0.154E-05    6.89       0.0  T
   2   -341.4188793 -0.852651E-12  0.156E-05    6.89     454.3  T
   3   -341.4188793 -0.125056E-11  0.872E-06    6.89     812.7  T

   *** convergence criteria satisfied after 3 iterations ***

         #    Occupation            Energy/Eh            Energy/eV
      -------------------------------------------------------------
         1        2.0000           -0.6745940             -18.3566
       ...           ...                  ...                  ...
       264        2.0000           -0.3433191              -9.3422
       265        2.0000           -0.3411868              -9.2842
       266        1.6365           -0.3079778              -8.3805
       267        1.3621           -0.3069076              -8.3514
       268        1.0013           -0.3011577              -8.1949
       269        1.0001           -0.2990499              -8.1376
       270        1.0000           -0.2962010              -8.0600 (HOMO)
       271                         -0.0429709              -1.1693 (LUMO)
       272                          0.0030791               0.0838
       273                          0.0306848               0.8350
       274                          0.0497619               1.3541
       275                          0.0509406               1.3862
       ...                                ...                  ...
       405                          0.9726621              26.4675
      -------------------------------------------------------------
                  HL-Gap            0.2532301 Eh            6.8907 eV
             Fermi-level           -0.2385158 Eh           -6.4903 eV

 SCC (total)                   0 d,  0 h,  0 min,  0.471 sec
 SCC setup                      ...        0 min,  0.009 sec (  1.939%)
 Dispersion                     ...        0 min,  0.007 sec (  1.394%)
 classical contributions        ...        0 min,  0.001 sec (  0.267%)
 integral evaluation            ...        0 min,  0.021 sec (  4.386%)
 iterations                     ...        0 min,  0.118 sec ( 25.040%)
 molecular gradient             ...        0 min,  0.312 sec ( 66.216%)
 printout                       ...        0 min,  0.004 sec (  0.752%)

         :::::::::::::::::::::::::::::::::::::::::::::::::::::
         ::                     SUMMARY                     ::
         :::::::::::::::::::::::::::::::::::::::::::::::::::::
         :: total energy            -339.350227576939 Eh    ::
         :: total w/o Gsasa/hb      -338.790305960434 Eh    ::
         :: gradient norm              0.000048744412 Eh/a0 ::
         :: HOMO-LUMO gap              6.890740837632 eV    ::
         ::.................................................::
         :: SCC energy              -341.418879265867 Eh    ::
         :: -> isotropic ES            2.722947702653 Eh    ::
         :: -> anisotropic ES         -0.315891979692 Eh    ::
         :: -> anisotropic XC         -0.023657972802 Eh    ::
         :: -> dispersion             -0.095950463662 Eh    ::
         :: -> Gsolv                  -1.044867030003 Eh    ::
         ::    -> Gelec               -0.484945413498 Eh    ::
         ::    -> Gsasa                0.054683999704 Eh    ::
         ::    -> Ghb                 -0.615686375907 Eh    ::
         ::    -> Gshift               0.001080759698 Eh    ::
         :: repulsion energy           2.062102398272 Eh    ::
         :: add. restraining           0.000000000000 Eh    ::
         :: total charge              -0.000000000000 e     ::
         :::::::::::::::::::::::::::::::::::::::::::::::::::::

           ------------------------------------------------- 
          |                Numerical Hessian                |
           ------------------------------------------------- 
step length          :   0.00500
SCC accuracy         :   0.30000
Hessian scale factor :   1.00000
frozen atoms in %    :   0.00000    0
RMS gradient         :   0.00005
estimated CPU  time    289.21 min
estimated wall time     51.28 min

writing file <hessian>.

 projected vibrational frequencies (cm⁻¹)
eigval :       -0.00    -0.00    -0.00     0.00     0.00     0.00
eigval :       10.02    12.91    14.77    15.22    17.95    18.82
eigval :       19.52    19.77    21.27    21.66    22.09    22.50
eigval :       23.16    23.92    25.71    26.43    26.71    27.81
eigval :       28.98    29.66    30.09    30.83    31.64    32.55
eigval :       33.40    34.87    35.36    35.68    36.01    37.12
eigval :       38.10    38.58    39.25    39.62    40.40    41.02
eigval :       41.07    41.67    42.41    43.13    43.78    44.20
eigval :       44.60    45.44    45.85    46.70    47.54    48.36
eigval :       48.96    49.12    49.48    49.96    51.49    51.91
eigval :       52.18    52.71    53.45    53.95    55.09    55.68
eigval :       55.88    56.60    57.68    58.40    58.55    60.06
eigval :       60.47    60.73    61.17    62.03    63.20    63.37
eigval :       63.73    64.20    65.30    65.79    65.93    66.47
eigval :       67.31    68.14    68.74    69.28    69.77    70.31
eigval :       71.31    71.64    72.08    72.43    72.98    73.76
eigval :       74.99    75.58    75.95    76.82    77.47    77.83
eigval :       78.40    79.46    80.03    81.20    82.06    83.40
eigval :       84.73    85.43    86.12    87.25    88.29    89.55
eigval :       90.27    90.55    91.13    92.35    93.66    94.03
eigval :       95.37    96.65    97.71    98.66   102.71   105.07
eigval :      106.37   107.35   109.63   112.18   114.16   117.54
eigval :      119.50   129.41   132.23   133.51   134.11   135.95
eigval :      137.79   138.39   141.07   141.58   143.31   145.67
eigval :      147.89   148.94   150.42   151.78   153.02   154.98
eigval :      156.29   157.32   161.14   161.86   164.49   168.37
eigval :      168.63   171.80   172.50   174.41   174.74   175.26
eigval :      175.90   177.75   180.14   182.47   183.16   184.81
eigval :      186.88   188.60   188.98   190.27   191.28   193.28
eigval :      194.04   196.07   196.98   198.44   198.57   200.39
eigval :      201.59   206.64   207.38   208.91   209.95   215.66
eigval :      216.47   217.47   217.84   218.88   221.34   221.73
eigval :      222.61   222.63   224.40   227.94   229.82   230.41
eigval :      231.38   232.19   234.32   236.15   237.14   240.43
eigval :      241.45   242.31   245.93   246.09   247.86   248.89
eigval :      250.42   252.42   253.64   254.03   255.43   256.38
eigval :      258.02   260.04   261.15   262.36   264.38   267.22
eigval :      267.59   269.60   271.07   273.79   276.08   277.45
eigval :      279.66   281.70   282.65   283.35   285.28   286.09
eigval :      286.96   290.44   291.96   293.90   295.49   297.07
eigval :      297.67   303.20   305.56   308.45   309.74   311.43
eigval :      312.56   313.63   314.86   317.89   319.13   320.86
eigval :      323.76   324.57   326.60   329.91   331.16   332.77
eigval :      334.04   337.94   339.70   344.43   346.81   347.46
eigval :      348.42   350.48   353.16   354.27   359.03   362.99
eigval :      364.76   366.36   369.60   369.95   376.40   380.20
eigval :      386.40   387.89   390.57   392.56   393.85   395.98
eigval :      400.30   401.25   403.66   405.37   408.10   410.46
eigval :      413.28   416.03   421.12   421.82   423.45   425.98
eigval :      428.26   430.45   433.11   436.56   436.81   439.45
eigval :      440.70   449.26   453.71   455.74   458.34   461.81
eigval :      462.81   470.72   472.91   476.39   480.59   481.64
eigval :      482.40   486.68   493.97   500.22   502.99   505.10
eigval :      507.98   510.76   511.44   515.54   525.78   528.06
eigval :      529.80   536.61   537.15   542.21   543.72   544.48
eigval :      546.48   548.67   555.25   557.04   557.39   560.48
eigval :      563.80   569.45   572.04   580.43   583.45   594.64
eigval :      598.31   599.77   605.46   606.18   610.86   611.22
eigval :      612.81   613.21   615.03   615.26   618.14   618.37
eigval :      621.83   625.16   628.93   631.80   634.80   641.33
eigval :      643.10   643.80   653.52   659.03   664.49   667.83
eigval :      670.59   674.14   676.75   678.59   684.20   690.77
eigval :      692.96   696.08   700.33   701.23   710.08   711.78
eigval :      722.75   730.77   735.63   739.49   746.27   757.64
eigval :      773.60   779.48   779.82   787.76   798.29   802.22
eigval :      822.73   827.47   838.59   848.50   877.77   882.98
eigval :      910.03   915.10   953.48  1116.85  1132.68  1437.19
eigval :     1451.83  1455.79  1456.23  1456.47  1457.92  1458.08
eigval :     1458.23  1459.08  1459.16  1459.70  1461.11  1461.62
eigval :     1462.44  1463.86  1465.00  1465.73  1470.39  1470.57
eigval :     1470.64  1472.41  1473.28  1475.67  1477.16  1482.90
eigval :     1483.87  1485.10  1485.49  1487.39  1488.67  1489.42
eigval :     1490.20  1491.41  1491.80  1491.96  1493.25  1493.78
eigval :     1493.90  1494.95  1495.49  1495.71  1495.80  1497.00
eigval :     1497.12  1497.24  1498.21  1499.65  1500.61  1502.42
eigval :     1503.02  1503.96  1504.27  1505.89  1506.39  1507.34
eigval :     1510.73  1511.74  1511.90  1512.58  1514.47  1515.41
eigval :     1518.50  1521.93  1527.95  1534.73  1700.81  2075.84
eigval :     2797.57  2857.90  2930.72  2977.85  3001.45  3042.02
eigval :     3077.64  3079.98  3119.54  3147.85  3183.56  3202.49
eigval :     3208.16  3216.58  3238.89  3254.79  3265.52  3273.54
eigval :     3282.09  3292.44  3298.70  3299.09  3307.18  3310.18
eigval :     3325.42  3337.59  3342.86  3343.84  3346.52  3350.93
eigval :     3378.57  3380.71  3381.89  3385.49  3388.99  3390.80
eigval :     3395.52  3395.70  3397.22  3397.68  3407.00  3410.16
eigval :     3413.44  3418.07  3424.75  3424.93  3427.97  3435.22
eigval :     3440.42  3448.42  3455.24  3456.97  3457.89  3459.46
eigval :     3463.23  3470.86  3479.89  3482.00  3485.33  3488.93
eigval :     3497.80  3509.93  3559.08  3566.33  3575.33  3578.53
eigval :     3586.41  3590.79  3591.06  3592.38  3593.21  3594.37
eigval :     3596.76  3597.39  3597.40  3599.15  3599.47  3599.90
eigval :     3600.04  3600.20  3600.60  3600.88  3601.63  3601.82
eigval :     3602.21  3602.76  3602.95  3603.19  3604.05  3604.54
eigval :     3605.68  3606.51  3607.18  3607.42  3608.45  3608.49
eigval :     3610.35  3611.84  3612.81  3613.80  3614.67  3615.05
eigval :     3615.77  3615.86  3618.46  3619.80  3622.34  3623.10
eigval :     3623.71  3623.90  3624.48  3626.18  3626.30  3627.50
eigval :     3627.83  3628.46  3628.85  3629.04  3629.32  3630.88
eigval :     3635.48  3636.82  3641.27  3642.00  3643.12  3655.92
eigval :     3657.49  3679.00  3715.12
           -------------------------------------------------
          |                Property Printout                |
           -------------------------------------------------

    * Orbital Energies and Occupations

         #    Occupation            Energy/Eh            Energy/eV
      -------------------------------------------------------------
         1        2.0000           -0.6745941             -18.3566
       ...           ...                  ...                  ...
       258        2.0000           -0.3924876             -10.6801
       259        2.0000           -0.3906973             -10.6314
       260        2.0000           -0.3899884             -10.6121
       261        2.0000           -0.3890167             -10.5857
       262        2.0000           -0.3882190             -10.5640
       263        2.0000           -0.3834216             -10.4334
       264        2.0000           -0.3433191              -9.3422
       265        2.0000           -0.3411868              -9.2842
       266        1.6365           -0.3079777              -8.3805
       267        1.3621           -0.3069075              -8.3514
       268        1.0013           -0.3011577              -8.1949
       269        1.0001           -0.2990499              -8.1376
       270        1.0000           -0.2962009              -8.0600 (HOMO)
       271                         -0.0429709              -1.1693 (LUMO)
       272                          0.0030791               0.0838
       273                          0.0306848               0.8350
       274                          0.0497619               1.3541
       275                          0.0509406               1.3862
       276                          0.0544800               1.4825
       277                          0.0559100               1.5214
       278                          0.0595554               1.6206
       279                          0.0655031               1.7824
       280                          0.0669682               1.8223
       281                          0.0705871               1.9208
       ...                                ...                  ...
       405                          0.9726622              26.4675
      -------------------------------------------------------------
                  HL-Gap            0.2532301 Eh            6.8907 eV
             Fermi-level           -0.2385158 Eh           -6.4903 eV

     #   Z          covCN         q      C6AA      α(0)
     1  26 Fe       0.617     1.182   401.159    58.021
     2   8 O        1.693    -0.607    25.313     6.793
     3   8 O        1.721    -0.630    25.861     6.866
     4   8 O        1.701    -0.624    25.730     6.848
     5   8 O        1.685    -0.626    25.766     6.853
     6   8 O        1.716    -0.631    25.881     6.869
     7   8 O        1.699    -0.635    25.992     6.883
     8   1 H        0.803     0.337     0.619     1.236
     9   1 H        0.804     0.343     0.605     1.222
    10   1 H        0.805     0.355     0.577     1.193
    11   1 H        0.804     0.360     0.564     1.180
    12   1 H        0.805     0.339     0.615     1.232
    13   1 H        0.805     0.345     0.600     1.217
    14   1 H        0.804     0.369     0.545     1.159
    15   1 H        0.805     0.372     0.540     1.155
    16   1 H        0.804     0.353     0.581     1.197
    17   1 H        0.804     0.359     0.568     1.184
    18   1 H        0.803     0.354     0.580     1.196
    19   1 H        0.805     0.359     0.568     1.184
    20   8 O        1.586    -0.733    28.615     7.219
    21   8 O        1.605    -0.679    27.148     7.032
    22   8 O        1.584    -0.703    27.802     7.115
    23   8 O        1.663    -0.621    25.658     6.838
    24   8 O        0.926    -0.881    34.079     7.829
    25   8 O        1.603    -0.676    27.082     7.023
    26   8 O        1.609    -0.671    26.960     7.008
    27   8 O        1.606    -0.696    27.594     7.090
    28   8 O        1.608    -0.655    26.539     6.953
    29   8 O        1.608    -0.663    26.736     6.979
    30   8 O        1.607    -0.665    26.788     6.985
    31   8 O        1.605    -0.696    27.610     7.092
    32   1 H        0.801     0.355     0.576     1.193
    33   1 H        0.804     0.327     0.646     1.262
    34   1 H        0.804     0.312     0.687     1.302
    35   1 H        0.000    -1.000  3074.319   101.384
    36   1 H        0.806     0.214     1.050     1.609
    37   1 H        0.837     0.330     0.633     1.248
    38   1 H        0.805     0.319     0.667     1.282
    39   1 H        0.803     0.363     0.559     1.174
    40   1 H        0.804     0.304     0.708     1.322
    41   1 H        0.843     0.337     0.614     1.228
    42   1 H        0.804     0.351     0.585     1.202
    43   1 H        0.805     0.364     0.556     1.171
    44   1 H        0.802     0.350     0.588     1.204
    45   1 H        0.802     0.364     0.556     1.171
    46   1 H        0.805     0.320     0.665     1.281
    47   1 H        0.802     0.355     0.578     1.194
    48   1 H        0.805     0.323     0.655     1.271
    49   1 H        0.803     0.353     0.581     1.197
    50   1 H        0.802     0.359     0.567     1.183
    51   1 H        0.804     0.362     0.562     1.178
    52   1 H        0.805     0.325     0.651     1.268
    53   1 H        0.804     0.354     0.579     1.195
    54   1 H        0.804     0.343     0.605     1.222
    55   1 H        0.801     0.362     0.561     1.177
    56   8 O        1.610    -0.678    27.138     7.031
    57   1 H        0.804     0.320     0.663     1.279
    58   1 H        0.805     0.358     0.569     1.185
    59   8 O        1.610    -0.721    28.270     7.176
    60   1 H        0.805     0.383     0.516     1.129
    61   1 H        0.805     0.358     0.569     1.185
    62   8 O        1.609    -0.687    27.355     7.059
    63   1 H        0.805     0.380     0.523     1.136
    64   1 H        0.805     0.322     0.657     1.273
    65   8 O        1.609    -0.691    27.468     7.074
    66   1 H        0.806     0.331     0.634     1.250
    67   1 H        0.803     0.355     0.577     1.193
    68   8 O        1.605    -0.715    28.121     7.157
    69   1 H        0.800     0.342     0.607     1.224
    70   1 H        0.805     0.342     0.607     1.224
    71   8 O        1.609    -0.717    28.167     7.163
    72   1 H        0.804     0.336     0.622     1.239
    73   1 H        0.805     0.360     0.564     1.180
    74   8 O        1.610    -0.722    28.314     7.182
    75   1 H        0.805     0.376     0.530     1.144
    76   1 H        0.805     0.371     0.541     1.156
    77   8 O        1.609    -0.688    27.389     7.063
    78   1 H        0.805     0.371     0.542     1.157
    79   1 H        0.804     0.326     0.647     1.264
    80   8 O        1.607    -0.709    27.944     7.134
    81   1 H        0.804     0.328     0.643     1.259
    82   1 H        0.803     0.352     0.583     1.199
    83   8 O        1.606    -0.694    27.546     7.083
    84   1 H        0.801     0.354     0.580     1.197
    85   1 H        0.805     0.341     0.609     1.226
    86   8 O        1.609    -0.686    27.334     7.056
    87   1 H        0.805     0.350     0.588     1.204
    88   1 H        0.804     0.326     0.647     1.264
    89   8 O        1.607    -0.722    28.313     7.181
    90   1 H        0.801     0.353     0.581     1.198
    91   1 H        0.805     0.350     0.587     1.204
    92   8 O        1.609    -0.680    27.191     7.038
    93   1 H        0.805     0.356     0.573     1.189
    94   1 H        0.804     0.323     0.655     1.271
    95   8 O        1.610    -0.683    27.249     7.045
    96   1 H        0.804     0.327     0.645     1.262
    97   1 H        0.805     0.354     0.579     1.195
    98   8 O        1.609    -0.666    26.817     6.989
    99   1 H        0.805     0.365     0.554     1.169
   100   1 H        0.804     0.334     0.628     1.245
   101   8 O        1.609    -0.684    27.290     7.051
   102   1 H        0.805     0.355     0.577     1.193
   103   1 H        0.804     0.328     0.642     1.259
   104   8 O        1.606    -0.709    27.959     7.136
   105   1 H        0.804     0.324     0.654     1.270
   106   1 H        0.801     0.370     0.543     1.158
   107   8 O        1.608    -0.671    26.941     7.005
   108   1 H        0.804     0.330     0.636     1.253
   109   1 H        0.804     0.325     0.651     1.268
   110   8 O        1.609    -0.703    27.781     7.114
   111   1 H        0.805     0.378     0.526     1.139
   112   1 H        0.804     0.327     0.646     1.262
   113   8 O        1.609    -0.717    28.176     7.164
   114   1 H        0.804     0.330     0.638     1.255
   115   1 H        0.805     0.369     0.546     1.161
   116   8 O        1.610    -0.711    28.001     7.142
   117   1 H        0.805     0.360     0.565     1.181
   118   1 H        0.805     0.377     0.528     1.142
   119   8 O        1.610    -0.699    27.690     7.102
   120   1 H        0.805     0.362     0.560     1.176
   121   1 H        0.805     0.358     0.570     1.186
   122   8 O        1.609    -0.709    27.948     7.135
   123   1 H        0.804     0.339     0.614     1.231
   124   1 H        0.805     0.349     0.591     1.207
   125   8 O        1.610    -0.692    27.491     7.077
   126   1 H        0.805     0.363     0.559     1.175
   127   1 H        0.805     0.346     0.597     1.213
   128   8 O        1.610    -0.724    28.364     7.188
   129   1 H        0.805     0.354     0.579     1.196
   130   1 H        0.805     0.371     0.542     1.157
   131   8 O        1.608    -0.725    28.381     7.190
   132   1 H        0.803     0.329     0.640     1.257
   133   1 H        0.805     0.362     0.560     1.175
   134   8 O        1.610    -0.722    28.300     7.180
   135   1 H        0.805     0.364     0.556     1.171
   136   1 H        0.805     0.379     0.526     1.139
   137   8 O        1.609    -0.711    27.999     7.142
   138   1 H        0.805     0.347     0.595     1.212
   139   1 H        0.804     0.339     0.615     1.232
   140   8 O        1.610    -0.692    27.492     7.077
   141   1 H        0.805     0.358     0.570     1.186
   142   1 H        0.805     0.352     0.584     1.201
   143   8 O        1.608    -0.715    28.106     7.155
   144   1 H        0.806     0.336     0.622     1.238
   145   1 H        0.802     0.354     0.580     1.197
   146   8 O        1.609    -0.721    28.279     7.177
   147   1 H        0.803     0.336     0.622     1.239
   148   1 H        0.805     0.355     0.578     1.194
   149   8 O        1.608    -0.690    27.439     7.070
   150   1 H        0.805     0.348     0.594     1.210
   151   1 H        0.803     0.339     0.615     1.232
   152   8 O        1.608    -0.727    28.427     7.196
   153   1 H        0.805     0.356     0.574     1.190
   154   1 H        0.803     0.339     0.614     1.231
   155   8 O        1.610    -0.701    27.746     7.109
   156   1 H        0.805     0.363     0.560     1.175
   157   1 H        0.805     0.363     0.558     1.173
   158   8 O        1.610    -0.700    27.721     7.106
   159   1 H        0.805     0.358     0.569     1.185
   160   1 H        0.805     0.364     0.557     1.172
   161   8 O        1.609    -0.713    28.062     7.150
   162   1 H        0.805     0.346     0.597     1.213
   163   1 H        0.803     0.337     0.620     1.237
   164   8 O        1.609    -0.690    27.450     7.071
   165   1 H        0.805     0.352     0.583     1.200
   166   1 H        0.804     0.333     0.629     1.245
   167   8 O        1.608    -0.693    27.522     7.080
   168   1 H        0.805     0.338     0.618     1.235
   169   1 H        0.803     0.347     0.595     1.211
   170   8 O        1.610    -0.727    28.427     7.196
   171   1 H        0.805     0.365     0.554     1.169
   172   1 H        0.805     0.362     0.562     1.177
   173   8 O        1.610    -0.719    28.208     7.168
   174   1 H        0.805     0.361     0.562     1.178
   175   1 H        0.805     0.357     0.571     1.187
   176   8 O        1.610    -0.729    28.491     7.204
   177   1 H        0.805     0.364     0.556     1.172
   178   1 H        0.805     0.365     0.555     1.170
   179   8 O        1.610    -0.728    28.454     7.199
   180   1 H        0.805     0.369     0.547     1.161
   181   1 H        0.805     0.359     0.567     1.183
   182   8 O        1.610    -0.731    28.544     7.211
   183   1 H        0.805     0.367     0.549     1.164
   184   1 H        0.805     0.363     0.558     1.173
   185   8 O        1.610    -0.699    27.692     7.102
   186   1 H        0.805     0.365     0.554     1.169
   187   1 H        0.805     0.360     0.565     1.180
   188   8 O        1.610    -0.703    27.779     7.114
   189   1 H        0.805     0.367     0.550     1.165
   190   1 H        0.805     0.354     0.579     1.195
   191   8 O        1.610    -0.713    28.065     7.150
   192   1 H        0.805     0.368     0.547     1.162
   193   1 H        0.805     0.364     0.557     1.172
   194   8 O        1.609    -0.694    27.556     7.085
   195   1 H        0.804     0.339     0.614     1.231
   196   1 H        0.805     0.349     0.590     1.206
   197   8 O        1.609    -0.714    28.084     7.152
   198   1 H        0.804     0.338     0.617     1.234
   199   1 H        0.805     0.355     0.576     1.192

 Mol. C6AA /au·bohr⁶  :     266932.307365
 Mol. C8AA /au·bohr⁸  :    5079916.436685
 Mol. α(0) /au        :        785.773908


Wiberg/Mayer (AO) data.
largest (>0.10) Wiberg bond orders for each atom

 ---------------------------------------------------------------------------
     #   Z sym  total        # sym  WBO       # sym  WBO       # sym  WBO
 ---------------------------------------------------------------------------
     1  26 Fe   1.327 --     3 O    0.202     7 O    0.190     4 O    0.189
                             6 O    0.187     5 O    0.170     2 O    0.168
                            23 O    0.155
     2   8 O    1.923 --    12 H    0.860    13 H    0.857     1 Fe   0.168
     3   8 O    1.922 --    16 H    0.834    17 H    0.834     1 Fe   0.202
     4   8 O    1.979 --    15 H    0.825    14 H    0.811     1 Fe   0.189
     5   8 O    1.941 --    19 H    0.856    18 H    0.811     1 Fe   0.170
     6   8 O    1.912 --     9 H    0.836     8 H    0.825     1 Fe   0.187
     7   8 O    1.918 --    10 H    0.834    11 H    0.825     1 Fe   0.190
     8   1 H    0.885 --     6 O    0.825
     9   1 H    0.882 --     6 O    0.836
    10   1 H    0.873 --     7 O    0.834
    11   1 H    0.870 --     7 O    0.825
    12   1 H    0.885 --     2 O    0.860
    13   1 H    0.880 --     2 O    0.857
    14   1 H    0.862 --     4 O    0.811
    15   1 H    0.861 --     4 O    0.825
    16   1 H    0.875 --     3 O    0.834
    17   1 H    0.870 --     3 O    0.834
    18   1 H    0.875 --     5 O    0.811
    19   1 H    0.871 --     5 O    0.856
    20   8 O    1.811 --    34 H    0.862    37 H    0.694
    21   8 O    1.882 --    54 H    0.839    55 H    0.781
    22   8 O    1.866 --    40 H    0.863    41 H    0.684
    23   8 O    1.948 --    43 H    0.851    42 H    0.815     1 Fe   0.155
    24   8 O    1.564 --    36 H    0.936    41 H    0.199    37 H    0.192
    25   8 O    1.892 --    33 H    0.846    32 H    0.775
    26   8 O    1.831 --    52 H    0.855    53 H    0.840
    27   8 O    1.860 --    51 H    0.834    50 H    0.799
    28   8 O    1.869 --    48 H    0.858    49 H    0.826
    29   8 O    1.854 --    38 H    0.863    39 H    0.819
    30   8 O    1.861 --    46 H    0.858    47 H    0.807
    31   8 O    1.883 --    45 H    0.804    44 H    0.803
    32   1 H    0.874 --    25 O    0.775
    33   1 H    0.893 --    25 O    0.846
    34   1 H    0.903 --    20 O    0.862
    35   1 H    0.000
    36   1 H    0.954 --    24 O    0.936
    37   1 H    0.891 --    20 O    0.694    24 O    0.192
    38   1 H    0.898 --    29 O    0.863
    39   1 H    0.868 --    29 O    0.819
    40   1 H    0.907 --    22 O    0.863
    41   1 H    0.886 --    22 O    0.684    24 O    0.199
    42   1 H    0.876 --    23 O    0.815
    43   1 H    0.867 --    23 O    0.851
    44   1 H    0.877 --    31 O    0.803
    45   1 H    0.867 --    31 O    0.804
    46   1 H    0.898 --    30 O    0.858
    47   1 H    0.874 --    30 O    0.807
    48   1 H    0.895 --    28 O    0.858
    49   1 H    0.875 --    28 O    0.826
    50   1 H    0.871 --    27 O    0.799
    51   1 H    0.869 --    27 O    0.834
    52   1 H    0.895 --    26 O    0.855
    53   1 H    0.875 --    26 O    0.840
    54   1 H    0.882 --    21 O    0.839
    55   1 H    0.869 --    21 O    0.781
    56   8 O    1.790 --    58 H    0.868    57 H    0.865
    57   1 H    0.897 --    56 O    0.865
    58   1 H    0.871 --    56 O    0.868
    59   8 O    1.758 --    61 H    0.869    60 H    0.850
    60   1 H    0.853 --    59 O    0.850
    61   1 H    0.872 --    59 O    0.869
    62   8 O    1.801 --    64 H    0.869    63 H    0.853
    63   1 H    0.856 --    62 O    0.853
    64   1 H    0.896 --    62 O    0.869
    65   8 O    1.781 --    66 H    0.883    67 H    0.833
    66   1 H    0.890 --    65 O    0.883
    67   1 H    0.874 --    65 O    0.833
    68   8 O    1.781 --    70 H    0.881    69 H    0.794
    69   1 H    0.883 --    68 O    0.794
    70   1 H    0.883 --    68 O    0.881
    71   8 O    1.743 --    73 H    0.870    72 H    0.858
    72   1 H    0.887 --    71 O    0.858
    73   1 H    0.870 --    71 O    0.870
    74   8 O    1.763 --    76 H    0.859    75 H    0.856
    75   1 H    0.858 --    74 O    0.856
    76   1 H    0.862 --    74 O    0.859
    77   8 O    1.792 --    79 H    0.865    78 H    0.860
    78   1 H    0.863 --    77 O    0.860
    79   1 H    0.894 --    77 O    0.865
    80   8 O    1.781 --    81 H    0.858    82 H    0.816
    81   1 H    0.892 --    80 O    0.858
    82   1 H    0.876 --    80 O    0.816
    83   8 O    1.826 --    85 H    0.880    84 H    0.795
    84   1 H    0.875 --    83 O    0.795
    85   1 H    0.884 --    83 O    0.880
    86   8 O    1.784 --    87 H    0.873    88 H    0.850
    87   1 H    0.877 --    86 O    0.873
    88   1 H    0.894 --    86 O    0.850
    89   8 O    1.771 --    91 H    0.874    90 H    0.804
    90   1 H    0.875 --    89 O    0.804
    91   1 H    0.877 --    89 O    0.874
    92   8 O    1.795 --    93 H    0.871    94 H    0.858
    93   1 H    0.873 --    92 O    0.871
    94   1 H    0.895 --    92 O    0.858
    95   8 O    1.788 --    97 H    0.871    96 H    0.860
    96   1 H    0.893 --    95 O    0.860
    97   1 H    0.875 --    95 O    0.871
    98   8 O    1.850 --    99 H    0.864   100 H    0.849
    99   1 H    0.867 --    98 O    0.864
   100   1 H    0.889 --    98 O    0.849
   101   8 O    1.789 --   102 H    0.872   103 H    0.859
   102   1 H    0.874 --   101 O    0.872
   103   1 H    0.892 --   101 O    0.859
   104   8 O    1.814 --   105 H    0.857   106 H    0.790
   105   1 H    0.895 --   104 O    0.857
   106   1 H    0.863 --   104 O    0.790
   107   8 O    1.807 --   109 H    0.865   108 H    0.859
   108   1 H    0.891 --   107 O    0.859
   109   1 H    0.895 --   107 O    0.865
   110   8 O    1.771 --   112 H    0.863   111 H    0.854
   111   1 H    0.857 --   110 O    0.854
   112   1 H    0.893 --   110 O    0.863
   113   8 O    1.743 --   114 H    0.864   115 H    0.864
   114   1 H    0.891 --   113 O    0.864
   115   1 H    0.864 --   113 O    0.864
   116   8 O    1.774 --   117 H    0.867   118 H    0.856
   117   1 H    0.870 --   116 O    0.867
   118   1 H    0.858 --   116 O    0.856
   119   8 O    1.777 --   121 H    0.870   120 H    0.867
   120   1 H    0.869 --   119 O    0.867
   121   1 H    0.872 --   119 O    0.870
   122   8 O    1.749 --   124 H    0.878   123 H    0.855
   123   1 H    0.885 --   122 O    0.855
   124   1 H    0.878 --   122 O    0.878
   125   8 O    1.776 --   127 H    0.877   126 H    0.865
   126   1 H    0.868 --   125 O    0.865
   127   1 H    0.880 --   125 O    0.877
   128   8 O    1.737 --   129 H    0.875   130 H    0.863
   129   1 H    0.875 --   128 O    0.875
   130   1 H    0.863 --   128 O    0.863
   131   8 O    1.738 --   133 H    0.868   132 H    0.846
   132   1 H    0.892 --   131 O    0.846
   133   1 H    0.869 --   131 O    0.868
   134   8 O    1.759 --   135 H    0.865   136 H    0.854
   135   1 H    0.867 --   134 O    0.865
   136   1 H    0.857 --   134 O    0.854
   137   8 O    1.747 --   138 H    0.879   139 H    0.850
   138   1 H    0.880 --   137 O    0.879
   139   1 H    0.885 --   137 O    0.850
   140   8 O    1.776 --   142 H    0.873   141 H    0.869
   141   1 H    0.872 --   140 O    0.869
   142   1 H    0.876 --   140 O    0.873
   143   8 O    1.765 --   144 H    0.884   145 H    0.812
   144   1 H    0.887 --   143 O    0.884
   145   1 H    0.875 --   143 O    0.812
   146   8 O    1.740 --   148 H    0.874   147 H    0.845
   147   1 H    0.887 --   146 O    0.845
   148   1 H    0.874 --   146 O    0.874
   149   8 O    1.796 --   150 H    0.876   151 H    0.838
   150   1 H    0.879 --   149 O    0.876
   151   1 H    0.885 --   149 O    0.838
   152   8 O    1.736 --   153 H    0.873   154 H    0.841
   153   1 H    0.873 --   152 O    0.873
   154   1 H    0.885 --   152 O    0.841
   155   8 O    1.781 --   156 H    0.867   157 H    0.866
   156   1 H    0.869 --   155 O    0.867
   157   1 H    0.868 --   155 O    0.866
   158   8 O    1.776 --   159 H    0.869   160 H    0.865
   159   1 H    0.872 --   158 O    0.869
   160   1 H    0.868 --   158 O    0.865
   161   8 O    1.746 --   162 H    0.880   163 H    0.845
   162   1 H    0.880 --   161 O    0.880
   163   1 H    0.886 --   161 O    0.845
   164   8 O    1.784 --   165 H    0.873   166 H    0.849
   165   1 H    0.876 --   164 O    0.873
   166   1 H    0.889 --   164 O    0.849
   167   8 O    1.787 --   168 H    0.883   169 H    0.832
   168   1 H    0.886 --   167 O    0.883
   169   1 H    0.879 --   167 O    0.832
   170   8 O    1.736 --   172 H    0.869   171 H    0.867
   171   1 H    0.867 --   170 O    0.867
   172   1 H    0.869 --   170 O    0.869
   173   8 O    1.742 --   175 H    0.872   174 H    0.869
   174   1 H    0.869 --   173 O    0.869
   175   1 H    0.872 --   173 O    0.872
   176   8 O    1.734 --   177 H    0.867   178 H    0.867
   177   1 H    0.867 --   176 O    0.867
   178   1 H    0.867 --   176 O    0.867
   179   8 O    1.735 --   181 H    0.871   180 H    0.864
   180   1 H    0.864 --   179 O    0.864
   181   1 H    0.871 --   179 O    0.871
   182   8 O    1.733 --   184 H    0.868   183 H    0.865
   183   1 H    0.865 --   182 O    0.865
   184   1 H    0.868 --   182 O    0.868
   185   8 O    1.783 --   187 H    0.868   186 H    0.864
   186   1 H    0.867 --   185 O    0.864
   187   1 H    0.870 --   185 O    0.868
   188   8 O    1.771 --   190 H    0.872   189 H    0.863
   189   1 H    0.865 --   188 O    0.863
   190   1 H    0.875 --   188 O    0.872
   191   8 O    1.764 --   193 H    0.865   192 H    0.862
   192   1 H    0.864 --   191 O    0.862
   193   1 H    0.868 --   191 O    0.865
   194   8 O    1.778 --   196 H    0.874   195 H    0.845
   195   1 H    0.885 --   194 O    0.845
   196   1 H    0.878 --   194 O    0.874
   197   8 O    1.745 --   199 H    0.874   198 H    0.856
   198   1 H    0.886 --   197 O    0.856
   199   1 H    0.874 --   197 O    0.874
 ---------------------------------------------------------------------------

Topologies differ in total number of bonds
Writing topology from bond orders to xtbtopo.mol

molecular dipole:
                 x           y           z       tot (Debye)
 q only:       11.998     -16.409      -9.102
   full:       11.392     -13.813      -8.469      50.343
molecular quadrupole (traceless):
                xx          xy          yy          xz          yz          zz
 q only:      267.572     196.202    -318.802     135.669    -423.975      51.230
  q+dip:      270.894     188.576    -301.460     138.778    -419.764      30.566
   full:      270.162     188.401    -300.731     137.960    -419.362      30.570

           -------------------------------------------------
          |               Frequency Printout                |
           -------------------------------------------------
 projected vibrational frequencies (cm⁻¹)
eigval :       -0.00    -0.00    -0.00     0.00     0.00     0.00
eigval :       10.02    12.91    14.77    15.22    17.95    18.82
eigval :       19.52    19.77    21.27    21.66    22.09    22.50
eigval :       23.16    23.92    25.71    26.43    26.71    27.81
eigval :       28.98    29.66    30.09    30.83    31.64    32.55
eigval :       33.40    34.87    35.36    35.68    36.01    37.12
eigval :       38.10    38.58    39.25    39.62    40.40    41.02
eigval :       41.07    41.67    42.41    43.13    43.78    44.20
eigval :       44.60    45.44    45.85    46.70    47.54    48.36
eigval :       48.96    49.12    49.48    49.96    51.49    51.91
eigval :       52.18    52.71    53.45    53.95    55.09    55.68
eigval :       55.88    56.60    57.68    58.40    58.55    60.06
eigval :       60.47    60.73    61.17    62.03    63.20    63.37
eigval :       63.73    64.20    65.30    65.79    65.93    66.47
eigval :       67.31    68.14    68.74    69.28    69.77    70.31
eigval :       71.31    71.64    72.08    72.43    72.98    73.76
eigval :       74.99    75.58    75.95    76.82    77.47    77.83
eigval :       78.40    79.46    80.03    81.20    82.06    83.40
eigval :       84.73    85.43    86.12    87.25    88.29    89.55
eigval :       90.27    90.55    91.13    92.35    93.66    94.03
eigval :       95.37    96.65    97.71    98.66   102.71   105.07
eigval :      106.37   107.35   109.63   112.18   114.16   117.54
eigval :      119.50   129.41   132.23   133.51   134.11   135.95
eigval :      137.79   138.39   141.07   141.58   143.31   145.67
eigval :      147.89   148.94   150.42   151.78   153.02   154.98
eigval :      156.29   157.32   161.14   161.86   164.49   168.37
eigval :      168.63   171.80   172.50   174.41   174.74   175.26
eigval :      175.90   177.75   180.14   182.47   183.16   184.81
eigval :      186.88   188.60   188.98   190.27   191.28   193.28
eigval :      194.04   196.07   196.98   198.44   198.57   200.39
eigval :      201.59   206.64   207.38   208.91   209.95   215.66
eigval :      216.47   217.47   217.84   218.88   221.34   221.73
eigval :      222.61   222.63   224.40   227.94   229.82   230.41
eigval :      231.38   232.19   234.32   236.15   237.14   240.43
eigval :      241.45   242.31   245.93   246.09   247.86   248.89
eigval :      250.42   252.42   253.64   254.03   255.43   256.38
eigval :      258.02   260.04   261.15   262.36   264.38   267.22
eigval :      267.59   269.60   271.07   273.79   276.08   277.45
eigval :      279.66   281.70   282.65   283.35   285.28   286.09
eigval :      286.96   290.44   291.96   293.90   295.49   297.07
eigval :      297.67   303.20   305.56   308.45   309.74   311.43
eigval :      312.56   313.63   314.86   317.89   319.13   320.86
eigval :      323.76   324.57   326.60   329.91   331.16   332.77
eigval :      334.04   337.94   339.70   344.43   346.81   347.46
eigval :      348.42   350.48   353.16   354.27   359.03   362.99
eigval :      364.76   366.36   369.60   369.95   376.40   380.20
eigval :      386.40   387.89   390.57   392.56   393.85   395.98
eigval :      400.30   401.25   403.66   405.37   408.10   410.46
eigval :      413.28   416.03   421.12   421.82   423.45   425.98
eigval :      428.26   430.45   433.11   436.56   436.81   439.45
eigval :      440.70   449.26   453.71   455.74   458.34   461.81
eigval :      462.81   470.72   472.91   476.39   480.59   481.64
eigval :      482.40   486.68   493.97   500.22   502.99   505.10
eigval :      507.98   510.76   511.44   515.54   525.78   528.06
eigval :      529.80   536.61   537.15   542.21   543.72   544.48
eigval :      546.48   548.67   555.25   557.04   557.39   560.48
eigval :      563.80   569.45   572.04   580.43   583.45   594.64
eigval :      598.31   599.77   605.46   606.18   610.86   611.22
eigval :      612.81   613.21   615.03   615.26   618.14   618.37
eigval :      621.83   625.16   628.93   631.80   634.80   641.33
eigval :      643.10   643.80   653.52   659.03   664.49   667.83
eigval :      670.59   674.14   676.75   678.59   684.20   690.77
eigval :      692.96   696.08   700.33   701.23   710.08   711.78
eigval :      722.75   730.77   735.63   739.49   746.27   757.64
eigval :      773.60   779.48   779.82   787.76   798.29   802.22
eigval :      822.73   827.47   838.59   848.50   877.77   882.98
eigval :      910.03   915.10   953.48  1116.85  1132.68  1437.19
eigval :     1451.83  1455.79  1456.23  1456.47  1457.92  1458.08
eigval :     1458.23  1459.08  1459.16  1459.70  1461.11  1461.62
eigval :     1462.44  1463.86  1465.00  1465.73  1470.39  1470.57
eigval :     1470.64  1472.41  1473.28  1475.67  1477.16  1482.90
eigval :     1483.87  1485.10  1485.49  1487.39  1488.67  1489.42
eigval :     1490.20  1491.41  1491.80  1491.96  1493.25  1493.78
eigval :     1493.90  1494.95  1495.49  1495.71  1495.80  1497.00
eigval :     1497.12  1497.24  1498.21  1499.65  1500.61  1502.42
eigval :     1503.02  1503.96  1504.27  1505.89  1506.39  1507.34
eigval :     1510.73  1511.74  1511.90  1512.58  1514.47  1515.41
eigval :     1518.50  1521.93  1527.95  1534.73  1700.81  2075.84
eigval :     2797.57  2857.90  2930.72  2977.85  3001.45  3042.02
eigval :     3077.64  3079.98  3119.54  3147.85  3183.56  3202.49
eigval :     3208.16  3216.58  3238.89  3254.79  3265.52  3273.54
eigval :     3282.09  3292.44  3298.70  3299.09  3307.18  3310.18
eigval :     3325.42  3337.59  3342.86  3343.84  3346.52  3350.93
eigval :     3378.57  3380.71  3381.89  3385.49  3388.99  3390.80
eigval :     3395.52  3395.70  3397.22  3397.68  3407.00  3410.16
eigval :     3413.44  3418.07  3424.75  3424.93  3427.97  3435.22
eigval :     3440.42  3448.42  3455.24  3456.97  3457.89  3459.46
eigval :     3463.23  3470.86  3479.89  3482.00  3485.33  3488.93
eigval :     3497.80  3509.93  3559.08  3566.33  3575.33  3578.53
eigval :     3586.41  3590.79  3591.06  3592.38  3593.21  3594.37
eigval :     3596.76  3597.39  3597.40  3599.15  3599.47  3599.90
eigval :     3600.04  3600.20  3600.60  3600.88  3601.63  3601.82
eigval :     3602.21  3602.76  3602.95  3603.19  3604.05  3604.54
eigval :     3605.68  3606.51  3607.18  3607.42  3608.45  3608.49
eigval :     3610.35  3611.84  3612.81  3613.80  3614.67  3615.05
eigval :     3615.77  3615.86  3618.46  3619.80  3622.34  3623.10
eigval :     3623.71  3623.90  3624.48  3626.18  3626.30  3627.50
eigval :     3627.83  3628.46  3628.85  3629.04  3629.32  3630.88
eigval :     3635.48  3636.82  3641.27  3642.00  3643.12  3655.92
eigval :     3657.49  3679.00  3715.12
 reduced masses (amu)
   1: 14.72   2: 15.06   3: 15.45   4: 15.75   5: 14.92   6: 15.53   7: 14.23   8: 14.33
   9: 14.43  10: 14.48  11: 14.83  12: 14.56  13: 14.47  14: 14.73  15: 14.60  16: 14.84
  17: 14.84  18: 14.63  19: 14.42  20: 14.51  21: 14.59  22: 14.21  23: 14.53  24: 14.37
  25: 14.62  26: 15.39  27: 15.06  28: 15.03  29: 14.50  30: 14.42  31: 14.60  32: 14.67
  33: 14.77  34: 14.46  35: 14.47  36: 14.69  37: 14.70  38: 14.47  39: 14.55  40: 14.53
  41: 14.41  42: 14.86  43: 14.62  44: 14.94  45: 15.18  46: 14.53  47: 14.60  48: 14.83
  49: 14.09  50: 14.70  51: 14.56  52: 14.90  53: 14.83  54: 14.69  55: 14.73  56: 15.34
  57: 14.75  58: 14.51  59: 15.84  60: 14.88  61: 16.23  62: 14.55  63: 14.53  64: 14.44
  65: 14.70  66: 14.53  67: 14.85  68: 15.43  69: 14.57  70: 14.58  71: 13.97  72: 14.62
  73: 14.41  74: 15.28  75: 14.07  76: 14.74  77: 14.16  78: 13.75  79: 14.56  80: 14.36
  81: 14.72  82: 14.21  83: 14.79  84: 12.27  85: 14.41  86: 14.64  87: 13.37  88: 14.56
  89: 15.31  90: 14.45  91: 14.79  92: 15.27  93: 15.23  94: 14.49  95: 14.97  96: 16.13
  97: 14.87  98: 14.67  99: 14.57 100: 14.94 101: 15.02 102: 14.88 103: 14.63 104: 14.65
 105: 15.11 106: 14.65 107: 15.58 108: 15.94 109: 16.84 110: 16.24 111: 16.06 112: 14.54
 113: 14.94 114: 15.67 115: 14.78 116: 14.73 117: 14.69 118: 14.18 119: 14.60 120: 14.15
 121: 15.92 122: 14.97 123: 15.91 124: 16.65 125: 14.64 126: 15.63 127:  8.80 128: 14.87
 129: 16.06 130: 13.11 131:  1.81 132: 14.23 133: 14.40 134: 11.67 135: 11.76 136: 11.45
 137:  7.93 138:  7.66 139: 13.34 140:  7.92 141:  6.87 142: 10.50 143:  5.89 144: 13.49
 145: 10.08 146: 12.87 147:  5.74 148:  8.51 149:  8.36 150: 11.34 151: 10.39 152: 10.17
 153: 12.89 154:  4.18 155: 13.27 156: 13.26 157: 13.56 158:  5.21 159: 11.67 160:  6.80
 161:  7.63 162: 10.08 163: 13.02 164:  6.19 165: 10.10 166: 11.21 167: 12.81 168: 11.99
 169: 10.79 170:  9.89 171:  8.14 172:  9.26 173: 11.04 174:  4.60 175: 10.34 176:  8.17
 177: 12.37 178:  9.70 179:  7.59 180: 10.32 181: 13.00 182: 13.79 183: 12.12 184: 10.92
 185:  3.97 186: 10.73 187:  4.77 188:  6.69 189:  8.57 190: 10.31 191:  7.82 192:  5.84
 193:  8.21 194:  8.73 195:  9.69 196:  7.84 197:  9.40 198:  9.28 199:  8.65 200:  9.48
 201:  9.83 202:  5.29 203: 11.29 204:  9.58 205: 11.60 206: 10.10 207:  8.06 208:  7.15
 209:  8.95 210:  4.84 211:  8.44 212:  2.73 213:  7.62 214: 11.17 215:  6.20 216:  4.15
 217:  8.60 218:  5.51 219: 11.45 220:  6.30 221:  5.13 222: 11.98 223:  6.94 224:  8.82
 225:  6.36 226:  4.18 227:  5.40 228:  7.18 229:  6.02 230:  5.40 231:  7.90 232: 12.49
 233:  5.28 234:  3.18 235: 11.08 236:  5.46 237:  7.91 238:  7.45 239:  4.03 240:  2.19
 241: 11.79 242:  2.33 243:  8.99 244:  6.33 245: 10.47 246:  7.81 247:  4.56 248:  3.91
 249:  5.76 250: 15.67 251:  5.00 252: 15.15 253: 10.69 254:  5.18 255:  5.48 256:  2.00
 257:  1.60 258: 14.64 259:  2.39 260:  3.55 261: 16.91 262:  2.43 263:  9.76 264:  5.43
 265:  1.61 266:  6.22 267:  1.90 268:  2.48 269: 12.92 270:  1.92 271:  2.53 272:  1.95
 273:  2.28 274:  1.92 275:  3.88 276:  1.55 277:  1.27 278:  1.48 279:  1.54 280:  1.56
 281:  1.52 282:  1.69 283:  1.87 284:  1.63 285:  1.94 286:  1.65 287:  1.75 288:  1.88
 289:  1.96 290:  6.73 291:  3.43 292:  2.58 293:  1.95 294:  2.23 295:  2.22 296:  1.77
 297:  2.83 298:  1.88 299:  1.61 300:  8.83 301:  1.79 302:  1.67 303:  2.19 304:  1.47
 305:  1.89 306:  3.03 307:  1.95 308:  1.88 309:  2.14 310:  2.09 311:  1.66 312:  1.70
 313:  1.76 314:  1.93 315:  1.71 316:  1.83 317:  1.72 318:  1.64 319:  1.64 320:  2.13
 321:  1.68 322:  1.94 323:  1.91 324:  1.73 325:  2.04 326:  1.78 327:  1.93 328:  1.82
 329:  1.95 330:  1.80 331:  2.80 332:  1.84 333:  1.93 334:  1.89 335:  1.84 336:  1.92
 337:  1.72 338:  1.74 339:  2.01 340:  2.00 341:  1.92 342:  1.78 343:  2.10 344:  1.78
 345:  1.63 346:  1.59 347:  1.63 348:  1.87 349:  2.05 350:  1.75 351:  1.76 352:  1.77
 353:  2.01 354:  1.69 355:  1.93 356:  1.95 357:  3.00 358:  6.58 359:  1.95 360:  1.86
 361:  1.83 362:  1.90 363:  2.36 364:  1.79 365:  1.83 366:  1.98 367:  2.55 368:  1.84
 369:  1.82 370:  1.98 371:  1.89 372:  1.76 373:  1.72 374:  2.04 375:  1.92 376:  1.89
 377:  1.83 378:  2.01 379:  1.85 380:  1.99 381:  2.05 382:  1.61 383:  1.63 384:  1.79
 385:  2.04 386:  1.79 387:  1.61 388:  1.70 389:  1.77 390:  1.87 391:  1.78 392:  2.16
 393:  2.01 394:  2.08 395:  1.74 396:  1.94 397:  1.94 398:  1.98 399:  2.12 400:  1.73
 401:  1.76 402:  2.05 403:  2.11 404:  2.11 405:  2.16 406:  2.13 407:  2.13 408:  2.17
 409:  2.10 410:  2.16 411:  2.16 412:  2.05 413:  2.04 414:  2.13 415:  2.08 416:  2.11
 417:  2.11 418:  2.11 419:  2.16 420:  2.11 421:  2.03 422:  2.09 423:  2.05 424:  2.08
 425:  2.05 426:  2.04 427:  2.08 428:  2.07 429:  2.08 430:  2.12 431:  2.14 432:  2.06
 433:  2.06 434:  2.09 435:  2.08 436:  2.06 437:  2.09 438:  2.08 439:  2.08 440:  2.07
 441:  2.07 442:  2.09 443:  2.08 444:  2.09 445:  2.07 446:  2.11 447:  2.09 448:  2.04
 449:  2.08 450:  2.03 451:  2.09 452:  2.09 453:  2.09 454:  2.06 455:  2.04 456:  2.11
 457:  2.07 458:  2.08 459:  2.08 460:  2.00 461:  2.01 462:  2.06 463:  1.99 464:  1.96
 465:  1.96 466:  1.99 467:  2.22 468:  1.95 469:  1.94 470:  1.93 471:  1.94 472:  1.92
 473:  1.93 474:  1.96 475:  1.93 476:  2.02 477:  1.91 478:  1.93 479:  1.92 480:  1.70
 481:  1.88 482:  1.99 483:  1.89 484:  1.90 485:  1.89 486:  1.89 487:  1.91 488:  1.89
 489:  1.88 490:  1.87 491:  1.91 492:  1.91 493:  1.96 494:  1.89 495:  1.89 496:  1.89
 497:  1.88 498:  1.87 499:  1.85 500:  1.88 501:  1.92 502:  1.97 503:  1.88 504:  1.88
 505:  1.86 506:  1.88 507:  2.10 508:  2.01 509:  1.84 510:  1.83 511:  1.99 512:  1.81
 513:  1.69 514:  1.91 515:  1.89 516:  1.88 517:  1.80 518:  1.81 519:  1.76 520:  1.71
 521:  1.89 522:  1.90 523:  1.67 524:  1.90 525:  1.72 526:  1.82 527:  1.81 528:  1.74
 529:  1.71 530:  1.95 531:  1.79 532:  1.74 533:  1.82 534:  1.84 535:  1.80 536:  1.82
 537:  1.87 538:  2.10 539:  1.99 540:  1.85 541:  1.57 542:  2.07 543:  1.93 544:  1.98
 545:  1.79 546:  1.83 547:  1.81 548:  1.76 549:  1.99 550:  1.85 551:  1.83 552:  1.86
 553:  1.88 554:  1.73 555:  1.78 556:  1.61 557:  1.80 558:  1.93 559:  1.87 560:  1.68
 561:  1.83 562:  1.69 563:  1.76 564:  1.92 565:  1.83 566:  1.85 567:  1.82 568:  1.80
 569:  1.95 570:  1.78 571:  1.78 572:  1.89 573:  1.83 574:  1.81 575:  1.82 576:  1.82
 577:  1.84 578:  1.83 579:  1.83 580:  1.84 581:  1.83 582:  1.83 583:  1.74 584:  1.83
 585:  1.83 586:  1.82 587:  1.84 588:  1.84 589:  1.84 590:  1.83 591:  1.81 592:  1.83
 593:  1.81 594:  1.85 595:  1.83 596:  1.85 597:  1.89
 IR intensities (km·mol⁻¹)
   1:  0.83   2:  0.93   3:  0.92   4:  0.66   5:  1.40   6:  0.45   7:  1.85   8:  2.01
   9:  1.19  10:  1.60  11:  8.34  12:  3.38  13: 10.87  14:  0.98  15:  1.35  16:  2.65
  17:  3.64  18:  2.39  19:  8.56  20:  2.41  21:  4.47  22: 14.50  23:  7.76  24:  7.99
  25:  6.86  26:  1.32  27:  1.16  28:  6.56  29:  2.64  30:  3.95  31:  8.46  32:  4.01
  33:  3.79  34:  3.00  35: 53.34  36:  1.95  37:  2.54  38:  4.74  39:  5.33  40:  6.15
  41: 17.69  42:  1.38  43: 17.06  44:  2.07  45:  0.49  46:  3.38  47:  9.53  48:  2.40
  49: 54.76  50:  0.28  51: 27.96  52:  3.58  53:  3.09  54:  2.63  55:  3.70  56:  8.00
  57:  5.16  58: 47.54  59:  5.94  60:  4.04  61:  3.91  62:  1.55  63:  3.37  64:  9.21
  65:  6.77  66: 15.77  67: 28.60  68:  2.04  69:  2.96  70:  2.03  71: 27.54  72:  5.95
  73: 17.53  74: 13.94  75: 34.82  76: 17.67  77: 28.10  78: 64.53  79:  5.76  80: 23.46
  81: 12.74  82: 62.12  83:  1.33  84:146.51  85: 99.68  86:  9.82  87: 68.14  88:  1.47
  89:  5.03  90: 38.18  91: 12.53  92: 24.60  93: 23.59  94:  2.42  95: 15.46  96:  2.21
  97:  7.85  98: 15.49  99: 20.92 100:  2.58 101:  7.23 102:  6.65 103:  5.70 104:  8.65
 105:  0.28 106:  9.51 107:  3.84 108: 28.99 109: 11.30 110:  7.52 111:  4.81 112: 26.30
 113:  5.67 114:  2.09 115:  4.76 116: 16.42 117: 16.37 118:  9.62 119: 13.38 120: 13.85
 121: 10.17 122:  4.78 123: 10.09 124:  9.32 125:  5.53 126:  5.98 127: 35.50 128:  9.23
 129:  3.06 130: 11.99 131: 20.88 132: 17.72 133:  6.56 134: 19.86 135: 30.16 136: 47.58
 137: 30.98 138: 46.60 139: 10.21 140: 91.32 141:108.45 142: 10.60 143: 71.22 144: 18.63
 145: 19.20 146: 10.43 147: 74.46 148: 46.04 149:139.61 150: 19.38 151:172.90 152:104.00
 153: 16.02 154:151.50 155:  8.76 156: 53.45 157: 48.69 158: 93.36 159: 29.22 160: 19.22
 161:142.36 162: 65.99 163:116.26 164: 19.91 165: 60.51 166: 76.99 167: 17.82 168: 37.65
 169:  5.46 170:195.25 171:229.21 172: 25.61 173: 42.08 174: 46.93 175:179.83 176: 50.19
 177: 12.31 178: 82.85 179:289.66 180:169.85 181: 28.06 182: 26.23 183: 35.76 184: 62.11
 185:226.85 186: 27.87 187:204.41 188: 17.16 189:173.58 190: 48.22 191:462.65 192:156.15
 193: 76.23 194: 44.46 195: 21.73 196:249.95 197: 58.36 198:134.86 199:122.30 200: 70.13
 201: 83.07 202: 84.84 203:106.05 204:155.21 205:152.85 206: 25.70 207: 37.26 208: 89.61
 209:175.90 210:199.77 211:116.59 212:144.02 213: 83.01 214:112.81 215: 54.78 216: 94.61
 217:303.91 218:362.11 219:136.72 220:270.02 221: 89.43 222: 43.56 223: 63.62 224:166.88
 225:194.50 226:146.49 227:118.04 228:214.46 229:321.39 230:418.69 231:194.92 232: 37.88
 233:153.45 234:147.96 235:112.41 236:225.65 237:180.28 238: 25.57 239: 50.65 240:340.96
 241:160.31 242:136.17 243: 74.61 244: 80.10 245:294.82 246:225.41 247:156.05 248:113.36
 249:398.29 250: 44.68 251: 83.97 252:  7.41 253:108.96 254:213.46 255:134.05 256: 60.37
 257: 53.47 258:  7.12 259: 43.66 260: 48.61 261: 81.92 262:138.98 263: 44.12 264:202.00
 265:301.34 266: 88.35 267: 63.14 268: 72.12 269: 23.70 270:168.54 271:312.42 272:152.29
 273:324.43 274: 36.98 275: 38.58 276: 52.31 277: 49.01 278:173.20 279: 50.06 280:  7.09
 281: 21.17 282:152.09 283: 97.89 284: 62.46 285: 65.32 286:128.44 287:260.65 288: 87.35
 289: 62.08 290: 40.34 291:114.05 292:184.76 293:243.61 294: 15.07 295:136.89 296:118.20
 297:137.04 298:153.90 299:119.27 300: 60.34 301: 69.44 302: 81.24 303:  5.76 304: 11.59
 305: 82.05 306: 75.93 307:145.91 308: 76.17 309: 63.52 310: 18.51 311: 43.13 312:185.13
 313: 67.06 314: 72.25 315: 15.43 316:114.56 317: 29.74 318: 14.09 319:216.26 320: 79.03
 321: 60.89 322: 30.33 323:135.27 324: 46.87 325:192.42 326: 18.55 327:180.62 328:241.81
 329:283.97 330:257.74 331:154.75 332:153.94 333: 14.41 334:358.80 335:444.67 336:150.18
 337:146.73 338:183.30 339:211.75 340: 68.73 341:164.25 342:197.29 343: 34.13 344:166.77
 345:162.57 346:362.96 347:137.36 348: 74.97 349:  1.10 350:562.46 351:506.63 352:126.66
 353: 82.28 354:233.64 355:180.88 356:149.50 357:221.64 358:165.55 359:342.72 360: 75.82
 361:231.10 362:288.81 363: 58.35 364:619.72 365:461.36 366:145.82 367:226.52 368:145.11
 369: 37.07 370:217.57 371:188.02 372:483.27 373:234.11 374:480.90 375:317.78 376:221.02
 377:534.46 378:573.25 379: 52.82 380:285.45 381:182.32 382:107.42 383:192.96 384:554.79
 385:122.28 386:537.58 387: 70.66 388:140.81 389:247.16 390:625.48 391:276.98 392:255.38
 393:587.80 394:665.92 395: 23.93 396: 60.86 397:903.50 398: 11.37 399:427.03 400:169.86
 401:294.71 402:251.93 403:449.05 404:199.45 405:206.31 406:195.75 407:341.43 408:215.96
 409:121.88 410: 66.79 411:453.57 412:502.46 413: 85.30 414:100.43 415:324.04 416:421.70
 417: 61.52 418:172.34 419:224.56 420: 60.77 421:176.13 422:165.23 423: 70.09 424:510.55
 425:106.44 426: 77.32 427:****** 428:189.09 429:459.72 430:200.64 431: 47.08 432:496.43
 433: 79.03 434:462.39 435: 60.75 436:219.37 437:364.26 438: 87.31 439:227.36 440:464.12
 441:119.65 442: 56.83 443:344.58 444:207.80 445:116.15 446:357.57 447: 33.52 448:201.11
 449: 94.96 450:694.44 451:148.02 452: 64.13 453:182.34 454: 71.82 455:200.63 456: 39.79
 457:492.85 458:259.42 459:147.92 460: 28.78 461: 19.90 462:292.38 463:220.96 464: 53.69
 465: 52.75 466:328.16 467:****** 468:****** 469:****** 470:****** 471:****** 472:******
 473:****** 474:397.94 475:****** 476:****** 477: 74.49 478:****** 479:740.96 480:******
 481:895.82 482:****** 483:754.07 484:904.08 485:617.73 486:641.37 487:917.75 488:722.93
 489:735.65 490:315.92 491:260.63 492:****** 493:****** 494:700.33 495:****** 496:166.73
 497:518.57 498:334.18 499:487.05 500:481.55 501:696.92 502:313.84 503:496.18 504:446.98
 505:199.10 506:471.87 507:275.62 508:724.67 509:662.35 510:402.27 511:482.34 512:438.60
 513:274.98 514:****** 515:376.45 516:344.25 517:132.95 518:510.91 519:131.94 520: 77.68
 521:377.15 522:396.96 523:414.59 524:347.40 525:136.57 526:272.30 527:176.19 528:103.03
 529:383.27 530:215.38 531:144.87 532:167.59 533:139.59 534:117.25 535: 85.77 536:119.38
 537:135.82 538:173.90 539:105.53 540: 67.21 541: 29.16 542: 59.90 543:174.28 544: 96.45
 545: 84.04 546:138.05 547: 43.85 548: 84.40 549:100.70 550:124.37 551: 60.55 552: 24.17
 553:116.39 554: 70.07 555: 93.62 556: 24.57 557: 85.52 558: 88.07 559:106.86 560: 69.76
 561: 86.94 562: 43.52 563:117.14 564: 64.83 565: 64.14 566: 69.85 567: 68.64 568: 55.04
 569:102.99 570: 82.11 571: 74.93 572:103.92 573: 63.88 574: 56.65 575: 78.96 576: 79.01
 577: 72.52 578: 84.27 579: 82.37 580: 57.47 581: 65.93 582: 58.47 583: 68.27 584: 55.85
 585: 71.92 586: 51.03 587: 56.15 588: 80.83 589: 70.50 590: 65.71 591: 84.96 592: 53.24
 593: 78.27 594: 59.45 595: 55.06 596: 52.07 597:  8.14
 Raman intensities (amu)
   1:  0.00   2:  0.00   3:  0.00   4:  0.00   5:  0.00   6:  0.00   7:  0.00   8:  0.00
   9:  0.00  10:  0.00  11:  0.00  12:  0.00  13:  0.00  14:  0.00  15:  0.00  16:  0.00
  17:  0.00  18:  0.00  19:  0.00  20:  0.00  21:  0.00  22:  0.00  23:  0.00  24:  0.00
  25:  0.00  26:  0.00  27:  0.00  28:  0.00  29:  0.00  30:  0.00  31:  0.00  32:  0.00
  33:  0.00  34:  0.00  35:  0.00  36:  0.00  37:  0.00  38:  0.00  39:  0.00  40:  0.00
  41:  0.00  42:  0.00  43:  0.00  44:  0.00  45:  0.00  46:  0.00  47:  0.00  48:  0.00
  49:  0.00  50:  0.00  51:  0.00  52:  0.00  53:  0.00  54:  0.00  55:  0.00  56:  0.00
  57:  0.00  58:  0.00  59:  0.00  60:  0.00  61:  0.00  62:  0.00  63:  0.00  64:  0.00
  65:  0.00  66:  0.00  67:  0.00  68:  0.00  69:  0.00  70:  0.00  71:  0.00  72:  0.00
  73:  0.00  74:  0.00  75:  0.00  76:  0.00  77:  0.00  78:  0.00  79:  0.00  80:  0.00
  81:  0.00  82:  0.00  83:  0.00  84:  0.00  85:  0.00  86:  0.00  87:  0.00  88:  0.00
  89:  0.00  90:  0.00  91:  0.00  92:  0.00  93:  0.00  94:  0.00  95:  0.00  96:  0.00
  97:  0.00  98:  0.00  99:  0.00 100:  0.00 101:  0.00 102:  0.00 103:  0.00 104:  0.00
 105:  0.00 106:  0.00 107:  0.00 108:  0.00 109:  0.00 110:  0.00 111:  0.00 112:  0.00
 113:  0.00 114:  0.00 115:  0.00 116:  0.00 117:  0.00 118:  0.00 119:  0.00 120:  0.00
 121:  0.00 122:  0.00 123:  0.00 124:  0.00 125:  0.00 126:  0.00 127:  0.00 128:  0.00
 129:  0.00 130:  0.00 131:  0.00 132:  0.00 133:  0.00 134:  0.00 135:  0.00 136:  0.00
 137:  0.00 138:  0.00 139:  0.00 140:  0.00 141:  0.00 142:  0.00 143:  0.00 144:  0.00
 145:  0.00 146:  0.00 147:  0.00 148:  0.00 149:  0.00 150:  0.00 151:  0.00 152:  0.00
 153:  0.00 154:  0.00 155:  0.00 156:  0.00 157:  0.00 158:  0.00 159:  0.00 160:  0.00
 161:  0.00 162:  0.00 163:  0.00 164:  0.00 165:  0.00 166:  0.00 167:  0.00 168:  0.00
 169:  0.00 170:  0.00 171:  0.00 172:  0.00 173:  0.00 174:  0.00 175:  0.00 176:  0.00
 177:  0.00 178:  0.00 179:  0.00 180:  0.00 181:  0.00 182:  0.00 183:  0.00 184:  0.00
 185:  0.00 186:  0.00 187:  0.00 188:  0.00 189:  0.00 190:  0.00 191:  0.00 192:  0.00
 193:  0.00 194:  0.00 195:  0.00 196:  0.00 197:  0.00 198:  0.00 199:  0.00 200:  0.00
 201:  0.00 202:  0.00 203:  0.00 204:  0.00 205:  0.00 206:  0.00 207:  0.00 208:  0.00
 209:  0.00 210:  0.00 211:  0.00 212:  0.00 213:  0.00 214:  0.00 215:  0.00 216:  0.00
 217:  0.00 218:  0.00 219:  0.00 220:  0.00 221:  0.00 222:  0.00 223:  0.00 224:  0.00
 225:  0.00 226:  0.00 227:  0.00 228:  0.00 229:  0.00 230:  0.00 231:  0.00 232:  0.00
 233:  0.00 234:  0.00 235:  0.00 236:  0.00 237:  0.00 238:  0.00 239:  0.00 240:  0.00
 241:  0.00 242:  0.00 243:  0.00 244:  0.00 245:  0.00 246:  0.00 247:  0.00 248:  0.00
 249:  0.00 250:  0.00 251:  0.00 252:  0.00 253:  0.00 254:  0.00 255:  0.00 256:  0.00
 257:  0.00 258:  0.00 259:  0.00 260:  0.00 261:  0.00 262:  0.00 263:  0.00 264:  0.00
 265:  0.00 266:  0.00 267:  0.00 268:  0.00 269:  0.00 270:  0.00 271:  0.00 272:  0.00
 273:  0.00 274:  0.00 275:  0.00 276:  0.00 277:  0.00 278:  0.00 279:  0.00 280:  0.00
 281:  0.00 282:  0.00 283:  0.00 284:  0.00 285:  0.00 286:  0.00 287:  0.00 288:  0.00
 289:  0.00 290:  0.00 291:  0.00 292:  0.00 293:  0.00 294:  0.00 295:  0.00 296:  0.00
 297:  0.00 298:  0.00 299:  0.00 300:  0.00 301:  0.00 302:  0.00 303:  0.00 304:  0.00
 305:  0.00 306:  0.00 307:  0.00 308:  0.00 309:  0.00 310:  0.00 311:  0.00 312:  0.00
 313:  0.00 314:  0.00 315:  0.00 316:  0.00 317:  0.00 318:  0.00 319:  0.00 320:  0.00
 321:  0.00 322:  0.00 323:  0.00 324:  0.00 325:  0.00 326:  0.00 327:  0.00 328:  0.00
 329:  0.00 330:  0.00 331:  0.00 332:  0.00 333:  0.00 334:  0.00 335:  0.00 336:  0.00
 337:  0.00 338:  0.00 339:  0.00 340:  0.00 341:  0.00 342:  0.00 343:  0.00 344:  0.00
 345:  0.00 346:  0.00 347:  0.00 348:  0.00 349:  0.00 350:  0.00 351:  0.00 352:  0.00
 353:  0.00 354:  0.00 355:  0.00 356:  0.00 357:  0.00 358:  0.00 359:  0.00 360:  0.00
 361:  0.00 362:  0.00 363:  0.00 364:  0.00 365:  0.00 366:  0.00 367:  0.00 368:  0.00
 369:  0.00 370:  0.00 371:  0.00 372:  0.00 373:  0.00 374:  0.00 375:  0.00 376:  0.00
 377:  0.00 378:  0.00 379:  0.00 380:  0.00 381:  0.00 382:  0.00 383:  0.00 384:  0.00
 385:  0.00 386:  0.00 387:  0.00 388:  0.00 389:  0.00 390:  0.00 391:  0.00 392:  0.00
 393:  0.00 394:  0.00 395:  0.00 396:  0.00 397:  0.00 398:  0.00 399:  0.00 400:  0.00
 401:  0.00 402:  0.00 403:  0.00 404:  0.00 405:  0.00 406:  0.00 407:  0.00 408:  0.00
 409:  0.00 410:  0.00 411:  0.00 412:  0.00 413:  0.00 414:  0.00 415:  0.00 416:  0.00
 417:  0.00 418:  0.00 419:  0.00 420:  0.00 421:  0.00 422:  0.00 423:  0.00 424:  0.00
 425:  0.00 426:  0.00 427:  0.00 428:  0.00 429:  0.00 430:  0.00 431:  0.00 432:  0.00
 433:  0.00 434:  0.00 435:  0.00 436:  0.00 437:  0.00 438:  0.00 439:  0.00 440:  0.00
 441:  0.00 442:  0.00 443:  0.00 444:  0.00 445:  0.00 446:  0.00 447:  0.00 448:  0.00
 449:  0.00 450:  0.00 451:  0.00 452:  0.00 453:  0.00 454:  0.00 455:  0.00 456:  0.00
 457:  0.00 458:  0.00 459:  0.00 460:  0.00 461:  0.00 462:  0.00 463:  0.00 464:  0.00
 465:  0.00 466:  0.00 467:  0.00 468:  0.00 469:  0.00 470:  0.00 471:  0.00 472:  0.00
 473:  0.00 474:  0.00 475:  0.00 476:  0.00 477:  0.00 478:  0.00 479:  0.00 480:  0.00
 481:  0.00 482:  0.00 483:  0.00 484:  0.00 485:  0.00 486:  0.00 487:  0.00 488:  0.00
 489:  0.00 490:  0.00 491:  0.00 492:  0.00 493:  0.00 494:  0.00 495:  0.00 496:  0.00
 497:  0.00 498:  0.00 499:  0.00 500:  0.00 501:  0.00 502:  0.00 503:  0.00 504:  0.00
 505:  0.00 506:  0.00 507:  0.00 508:  0.00 509:  0.00 510:  0.00 511:  0.00 512:  0.00
 513:  0.00 514:  0.00 515:  0.00 516:  0.00 517:  0.00 518:  0.00 519:  0.00 520:  0.00
 521:  0.00 522:  0.00 523:  0.00 524:  0.00 525:  0.00 526:  0.00 527:  0.00 528:  0.00
 529:  0.00 530:  0.00 531:  0.00 532:  0.00 533:  0.00 534:  0.00 535:  0.00 536:  0.00
Molecule has no symmetry elements
It seems to be the C1 point group
 537:  0.00 538:  0.00 539:  0.00 540:  0.00 541:  0.00 542:  0.00 543:  0.00 544:  0.00
 545:  0.00 546:  0.00 547:  0.00 548:  0.00 549:  0.00 550:  0.00 551:  0.00 552:  0.00
 553:  0.00 554:  0.00 555:  0.00 556:  0.00 557:  0.00 558:  0.00 559:  0.00 560:  0.00
 561:  0.00 562:  0.00 563:  0.00 564:  0.00 565:  0.00 566:  0.00 567:  0.00 568:  0.00
 569:  0.00 570:  0.00 571:  0.00 572:  0.00 573:  0.00 574:  0.00 575:  0.00 576:  0.00
 577:  0.00 578:  0.00 579:  0.00 580:  0.00 581:  0.00 582:  0.00 583:  0.00 584:  0.00
 585:  0.00 586:  0.00 587:  0.00 588:  0.00 589:  0.00 590:  0.00 591:  0.00 592:  0.00
 593:  0.00 594:  0.00 595:  0.00 596:  0.00 597:  0.00
 output can be read by thermo (or use thermo option).
 writing <g98.out> molden fake output.
 recommended (thermochemical) frequency scaling factor: 1.0
           -------------------------------------------------
          |             Thermodynamic Functions             |
           -------------------------------------------------

c1  symmetry found (for desy threshold:  0.10E+00) used in thermo

          ...................................................
          :                      SETUP                      :
          :.................................................:
          :  # frequencies                         591      :
          :  # imaginary freq.                       0      :
          :  linear?                             false      :
          :  only rotor calc.                    false      :
          :  symmetry                               c1      :
          :  rotational number                       1      :
          :  scaling factor                  1.0000000      :
          :  rotor cutoff                   50.0000000 cm⁻¹ :
          :  imag. cutoff                  -20.0000000 cm⁻¹ :
          :.................................................:

    mode    ω/cm⁻¹     T·S(HO)/kcal·mol⁻¹    T·S(FR)/kcal·mol⁻¹   T·S(vib)
   ------------------------------------------------------------------------
       1     10.02    -2.38703 (  0.16%)    -1.53259 ( 99.84%)    -1.53397
       2     12.91    -2.23737 (  0.44%)    -1.45774 ( 99.56%)    -1.46119
       3     14.77    -2.15763 (  0.75%)    -1.41786 ( 99.25%)    -1.42344
       4     15.22    -2.13973 (  0.85%)    -1.40891 ( 99.15%)    -1.41513
       5     17.95    -2.04211 (  1.63%)    -1.36007 ( 98.37%)    -1.37121
       6     18.82    -2.01384 (  1.97%)    -1.34593 ( 98.03%)    -1.35908
       7     19.52    -1.99222 (  2.27%)    -1.33511 ( 97.73%)    -1.35004
       8     19.77    -1.98492 (  2.38%)    -1.33146 ( 97.62%)    -1.34704
       9     21.27    -1.94152 (  3.17%)    -1.30974 ( 96.83%)    -1.32978
      10     21.66    -1.93081 (  3.40%)    -1.30438 ( 96.60%)    -1.32569
      11     22.09    -1.91902 (  3.67%)    -1.29848 ( 96.33%)    -1.32127
      12     22.50    -1.90839 (  3.94%)    -1.29316 ( 96.06%)    -1.31738
      13     23.16    -1.89103 (  4.40%)    -1.28447 ( 95.60%)    -1.31119
      14     23.92    -1.87204 (  4.98%)    -1.27497 ( 95.02%)    -1.30469
      15     25.71    -1.82940 (  6.53%)    -1.25362 ( 93.47%)    -1.29123
      16     26.43    -1.81305 (  7.24%)    -1.24544 ( 92.76%)    -1.28653
      17     26.71    -1.80679 (  7.53%)    -1.24230 ( 92.47%)    -1.28480
      18     27.81    -1.78287 (  8.73%)    -1.23033 ( 91.27%)    -1.27859
      19     28.98    -1.75842 ( 10.15%)    -1.21808 ( 89.85%)    -1.27290
      20     29.66    -1.74469 ( 11.02%)    -1.21120 ( 88.98%)    -1.27002
      21     30.09    -1.73628 ( 11.59%)    -1.20700 ( 88.41%)    -1.26836
      22     30.83    -1.72192 ( 12.63%)    -1.19980 ( 87.37%)    -1.26573
      23     31.64    -1.70648 ( 13.83%)    -1.19206 ( 86.17%)    -1.26319
      24     32.55    -1.68982 ( 15.22%)    -1.18372 ( 84.78%)    -1.26077
      25     33.40    -1.67451 ( 16.61%)    -1.17605 ( 83.39%)    -1.25884
      26     34.87    -1.64916 ( 19.12%)    -1.16335 ( 80.88%)    -1.25625
      27     35.36    -1.64087 ( 20.01%)    -1.15919 ( 79.99%)    -1.25555
      28     35.68    -1.63548 ( 20.60%)    -1.15649 ( 79.40%)    -1.25514
      29     36.01    -1.63005 ( 21.20%)    -1.15376 ( 78.80%)    -1.25476
      30     37.12    -1.61222 ( 23.29%)    -1.14483 ( 76.71%)    -1.25368
      31     38.10    -1.59675 ( 25.21%)    -1.13707 ( 74.79%)    -1.25297
      32     38.58    -1.58931 ( 26.17%)    -1.13334 ( 73.83%)    -1.25269
      33     39.25    -1.57913 ( 27.53%)    -1.12824 ( 72.47%)    -1.25236
      34     39.62    -1.57359 ( 28.28%)    -1.12546 ( 71.72%)    -1.25220
      35     40.40    -1.56214 ( 29.88%)    -1.11971 ( 70.12%)    -1.25192
      36     41.02    -1.55317 ( 31.17%)    -1.11522 ( 68.83%)    -1.25173
      37     41.07    -1.55241 ( 31.28%)    -1.11483 ( 68.72%)    -1.25171
      38     41.67    -1.54377 ( 32.55%)    -1.11050 ( 67.45%)    -1.25154
      39     42.41    -1.53350 ( 34.10%)    -1.10535 ( 65.90%)    -1.25134
      40     43.13    -1.52347 ( 35.64%)    -1.10031 ( 64.36%)    -1.25113
      41     43.78    -1.51470 ( 37.02%)    -1.09592 ( 62.98%)    -1.25093
      42     44.20    -1.50898 ( 37.92%)    -1.09304 ( 62.08%)    -1.25078
      43     44.60    -1.50373 ( 38.77%)    -1.09041 ( 61.23%)    -1.25063
      44     45.44    -1.49272 ( 40.55%)    -1.08488 ( 59.45%)    -1.25026
      45     45.85    -1.48740 ( 41.42%)    -1.08221 ( 58.58%)    -1.25005
      46     46.70    -1.47662 ( 43.21%)    -1.07680 ( 56.79%)    -1.24955
      47     47.54    -1.46605 ( 44.97%)    -1.07149 ( 55.03%)    -1.24894
      48     48.36    -1.45592 ( 46.68%)    -1.06640 ( 53.32%)    -1.24822
      49     48.96    -1.44865 ( 47.91%)    -1.06275 ( 52.09%)    -1.24762
      50     49.12    -1.44681 ( 48.22%)    -1.06183 ( 51.78%)    -1.24746
      51     49.48    -1.44243 ( 48.96%)    -1.05962 ( 51.04%)    -1.24705
      52     49.96    -1.43675 ( 49.92%)    -1.05677 ( 50.08%)    -1.24647
      53     51.49    -1.41902 ( 52.93%)    -1.04786 ( 47.07%)    -1.24431
      54     51.91    -1.41415 ( 53.75%)    -1.04542 ( 46.25%)    -1.24361
      55     52.18    -1.41111 ( 54.26%)    -1.04389 ( 45.74%)    -1.24315
      56     52.71    -1.40523 ( 55.25%)    -1.04093 ( 44.75%)    -1.24221
      57     53.45    -1.39701 ( 56.63%)    -1.03680 ( 43.37%)    -1.24078
      58     53.95    -1.39149 ( 57.55%)    -1.03402 ( 42.45%)    -1.23973
      59     55.09    -1.37914 ( 59.58%)    -1.02781 ( 40.42%)    -1.23713
      60     55.68    -1.37293 ( 60.59%)    -1.02469 ( 39.41%)    -1.23569
      61     55.88    -1.37080 ( 60.94%)    -1.02362 ( 39.06%)    -1.23518
      62     56.60    -1.36328 ( 62.15%)    -1.01983 ( 37.85%)    -1.23327
      63     57.68    -1.35210 ( 63.91%)    -1.01421 ( 36.09%)    -1.23017
      64     58.40    -1.34478 ( 65.05%)    -1.01053 ( 34.95%)    -1.22797
      65     58.55    -1.34328 ( 65.28%)    -1.00977 ( 34.72%)    -1.22750
      66     60.06    -1.32832 ( 67.55%)    -1.00224 ( 32.45%)    -1.22252
      67     60.47    -1.32432 ( 68.15%)    -1.00022 ( 31.85%)    -1.22108
      68     60.73    -1.32179 ( 68.52%)    -0.99895 ( 31.48%)    -1.22016
      69     61.17    -1.31751 ( 69.14%)    -0.99680 ( 30.86%)    -1.21855
      70     62.03    -1.30933 ( 70.32%)    -0.99268 ( 29.68%)    -1.21534
      71     63.20    -1.29833 ( 71.85%)    -0.98714 ( 28.15%)    -1.21074
      72     63.37    -1.29677 ( 72.07%)    -0.98635 ( 27.93%)    -1.21006
      73     63.73    -1.29347 ( 72.52%)    -0.98468 ( 27.48%)    -1.20861
      74     64.20    -1.28911 ( 73.11%)    -0.98249 ( 26.89%)    -1.20664
      75     65.30    -1.27913 ( 74.42%)    -0.97746 ( 25.58%)    -1.20196
      76     65.79    -1.27476 ( 74.98%)    -0.97526 ( 25.02%)    -1.19983
      77     65.93    -1.27350 ( 75.14%)    -0.97462 ( 24.86%)    -1.19921
      78     66.47    -1.26869 ( 75.75%)    -0.97219 ( 24.25%)    -1.19679
      79     67.31    -1.26130 ( 76.66%)    -0.96847 ( 23.34%)    -1.19296
      80     68.14    -1.25412 ( 77.53%)    -0.96484 ( 22.47%)    -1.18911
      81     68.74    -1.24898 ( 78.13%)    -0.96225 ( 21.87%)    -1.18627
      82     69.28    -1.24435 ( 78.66%)    -0.95992 ( 21.34%)    -1.18367
      83     69.77    -1.24022 ( 79.13%)    -0.95783 ( 20.87%)    -1.18129
      84     70.31    -1.23575 ( 79.63%)    -0.95557 ( 20.37%)    -1.17868
      85     71.31    -1.22745 ( 80.53%)    -0.95138 ( 19.47%)    -1.17371
      86     71.64    -1.22470 ( 80.83%)    -0.94999 ( 19.17%)    -1.17203
      87     72.08    -1.22115 ( 81.20%)    -0.94820 ( 18.80%)    -1.16983
      88     72.43    -1.21830 ( 81.49%)    -0.94676 ( 18.51%)    -1.16805
      89     72.98    -1.21390 ( 81.94%)    -0.94454 ( 18.06%)    -1.16526
      90     73.76    -1.20760 ( 82.57%)    -0.94136 ( 17.43%)    -1.16119
      91     74.99    -1.19795 ( 83.50%)    -0.93648 ( 16.50%)    -1.15480
      92     75.58    -1.19331 ( 83.93%)    -0.93414 ( 16.07%)    -1.15166
      93     75.95    -1.19046 ( 84.19%)    -0.93269 ( 15.81%)    -1.14971
      94     76.82    -1.18384 ( 84.78%)    -0.92935 ( 15.22%)    -1.14511
      95     77.47    -1.17885 ( 85.22%)    -0.92682 ( 14.78%)    -1.14159
      96     77.83    -1.17612 ( 85.45%)    -0.92544 ( 14.55%)    -1.13965
      97     78.40    -1.17185 ( 85.81%)    -0.92328 ( 14.19%)    -1.13657
      98     79.46    -1.16405 ( 86.44%)    -0.91933 ( 13.56%)    -1.13088
      99     80.03    -1.15986 ( 86.78%)    -0.91721 ( 13.22%)    -1.12778
     100     81.20    -1.15135 ( 87.43%)    -0.91290 ( 12.57%)    -1.12138
     101     82.06    -1.14521 ( 87.89%)    -0.90979 ( 12.11%)    -1.11669
     102     83.40    -1.13571 ( 88.56%)    -0.90498 ( 11.44%)    -1.10932
     103     84.73    -1.12646 ( 89.19%)    -0.90029 ( 10.81%)    -1.10200
     104     85.43    -1.12165 ( 89.50%)    -0.89785 ( 10.50%)    -1.09815
     105     86.12    -1.11694 ( 89.80%)    -0.89546 ( 10.20%)    -1.09434
     106     87.25    -1.10936 ( 90.26%)    -0.89162 (  9.74%)    -1.08816
     107     88.29    -1.10246 ( 90.67%)    -0.88812 (  9.33%)    -1.08247
     108     89.55    -1.09418 ( 91.14%)    -0.88391 (  8.86%)    -1.07556
     109     90.27    -1.08950 ( 91.40%)    -0.88153 (  8.60%)    -1.07161
     110     90.55    -1.08771 ( 91.49%)    -0.88063 (  8.51%)    -1.07009
     111     91.13    -1.08395 ( 91.69%)    -0.87871 (  8.31%)    -1.06689
     112     92.35    -1.07622 ( 92.09%)    -0.87479 (  7.91%)    -1.06028
     113     93.66    -1.06801 ( 92.49%)    -0.87061 (  7.51%)    -1.05318
     114     94.03    -1.06572 ( 92.60%)    -0.86945 (  7.40%)    -1.05119
     115     95.37    -1.05745 ( 92.98%)    -0.86524 (  7.02%)    -1.04395
     116     96.65    -1.04970 ( 93.32%)    -0.86130 (  6.68%)    -1.03711
     117     97.71    -1.04336 ( 93.58%)    -0.85806 (  6.42%)    -1.03147
     118     98.66    -1.03775 ( 93.81%)    -0.85521 (  6.19%)    -1.02645
     119    102.71    -1.01436 ( 94.68%)    -0.84328 (  5.32%)    -1.00526
     120    105.07    -1.00119 ( 95.12%)    -0.83656 (  4.88%)    -0.99316
     121    106.37    -0.99407 ( 95.35%)    -0.83292 (  4.65%)    -0.98657
     122    107.35    -0.98875 ( 95.51%)    -0.83020 (  4.49%)    -0.98162
     123    109.63    -0.97655 ( 95.85%)    -0.82396 (  4.15%)    -0.97022
     124    112.18    -0.96327 ( 96.20%)    -0.81716 (  3.80%)    -0.95773
     125    114.16    -0.95317 ( 96.45%)    -0.81198 (  3.55%)    -0.94816
     126    117.54    -0.93631 ( 96.83%)    -0.80333 (  3.17%)    -0.93209
     127    119.50    -0.92677 ( 97.03%)    -0.79843 (  2.97%)    -0.92295
     128    129.41    -0.88096 ( 97.82%)    -0.77483 (  2.18%)    -0.87864
     129    132.23    -0.86862 ( 98.00%)    -0.76845 (  2.00%)    -0.86661
     130    133.51    -0.86308 ( 98.07%)    -0.76559 (  1.93%)    -0.86120
     131    134.11    -0.86053 ( 98.10%)    -0.76427 (  1.90%)    -0.85871
     132    135.95    -0.85276 ( 98.20%)    -0.76024 (  1.80%)    -0.85110
     133    137.79    -0.84507 ( 98.30%)    -0.75625 (  1.70%)    -0.84355
     134    138.39    -0.84256 ( 98.32%)    -0.75495 (  1.68%)    -0.84109
     135    141.07    -0.83164 ( 98.45%)    -0.74928 (  1.55%)    -0.83036
     136    141.58    -0.82956 ( 98.47%)    -0.74820 (  1.53%)    -0.82832
     137    143.31    -0.82266 ( 98.54%)    -0.74461 (  1.46%)    -0.82152
     138    145.67    -0.81334 ( 98.63%)    -0.73976 (  1.37%)    -0.81234
     139    147.89    -0.80478 ( 98.71%)    -0.73530 (  1.29%)    -0.80388
     140    148.94    -0.80075 ( 98.75%)    -0.73320 (  1.25%)    -0.79990
     141    150.42    -0.79514 ( 98.79%)    -0.73027 (  1.21%)    -0.79436
     142    151.78    -0.79003 ( 98.84%)    -0.72759 (  1.16%)    -0.78930
     143    153.02    -0.78541 ( 98.87%)    -0.72518 (  1.13%)    -0.78474
     144    154.98    -0.77822 ( 98.93%)    -0.72142 (  1.07%)    -0.77761
     145    156.29    -0.77345 ( 98.96%)    -0.71892 (  1.04%)    -0.77289
     146    157.32    -0.76977 ( 98.99%)    -0.71699 (  1.01%)    -0.76924
     147    161.14    -0.75621 ( 99.08%)    -0.70987 (  0.92%)    -0.75579
     148    161.86    -0.75371 ( 99.10%)    -0.70856 (  0.90%)    -0.75330
     149    164.49    -0.74464 ( 99.15%)    -0.70378 (  0.85%)    -0.74429
     150    168.37    -0.73154 ( 99.23%)    -0.69687 (  0.77%)    -0.73127
     151    168.63    -0.73068 ( 99.23%)    -0.69641 (  0.77%)    -0.73041
     152    171.80    -0.72023 ( 99.29%)    -0.69089 (  0.71%)    -0.72002
     153    172.50    -0.71798 ( 99.30%)    -0.68970 (  0.70%)    -0.71778
     154    174.41    -0.71180 ( 99.33%)    -0.68642 (  0.67%)    -0.71163
     155    174.74    -0.71076 ( 99.33%)    -0.68587 (  0.67%)    -0.71059
     156    175.26    -0.70909 ( 99.34%)    -0.68499 (  0.66%)    -0.70893
     157    175.90    -0.70706 ( 99.35%)    -0.68391 (  0.65%)    -0.70691
     158    177.75    -0.70123 ( 99.38%)    -0.68081 (  0.62%)    -0.70110
     159    180.14    -0.69380 ( 99.41%)    -0.67686 (  0.59%)    -0.69370
     160    182.47    -0.68665 ( 99.44%)    -0.67305 (  0.56%)    -0.68657
     161    183.16    -0.68454 ( 99.45%)    -0.67193 (  0.55%)    -0.68447
     162    184.81    -0.67955 ( 99.47%)    -0.66926 (  0.53%)    -0.67949
     163    186.88    -0.67340 ( 99.49%)    -0.66598 (  0.51%)    -0.67336
     164    188.60    -0.66833 ( 99.51%)    -0.66326 (  0.49%)    -0.66830
     165    188.98    -0.66721 ( 99.51%)    -0.66266 (  0.49%)    -0.66719
     166    190.27    -0.66343 ( 99.53%)    -0.66064 (  0.47%)    -0.66341
     167    191.28    -0.66050 ( 99.54%)    -0.65907 (  0.46%)    -0.66050
     168    193.28    -0.65478 ( 99.55%)    -0.65600 (  0.45%)    -0.65478
     169    194.04    -0.65262 ( 99.56%)    -0.65484 (  0.44%)    -0.65263
     170    196.07    -0.64689 ( 99.58%)    -0.65175 (  0.42%)    -0.64691
     171    196.98    -0.64433 ( 99.59%)    -0.65038 (  0.41%)    -0.64436
     172    198.44    -0.64028 ( 99.60%)    -0.64819 (  0.40%)    -0.64031
     173    198.57    -0.63993 ( 99.60%)    -0.64800 (  0.40%)    -0.63996
     174    200.39    -0.63491 ( 99.61%)    -0.64529 (  0.39%)    -0.63495
     175    201.59    -0.63163 ( 99.62%)    -0.64352 (  0.38%)    -0.63168
     176    206.64    -0.61811 ( 99.66%)    -0.63619 (  0.34%)    -0.61817
     177    207.38    -0.61616 ( 99.66%)    -0.63514 (  0.34%)    -0.61622
     178    208.91    -0.61216 ( 99.67%)    -0.63296 (  0.33%)    -0.61222
     179    209.95    -0.60946 ( 99.68%)    -0.63149 (  0.32%)    -0.60953
     180    215.66    -0.59487 ( 99.71%)    -0.62353 (  0.29%)    -0.59495
     181    216.47    -0.59284 ( 99.72%)    -0.62243 (  0.28%)    -0.59293
     182    217.47    -0.59035 ( 99.72%)    -0.62106 (  0.28%)    -0.59043
     183    217.84    -0.58943 ( 99.72%)    -0.62056 (  0.28%)    -0.58951
     184    218.88    -0.58685 ( 99.73%)    -0.61914 (  0.27%)    -0.58694
     185    221.34    -0.58082 ( 99.74%)    -0.61583 (  0.26%)    -0.58091
     186    221.73    -0.57988 ( 99.74%)    -0.61532 (  0.26%)    -0.57997
     187    222.61    -0.57774 ( 99.75%)    -0.61414 (  0.25%)    -0.57784
     188    222.63    -0.57770 ( 99.75%)    -0.61412 (  0.25%)    -0.57780
     189    224.40    -0.57342 ( 99.75%)    -0.61177 (  0.25%)    -0.57352
     190    227.94    -0.56503 ( 99.77%)    -0.60713 (  0.23%)    -0.56512
     191    229.82    -0.56062 ( 99.78%)    -0.60470 (  0.22%)    -0.56072
     192    230.41    -0.55926 ( 99.78%)    -0.60394 (  0.22%)    -0.55936
     193    231.38    -0.55701 ( 99.78%)    -0.60270 (  0.22%)    -0.55711
     194    232.19    -0.55515 ( 99.79%)    -0.60167 (  0.21%)    -0.55525
     195    234.32    -0.55025 ( 99.79%)    -0.59895 (  0.21%)    -0.55036
     196    236.15    -0.54612 ( 99.80%)    -0.59665 (  0.20%)    -0.54622
     197    237.14    -0.54390 ( 99.80%)    -0.59542 (  0.20%)    -0.54400
     198    240.43    -0.53658 ( 99.81%)    -0.59133 (  0.19%)    -0.53668
     199    241.45    -0.53433 ( 99.82%)    -0.59007 (  0.18%)    -0.53443
     200    242.31    -0.53246 ( 99.82%)    -0.58903 (  0.18%)    -0.53256
     201    245.93    -0.52462 ( 99.83%)    -0.58463 (  0.17%)    -0.52473
     202    246.09    -0.52428 ( 99.83%)    -0.58444 (  0.17%)    -0.52438
     203    247.86    -0.52049 ( 99.83%)    -0.58231 (  0.17%)    -0.52059
     204    248.89    -0.51831 ( 99.84%)    -0.58108 (  0.16%)    -0.51841
     205    250.42    -0.51508 ( 99.84%)    -0.57927 (  0.16%)    -0.51519
     206    252.42    -0.51091 ( 99.85%)    -0.57691 (  0.15%)    -0.51101
     207    253.64    -0.50840 ( 99.85%)    -0.57549 (  0.15%)    -0.50850
     208    254.03    -0.50758 ( 99.85%)    -0.57503 (  0.15%)    -0.50768
     209    255.43    -0.50471 ( 99.85%)    -0.57340 (  0.15%)    -0.50481
     210    256.38    -0.50276 ( 99.86%)    -0.57230 (  0.14%)    -0.50286
     211    258.02    -0.49944 ( 99.86%)    -0.57042 (  0.14%)    -0.49954
     212    260.04    -0.49538 ( 99.86%)    -0.56810 (  0.14%)    -0.49548
     213    261.15    -0.49316 ( 99.87%)    -0.56684 (  0.13%)    -0.49326
     214    262.36    -0.49075 ( 99.87%)    -0.56547 (  0.13%)    -0.49085
     215    264.38    -0.48678 ( 99.87%)    -0.56320 (  0.13%)    -0.48688
     216    267.22    -0.48126 ( 99.88%)    -0.56004 (  0.12%)    -0.48135
     217    267.59    -0.48054 ( 99.88%)    -0.55963 (  0.12%)    -0.48064
     218    269.60    -0.47666 ( 99.88%)    -0.55740 (  0.12%)    -0.47676
     219    271.07    -0.47387 ( 99.88%)    -0.55580 (  0.12%)    -0.47397
     220    273.79    -0.46874 ( 99.89%)    -0.55284 (  0.11%)    -0.46883
     221    276.08    -0.46448 ( 99.89%)    -0.55037 (  0.11%)    -0.46457
     222    277.45    -0.46194 ( 99.89%)    -0.54891 (  0.11%)    -0.46203
     223    279.66    -0.45788 ( 99.90%)    -0.54655 (  0.10%)    -0.45797
     224    281.70    -0.45419 ( 99.90%)    -0.54441 (  0.10%)    -0.45428
     225    282.65    -0.45247 ( 99.90%)    -0.54340 (  0.10%)    -0.45256
     226    283.35    -0.45120 ( 99.90%)    -0.54267 (  0.10%)    -0.45129
     227    285.28    -0.44776 ( 99.91%)    -0.54066 (  0.09%)    -0.44785
     228    286.09    -0.44632 ( 99.91%)    -0.53982 (  0.09%)    -0.44641
     229    286.96    -0.44478 ( 99.91%)    -0.53892 (  0.09%)    -0.44487
     230    290.44    -0.43870 ( 99.91%)    -0.53535 (  0.09%)    -0.43879
     231    291.96    -0.43606 ( 99.91%)    -0.53380 (  0.09%)    -0.43614
     232    293.90    -0.43273 ( 99.92%)    -0.53184 (  0.08%)    -0.43282
     233    295.49    -0.43002 ( 99.92%)    -0.53024 (  0.08%)    -0.43010
     234    297.07    -0.42735 ( 99.92%)    -0.52866 (  0.08%)    -0.42743
     235    297.67    -0.42634 ( 99.92%)    -0.52806 (  0.08%)    -0.42642
   ------------------------------------------------------------------------

   temp. (K)  partition function   enthalpy   heat capacity  entropy
                                   cal/mol     cal/K/mol   cal/K/mol   J/K/mol
 298.15  VIB  0.439+113           124635.098    584.877    844.041
         ROT  0.643E+09              888.752      2.981     43.287
         INT  0.282+122           125523.850    587.857    887.328
         TR   0.425E+29             1481.254      4.968     47.213
         TOT                      127005.1042   592.8256   934.5412  3910.1202

       T/K    H(0)-H(T)+PV         H(T)/Eh          T*S/Eh         G(T)/Eh
   ------------------------------------------------------------------------
    298.15    0.202396E+00    0.171672E+01    0.444031E+00    0.127269E+01
   ------------------------------------------------------------------------

         :::::::::::::::::::::::::::::::::::::::::::::::::::::
         ::                  THERMODYNAMIC                  ::
         :::::::::::::::::::::::::::::::::::::::::::::::::::::
         :: total free energy        -338.077540768163 Eh   ::
         ::.................................................::
         :: total energy             -339.350227593963 Eh   ::
         :: zero point energy           1.514321971303 Eh   ::
         :: G(RRHO) w/o ZPVE           -0.241635145503 Eh   ::
         :: G(RRHO) contrib.            1.272686825800 Eh   ::
         :::::::::::::::::::::::::::::::::::::::::::::::::::::

           -------------------------------------------------
          | TOTAL ENERGY             -339.350227593963 Eh   |
          | TOTAL ENTHALPY           -337.633510106038 Eh   |
          | TOTAL FREE ENERGY        -338.077540768163 Eh   |
          | GRADIENT NORM               0.000048750179 Eh/α |
          | HOMO-LUMO GAP               6.890741357819 eV   |
           -------------------------------------------------

------------------------------------------------------------------------
 * finished run on 2024/05/10 at 18:43:09.318     
------------------------------------------------------------------------
 total:
 * wall-time:     0 d,  0 h,  5 min, 54.069 sec
 *  cpu-time:     0 d,  0 h, 33 min, 38.771 sec
 * ratio c/w:     5.702 speedup
 SCF:
 * wall-time:     0 d,  0 h,  0 min,  0.471 sec
 *  cpu-time:     0 d,  0 h,  0 min,  3.351 sec
 * ratio c/w:     7.112 speedup
 analytical hessian:
 * wall-time:     0 d,  0 h,  5 min, 52.899 sec
 *  cpu-time:     0 d,  0 h, 33 min, 31.911 sec
 * ratio c/w:     5.701 speedup

