 Entering Gaussian System
 *********************************************
 Gaussian 98:
 frequency output generated by the xtb code
 *********************************************
                         Standard orientation:
 --------------------------------------------------------------------
  Center     Atomic     Atomic              Coordinates (Angstroms)
  Number     Number      Type              X           Y           Z
 --------------------------------------------------------------------
    1         26             0        0.241266   -0.431648    0.450421
    2          8             0       -1.855452   -1.050697    1.631535
    3          8             0        1.845588    0.622126    1.967344
    4          8             0        2.366158   -0.652533   -0.794088
    5          8             0       -0.263267   -0.058407   -1.964360
    6          8             0       -0.996229    1.673374    0.662006
    7          8             0        1.155938   -2.253783    1.854912
    8          1             0       -1.908911    1.612769    0.315156
    9          1             0       -0.512988    2.218354    0.022121
   10          1             0        1.514192   -1.963779    2.705676
   11          1             0        1.921706   -2.596909    1.369515
   12          1             0       -2.390646   -0.289746    1.885888
   13          1             0       -2.414388   -1.561139    1.036036
   14          1             0        3.026572    0.062110   -0.767444
   15          1             0        2.824537   -1.448590   -0.492314
   16          1             0        1.977812    1.528478    1.652669
   17          1             0        2.720475    0.208242    1.953326
   18          1             0       -1.233297   -0.153428   -2.048645
   19          1             0        0.140599   -0.670378   -2.587288
   20          8             0       -4.246626    0.489893    1.844216
   21          8             0        3.369466   -3.058666    0.275778
   22          8             0       -2.927407   -0.373448   -1.966859
   23          8             0       -0.467468   -2.764528   -0.247009
   24          8             0       -3.472588    1.424717   -0.333050
   25          8             0       -3.180707   -2.522763   -0.523886
   26          8             0        2.998418   -1.772455    3.832971
   27          8             0        4.377878   -0.752404    1.611353
   28          8             0        2.429867    2.870022    0.523609
   29          8             0        0.566066    2.509204   -1.420166
   30          8             0        4.304917    1.149082   -0.267647
   31          8             0        1.611782   -3.828730   -1.539624
   32          1             0       -3.117755   -1.708256   -1.101372
   33          1             0       -3.414075   -3.262298   -1.110807
   34          1             0       -4.675756   -0.344928    1.592519
   35          1             0       -3.088589   11.828751    6.795032
   36          1             0       -4.110159    1.978606   -0.779391
   37          1             0       -3.952509    0.912954    0.930185
   38          1             0        0.173790    3.195405   -1.975995
   39          1             0        0.323275    1.637105   -1.785250
   40          1             0       -3.561834   -0.212829   -2.680091
   41          1             0       -3.137883    0.380296   -1.257119
   42          1             0       -1.427216   -2.754950   -0.406929
   43          1             0       -0.346000   -3.076070    0.656782
   44          1             0        1.745701   -3.160133   -2.253020
   45          1             0        0.796194   -3.511021   -1.091388
   46          1             0        5.057465    1.603756   -0.667725
   47          1             0        3.686048    1.848528    0.043769
   48          1             0        2.535003    3.817869    0.680753
   49          1             0        1.774058    2.770158   -0.193637
   50          1             0        4.427436   -0.042904    0.930719
   51          1             0        4.038266   -1.534912    1.144504
   52          1             0        2.919136   -1.218267    4.621595
   53          1             0        3.563925   -1.276411    3.216781
   54          1             0        3.517430   -3.696052    0.992418
   55          1             0        2.759024   -3.477707   -0.384856
   56          8             0        2.846627    0.048270    5.931930
   57          1             0        3.270857   -0.009826    6.800379
   58          1             0        2.135739    0.690326    6.008398
   59          8             0       -1.933230   -2.085581    7.044128
   60          1             0       -1.612830   -1.989586    6.139587
   61          1             0       -2.257940   -2.985241    7.137917
   62          8             0        0.420820    5.331643    4.744569
   63          1             0       -0.041108    4.538450    4.450250
   64          1             0       -0.142930    5.753868    5.408426
   65          8             0        3.564676   -4.246404    2.727182
   66          1             0        4.030956   -4.832973    3.321992
   67          1             0        3.330126   -3.448243    3.239848
   68          8             0       -5.908503    1.902226    3.334895
   69          1             0       -5.256934    1.420238    2.752531
   70          1             0       -6.618985    1.276377    3.499023
   71          8             0        7.602525    5.883517    3.313419
   72          1             0        7.117785    5.199707    3.806480
   73          1             0        7.039972    6.107353    2.564786
   74          8             0       -1.235230   -6.595888    4.224184
   75          1             0       -0.407299   -6.125300    4.079791
   76          1             0       -1.905113   -6.156716    3.689823
   77          8             0       -3.263453    6.618859    0.772009
   78          1             0       -3.177372    5.859138    1.357680
   79          1             0       -3.347424    7.394179    1.346935
   80          8             0        5.635835   -2.640074   -1.200409
   81          1             0        6.238371   -2.220143   -0.567958
   82          1             0        4.834997   -2.863794   -0.677861
   83          8             0       -5.325867   -1.963326    0.976993
   84          1             0       -4.535678   -2.229488    0.439019
   85          1             0       -6.051707   -1.872740    0.355478
   86          8             0        2.773143    5.638090    0.845937
   87          1             0        2.982858    6.297445    0.180907
   88          1             0        2.314212    6.104393    1.566830
   89          8             0        1.468852   -6.395798   -2.328233
   90          1             0        1.530303   -5.437456   -2.089949
   91          1             0        0.992147   -6.814972   -1.606800
   92          8             0       -5.397364    2.864512   -2.396065
   93          1             0       -5.028805    3.649749   -2.812036
   94          1             0       -6.215925    3.151402   -1.957541
   95          8             0        6.461496    2.668292   -1.242256
   96          1             0        7.355084    2.471202   -0.921216
   97          1             0        6.425770    3.619304   -1.371487
   98          8             0       -3.697397   -4.662493   -2.206578
   99          1             0       -2.944509   -4.777160   -2.795765
  100          1             0       -4.480886   -4.653499   -2.783683
  101          8             0       -0.362673    4.770563   -2.834781
  102          1             0        0.246587    5.252361   -3.400543
  103          1             0       -0.848343    5.439429   -2.325474
  104          8             0        1.957906   -1.752228   -3.182703
  105          1             0        2.858918   -1.852238   -3.528342
  106          1             0        2.069242   -1.207027   -2.364482
  107          8             0       -4.877624    0.432277   -3.796333
  108          1             0       -4.638975    0.708305   -4.696488
  109          1             0       -5.118592    1.244463   -3.322042
  110          8             0        3.818281    2.652425   -5.877070
  111          1             0        3.609729    2.412222   -4.967507
  112          1             0        3.921269    3.615418   -5.889765
  113          8             0       -1.579997   -3.489699   -7.084059
  114          1             0       -0.692493   -3.827605   -7.282900
  115          1             0       -1.448403   -2.722726   -6.515988
  116          8             0       -1.510421    1.963447   -7.036347
  117          1             0       -1.099157    1.664524   -7.852657
  118          1             0       -0.855262    1.859404   -6.337553
  119          8             0        3.993321   -0.228252    8.509267
  120          1             0        4.715506   -0.849337    8.644568
  121          1             0        3.401304   -0.309411    9.262895
  122          8             0       -1.162849   -0.491556    9.264852
  123          1             0       -1.380004   -1.068132    8.511984
  124          1             0       -1.853282    0.176511    9.290670
  125          8             0       -1.277666    6.626181    6.631254
  126          1             0       -2.137999    6.306726    6.920809
  127          1             0       -1.235373    7.561923    6.842662
  128          8             0        2.777328   -5.252389    7.795465
  129          1             0        2.295014   -6.060895    7.989722
  130          1             0        2.120997   -4.555956    7.684085
  131          8             0       -4.573404    2.624092    5.644498
  132          1             0       -5.074680    2.471091    4.819102
  133          1             0       -3.777489    2.088119    5.559841
  134          8             0        5.908011    3.900391    4.420451
  135          1             0        5.039333    4.115031    4.774355
  136          1             0        5.821005    3.054542    3.966590
  137          8             0       -1.896226   -7.709921    6.719958
  138          1             0       -2.438705   -8.476951    6.518874
  139          1             0       -1.636587   -7.335150    5.858237
  140          8             0       -3.391418    8.772638    2.616856
  141          1             0       -2.651124    9.345871    2.836044
  142          1             0       -4.057154    8.896848    3.298397
  143          8             0        6.917616   -1.596635    1.097572
  144          1             0        7.299751   -2.095960    1.821043
  145          1             0        6.067688   -1.226670    1.432072
  146          8             0       -5.896383   -3.693765    3.095522
  147          1             0       -5.696579   -3.097241    2.348100
  148          1             0       -5.565255   -3.247252    3.879994
  149          8             0        1.612760    7.031853    2.938011
  150          1             0        2.157055    7.590161    3.499037
  151          1             0        1.147714    6.419087    3.542310
  152          8             0        3.871024   -7.488761   -3.173544
  153          1             0        4.444275   -7.212067   -2.451645
  154          1             0        2.986301   -7.129547   -2.959198
  155          8             0       -7.597049    3.825021   -0.937432
  156          1             0       -7.354928    4.500519   -0.295874
  157          1             0       -8.197721    3.217768   -0.494187
  158          8             0        9.057856    2.256738   -0.231428
  159          1             0        9.659514    1.586525   -0.567194
  160          1             0        9.217594    2.342393    0.713557
  161          8             0       -3.719211   -6.942377   -0.563483
  162          1             0       -4.518517   -6.891554   -0.033654
  163          1             0       -3.702414   -6.127321   -1.100949
  164          8             0       -1.607845    6.882059   -1.447994
  165          1             0       -1.124659    7.673813   -1.196022
  166          1             0       -2.243836    6.722918   -0.727424
  167          8             0        4.646443   -2.211380   -3.713592
  168          1             0        4.959528   -2.979526   -4.194285
  169          1             0        5.045491   -2.276258   -2.821175
  170          8             0       -9.787115   -1.130712   -2.655334
  171          1             0       -9.287336   -1.894680   -2.961022
  172          1             0       -9.452902   -0.367822   -3.137485
  173          8             0        6.832686    8.331057   -1.699567
  174          1             0        7.761080    8.107673   -1.580559
  175          1             0        6.624846    9.024587   -1.066678
  176          8             0       -2.316672   -8.782272   -5.434264
  177          1             0       -1.975293   -8.942940   -4.548379
  178          1             0       -1.765898   -8.096868   -5.826803
  179          8             0       -3.982225    6.960115   -6.290926
  180          1             0       -3.294440    6.287818   -6.238313
  181          1             0       -4.020887    7.389459   -5.430798
  182          8             0        8.945234    0.845392   -5.310283
  183          1             0        8.475289    0.171526   -4.807646
  184          1             0        8.324902    1.568323   -5.448876
  185          8             0       -5.655385   -4.736493   -4.165944
  186          1             0       -5.629553   -4.038307   -4.827859
  187          1             0       -5.768011   -5.570253   -4.631800
  188          8             0        4.220390    5.476381   -5.765560
  189          1             0        4.738109    5.881274   -5.062078
  190          1             0        4.306258    6.033357   -6.543550
  191          8             0        1.142788   -4.279900   -7.412046
  192          1             0        1.563460   -4.870086   -6.777948
  193          1             0        1.799319   -3.624366   -7.667919
  194          8             0       -4.165085    1.388832   -6.360839
  195          1             0       -3.234984    1.588685   -6.572638
  196          1             0       -4.697617    1.936796   -6.942506
  197          8             0        3.584887    0.814550   -8.002659
  198          1             0        3.601995    1.507367   -7.319946
  199          1             0        4.342357    0.252636   -7.813651
 --------------------------------------------------------------------
     1 basis functions        1 primitive gaussians
     1 alpha electrons        1 beta electrons

 Harmonic frequencies (cm**-1), IR intensities (km*mol⁻¹),
 Raman scattering activities (A**4/amu), Raman depolarization ratios,
 reduced masses (AMU), force constants (mDyne/A) and normal coordinates:
                      1                      2                      3
                        a                      a                      a 
 Frequencies --    10.0248                12.9063                14.7664
 Red. masses --    14.2328                14.3340                14.4305
 Frc consts  --     0.0000                 0.0000                 0.0000
 IR Inten    --     1.8496                 2.0100                 1.1906
 Raman Activ --     0.0000                 0.0000                 0.0000
 Depolar     --     0.0000                 0.0000                 0.0000
 Atom AN      X      Y      Z        X      Y      Z        X      Y      Z
   1  26     0.03   0.01   0.00     0.00   0.04   0.02    -0.03  -0.04   0.00
   2   8     0.03   0.02   0.03     0.01  -0.00   0.01    -0.01  -0.04   0.01
   3   8     0.02  -0.01   0.01    -0.01   0.03   0.01     0.01  -0.01  -0.03
   4   8     0.01   0.01  -0.02     0.01   0.00   0.02    -0.02  -0.01  -0.01
   5   8    -0.01  -0.00   0.01     0.02   0.02   0.01    -0.03  -0.02   0.01
   6   8     0.04   0.02  -0.01     0.01   0.03   0.02    -0.03  -0.03   0.01
   7   8     0.03  -0.00  -0.01    -0.01   0.02   0.01     0.00  -0.02  -0.01
   8   1     0.01   0.00   0.01     0.00   0.01   0.01    -0.01  -0.01   0.00
   9   1     0.01   0.00  -0.01     0.00   0.01   0.00    -0.01  -0.01   0.00
  10   1     0.01  -0.00  -0.00    -0.00   0.00   0.00     0.00  -0.00  -0.00
  11   1     0.01  -0.00  -0.01    -0.00   0.00   0.00    -0.00  -0.00  -0.00
  12   1     0.01   0.00   0.01     0.00  -0.00   0.00    -0.00  -0.01   0.00
  13   1     0.00   0.00   0.01     0.00  -0.00   0.00    -0.00  -0.01   0.00
  14   1     0.00   0.00  -0.00     0.00  -0.00   0.01    -0.00  -0.00  -0.00
  15   1     0.00   0.00  -0.01     0.00   0.00   0.01    -0.01  -0.00  -0.01
  16   1     0.00  -0.00   0.00     0.00   0.01   0.00     0.00  -0.00  -0.01
  17   1     0.01  -0.00  -0.00    -0.00   0.01   0.01     0.00  -0.00  -0.01
  18   1    -0.00   0.00   0.01     0.00   0.01   0.00    -0.01  -0.01   0.00
  19   1    -0.01  -0.00   0.00     0.00   0.00   0.00    -0.01  -0.00   0.00
  20   8     0.01   0.00   0.07     0.04   0.00   0.02    -0.00  -0.05   0.01
  21   8     0.01   0.00  -0.03    -0.00   0.01   0.04    -0.02  -0.02  -0.05
  22   8    -0.01   0.02   0.06     0.02   0.03   0.02    -0.03  -0.06   0.00
  23   8    -0.00   0.00   0.02     0.01   0.02  -0.00    -0.00  -0.03   0.00
  24   8     0.01   0.02   0.08     0.01   0.02   0.02    -0.02  -0.05  -0.00
  25   8    -0.00   0.01   0.05     0.01   0.02  -0.00    -0.01  -0.05   0.02
  26   8     0.04  -0.03  -0.02    -0.05   0.02   0.04     0.01   0.00  -0.03
  27   8     0.03  -0.00  -0.02    -0.02   0.01   0.05     0.01  -0.03  -0.03
  28   8    -0.01  -0.01   0.00     0.03   0.02  -0.01     0.02  -0.01  -0.04
  29   8     0.03  -0.01  -0.04     0.00   0.02   0.01    -0.04  -0.02   0.02
  30   8     0.01   0.01  -0.00     0.01  -0.01   0.02     0.01  -0.03  -0.01
  31   8    -0.02   0.01  -0.01     0.01  -0.00   0.03    -0.02   0.00  -0.05
  32   1    -0.00   0.00   0.01     0.00   0.01   0.00    -0.00  -0.01   0.00
  33   1    -0.00   0.00   0.01     0.00   0.01  -0.00    -0.00  -0.01   0.01
  34   1     0.01  -0.00   0.02     0.00   0.00   0.00    -0.00  -0.01   0.00
  35   1    -0.04   0.04  -0.06    -0.04   0.04  -0.04    -0.02   0.00  -0.01
  36   1     0.00   0.01   0.02    -0.00   0.00   0.01    -0.01  -0.01  -0.00
  37   1     0.00   0.00   0.02     0.01   0.00   0.01    -0.00  -0.01   0.00
  38   1     0.01  -0.00  -0.01    -0.00   0.00   0.00    -0.01  -0.00   0.00
  39   1     0.00  -0.00  -0.01     0.00   0.00   0.00    -0.01  -0.00   0.00
  40   1    -0.00   0.01   0.02     0.00   0.01   0.01    -0.01  -0.01   0.00
  41   1    -0.00   0.00   0.02     0.00   0.01   0.01    -0.01  -0.01   0.00
  42   1    -0.00   0.00   0.01     0.00   0.00  -0.00    -0.00  -0.01   0.00
  43   1     0.00   0.00   0.00     0.00   0.01  -0.00     0.00  -0.01  -0.00
  44   1    -0.01   0.00  -0.00     0.01  -0.00   0.01    -0.01   0.00  -0.01
  45   1    -0.00   0.00   0.00     0.00   0.00   0.00    -0.01  -0.00  -0.01
  46   1     0.00   0.00   0.00     0.00  -0.01   0.00     0.01  -0.01   0.01
  47   1     0.00   0.00  -0.00     0.01  -0.00   0.00     0.00  -0.01  -0.01
  48   1    -0.01  -0.00   0.00     0.01   0.00  -0.01     0.01  -0.00  -0.02
  49   1    -0.00  -0.00  -0.00     0.01   0.00  -0.00    -0.00  -0.00  -0.01
  50   1     0.00   0.00  -0.00    -0.00   0.00   0.01     0.00  -0.01  -0.01
  51   1     0.01   0.00  -0.01    -0.00   0.00   0.01    -0.00  -0.01  -0.01
  52   1     0.01  -0.01  -0.00    -0.02   0.01   0.01    -0.00   0.01  -0.01
  53   1     0.01  -0.01  -0.01    -0.01   0.01   0.01     0.00  -0.00  -0.01
  54   1     0.00  -0.00  -0.01    -0.00   0.00   0.01    -0.01  -0.01  -0.01
  55   1     0.00   0.00  -0.01     0.00   0.00   0.01    -0.01  -0.00  -0.01
  56   8     0.04  -0.05  -0.01    -0.16   0.04   0.01    -0.08   0.07  -0.09
  57   1     0.01  -0.01  -0.00    -0.04   0.01   0.00    -0.01   0.03  -0.03
  58   1     0.01  -0.01   0.00    -0.04   0.01   0.00    -0.03   0.01  -0.03
  59   8     0.08  -0.08   0.01    -0.04  -0.19  -0.02    -0.05   0.02   0.01
  60   1     0.02  -0.02   0.00    -0.01  -0.04  -0.00    -0.01  -0.00   0.00
  61   1     0.02  -0.02   0.00    -0.01  -0.05  -0.01    -0.01   0.01   0.01
  62   8    -0.16  -0.02   0.00     0.02   0.24  -0.13     0.04   0.12  -0.12
  63   1    -0.02  -0.02   0.01     0.02   0.05  -0.02     0.01   0.03  -0.03
  64   1    -0.06   0.00  -0.02     0.00   0.06  -0.04     0.02   0.03  -0.02
  65   8     0.03  -0.02  -0.05    -0.00   0.03   0.04    -0.01  -0.00  -0.04
  66   1     0.01  -0.00  -0.02    -0.00   0.01   0.01    -0.00  -0.00  -0.01
  67   1     0.01  -0.01  -0.01    -0.01   0.01   0.01     0.00  -0.00  -0.01
  68   8    -0.06  -0.07   0.05     0.16   0.03   0.13     0.04  -0.01   0.01
  69   1    -0.01  -0.01   0.01     0.03   0.01   0.02     0.01  -0.01   0.00
  70   1    -0.01  -0.02   0.00     0.04   0.01   0.04     0.01  -0.00   0.01
  71   8    -0.08   0.07   0.06    -0.04  -0.06  -0.03    -0.03   0.04   0.06
  72   1    -0.02   0.02   0.01    -0.01  -0.01  -0.00    -0.01   0.01   0.01
  73   1    -0.02   0.02   0.01     0.00  -0.03  -0.02    -0.00   0.01   0.01
  74   8     0.06  -0.06  -0.03     0.00  -0.11  -0.12     0.03   0.04   0.07
  75   1     0.02  -0.02  -0.01     0.00  -0.03  -0.03     0.01   0.01   0.02
  76   1     0.01  -0.01  -0.01     0.00  -0.03  -0.03     0.01   0.01   0.02
  77   8     0.10   0.06  -0.13    -0.04   0.03  -0.05    -0.07  -0.03  -0.00
  78   1     0.03   0.02  -0.02    -0.01   0.01  -0.01    -0.02  -0.01  -0.00
  79   1     0.02   0.02  -0.04    -0.01   0.01  -0.02    -0.01  -0.01   0.00
  80   8    -0.01   0.00  -0.06     0.03  -0.00   0.08    -0.05  -0.00  -0.09
  81   1    -0.00   0.00  -0.02     0.00  -0.00   0.02    -0.01  -0.00  -0.03
  82   1     0.00   0.00  -0.01     0.00   0.00   0.01    -0.01  -0.00  -0.02
  83   8     0.02  -0.00   0.07     0.01   0.02  -0.00    -0.01  -0.05   0.01
  84   1     0.00   0.00   0.02     0.00   0.00  -0.00    -0.00  -0.01   0.00
  85   1     0.00   0.00   0.02     0.00   0.01  -0.00    -0.00  -0.01   0.00
  86   8    -0.04  -0.02   0.04     0.03   0.03  -0.13     0.06  -0.00  -0.10
  87   1    -0.01  -0.00   0.01     0.02   0.00  -0.04     0.02  -0.00  -0.03
  88   1    -0.02  -0.01   0.00     0.01   0.02  -0.04     0.02   0.00  -0.03
  89   8    -0.04   0.01  -0.01    -0.01  -0.01   0.06     0.01   0.03  -0.14
  90   1    -0.01   0.00  -0.00    -0.00  -0.00   0.01     0.00   0.00  -0.03
  91   1    -0.01   0.00  -0.00    -0.01   0.00   0.01     0.01  -0.00  -0.04
  92   8     0.04   0.05   0.06    -0.02  -0.01   0.06    -0.03  -0.07   0.01
  93   1     0.02   0.01   0.02    -0.01   0.00   0.02    -0.01  -0.02   0.01
  94   1     0.01   0.02   0.01    -0.00  -0.01   0.02    -0.01  -0.02   0.00
  95   8     0.01   0.03   0.04     0.02  -0.05  -0.02     0.09  -0.04   0.13
  96   1     0.00   0.01   0.02     0.01  -0.01  -0.01     0.02  -0.00   0.05
  97   1     0.00   0.01   0.01     0.01  -0.02  -0.02     0.03  -0.01   0.01
  98   8    -0.03   0.02   0.04     0.01   0.04  -0.03    -0.01  -0.06   0.03
  99   1    -0.01   0.01   0.01     0.00   0.01  -0.01    -0.01  -0.01   0.00
 100   1    -0.01   0.01   0.01     0.00   0.01  -0.01    -0.01  -0.02   0.01
 101   8     0.09  -0.00  -0.08    -0.03  -0.00  -0.00    -0.04  -0.02   0.03
 102   1     0.03  -0.00  -0.02    -0.01  -0.00  -0.01    -0.01  -0.00   0.00
 103   1     0.02   0.00  -0.02    -0.01   0.00  -0.00    -0.01  -0.00   0.01
 104   8    -0.04   0.01  -0.01     0.05  -0.02   0.02    -0.09   0.04  -0.02
 105   1    -0.01   0.00  -0.01     0.02  -0.00   0.01    -0.02   0.01  -0.01
 106   1    -0.01   0.00  -0.00     0.01  -0.00   0.01    -0.01   0.01  -0.00
 107   8     0.01   0.05   0.06    -0.01   0.01   0.04    -0.00  -0.05  -0.02
 108   1     0.01   0.01   0.02    -0.01   0.00   0.01     0.01  -0.01  -0.00
 109   1     0.01   0.01   0.02    -0.00   0.00   0.01    -0.00  -0.01  -0.00
 110   8     0.10  -0.06  -0.02    -0.04   0.03   0.01     0.12   0.03   0.11
 111   1     0.02  -0.01  -0.01    -0.01   0.01   0.00     0.02   0.01   0.02
 112   1     0.03  -0.02  -0.01    -0.01   0.01   0.00     0.02   0.01   0.03
 113   8    -0.08   0.01   0.01     0.07  -0.01  -0.02    -0.14   0.09   0.01
 114   1    -0.02   0.00  -0.00     0.02  -0.00  -0.00    -0.03   0.03  -0.00
 115   1    -0.02   0.00   0.00     0.02  -0.00  -0.00    -0.03   0.02   0.01
 116   8     0.05  -0.01  -0.00    -0.05   0.01   0.01     0.08   0.05   0.01
 117   1     0.00  -0.00  -0.00    -0.01   0.00   0.00     0.02   0.01   0.00
 118   1     0.02  -0.01  -0.01    -0.01   0.00   0.00     0.02   0.01   0.00
 119   8     0.05  -0.08  -0.01    -0.16  -0.03   0.00    -0.03   0.22  -0.10
 120   1     0.01  -0.02  -0.01    -0.04  -0.01  -0.01    -0.00   0.06  -0.02
 121   1     0.01  -0.02  -0.00    -0.04  -0.02   0.00    -0.00   0.06  -0.02
 122   8     0.05  -0.08   0.02    -0.09  -0.29   0.07    -0.00   0.03  -0.02
 123   1     0.02  -0.02   0.00    -0.02  -0.06   0.01    -0.00   0.01  -0.00
 124   1     0.01  -0.02   0.00    -0.03  -0.08   0.03     0.00   0.01  -0.00
 125   8    -0.38   0.08  -0.25     0.01   0.22  -0.13     0.10   0.07  -0.03
 126   1    -0.10   0.03  -0.06     0.00   0.05  -0.03     0.03   0.01  -0.01
 127   1    -0.09   0.02  -0.06     0.00   0.05  -0.03     0.02   0.02  -0.00
 128   8     0.10  -0.09  -0.06    -0.01  -0.11  -0.03     0.01   0.16   0.03
 129   1     0.03  -0.02  -0.01    -0.00  -0.03  -0.01     0.00   0.04   0.01
 130   1     0.03  -0.02  -0.01    -0.00  -0.03  -0.01     0.00   0.04   0.01
 131   8    -0.09  -0.17   0.09     0.24  -0.03   0.10     0.08   0.05  -0.03
 132   1    -0.02  -0.03   0.02     0.05  -0.00   0.03     0.02   0.01  -0.00
 133   1    -0.02  -0.03   0.01     0.06  -0.01   0.02     0.02   0.01  -0.01
 134   8    -0.10   0.06   0.03    -0.07  -0.01   0.02    -0.03   0.01  -0.01
 135   1    -0.02   0.02   0.01    -0.03   0.00  -0.02    -0.01   0.00  -0.00
 136   1    -0.02   0.02   0.01    -0.00  -0.01   0.02    -0.01   0.01  -0.01
 137   8     0.10  -0.08  -0.03     0.05  -0.17  -0.13     0.03   0.02   0.07
 138   1     0.03  -0.02  -0.01     0.02  -0.04  -0.04     0.01   0.00   0.02
 139   1     0.02  -0.02  -0.01     0.01  -0.04  -0.03     0.01   0.01   0.02
 140   8    -0.03   0.16  -0.25    -0.05   0.07  -0.11    -0.04  -0.06   0.02
 141   1    -0.01   0.05  -0.06    -0.02   0.02  -0.03    -0.01  -0.01   0.00
 142   1    -0.01   0.03  -0.06    -0.01   0.02  -0.03    -0.01  -0.02   0.01
 143   8     0.03   0.01  -0.08    -0.02  -0.01   0.10    -0.00  -0.03  -0.10
 144   1     0.01   0.00  -0.02    -0.01   0.00   0.03     0.00  -0.01  -0.03
 145   1     0.01   0.00  -0.01    -0.01   0.00   0.02     0.00  -0.01  -0.02
 146   8     0.04  -0.03   0.06    -0.01  -0.01  -0.03    -0.01  -0.05   0.01
 147   1     0.01  -0.00   0.02    -0.00   0.00  -0.01    -0.00  -0.01   0.00
 148   1     0.01  -0.01   0.02    -0.00  -0.01  -0.01    -0.01  -0.01   0.00
 149   8    -0.16  -0.03  -0.02     0.07   0.16  -0.19     0.08   0.08  -0.14
 150   1    -0.05   0.00  -0.00     0.03   0.04  -0.05     0.02   0.02  -0.04
 151   1    -0.04  -0.01  -0.00     0.01   0.05  -0.04     0.01   0.02  -0.03
 152   8    -0.05  -0.00  -0.03    -0.00  -0.01   0.07     0.00   0.04  -0.16
 153   1    -0.01  -0.00  -0.01    -0.00  -0.00   0.02     0.00   0.01  -0.04
 154   1    -0.01   0.00  -0.01    -0.00  -0.00   0.02     0.00   0.01  -0.04
 155   8     0.05   0.09   0.05    -0.01  -0.09   0.13    -0.04  -0.08   0.02
 156   1     0.01   0.02   0.01    -0.01  -0.02   0.03    -0.01  -0.02   0.00
 157   1     0.01   0.03   0.01     0.01  -0.03   0.04    -0.01  -0.02   0.01
 158   8    -0.01   0.06   0.11     0.03  -0.04  -0.04     0.05  -0.02   0.25
 159   1     0.01   0.02   0.03     0.00  -0.02  -0.01     0.02   0.00   0.06
 160   1    -0.01   0.01   0.03     0.01  -0.01  -0.01     0.01  -0.01   0.06
 161   8    -0.03   0.01   0.02    -0.07   0.02  -0.06     0.08  -0.06   0.02
 162   1    -0.01   0.00   0.00    -0.02   0.01  -0.02     0.02  -0.02   0.01
 163   1    -0.01   0.00   0.01    -0.01   0.01  -0.01     0.01  -0.02   0.01
 164   8     0.11   0.03  -0.11    -0.02   0.02  -0.03    -0.04  -0.02   0.02
 165   1     0.02   0.02  -0.04     0.00   0.00  -0.00    -0.00  -0.01   0.01
 166   1     0.03   0.01  -0.03    -0.01   0.01  -0.01    -0.01  -0.00   0.00
 167   8    -0.06  -0.01  -0.04     0.06  -0.01   0.06    -0.10   0.04  -0.06
 168   1    -0.01  -0.00  -0.01     0.01  -0.01   0.02    -0.02   0.02  -0.02
 169   1    -0.01  -0.00  -0.01     0.01  -0.00   0.02    -0.02   0.00  -0.02
 170   8    -0.00   0.10   0.09     0.00  -0.03   0.01    -0.03  -0.06   0.04
 171   1    -0.00   0.03   0.02     0.00  -0.01   0.00    -0.01  -0.02   0.01
 172   1    -0.00   0.03   0.02     0.00  -0.01   0.00    -0.01  -0.02   0.01
 173   8    -0.07   0.04   0.03     0.19  -0.10  -0.06     0.21  -0.05   0.02
 174   1    -0.02   0.01   0.01     0.05  -0.03  -0.01     0.05  -0.01   0.01
 175   1    -0.02   0.01   0.01     0.05  -0.02  -0.02     0.05  -0.01   0.00
 176   8    -0.08   0.02   0.02     0.01   0.01  -0.00    -0.01   0.03  -0.09
 177   1    -0.02   0.00   0.00     0.00   0.00  -0.00    -0.00  -0.00  -0.02
 178   1    -0.02   0.00   0.00     0.00   0.00  -0.00    -0.00   0.01  -0.01
 179   8     0.03   0.02  -0.01    -0.13  -0.01   0.05    -0.10   0.01   0.08
 180   1     0.01   0.01   0.00    -0.03   0.00   0.01    -0.02   0.01   0.02
 181   1    -0.00   0.00  -0.00    -0.03   0.00   0.01    -0.03  -0.00   0.02
 182   8     0.09  -0.11   0.17    -0.03   0.05  -0.08     0.14  -0.18   0.29
 183   1     0.02  -0.02   0.05    -0.01   0.01  -0.02     0.03  -0.04   0.09
 184   1     0.02  -0.04   0.02    -0.01   0.02  -0.01     0.03  -0.06   0.03
 185   8    -0.05   0.05   0.06     0.03   0.04  -0.05    -0.05  -0.07   0.07
 186   1    -0.01   0.01   0.02     0.01   0.01  -0.01    -0.01  -0.02   0.02
 187   1    -0.02   0.01   0.01     0.01   0.01  -0.01    -0.02  -0.02   0.02
 188   8     0.13  -0.06  -0.05    -0.04   0.03   0.00     0.04   0.03   0.12
 189   1     0.03  -0.01  -0.01    -0.01   0.01  -0.00     0.01   0.01   0.03
 190   1     0.03  -0.02  -0.01    -0.01   0.01  -0.00     0.01   0.01   0.03
 191   8    -0.08   0.00  -0.02     0.07  -0.03   0.04    -0.14   0.14  -0.07
 192   1    -0.02   0.00  -0.00     0.01  -0.01   0.01    -0.03   0.03  -0.02
 193   1    -0.02   0.00  -0.01     0.02  -0.01   0.01    -0.04   0.04  -0.02
 194   8     0.05   0.04   0.07    -0.04   0.01   0.04     0.09   0.03   0.03
 195   1     0.01   0.01   0.01    -0.01   0.00   0.01     0.02   0.01   0.01
 196   1     0.01   0.01   0.02    -0.01   0.00   0.01     0.02  -0.00  -0.00
 197   8     0.02  -0.04  -0.04    -0.04   0.01   0.02     0.06   0.10   0.05
 198   1     0.01  -0.01  -0.01    -0.01   0.00   0.00     0.02   0.02   0.02
 199   1     0.00  -0.02  -0.01    -0.01   0.01   0.01     0.00   0.01   0.01
                      4                      5                      6
                        a                      a                      a 
 Frequencies --    15.2193                17.9472                18.8247
 Red. masses --    14.4804                14.8260                14.5575
 Frc consts  --     0.0000                 0.0000                 0.0000
 IR Inten    --     1.6007                 8.3371                 3.3833
 Raman Activ --     0.0000                 0.0000                 0.0000
 Depolar     --     0.0000                 0.0000                 0.0000
 Atom AN      X      Y      Z        X      Y      Z        X      Y      Z
   1  26    -0.04   0.01  -0.05     0.02   0.11  -0.04    -0.06   0.02   0.03
   2   8    -0.02   0.04  -0.02     0.02   0.06  -0.01    -0.04  -0.01  -0.00
   3   8    -0.05   0.01   0.00     0.03   0.07  -0.05    -0.02   0.04  -0.02
   4   8    -0.01   0.02  -0.02     0.01   0.01  -0.01    -0.03  -0.01   0.03
   5   8    -0.01  -0.01  -0.03     0.00   0.04  -0.02    -0.03   0.01   0.02
   6   8    -0.01   0.02  -0.06    -0.01   0.04  -0.01    -0.06  -0.01   0.03
   7   8    -0.02   0.01  -0.02     0.00   0.07  -0.00    -0.02   0.03   0.04
   8   1    -0.00   0.00  -0.02    -0.00   0.01  -0.00    -0.01  -0.00   0.00
   9   1    -0.00   0.00  -0.02    -0.00   0.01  -0.00    -0.01   0.00   0.01
  10   1    -0.00   0.01  -0.01     0.00   0.02  -0.00    -0.00   0.01   0.01
  11   1    -0.01   0.00  -0.00    -0.00   0.01  -0.00    -0.01   0.01   0.01
  12   1    -0.00   0.01  -0.00     0.01   0.01   0.00    -0.01  -0.00  -0.00
  13   1    -0.01   0.01  -0.00     0.00   0.02  -0.00    -0.01  -0.00  -0.00
  14   1    -0.01   0.01  -0.00     0.01  -0.00  -0.01    -0.01  -0.00   0.00
  15   1    -0.00   0.01  -0.00    -0.00   0.00  -0.00    -0.01  -0.00   0.01
  16   1    -0.02   0.00   0.00     0.02   0.01  -0.02    -0.00   0.01  -0.01
  17   1    -0.01   0.01   0.00     0.01   0.01  -0.01    -0.01   0.01  -0.00
  18   1    -0.00  -0.00  -0.01     0.00   0.01  -0.00    -0.01   0.00   0.00
  19   1    -0.00  -0.00  -0.01    -0.00   0.01  -0.00    -0.01   0.00   0.00
  20   8     0.01   0.08  -0.05    -0.01   0.04   0.02    -0.07  -0.03  -0.03
  21   8    -0.01   0.03  -0.01    -0.01   0.01   0.02    -0.02   0.01   0.05
  22   8    -0.01  -0.00  -0.05     0.01   0.05   0.00    -0.02   0.02  -0.02
  23   8    -0.05   0.01   0.00     0.00   0.06  -0.00    -0.02  -0.00   0.04
  24   8    -0.00   0.02  -0.08    -0.02   0.04   0.01    -0.04   0.00  -0.01
  25   8    -0.04   0.03  -0.01     0.01   0.04  -0.02    -0.01   0.00  -0.03
  26   8    -0.02   0.02  -0.02     0.01   0.03   0.00    -0.02   0.08   0.03
  27   8    -0.03   0.04  -0.01     0.01   0.02  -0.00    -0.02   0.03   0.01
  28   8    -0.08   0.02   0.01     0.06   0.01  -0.11     0.02   0.02  -0.03
  29   8     0.00  -0.01  -0.07    -0.04   0.06  -0.02    -0.05   0.01   0.04
  30   8    -0.05   0.05   0.01     0.06  -0.02  -0.04    -0.01  -0.01  -0.02
  31   8    -0.04   0.01   0.02    -0.01  -0.00   0.03    -0.01  -0.03   0.06
  32   1    -0.01   0.01  -0.01     0.00   0.01  -0.00    -0.00   0.00  -0.01
  33   1    -0.01   0.01  -0.00    -0.00   0.01  -0.01     0.00  -0.00  -0.01
  34   1    -0.00   0.02  -0.01     0.00   0.01   0.01    -0.01  -0.01  -0.01
  35   1     0.01  -0.01   0.01     0.01  -0.04   0.05     0.00  -0.03   0.05
  36   1     0.00   0.01  -0.02    -0.01   0.01   0.00    -0.01   0.00  -0.00
  37   1    -0.00   0.01  -0.01    -0.00   0.01   0.00    -0.01  -0.00  -0.01
  38   1    -0.00  -0.00  -0.02    -0.02   0.01  -0.00    -0.01   0.00   0.01
  39   1    -0.00  -0.00  -0.01    -0.01   0.01  -0.01    -0.01   0.00   0.01
  40   1    -0.00  -0.00  -0.01     0.00   0.01   0.00    -0.00   0.01  -0.01
  41   1    -0.00   0.00  -0.01    -0.00   0.01   0.00    -0.01   0.00  -0.00
  42   1    -0.01   0.00   0.00     0.00   0.01  -0.00    -0.00   0.00   0.00
  43   1    -0.01   0.00   0.00    -0.00   0.02   0.00    -0.01   0.00   0.01
  44   1    -0.01  -0.00   0.00    -0.00  -0.00   0.00    -0.00  -0.01   0.01
  45   1    -0.01   0.00   0.00    -0.00   0.00   0.01    -0.00  -0.01   0.01
  46   1    -0.01   0.02   0.01     0.02  -0.01  -0.00    -0.00  -0.01  -0.01
  47   1    -0.02   0.01   0.00     0.01  -0.00  -0.02     0.00  -0.00  -0.01
  48   1    -0.02   0.01   0.00     0.02   0.00  -0.03     0.00   0.01  -0.01
  49   1    -0.01   0.00  -0.00     0.01   0.00  -0.02    -0.00   0.00  -0.00
  50   1    -0.01   0.01  -0.00     0.01   0.00  -0.00    -0.00   0.00   0.00
  51   1    -0.01   0.01  -0.00     0.00   0.00   0.00    -0.00   0.01   0.01
  52   1    -0.01   0.01  -0.01     0.01   0.00   0.01    -0.00   0.02   0.01
  53   1    -0.01   0.01  -0.01     0.00   0.01   0.00    -0.00   0.02   0.01
  54   1    -0.00   0.01  -0.00    -0.00   0.00   0.01    -0.00   0.01   0.02
  55   1    -0.01   0.01  -0.00    -0.00   0.00   0.01    -0.00  -0.00   0.01
  56   8    -0.02   0.05  -0.04     0.14  -0.01   0.04    -0.01   0.07   0.03
  57   1     0.00   0.01  -0.01     0.03  -0.02   0.01     0.00   0.03   0.00
  58   1    -0.01   0.01  -0.00     0.04   0.01   0.01    -0.01   0.01   0.01
  59   8     0.05  -0.12  -0.02     0.10   0.06  -0.01     0.03  -0.09   0.00
  60   1     0.01  -0.03  -0.01     0.02   0.02  -0.00     0.01  -0.02   0.00
  61   1     0.01  -0.03  -0.01     0.03   0.01  -0.01     0.01  -0.02  -0.00
  62   8     0.08   0.03   0.08    -0.06  -0.12  -0.12    -0.07  -0.07  -0.03
  63   1     0.00   0.02   0.01    -0.02  -0.03  -0.03    -0.02  -0.02  -0.01
  64   1     0.04   0.00   0.04    -0.01  -0.03  -0.02    -0.02  -0.02  -0.00
  65   8    -0.00   0.03  -0.02    -0.01   0.02   0.02     0.04   0.07   0.07
  66   1     0.01   0.01  -0.01     0.00   0.01   0.00     0.01   0.02   0.02
  67   1    -0.00   0.01  -0.00    -0.00   0.01   0.00     0.01   0.02   0.01
  68   8     0.15   0.12   0.09    -0.07   0.00  -0.01    -0.06  -0.09   0.02
  69   1     0.02   0.03   0.01    -0.01   0.00  -0.00    -0.02  -0.02   0.00
  70   1     0.03   0.03   0.03    -0.02  -0.00  -0.01    -0.01  -0.02   0.00
  71   8    -0.07   0.14   0.03     0.01   0.10  -0.06     0.02   0.00  -0.08
  72   1    -0.01   0.02   0.00     0.00   0.02  -0.02     0.00   0.01  -0.02
  73   1    -0.03   0.05   0.02     0.01   0.02  -0.02     0.01  -0.01  -0.03
  74   8     0.03  -0.07  -0.06    -0.04   0.00  -0.09     0.13  -0.06   0.03
  75   1     0.01  -0.01  -0.02    -0.01  -0.00  -0.02     0.02   0.00   0.01
  76   1     0.00  -0.02  -0.01    -0.01   0.00  -0.02     0.03  -0.03   0.01
  77   8    -0.01  -0.02   0.01    -0.11   0.02   0.05    -0.03   0.02   0.07
  78   1    -0.00  -0.01   0.00    -0.03   0.00   0.01    -0.01  -0.00   0.01
  79   1     0.00  -0.01   0.00    -0.03   0.00   0.02    -0.00   0.00   0.02
  80   8    -0.01   0.01  -0.00     0.02  -0.05   0.06    -0.02  -0.02   0.06
  81   1    -0.00   0.01  -0.00     0.00  -0.01   0.01    -0.00  -0.00   0.01
  82   1    -0.00   0.00  -0.00     0.00  -0.01   0.01    -0.01  -0.00   0.01
  83   8    -0.04   0.08  -0.01     0.04   0.03   0.03    -0.04  -0.04  -0.06
  84   1    -0.01   0.02  -0.00     0.01   0.01   0.00    -0.01  -0.01  -0.01
  85   1    -0.01   0.02  -0.00     0.01   0.01   0.01    -0.01  -0.01  -0.02
  86   8    -0.07   0.02   0.05     0.06   0.00  -0.11     0.01   0.02  -0.04
  87   1    -0.03   0.00   0.01     0.01   0.00  -0.03     0.01   0.01  -0.00
  88   1    -0.01   0.01   0.02     0.00  -0.01  -0.03    -0.01   0.00  -0.01
  89   8    -0.08  -0.00   0.06    -0.05  -0.01   0.07     0.01  -0.02   0.02
  90   1    -0.02  -0.00   0.01    -0.01  -0.00   0.01     0.00  -0.01   0.01
  91   1    -0.02   0.00   0.02    -0.02   0.00   0.02     0.00  -0.01   0.00
  92   8     0.00  -0.00  -0.10    -0.06  -0.01   0.02    -0.00   0.06  -0.04
  93   1    -0.01   0.00  -0.03    -0.02  -0.00   0.00    -0.00   0.02  -0.01
  94   1     0.00  -0.00  -0.02    -0.02  -0.00   0.00     0.00   0.01  -0.01
  95   8    -0.04   0.09   0.08     0.10  -0.02   0.03    -0.00  -0.04  -0.06
  96   1    -0.01   0.02   0.03     0.02   0.00   0.02     0.00  -0.01  -0.02
  97   1    -0.01   0.02   0.02     0.02  -0.01  -0.01    -0.00  -0.01  -0.02
  98   8    -0.06   0.02   0.00    -0.01   0.08  -0.07     0.02  -0.01  -0.02
  99   1    -0.01   0.00   0.00    -0.00   0.02  -0.01     0.00  -0.00  -0.01
 100   1    -0.01   0.00  -0.00     0.00   0.02  -0.02     0.00   0.00  -0.00
 101   8    -0.02  -0.01  -0.05    -0.11   0.05   0.01    -0.01   0.03   0.06
 102   1    -0.00  -0.00  -0.01    -0.03   0.01  -0.00    -0.00   0.01   0.02
 103   1    -0.01  -0.00  -0.01    -0.03   0.01   0.01    -0.00   0.01   0.02
 104   8    -0.02  -0.02  -0.00     0.02  -0.03   0.00    -0.03  -0.04   0.05
 105   1    -0.01  -0.01  -0.00     0.01  -0.01   0.01    -0.01  -0.01   0.01
 106   1    -0.00  -0.00  -0.00     0.00  -0.00  -0.00    -0.01  -0.01   0.01
 107   8     0.01  -0.02  -0.08    -0.02   0.01   0.01     0.03   0.07  -0.06
 108   1     0.01  -0.01  -0.02    -0.00   0.00   0.00     0.01   0.02  -0.02
 109   1     0.00  -0.00  -0.02    -0.01   0.00   0.00     0.01   0.02  -0.01
 110   8     0.07  -0.09  -0.00     0.05  -0.03   0.08    -0.00  -0.06   0.02
 111   1     0.01  -0.02  -0.00     0.00  -0.00   0.02    -0.01  -0.01   0.00
 112   1     0.01  -0.02  -0.00    -0.00  -0.01   0.02    -0.01  -0.01  -0.00
 113   8    -0.02  -0.06  -0.00     0.10   0.00  -0.06    -0.01   0.05  -0.02
 114   1    -0.01  -0.02   0.00     0.02  -0.00  -0.01    -0.00   0.01  -0.00
 115   1    -0.01  -0.01  -0.00     0.03  -0.00  -0.02    -0.00   0.01  -0.00
 116   8     0.06  -0.06  -0.06     0.02   0.03  -0.00     0.04   0.07  -0.01
 117   1     0.02  -0.02  -0.01     0.01   0.01  -0.00     0.02   0.02   0.00
 118   1     0.01  -0.01  -0.01     0.01   0.01  -0.00    -0.00   0.01   0.01
 119   8     0.05  -0.00  -0.08     0.10  -0.20   0.04     0.02   0.17   0.02
 120   1     0.01  -0.00  -0.03     0.02  -0.06   0.00     0.01   0.05   0.01
 121   1     0.02  -0.01  -0.02     0.03  -0.05   0.01     0.01   0.04   0.00
 122   8     0.10  -0.21   0.02     0.07   0.07  -0.01     0.05  -0.10   0.00
 123   1     0.02  -0.05   0.00     0.02   0.02  -0.00     0.01  -0.03   0.00
 124   1     0.03  -0.05   0.01     0.02   0.02  -0.01     0.01  -0.02  -0.00
 125   8     0.23  -0.00   0.23     0.04  -0.16  -0.01    -0.05  -0.12   0.02
 126   1     0.06  -0.00   0.06     0.01  -0.04   0.00    -0.01  -0.03   0.00
 127   1     0.05   0.00   0.05     0.01  -0.04  -0.00    -0.01  -0.03   0.01
 128   8     0.08  -0.05  -0.05     0.00  -0.14  -0.06     0.14   0.13   0.12
 129   1     0.02  -0.01  -0.01     0.00  -0.04  -0.02     0.04   0.03   0.03
 130   1     0.02  -0.01  -0.01     0.00  -0.04  -0.02     0.03   0.03   0.02
 131   8     0.21   0.04   0.08    -0.11  -0.03   0.02    -0.06  -0.13   0.03
 132   1     0.05   0.02   0.02    -0.02  -0.01   0.00    -0.01  -0.03   0.01
 133   1     0.04  -0.02   0.02    -0.02  -0.00   0.00    -0.01  -0.03   0.00
 134   8     0.01   0.05  -0.00     0.01   0.09  -0.07    -0.00   0.04  -0.05
 135   1     0.01   0.00   0.02     0.00   0.02  -0.02    -0.00   0.01  -0.02
 136   1    -0.01   0.02  -0.02     0.00   0.02  -0.02     0.00   0.01  -0.00
 137   8     0.13  -0.12  -0.05    -0.07   0.06  -0.08     0.31  -0.12   0.05
 138   1     0.04  -0.03  -0.01    -0.02   0.02  -0.02     0.09  -0.04   0.02
 139   1     0.02  -0.03  -0.01    -0.01   0.01  -0.02     0.06  -0.02   0.01
 140   8     0.05  -0.05   0.06    -0.10  -0.03   0.11    -0.02  -0.04   0.14
 141   1     0.02  -0.03   0.03    -0.03  -0.00   0.03    -0.01   0.00   0.03
 142   1     0.01  -0.00   0.01    -0.02  -0.01   0.03    -0.00  -0.02   0.04
 143   8    -0.02   0.07  -0.03     0.01   0.01   0.03    -0.02   0.02   0.04
 144   1    -0.00   0.02  -0.01     0.00   0.01   0.01    -0.01   0.01   0.01
 145   1    -0.01   0.01  -0.01     0.00   0.00   0.00    -0.01   0.01   0.01
 146   8     0.01   0.07  -0.00     0.03   0.04   0.04     0.05  -0.05  -0.04
 147   1    -0.00   0.02  -0.00     0.01   0.01   0.01     0.00  -0.01  -0.01
 148   1     0.01   0.02  -0.00     0.01   0.01   0.01     0.02  -0.01  -0.01
 149   8     0.07   0.05   0.11    -0.11  -0.09  -0.14    -0.08  -0.05  -0.04
 150   1     0.03   0.00   0.03    -0.04  -0.01  -0.03    -0.03  -0.01  -0.01
 151   1     0.02   0.01   0.03    -0.02  -0.03  -0.04    -0.02  -0.02  -0.01
 152   8    -0.09  -0.03   0.08    -0.07  -0.06   0.11     0.02  -0.03   0.05
 153   1    -0.02  -0.01   0.02    -0.02  -0.02   0.03     0.00  -0.00   0.01
 154   1    -0.02  -0.01   0.02    -0.02  -0.01   0.02     0.00  -0.01   0.01
 155   8     0.04  -0.07  -0.01    -0.08  -0.04  -0.01     0.01   0.04  -0.00
 156   1     0.01  -0.01  -0.00    -0.02  -0.01  -0.00     0.00   0.01  -0.00
 157   1     0.02  -0.02   0.00    -0.02  -0.01  -0.00     0.01   0.01   0.00
 158   8    -0.07   0.10   0.15     0.08   0.02   0.12     0.01  -0.01  -0.08
 159   1    -0.01   0.03   0.04     0.02   0.00   0.03     0.00  -0.01  -0.02
 160   1    -0.02   0.03   0.04     0.01   0.00   0.03     0.00  -0.00  -0.02
 161   8    -0.11   0.03   0.01    -0.11   0.08  -0.08     0.04  -0.01  -0.02
 162   1    -0.03   0.01   0.00    -0.03   0.03  -0.02     0.01  -0.00  -0.00
 163   1    -0.02   0.01   0.00    -0.02   0.02  -0.02     0.01  -0.00  -0.00
 164   8    -0.05  -0.03  -0.03    -0.10   0.03   0.05    -0.01   0.03   0.07
 165   1    -0.02  -0.00  -0.01    -0.02  -0.00   0.02     0.00   0.00   0.02
 166   1    -0.01  -0.01  -0.00    -0.03   0.01   0.01    -0.01   0.01   0.02
 167   8    -0.03  -0.05  -0.01     0.02  -0.08   0.06    -0.03  -0.02   0.06
 168   1    -0.01  -0.02   0.00     0.00  -0.02   0.02    -0.01  -0.00   0.01
 169   1    -0.01  -0.01  -0.00     0.00  -0.02   0.01    -0.01  -0.01   0.02
 170   8    -0.00  -0.00  -0.04     0.03  -0.23   0.16    -0.00   0.31  -0.31
 171   1    -0.00  -0.00  -0.01    -0.00  -0.06   0.04     0.01   0.08  -0.07
 172   1    -0.00  -0.00  -0.01     0.01  -0.06   0.04    -0.00   0.08  -0.08
 173   8    -0.25   0.14   0.02     0.08  -0.02  -0.12     0.12  -0.11  -0.15
 174   1    -0.06   0.04   0.01     0.02  -0.00  -0.03     0.03  -0.03  -0.04
 175   1    -0.07   0.03   0.01     0.02  -0.00  -0.03     0.03  -0.02  -0.04
 176   8    -0.06  -0.03   0.07    -0.01   0.02  -0.02    -0.01   0.04  -0.06
 177   1    -0.01  -0.00   0.02    -0.00   0.01  -0.00    -0.00   0.01  -0.02
 178   1    -0.01  -0.01   0.01    -0.00   0.01  -0.01    -0.00   0.01  -0.02
 179   8     0.08  -0.03  -0.14    -0.16   0.01   0.05     0.10   0.11   0.01
 180   1     0.02  -0.01  -0.03    -0.04   0.01   0.01     0.02   0.02   0.00
 181   1     0.02  -0.01  -0.03    -0.03   0.01   0.01     0.02   0.02   0.00
 182   8     0.08  -0.06   0.24     0.07  -0.25   0.15    -0.03  -0.23  -0.07
 183   1     0.01  -0.01   0.06     0.02  -0.05   0.06    -0.00  -0.05  -0.00
 184   1     0.02  -0.02   0.03     0.01  -0.08   0.00    -0.01  -0.06  -0.02
 185   8    -0.03  -0.02  -0.02     0.05   0.06  -0.13    -0.00   0.04  -0.01
 186   1    -0.01  -0.01  -0.01     0.01   0.02  -0.03     0.00   0.01  -0.00
 187   1    -0.01  -0.01  -0.00     0.02   0.02  -0.03    -0.01   0.01  -0.00
 188   8     0.03  -0.09  -0.03    -0.07  -0.02   0.05    -0.07  -0.05  -0.05
 189   1     0.00  -0.02  -0.00    -0.02  -0.00   0.01    -0.01  -0.01  -0.02
 190   1     0.01  -0.02  -0.01    -0.02  -0.01   0.01    -0.02  -0.02  -0.02
 191   8    -0.02  -0.07   0.02     0.10  -0.07   0.02    -0.01   0.01   0.03
 192   1    -0.01  -0.02   0.01     0.02  -0.02   0.01    -0.01   0.00   0.01
 193   1    -0.00  -0.02   0.01     0.03  -0.02   0.01     0.00  -0.00   0.01
 194   8     0.05  -0.03  -0.08     0.02   0.02   0.02     0.03   0.10  -0.06
 195   1     0.01  -0.01  -0.02     0.00   0.01   0.00     0.01   0.02  -0.01
 196   1     0.02  -0.01  -0.02     0.00  -0.00   0.00     0.01   0.03  -0.01
 197   8     0.06  -0.10   0.01     0.02  -0.03   0.09     0.05  -0.09   0.06
 198   1     0.02  -0.03   0.00     0.01  -0.01   0.02     0.01  -0.02   0.01
 199   1     0.01  -0.03   0.00     0.00  -0.01   0.02     0.02  -0.01   0.01
                      7                      8                      9
                        a                      a                      a 
 Frequencies --    19.5249                19.7672                21.2707
 Red. masses --    14.4707                14.7331                14.5984
 Frc consts  --     0.0000                 0.0000                 0.0000
 IR Inten    --    10.8665                 0.9799                 1.3537
 Raman Activ --     0.0000                 0.0000                 0.0000
 Depolar     --     0.0000                 0.0000                 0.0000
 Atom AN      X      Y      Z        X      Y      Z        X      Y      Z
   1  26     0.03   0.07  -0.07    -0.06   0.05   0.04    -0.09  -0.02   0.01
   2   8     0.03   0.04  -0.01    -0.04   0.04   0.03    -0.04  -0.02   0.01
   3   8     0.02   0.04  -0.05    -0.02   0.03   0.01    -0.03  -0.03  -0.00
   4   8     0.01   0.02  -0.04    -0.03   0.04   0.01    -0.06  -0.02  -0.01
   5   8    -0.00   0.03  -0.03    -0.04   0.01   0.02    -0.05   0.01   0.01
   6   8     0.02   0.04  -0.04    -0.06   0.02  -0.00    -0.04  -0.01   0.03
   7   8     0.00   0.05  -0.00    -0.02   0.03   0.01    -0.04  -0.03  -0.02
   8   1     0.00   0.01  -0.00    -0.01   0.00  -0.01    -0.01   0.00   0.01
   9   1    -0.00   0.01  -0.02    -0.01   0.00   0.00    -0.01  -0.00   0.01
  10   1    -0.00   0.02  -0.00    -0.00   0.00   0.00    -0.01  -0.01  -0.01
  11   1     0.00   0.01   0.00    -0.01   0.01   0.00    -0.01  -0.01  -0.01
  12   1     0.01   0.01   0.00    -0.01   0.01   0.00    -0.01  -0.01   0.01
  13   1     0.00   0.01   0.00    -0.01   0.01   0.00    -0.01  -0.00   0.00
  14   1     0.00   0.00  -0.01    -0.01   0.01   0.00    -0.01  -0.01  -0.00
  15   1     0.00   0.00  -0.01    -0.01   0.01   0.00    -0.01  -0.01  -0.00
  16   1     0.01   0.01  -0.02    -0.00   0.01   0.00    -0.01  -0.01   0.00
  17   1     0.00   0.01  -0.01    -0.01   0.00   0.00    -0.01  -0.01  -0.00
  18   1    -0.00   0.01  -0.00    -0.01   0.00   0.00    -0.01   0.01   0.00
  19   1    -0.00   0.00  -0.01    -0.01   0.00   0.01    -0.01   0.00   0.00
  20   8    -0.00  -0.00   0.06    -0.03   0.07  -0.03    -0.03  -0.01   0.05
  21   8    -0.00   0.03   0.00    -0.03   0.04  -0.01    -0.05  -0.03  -0.03
  22   8     0.00   0.02   0.04    -0.05  -0.01  -0.04    -0.05   0.04   0.03
  23   8     0.02   0.02   0.00    -0.04   0.03   0.03    -0.05  -0.00  -0.03
  24   8    -0.01   0.01   0.06    -0.03   0.01  -0.07    -0.05   0.02   0.05
  25   8     0.02   0.00   0.01    -0.03   0.03   0.01    -0.05   0.01  -0.02
  26   8    -0.00   0.08  -0.01    -0.02   0.01   0.02    -0.03  -0.03  -0.04
  27   8     0.01   0.04  -0.03    -0.04   0.02   0.01    -0.03  -0.05  -0.03
  28   8     0.03   0.00  -0.08     0.01   0.03   0.01    -0.03  -0.01   0.02
  29   8    -0.00   0.04  -0.06    -0.00  -0.01   0.03    -0.04   0.01   0.03
  30   8     0.04   0.01  -0.07    -0.01   0.01   0.00    -0.05  -0.02   0.00
  31   8     0.01   0.01   0.01    -0.05   0.07  -0.01    -0.05  -0.01  -0.03
  32   1     0.00   0.00   0.01    -0.01   0.00  -0.00    -0.01   0.01   0.00
  33   1     0.00   0.00   0.00    -0.01   0.00   0.01    -0.01   0.01  -0.01
  34   1     0.00  -0.00   0.01    -0.00   0.01   0.00    -0.01  -0.00   0.01
  35   1     0.09  -0.03   0.02     0.00  -0.00   0.00     0.01   0.01  -0.02
  36   1    -0.01   0.00   0.02    -0.00   0.01  -0.02    -0.01   0.01   0.01
  37   1    -0.00   0.00   0.01    -0.01   0.01  -0.01    -0.01   0.00   0.01
  38   1     0.00   0.01  -0.02     0.00  -0.00   0.01    -0.01   0.00   0.00
  39   1    -0.00   0.01  -0.01    -0.00  -0.00   0.01    -0.01   0.00   0.01
  40   1    -0.00   0.01   0.01    -0.01  -0.00  -0.01    -0.01   0.01   0.01
  41   1    -0.00   0.00   0.01    -0.01   0.00  -0.01    -0.01   0.01   0.01
  42   1     0.00   0.00   0.00    -0.01   0.01   0.01    -0.01   0.00  -0.01
  43   1     0.01   0.01   0.00    -0.01   0.00   0.01    -0.02  -0.00  -0.01
  44   1    -0.00   0.00  -0.00    -0.01   0.02  -0.00    -0.01  -0.00  -0.01
  45   1     0.00   0.00   0.00    -0.01   0.01   0.00    -0.01  -0.00  -0.01
  46   1     0.01   0.00  -0.02    -0.00   0.00  -0.00    -0.01  -0.01   0.00
  47   1     0.01   0.00  -0.02     0.00   0.01   0.00    -0.01  -0.01   0.00
  48   1     0.01  -0.00  -0.01     0.00   0.01  -0.00    -0.00  -0.00   0.01
  49   1     0.00   0.00  -0.02     0.00   0.00   0.00    -0.01  -0.00   0.01
  50   1     0.00   0.01  -0.01    -0.01   0.00   0.00    -0.01  -0.01  -0.01
  51   1     0.00   0.01  -0.00    -0.01   0.01   0.00    -0.01  -0.01  -0.01
  52   1    -0.01   0.02  -0.00    -0.00  -0.00   0.01    -0.01  -0.00  -0.01
  53   1     0.00   0.02  -0.00    -0.01   0.01   0.01    -0.01  -0.01  -0.01
  54   1     0.00   0.01   0.00    -0.01   0.01  -0.00    -0.01  -0.01  -0.01
  55   1    -0.00   0.01   0.00    -0.01   0.01  -0.00    -0.01  -0.01  -0.01
  56   8    -0.16   0.06  -0.01    -0.02  -0.05   0.08    -0.01   0.03  -0.10
  57   1    -0.05   0.03   0.00    -0.01  -0.02   0.02     0.02   0.03  -0.04
  58   1    -0.05   0.00  -0.01     0.00  -0.00   0.02    -0.01   0.00  -0.02
  59   8    -0.13  -0.07  -0.03     0.07  -0.05   0.03     0.02  -0.00   0.04
  60   1    -0.03  -0.02  -0.01     0.01  -0.01   0.01     0.00  -0.01   0.01
  61   1    -0.02  -0.02  -0.01     0.03  -0.02   0.01    -0.01   0.00   0.01
  62   8    -0.02  -0.17  -0.02    -0.03  -0.03  -0.01    -0.02  -0.03   0.02
  63   1    -0.03  -0.02  -0.02    -0.01  -0.01  -0.00    -0.01  -0.00   0.00
  64   1     0.02  -0.04   0.01    -0.01  -0.01  -0.00    -0.01  -0.00   0.00
  65   8     0.02   0.07   0.02     0.01   0.03  -0.02    -0.04  -0.04  -0.03
  66   1     0.00   0.02   0.01     0.01   0.01  -0.01    -0.02  -0.01  -0.01
  67   1     0.00   0.02   0.00    -0.00   0.00  -0.00    -0.01  -0.01  -0.01
  68   8    -0.08  -0.06   0.02    -0.03   0.05  -0.01    -0.00  -0.01   0.09
  69   1    -0.01  -0.01   0.01    -0.01   0.02  -0.00    -0.00  -0.00   0.02
  70   1    -0.02  -0.02   0.00    -0.01   0.01  -0.00    -0.00  -0.00   0.02
  71   8    -0.00  -0.07   0.08     0.03  -0.11   0.03     0.03  -0.04   0.05
  72   1    -0.00  -0.02   0.02     0.00  -0.02   0.01     0.01  -0.01   0.01
  73   1    -0.01  -0.01   0.03     0.01  -0.03   0.00     0.01   0.00   0.02
  74   8     0.05  -0.01  -0.03     0.06  -0.05   0.01     0.00   0.06   0.08
  75   1     0.01   0.00  -0.00     0.01  -0.01  -0.01    -0.01   0.03   0.03
  76   1     0.01  -0.01  -0.01     0.01  -0.01   0.01    -0.00   0.00   0.01
  77   8     0.05   0.11  -0.12    -0.04  -0.01   0.01    -0.00   0.04  -0.04
  78   1     0.01   0.02  -0.04    -0.01  -0.00   0.00     0.00   0.01  -0.01
  79   1     0.03   0.02  -0.02    -0.01  -0.00   0.00     0.00   0.01  -0.01
  80   8    -0.02   0.04  -0.02    -0.05   0.08  -0.03    -0.03  -0.05   0.01
  81   1    -0.00   0.01  -0.01    -0.01   0.02  -0.01    -0.01  -0.02   0.01
  82   1    -0.00   0.01  -0.00    -0.01   0.02  -0.01    -0.01  -0.01  -0.00
  83   8     0.04  -0.02   0.04     0.00   0.04   0.06    -0.02  -0.01   0.03
  84   1     0.01  -0.00   0.01    -0.00   0.01   0.01    -0.01  -0.00   0.00
  85   1     0.01  -0.00   0.01    -0.00   0.01   0.02    -0.01  -0.00   0.01
  86   8     0.04  -0.02   0.01     0.02   0.04  -0.02     0.01  -0.01   0.04
  87   1    -0.01  -0.00  -0.00     0.01   0.01   0.00    -0.00  -0.00   0.01
  88   1     0.01  -0.01   0.01     0.00   0.01  -0.00     0.00  -0.00   0.01
  89   8     0.02   0.00   0.02    -0.02   0.07  -0.02    -0.02  -0.01  -0.03
  90   1     0.00   0.00   0.00    -0.01   0.02  -0.01    -0.01  -0.00  -0.01
  91   1     0.00   0.00   0.01    -0.00   0.02  -0.00    -0.01  -0.00  -0.01
  92   8     0.00   0.01   0.08     0.03   0.02  -0.18    -0.01   0.05  -0.00
  93   1     0.01   0.00   0.02     0.01   0.00  -0.05    -0.00   0.01  -0.00
  94   1    -0.00   0.01   0.02     0.01   0.01  -0.04    -0.00   0.01   0.00
  95   8     0.05   0.02  -0.06     0.01  -0.03  -0.03    -0.03  -0.03   0.06
  96   1     0.01  -0.00  -0.02     0.00  -0.01  -0.01    -0.01  -0.02   0.02
  97   1     0.01   0.01   0.01     0.00  -0.01  -0.00     0.00  -0.01   0.02
  98   8     0.02   0.02  -0.01    -0.04  -0.00   0.06    -0.04   0.07  -0.11
  99   1     0.01   0.00  -0.00    -0.01   0.00   0.01    -0.00   0.02  -0.02
 100   1     0.01   0.01  -0.00    -0.01  -0.01   0.01    -0.00   0.02  -0.04
 101   8     0.03   0.04  -0.10     0.02  -0.00   0.03     0.00   0.00  -0.00
 102   1     0.01   0.01  -0.03     0.01   0.00   0.01     0.00  -0.00  -0.00
 103   1     0.01   0.01  -0.03     0.00  -0.00   0.00     0.00   0.00  -0.00
 104   8    -0.02  -0.01  -0.02    -0.08   0.08   0.00    -0.02  -0.01  -0.02
 105   1    -0.01  -0.00  -0.01    -0.02   0.02  -0.00    -0.00  -0.00  -0.00
 106   1    -0.00   0.00  -0.01    -0.01   0.02   0.00    -0.01  -0.00  -0.00
 107   8    -0.03   0.01   0.08    -0.02  -0.03  -0.10    -0.04   0.04   0.03
 108   1    -0.01   0.00   0.02     0.00  -0.01  -0.03    -0.01   0.00   0.01
 109   1    -0.01   0.00   0.02    -0.00  -0.00  -0.03    -0.01   0.01   0.00
 110   8     0.02  -0.02  -0.06     0.00   0.07   0.01    -0.06   0.03   0.04
 111   1     0.01  -0.01  -0.01    -0.00   0.02   0.00    -0.01   0.00   0.01
 112   1     0.02  -0.01  -0.01     0.00   0.02   0.00    -0.01   0.01   0.01
 113   8     0.03  -0.04  -0.03    -0.05   0.00   0.06     0.27  -0.08  -0.10
 114   1     0.01  -0.01  -0.01    -0.01   0.01   0.01     0.07  -0.02  -0.03
 115   1     0.01  -0.01  -0.01    -0.02   0.00   0.02     0.07  -0.03  -0.02
 116   8    -0.04  -0.03  -0.01     0.05  -0.03  -0.02    -0.03  -0.07   0.01
 117   1    -0.02  -0.01  -0.01     0.02  -0.01   0.00    -0.01  -0.01   0.00
 118   1     0.00  -0.01  -0.01     0.00  -0.00   0.00    -0.01  -0.01   0.00
 119   8    -0.25   0.23   0.05    -0.06  -0.10   0.10     0.23   0.23  -0.20
 120   1    -0.05   0.07   0.03    -0.01  -0.02   0.03     0.06   0.06  -0.06
 121   1    -0.07   0.06   0.01    -0.02  -0.03   0.02     0.07   0.06  -0.04
 122   8    -0.23  -0.10   0.02    -0.07  -0.02   0.06     0.27  -0.04  -0.03
 123   1    -0.05  -0.02  -0.00    -0.00  -0.01   0.01     0.04  -0.01   0.00
 124   1    -0.06  -0.03   0.01    -0.02  -0.01   0.01     0.08   0.00  -0.00
 125   8     0.14  -0.21   0.14    -0.02  -0.03  -0.01    -0.04   0.02  -0.04
 126   1     0.04  -0.06   0.04    -0.00  -0.01  -0.00    -0.01   0.01  -0.01
 127   1     0.03  -0.05   0.02    -0.00  -0.01  -0.00    -0.01   0.01  -0.01
 128   8    -0.02   0.16   0.04     0.13  -0.12  -0.02     0.04   0.20   0.08
 129   1    -0.01   0.04   0.01     0.04  -0.03  -0.00     0.01   0.05   0.02
 130   1    -0.00   0.04   0.01     0.03  -0.03  -0.01     0.01   0.05   0.03
 131   8    -0.11  -0.03   0.03    -0.01  -0.03   0.01     0.00  -0.05   0.10
 132   1    -0.03  -0.01   0.01    -0.00   0.00   0.00     0.00  -0.01   0.03
 133   1    -0.03  -0.01   0.01    -0.01  -0.01  -0.00    -0.00  -0.01   0.02
 134   8    -0.00  -0.08   0.06    -0.01  -0.06   0.04     0.01  -0.04  -0.01
 135   1     0.00  -0.02   0.03    -0.01  -0.01  -0.00     0.00  -0.01  -0.00
 136   1    -0.01  -0.01   0.00     0.00  -0.02   0.02    -0.00  -0.01  -0.01
 137   8     0.10  -0.06  -0.04     0.18  -0.08   0.02     0.09   0.02   0.08
 138   1     0.03  -0.02  -0.01     0.05  -0.02   0.01     0.03   0.00   0.02
 139   1     0.02  -0.01  -0.01     0.03  -0.02   0.00     0.01   0.01   0.02
 140   8     0.23   0.02  -0.01    -0.04   0.00  -0.00     0.01   0.08  -0.08
 141   1     0.07  -0.02   0.01    -0.01  -0.00   0.00     0.01   0.01  -0.02
 142   1     0.05   0.02  -0.01    -0.01   0.00  -0.00    -0.00   0.03  -0.03
 143   8     0.01   0.04  -0.04    -0.04   0.04  -0.02    -0.04  -0.09   0.03
 144   1     0.00   0.01  -0.01    -0.01   0.01  -0.01    -0.02  -0.03   0.01
 145   1     0.00   0.01  -0.01    -0.01   0.01  -0.00    -0.01  -0.02   0.00
 146   8    -0.02  -0.06  -0.01     0.06   0.04   0.07    -0.02   0.00   0.05
 147   1     0.00  -0.01   0.00     0.01   0.01   0.02    -0.00  -0.00   0.01
 148   1    -0.01  -0.02   0.00     0.01   0.01   0.02    -0.00   0.00   0.01
 149   8     0.04  -0.13   0.07    -0.01  -0.02   0.00    -0.01  -0.03   0.03
 150   1     0.01  -0.04   0.03    -0.01  -0.01   0.00    -0.00  -0.01   0.01
 151   1     0.01  -0.04   0.01    -0.00  -0.01  -0.00    -0.00  -0.01   0.01
 152   8     0.02  -0.00   0.05    -0.02   0.10  -0.06    -0.02  -0.00  -0.03
 153   1     0.01   0.01   0.01    -0.00   0.02  -0.01    -0.00  -0.00  -0.01
 154   1     0.01  -0.00   0.01    -0.01   0.02  -0.01    -0.01  -0.00  -0.01
 155   8    -0.01   0.04   0.04     0.03  -0.00  -0.16    -0.01  -0.01   0.04
 156   1    -0.00   0.01   0.01     0.00   0.00  -0.04    -0.01  -0.00   0.01
 157   1    -0.01   0.01   0.01     0.02  -0.01  -0.04     0.01  -0.01   0.01
 158   8     0.04  -0.00  -0.05     0.03  -0.03  -0.10    -0.05  -0.11   0.07
 159   1     0.01  -0.00  -0.01     0.00  -0.01  -0.02    -0.01  -0.03   0.02
 160   1     0.01   0.00  -0.01     0.01  -0.01  -0.02    -0.01  -0.03   0.02
 161   8     0.01   0.01  -0.02     0.00   0.01   0.07    -0.01   0.10  -0.05
 162   1    -0.00  -0.00  -0.01     0.00   0.00   0.02    -0.00   0.03  -0.01
 163   1     0.00   0.00  -0.00    -0.00   0.00   0.02    -0.01   0.02  -0.02
 164   8     0.06   0.08  -0.12    -0.02  -0.02   0.01     0.02   0.02  -0.02
 165   1     0.01   0.02  -0.03    -0.00  -0.01   0.01     0.01   0.01  -0.00
 166   1     0.01   0.03  -0.03    -0.01  -0.01   0.00     0.00   0.01  -0.01
 167   8    -0.03  -0.00  -0.03    -0.08   0.10  -0.02    -0.01   0.00   0.01
 168   1    -0.00  -0.00  -0.00    -0.02   0.03  -0.01     0.00   0.00   0.00
 169   1    -0.01   0.00  -0.01    -0.02   0.02  -0.00    -0.00  -0.00   0.00
 170   8     0.01  -0.12   0.20     0.02  -0.29   0.26     0.04  -0.15   0.06
 171   1    -0.00  -0.03   0.04    -0.01  -0.08   0.06     0.01  -0.04   0.01
 172   1     0.00  -0.03   0.05     0.01  -0.08   0.06     0.01  -0.03   0.02
 173   8    -0.04   0.04   0.13     0.25  -0.11   0.04     0.08  -0.04   0.09
 174   1    -0.01   0.01   0.03     0.06  -0.03   0.01     0.02  -0.01   0.02
 175   1    -0.01   0.00   0.04     0.06  -0.03   0.01     0.02  -0.01   0.02
 176   8     0.01  -0.01   0.02     0.03  -0.01   0.07    -0.01   0.00  -0.01
 177   1     0.00  -0.00   0.01     0.01  -0.00   0.02    -0.00   0.00  -0.00
 178   1     0.00  -0.01   0.00     0.01   0.00   0.02     0.00  -0.00  -0.01
 179   8    -0.15  -0.04   0.03     0.34  -0.00  -0.25     0.10  -0.03  -0.08
 180   1    -0.03  -0.00   0.00     0.07  -0.02  -0.06     0.02  -0.01  -0.02
 181   1    -0.03  -0.00   0.00     0.08  -0.01  -0.06     0.03  -0.01  -0.02
 182   8     0.02  -0.17  -0.04    -0.05  -0.05  -0.12    -0.06   0.15   0.01
 183   1     0.01  -0.03   0.00    -0.01  -0.01  -0.03    -0.01   0.03  -0.01
 184   1     0.00  -0.05  -0.02    -0.01  -0.01  -0.01    -0.01   0.04   0.02
 185   8     0.03   0.03  -0.02    -0.02  -0.08   0.04     0.09   0.11  -0.23
 186   1     0.00   0.01  -0.00    -0.01  -0.02   0.01     0.03   0.03  -0.05
 187   1     0.01   0.01  -0.01     0.00  -0.02   0.01     0.03   0.03  -0.06
 188   8     0.11  -0.02  -0.01     0.02   0.07   0.03     0.02   0.03   0.09
 189   1     0.02  -0.01   0.00     0.01   0.02   0.01     0.00   0.00   0.03
 190   1     0.03  -0.00   0.00     0.00   0.02   0.01     0.01   0.01   0.03
 191   8     0.02  -0.06  -0.01    -0.04   0.08  -0.02     0.26  -0.12  -0.10
 192   1     0.00  -0.01  -0.00    -0.01   0.02  -0.01     0.06  -0.03  -0.02
 193   1     0.01  -0.02  -0.01    -0.02   0.02  -0.00     0.07  -0.03  -0.02
 194   8    -0.03  -0.00   0.08     0.04  -0.07  -0.11    -0.04  -0.04   0.01
 195   1    -0.01  -0.00   0.01     0.01  -0.02  -0.02    -0.01  -0.02   0.00
 196   1    -0.01  -0.00   0.02     0.01  -0.02  -0.03    -0.01  -0.00   0.01
 197   8    -0.06   0.00  -0.07     0.07   0.07  -0.00     0.01   0.04   0.02
 198   1    -0.01   0.00  -0.02     0.01   0.02   0.00    -0.00   0.01   0.01
 199   1    -0.02  -0.00  -0.02     0.01   0.02   0.00     0.01   0.01   0.01
                     10                     11                     12
                        a                      a                      a 
 Frequencies --    21.6591                22.0947                22.4950
 Red. masses --    14.8365                14.8363                14.6334
 Frc consts  --     0.0000                 0.0000                 0.0000
 IR Inten    --     2.6548                 3.6396                 2.3867
 Raman Activ --     0.0000                 0.0000                 0.0000
 Depolar     --     0.0000                 0.0000                 0.0000
 Atom AN      X      Y      Z        X      Y      Z        X      Y      Z
   1  26     0.03   0.00  -0.10     0.11  -0.03  -0.02    -0.06  -0.04  -0.03
   2   8     0.02   0.02  -0.04     0.05   0.01  -0.03    -0.02  -0.06  -0.01
   3   8    -0.00   0.01  -0.04     0.05  -0.04   0.01    -0.07   0.01   0.01
   4   8     0.03  -0.01  -0.03     0.06  -0.03  -0.01    -0.03  -0.02  -0.01
   5   8     0.04   0.00  -0.06     0.07  -0.01  -0.01    -0.04  -0.03  -0.02
   6   8     0.01  -0.00  -0.06     0.06  -0.02   0.01    -0.05  -0.03  -0.00
   7   8     0.00   0.01  -0.04     0.04  -0.02  -0.01    -0.02  -0.01   0.00
   8   1     0.00   0.00  -0.01     0.02  -0.00  -0.00    -0.01  -0.01   0.00
   9   1     0.00   0.00  -0.01     0.02  -0.00   0.01    -0.01  -0.01  -0.00
  10   1    -0.00   0.00  -0.01     0.01  -0.00  -0.00    -0.01   0.00   0.00
  11   1     0.00  -0.00  -0.01     0.01  -0.01  -0.00    -0.00  -0.00   0.00
  12   1     0.01   0.01  -0.01     0.02   0.00  -0.01    -0.01  -0.02  -0.00
  13   1     0.00   0.01  -0.01     0.01   0.01  -0.01    -0.00  -0.01  -0.01
  14   1     0.01  -0.00  -0.00     0.01  -0.01   0.00    -0.01  -0.00   0.00
  15   1     0.01  -0.00  -0.00     0.02  -0.01  -0.00    -0.01  -0.00   0.00
  16   1     0.00   0.00  -0.01     0.01  -0.01   0.01    -0.02   0.00   0.00
  17   1    -0.00   0.00  -0.01     0.01  -0.01   0.00    -0.02   0.01   0.00
  18   1     0.01   0.00  -0.01     0.02   0.00  -0.01    -0.01  -0.00  -0.00
  19   1     0.01   0.00  -0.02     0.02  -0.00  -0.00    -0.01  -0.01  -0.00
  20   8     0.01   0.03  -0.06     0.08   0.05  -0.05    -0.02  -0.09   0.03
  21   8     0.02  -0.01  -0.01     0.04  -0.04  -0.01    -0.01   0.00   0.02
  22   8     0.04   0.00  -0.06     0.06   0.04  -0.07    -0.05  -0.01  -0.01
  23   8    -0.00   0.00  -0.03     0.03  -0.01  -0.01     0.01  -0.03  -0.02
  24   8     0.02   0.01  -0.07     0.07   0.03  -0.06    -0.05  -0.05   0.03
  25   8     0.00   0.03  -0.03     0.05   0.05  -0.06     0.01  -0.05  -0.04
  26   8    -0.02   0.01  -0.01     0.05  -0.01  -0.02    -0.05   0.04   0.03
  27   8    -0.00  -0.01   0.01     0.08  -0.04  -0.01    -0.06   0.02   0.03
  28   8     0.02   0.00  -0.05     0.03  -0.01   0.06    -0.07   0.03   0.03
  29   8     0.01   0.02  -0.05     0.07  -0.01   0.02    -0.03  -0.03   0.01
  30   8     0.02  -0.01   0.01     0.03  -0.01   0.02    -0.08   0.02   0.03
  31   8     0.01  -0.03   0.01     0.03  -0.04   0.01     0.02  -0.05   0.01
  32   1     0.00   0.00  -0.01     0.01   0.01  -0.02    -0.00  -0.01  -0.01
  33   1    -0.00   0.01  -0.00     0.01   0.01  -0.01     0.00  -0.01  -0.01
  34   1     0.00   0.01  -0.01     0.02   0.01  -0.01     0.00  -0.02   0.01
  35   1     0.03  -0.02   0.01    -0.09   0.00   0.01     0.03   0.02   0.00
  36   1     0.00  -0.00  -0.02     0.02   0.01  -0.01    -0.01  -0.01   0.01
  37   1     0.00   0.01  -0.02     0.02   0.01  -0.01    -0.01  -0.02   0.01
  38   1    -0.00   0.00  -0.01     0.01  -0.00   0.01     0.00  -0.01  -0.00
  39   1     0.00   0.00  -0.01     0.02  -0.00   0.00    -0.01  -0.01  -0.00
  40   1     0.01  -0.00  -0.01     0.01   0.01  -0.02    -0.01   0.00  -0.00
  41   1     0.01   0.00  -0.02     0.02   0.01  -0.02    -0.01  -0.01   0.00
  42   1    -0.00   0.00  -0.01     0.01   0.00  -0.01     0.00  -0.01  -0.01
  43   1     0.00   0.00  -0.01     0.00  -0.00  -0.00    -0.00  -0.01  -0.00
  44   1     0.01  -0.01  -0.00     0.01  -0.01   0.00     0.01  -0.01   0.00
  45   1     0.00  -0.00  -0.00     0.01  -0.01   0.00     0.00  -0.01   0.00
  46   1     0.01  -0.00   0.01     0.00  -0.00  -0.00    -0.02   0.00   0.01
  47   1     0.00  -0.00  -0.00     0.01  -0.00   0.01    -0.02   0.00   0.01
  48   1     0.01   0.00  -0.01     0.00  -0.00   0.02    -0.02   0.01   0.00
  49   1     0.00   0.00  -0.01     0.01  -0.00   0.01    -0.02   0.00   0.01
  50   1     0.00  -0.00   0.00     0.02  -0.01   0.00    -0.02   0.01   0.01
  51   1     0.00  -0.00   0.00     0.02  -0.01  -0.00    -0.01   0.00   0.01
  52   1    -0.00   0.00  -0.00     0.00   0.00  -0.01    -0.01   0.01   0.01
  53   1    -0.00   0.00  -0.00     0.01  -0.01  -0.00    -0.01   0.01   0.01
  54   1     0.01   0.00   0.00     0.01  -0.01  -0.00    -0.00   0.00   0.01
  55   1     0.00  -0.00   0.00     0.01  -0.01  -0.00     0.00  -0.00   0.01
  56   8     0.00  -0.01   0.01    -0.07   0.04  -0.07     0.01   0.06   0.02
  57   1     0.00  -0.00   0.00    -0.02   0.02  -0.02    -0.00   0.01   0.01
  58   1     0.01   0.00   0.00    -0.03   0.00  -0.02     0.00   0.01   0.01
  59   8     0.05  -0.01  -0.02    -0.06  -0.02  -0.04    -0.00   0.02   0.00
  60   1     0.01   0.00  -0.01    -0.01  -0.01  -0.01    -0.00   0.01   0.00
  61   1     0.02  -0.00  -0.01    -0.01  -0.01  -0.01     0.00   0.00  -0.00
  62   8    -0.04  -0.09  -0.07    -0.02   0.10   0.06     0.03   0.09   0.05
  63   1    -0.01  -0.02  -0.02     0.01   0.02   0.02     0.01   0.02   0.01
  64   1    -0.00  -0.03  -0.01    -0.02   0.02   0.00     0.01   0.02   0.01
  65   8     0.04   0.03   0.01     0.04  -0.02   0.00     0.00   0.04   0.04
  66   1     0.01   0.01   0.00     0.00  -0.01   0.00    -0.00   0.01   0.01
  67   1     0.00   0.01  -0.00     0.01  -0.00  -0.00    -0.00   0.01   0.01
  68   8    -0.04   0.01  -0.10     0.03   0.05  -0.11    -0.05  -0.10   0.01
  69   1    -0.00   0.01  -0.02     0.01   0.01  -0.02    -0.01  -0.03   0.00
  70   1    -0.01   0.00  -0.03     0.01   0.01  -0.03    -0.01  -0.03   0.01
  71   8     0.00  -0.00   0.09     0.01  -0.02   0.02    -0.04   0.13  -0.09
  72   1    -0.00  -0.00   0.02    -0.00  -0.00   0.01    -0.01   0.03  -0.02
  73   1     0.00   0.00   0.02     0.00  -0.00   0.01    -0.00   0.02  -0.03
  74   8     0.07  -0.00  -0.02     0.04   0.00  -0.01     0.01  -0.03  -0.03
  75   1     0.01   0.01  -0.01     0.01   0.01   0.00     0.00  -0.01  -0.01
  76   1     0.01  -0.00  -0.00     0.01  -0.01  -0.00     0.00  -0.01  -0.01
  77   8    -0.01   0.01  -0.04    -0.04  -0.08   0.13     0.10   0.01   0.01
  78   1    -0.00  -0.00  -0.02    -0.01  -0.02   0.04     0.02  -0.00  -0.00
  79   1     0.00  -0.00  -0.01    -0.02  -0.02   0.03     0.03  -0.00   0.01
  80   8     0.06  -0.05   0.04     0.06  -0.15   0.01    -0.00   0.04   0.03
  81   1     0.01  -0.02   0.02     0.02  -0.04   0.00    -0.00   0.01   0.01
  82   1     0.01  -0.01   0.00     0.01  -0.03   0.00    -0.00   0.01   0.01
  83   8     0.00   0.04  -0.03     0.07   0.05  -0.02     0.05  -0.11   0.03
  84   1     0.00   0.01  -0.01     0.02   0.01  -0.01     0.01  -0.02   0.00
  85   1     0.00   0.01  -0.01     0.02   0.02  -0.00     0.01  -0.03   0.01
  86   8     0.06  -0.00  -0.04    -0.03  -0.01   0.10    -0.06   0.05  -0.01
  87   1     0.00   0.00  -0.01    -0.00  -0.01   0.02     0.02   0.02   0.01
  88   1     0.01  -0.01  -0.01    -0.01   0.00   0.02    -0.01   0.01  -0.00
  89   8    -0.09  -0.04   0.07    -0.06  -0.04   0.02     0.04  -0.04  -0.03
  90   1    -0.01  -0.01   0.01    -0.01  -0.01   0.00     0.01  -0.01  -0.00
  91   1    -0.02  -0.00   0.02    -0.02  -0.01   0.00     0.01  -0.01  -0.01
  92   8    -0.02  -0.01  -0.02    -0.01   0.04  -0.01     0.02   0.07   0.03
  93   1    -0.00  -0.00  -0.00    -0.01   0.01  -0.01     0.01   0.02   0.02
  94   1    -0.01  -0.00  -0.01    -0.00   0.01  -0.00     0.00   0.02   0.01
  95   8     0.05  -0.01   0.11    -0.01   0.00  -0.04    -0.09   0.01   0.04
  96   1     0.01  -0.00   0.04    -0.00  -0.00  -0.01    -0.02   0.01   0.02
  97   1     0.02  -0.00   0.02    -0.00   0.00   0.01    -0.02  -0.00  -0.02
  98   8    -0.05  -0.01   0.04    -0.01   0.04  -0.04     0.03  -0.03  -0.07
  99   1    -0.01  -0.00   0.01    -0.00   0.01  -0.01     0.01  -0.01  -0.02
 100   1    -0.01  -0.00   0.01    -0.00   0.01  -0.01     0.01  -0.00  -0.02
 101   8    -0.03   0.01  -0.04    -0.01  -0.01   0.09     0.08   0.00  -0.00
 102   1    -0.01   0.00  -0.01     0.00   0.00   0.03     0.03   0.00   0.01
 103   1    -0.01   0.00  -0.01    -0.00  -0.01   0.02     0.02   0.00   0.00
 104   8     0.13  -0.07  -0.02     0.07  -0.06   0.00     0.01  -0.06   0.01
 105   1     0.04  -0.02   0.01     0.02  -0.02   0.00     0.01  -0.01   0.00
 106   1     0.02  -0.01  -0.01     0.02  -0.01  -0.00    -0.00  -0.01  -0.00
 107   8    -0.02  -0.02  -0.01    -0.01   0.05  -0.02    -0.03   0.08   0.00
 108   1    -0.01  -0.00  -0.01    -0.01   0.01  -0.01    -0.00   0.02   0.00
 109   1    -0.00  -0.01  -0.00    -0.00   0.01  -0.00    -0.00   0.02   0.00
 110   8    -0.06   0.03   0.03    -0.03  -0.03  -0.00     0.02  -0.14  -0.04
 111   1     0.00  -0.00   0.01    -0.01  -0.01  -0.00     0.00  -0.02  -0.01
 112   1    -0.00   0.01   0.02    -0.01  -0.01  -0.00     0.01  -0.04  -0.02
 113   8    -0.14  -0.01   0.05    -0.06   0.06  -0.03    -0.03   0.05  -0.09
 114   1    -0.03  -0.00   0.02    -0.02   0.01  -0.01    -0.01   0.01  -0.02
 115   1    -0.04   0.00   0.01    -0.01   0.01  -0.01    -0.01   0.01  -0.02
 116   8    -0.08   0.00  -0.01    -0.03   0.07   0.03     0.01   0.06  -0.01
 117   1    -0.02   0.00  -0.00    -0.00   0.02   0.01     0.00   0.01  -0.00
 118   1    -0.02   0.00  -0.01    -0.01   0.01   0.01     0.00   0.01  -0.00
 119   8     0.01   0.03   0.01    -0.09   0.21  -0.05    -0.05  -0.02   0.04
 120   1     0.01   0.01   0.01    -0.02   0.06   0.00    -0.01  -0.01   0.01
 121   1     0.00   0.01   0.00    -0.03   0.06  -0.01    -0.01  -0.01   0.01
 122   8     0.01   0.04  -0.03    -0.09   0.03  -0.07    -0.06   0.06  -0.00
 123   1     0.00   0.01  -0.01    -0.02   0.00  -0.02    -0.01   0.01  -0.00
 124   1     0.00   0.01  -0.01    -0.03   0.00  -0.02    -0.02   0.01  -0.00
 125   8     0.01  -0.12  -0.01    -0.16   0.11  -0.06     0.00   0.03   0.07
 126   1     0.00  -0.03  -0.00    -0.04   0.03  -0.02     0.00   0.00   0.01
 127   1     0.00  -0.03  -0.00    -0.03   0.02  -0.00    -0.00   0.01   0.02
 128   8     0.12   0.02   0.04     0.02   0.15   0.06    -0.02  -0.03   0.01
 129   1     0.03   0.00   0.01     0.01   0.04   0.01    -0.00  -0.01   0.00
 130   1     0.03  -0.00   0.00     0.00   0.04   0.01    -0.00  -0.01  -0.00
 131   8    -0.06  -0.04  -0.07     0.02   0.02  -0.10    -0.02   0.01  -0.04
 132   1    -0.01  -0.00  -0.02     0.01   0.01  -0.02    -0.01  -0.01  -0.01
 133   1    -0.02  -0.01  -0.02     0.01   0.00  -0.03     0.00   0.01  -0.01
 134   8    -0.01  -0.01   0.04    -0.02   0.00   0.03     0.01   0.09  -0.07
 135   1    -0.00  -0.00   0.01    -0.01   0.00  -0.00     0.01   0.02  -0.00
 136   1    -0.01   0.00   0.00    -0.00  -0.00   0.01    -0.00   0.02  -0.01
 137   8     0.23  -0.03   0.00     0.14  -0.03   0.00    -0.03   0.02  -0.02
 138   1     0.06  -0.01   0.01     0.04  -0.01   0.00    -0.01   0.01  -0.00
 139   1     0.04  -0.00  -0.00     0.02  -0.00  -0.00    -0.00   0.00  -0.01
 140   8     0.03  -0.03   0.01    -0.20  -0.05   0.08     0.18  -0.04   0.09
 141   1     0.01  -0.01   0.00    -0.06   0.01   0.01     0.04   0.00   0.01
 142   1     0.01  -0.01   0.00    -0.05  -0.03   0.03     0.05  -0.02   0.03
 143   8    -0.01  -0.06   0.08     0.05  -0.12  -0.01    -0.05   0.05   0.05
 144   1    -0.01  -0.01   0.03     0.01  -0.03   0.00    -0.01   0.01   0.01
 145   1    -0.00  -0.01   0.01     0.02  -0.02  -0.00    -0.01   0.01   0.01
 146   8     0.05   0.04  -0.01     0.03   0.04  -0.05     0.02  -0.11   0.02
 147   1     0.01   0.01  -0.00     0.01   0.01  -0.01     0.01  -0.03   0.01
 148   1     0.02   0.01  -0.00     0.00   0.01  -0.01     0.00  -0.03   0.01
 149   8    -0.03  -0.08  -0.04    -0.04   0.08   0.03     0.06   0.07   0.04
 150   1    -0.02  -0.01  -0.01    -0.01   0.02   0.00     0.02   0.01   0.01
 151   1    -0.01  -0.02  -0.02    -0.01   0.02   0.01     0.01   0.02   0.01
 152   8    -0.10  -0.07   0.07    -0.09  -0.12   0.03     0.06  -0.01  -0.00
 153   1    -0.03  -0.02   0.02    -0.02  -0.04   0.01     0.01   0.01  -0.00
 154   1    -0.02  -0.02   0.02    -0.02  -0.02   0.01     0.01  -0.01  -0.00
 155   8    -0.03   0.04  -0.06    -0.03   0.03  -0.05     0.03   0.08   0.03
 156   1    -0.00   0.01  -0.02    -0.01   0.01  -0.01     0.01   0.02   0.01
 157   1    -0.01   0.02  -0.02    -0.01   0.01  -0.01     0.01   0.02   0.01
 158   8     0.02  -0.05   0.17    -0.02  -0.03  -0.05    -0.10   0.06   0.08
 159   1     0.00  -0.01   0.04    -0.01  -0.01  -0.01    -0.02   0.02   0.02
 160   1     0.01  -0.02   0.04    -0.01  -0.01  -0.01    -0.02   0.01   0.02
 161   8    -0.10  -0.01   0.04    -0.06   0.04  -0.04     0.03  -0.04  -0.08
 162   1    -0.02   0.00   0.01    -0.01   0.01  -0.01     0.01  -0.01  -0.02
 163   1    -0.02  -0.00   0.01    -0.01   0.01  -0.01     0.01  -0.01  -0.02
 164   8    -0.01   0.02  -0.04    -0.03  -0.05   0.13     0.10   0.01   0.01
 165   1     0.00   0.00  -0.01    -0.01  -0.01   0.04     0.02   0.01  -0.00
 166   1    -0.00   0.01  -0.01    -0.01  -0.02   0.03     0.03   0.00   0.00
 167   8     0.14  -0.09  -0.00     0.06  -0.16   0.01     0.03   0.02   0.01
 168   1     0.02  -0.03   0.01     0.01  -0.04   0.00     0.01   0.01   0.00
 169   1     0.03  -0.02   0.00     0.02  -0.04   0.00     0.01   0.01   0.00
 170   8    -0.06   0.09  -0.01     0.01  -0.20   0.27     0.03  -0.16   0.29
 171   1    -0.02   0.02   0.00    -0.01  -0.06   0.06    -0.01  -0.04   0.06
 172   1    -0.02   0.02  -0.00     0.00  -0.06   0.06     0.01  -0.04   0.07
 173   8     0.20  -0.06   0.07    -0.20   0.08   0.06     0.11  -0.16  -0.27
 174   1     0.05  -0.02   0.02    -0.05   0.02   0.01     0.03  -0.04  -0.07
 175   1     0.05  -0.02   0.02    -0.05   0.02   0.02     0.03  -0.03  -0.08
 176   8    -0.12  -0.02   0.05    -0.11   0.04  -0.07    -0.01   0.03  -0.14
 177   1    -0.03  -0.00   0.01    -0.02   0.01  -0.02    -0.00   0.01  -0.04
 178   1    -0.03  -0.01   0.01    -0.03   0.01  -0.02    -0.00   0.00  -0.04
 179   8    -0.11  -0.03  -0.00     0.13   0.13   0.04     0.16   0.15   0.05
 180   1    -0.02  -0.00  -0.00     0.02   0.02   0.01     0.03   0.03   0.02
 181   1    -0.02  -0.00  -0.00     0.03   0.02   0.02     0.02   0.02   0.02
 182   8     0.02   0.52   0.10    -0.04  -0.13  -0.06     0.07   0.25   0.14
 183   1    -0.01   0.12  -0.01    -0.01  -0.03  -0.01     0.01   0.05   0.01
 184   1     0.01   0.13   0.02    -0.01  -0.03  -0.01     0.02   0.06   0.03
 185   8    -0.10  -0.02   0.09    -0.02   0.06  -0.03     0.01   0.05  -0.05
 186   1    -0.03  -0.01   0.02    -0.01   0.02  -0.01    -0.00   0.02  -0.01
 187   1    -0.03  -0.01   0.03    -0.01   0.01  -0.01    -0.00   0.02  -0.02
 188   8     0.04   0.02   0.12    -0.06  -0.03   0.02     0.03  -0.14  -0.20
 189   1     0.01   0.00   0.03    -0.02  -0.01   0.01     0.01  -0.03  -0.06
 190   1     0.01   0.01   0.03    -0.02  -0.01   0.01     0.00  -0.04  -0.06
 191   8    -0.13  -0.00   0.10    -0.07  -0.01   0.03    -0.03  -0.01  -0.00
 192   1    -0.03  -0.00   0.02    -0.02  -0.00   0.01    -0.01   0.00   0.00
 193   1    -0.03   0.00   0.03    -0.01  -0.01   0.01    -0.00  -0.00  -0.00
 194   8    -0.08  -0.02  -0.03    -0.04   0.07  -0.02     0.00   0.11   0.02
 195   1    -0.02  -0.00  -0.01    -0.01   0.02  -0.00     0.00   0.02   0.00
 196   1    -0.02  -0.00  -0.01    -0.01   0.02  -0.01     0.00   0.03   0.01
 197   8    -0.10   0.04   0.02    -0.04  -0.06   0.03     0.00  -0.15  -0.02
 198   1    -0.02   0.01   0.00    -0.01  -0.01   0.01    -0.00  -0.04  -0.00
 199   1    -0.03  -0.00   0.01    -0.01  -0.01   0.01     0.01  -0.03  -0.02
                     13                     14                     15
                        a                      a                      a 
 Frequencies --    23.1647                23.9198                25.7071
[...]
 152   8     0.00   0.00   0.00    -0.00  -0.00  -0.00    -0.00  -0.00  -0.00
 153   1    -0.00  -0.00  -0.00     0.00   0.00   0.00     0.00   0.00   0.00
 154   1     0.00  -0.00  -0.00    -0.00   0.00   0.00     0.00  -0.00  -0.00
 155   8    -0.00   0.00   0.00     0.00  -0.00  -0.00     0.00   0.00  -0.00
 156   1    -0.00  -0.00  -0.00     0.00   0.00   0.00    -0.00  -0.00  -0.00
 157   1     0.00   0.00  -0.00    -0.00  -0.00   0.00    -0.00  -0.00   0.00
 158   8     0.00  -0.00   0.00    -0.00   0.00   0.00    -0.00   0.00  -0.00
 159   1    -0.00   0.00   0.00     0.00  -0.00  -0.00     0.00  -0.00  -0.00
 160   1    -0.00  -0.00  -0.01     0.00   0.00   0.00     0.00   0.00   0.00
 161   8    -0.00   0.00   0.00     0.00  -0.00  -0.00     0.00   0.00  -0.00
 162   1     0.00  -0.00  -0.00    -0.00   0.00   0.00    -0.00   0.00   0.00
 163   1    -0.00  -0.00   0.00     0.00   0.00  -0.00     0.00  -0.00   0.00
 164   8     0.00   0.00   0.00     0.00   0.00   0.00     0.00   0.00  -0.00
 165   1    -0.01  -0.02  -0.00    -0.00  -0.00  -0.00    -0.00  -0.00  -0.00
 166   1     0.00   0.00  -0.00     0.00   0.00  -0.00    -0.00  -0.00   0.00
 167   8    -0.00   0.00   0.00     0.00  -0.00  -0.00     0.01  -0.02  -0.01
 168   1     0.00  -0.00  -0.00    -0.00   0.00   0.00    -0.04   0.09   0.06
 169   1     0.00   0.00   0.00    -0.00  -0.00  -0.00    -0.00  -0.00  -0.01
 170   8    -0.00  -0.00   0.00    -0.00   0.00   0.00     0.00   0.00  -0.00
 171   1    -0.00   0.00   0.00     0.00  -0.00  -0.00    -0.00   0.00   0.00
 172   1     0.00   0.00  -0.00    -0.00  -0.00   0.00    -0.00  -0.00   0.00
 173   8     0.01  -0.00  -0.00     0.00   0.00   0.00     0.00  -0.00  -0.00
 174   1    -0.02   0.00  -0.00    -0.00   0.00  -0.00    -0.00   0.00  -0.00
 175   1    -0.00   0.01   0.01     0.00  -0.00  -0.00    -0.00   0.00   0.00
 176   8    -0.00  -0.00   0.00    -0.00   0.00  -0.00     0.00   0.00  -0.00
 177   1    -0.00   0.00  -0.00     0.00  -0.00   0.00    -0.00   0.00   0.00
 178   1     0.00   0.00  -0.00     0.00   0.00  -0.00    -0.00  -0.00   0.00
 179   8    -0.00   0.00  -0.00    -0.00   0.00   0.00     0.00  -0.00   0.00
 180   1     0.00  -0.00   0.00     0.00  -0.00   0.00    -0.00   0.00  -0.00
 181   1    -0.00   0.00   0.00     0.00  -0.00  -0.00    -0.00   0.00   0.00
 182   8     0.00  -0.00  -0.00     0.00   0.00  -0.00    -0.00  -0.00   0.00
 183   1    -0.00  -0.00   0.00    -0.00  -0.00   0.00     0.00   0.00  -0.00
 184   1    -0.00   0.00  -0.00     0.00  -0.00   0.00     0.00  -0.00   0.00
 185   8     0.00  -0.00   0.00    -0.00  -0.00  -0.00     0.00   0.00   0.00
 186   1     0.00   0.00  -0.00    -0.00  -0.00   0.00    -0.00  -0.00   0.00
 187   1    -0.00  -0.00  -0.00     0.00   0.00   0.00    -0.00  -0.00  -0.00
 188   8    -0.00  -0.00  -0.00     0.00   0.00  -0.00     0.00  -0.00   0.00
 189   1     0.01   0.00   0.01    -0.00  -0.00  -0.00    -0.00  -0.00  -0.00
 190   1    -0.00  -0.00   0.00    -0.00  -0.00   0.00     0.00   0.00  -0.00
 191   8    -0.00  -0.00   0.00     0.00   0.00  -0.00     0.00   0.00   0.00
 192   1    -0.00   0.00  -0.00     0.00  -0.00   0.00    -0.00   0.00  -0.00
 193   1     0.00   0.00  -0.00    -0.00  -0.00   0.00    -0.00  -0.00   0.00
 194   8     0.00  -0.00   0.00    -0.00   0.00  -0.00     0.00  -0.00   0.00
 195   1     0.00   0.00  -0.00    -0.00   0.00  -0.00    -0.00  -0.00   0.00
 196   1    -0.00   0.00  -0.00     0.00  -0.00   0.00    -0.00   0.00  -0.00
 197   8     0.00  -0.00  -0.00     0.00  -0.00  -0.00     0.00   0.00   0.00
 198   1     0.00   0.00   0.00     0.00   0.00   0.00    -0.00  -0.00  -0.00
 199   1    -0.00   0.00  -0.00    -0.00   0.00  -0.00    -0.00   0.00  -0.00
                    589                    590                    591
                        a                      a                      a 
 Frequencies --  3657.4935              3678.9982              3715.1241
 Red. masses --     1.8346                 1.8459                 1.8898
 Frc consts  --     0.0000                 0.0000                 0.0000
 IR Inten    --    55.0626                52.0706                 8.1440
 Raman Activ --     0.0000                 0.0000                 0.0000
 Depolar     --     0.0000                 0.0000                 0.0000
 Atom AN      X      Y      Z        X      Y      Z        X      Y      Z
   1  26    -0.00  -0.00   0.00    -0.00   0.00  -0.00     0.00  -0.00   0.00
   2   8     0.00   0.00   0.00     0.00   0.00   0.00     0.00   0.00   0.00
   3   8     0.00   0.00  -0.00     0.00  -0.00   0.00    -0.00  -0.00  -0.00
   4   8    -0.00   0.00  -0.00     0.00  -0.00   0.00    -0.00  -0.00   0.00
   5   8     0.00  -0.00  -0.00     0.00   0.00   0.00     0.00   0.00   0.00
   6   8     0.00   0.00  -0.00     0.00  -0.00   0.00    -0.00  -0.00   0.00
   7   8     0.00  -0.00  -0.00     0.00  -0.00  -0.00    -0.00   0.00  -0.00
   8   1    -0.00   0.00  -0.00    -0.00   0.00  -0.00     0.00   0.00   0.00
   9   1    -0.00  -0.00   0.00     0.00   0.00  -0.00     0.00   0.00  -0.00
  10   1     0.00   0.00   0.00     0.00   0.00   0.00     0.00  -0.00  -0.00
  11   1    -0.00  -0.00   0.00    -0.00   0.00   0.00     0.00  -0.00  -0.00
  12   1     0.00  -0.00  -0.00    -0.00   0.00   0.00    -0.00   0.00   0.00
  13   1    -0.00  -0.00  -0.00    -0.00  -0.00  -0.00    -0.00  -0.00  -0.00
  14   1    -0.00   0.00   0.00     0.00   0.00  -0.00     0.00   0.00  -0.00
  15   1     0.00  -0.00   0.00    -0.00   0.00  -0.00    -0.00   0.00  -0.00
  16   1    -0.00  -0.00   0.00     0.00   0.00  -0.00     0.00   0.00  -0.00
  17   1    -0.00   0.00   0.00    -0.00   0.00  -0.00     0.00  -0.00   0.00
  18   1    -0.00  -0.00  -0.00    -0.00   0.00  -0.00    -0.00  -0.00  -0.00
  19   1    -0.00   0.00   0.00     0.00  -0.00  -0.00     0.00  -0.00  -0.00
  20   8     0.00   0.00   0.00     0.00   0.00  -0.00     0.00  -0.00   0.00
  21   8     0.00   0.00  -0.00    -0.00   0.00  -0.00    -0.00   0.00   0.00
  22   8     0.00   0.00   0.00     0.00  -0.00   0.00     0.00  -0.00   0.00
  23   8     0.00   0.00  -0.00     0.00  -0.00   0.00    -0.00   0.00  -0.00
  24   8    -0.00   0.00  -0.00     0.00  -0.00   0.00    -0.16   0.14  -0.11
  25   8     0.00   0.00   0.00     0.00   0.00   0.00     0.00  -0.00   0.00
  26   8     0.00   0.00  -0.00    -0.00   0.00  -0.00    -0.00   0.00  -0.00
  27   8     0.00   0.00  -0.00    -0.00  -0.00  -0.00    -0.00  -0.00  -0.00
  28   8     0.00  -0.00  -0.00    -0.00  -0.00  -0.00     0.00  -0.00   0.00
  29   8     0.00  -0.00   0.00    -0.00  -0.00  -0.00     0.00  -0.00   0.00
  30   8    -0.00  -0.00  -0.00    -0.00  -0.00   0.00    -0.00  -0.00   0.00
  31   8    -0.00   0.00  -0.00     0.00   0.00   0.00    -0.00   0.00   0.00
  32   1    -0.00  -0.00   0.00    -0.00  -0.00   0.00    -0.00   0.00  -0.00
  33   1    -0.00  -0.00  -0.00    -0.00  -0.00  -0.00    -0.00  -0.00  -0.00
  34   1    -0.00  -0.00  -0.00    -0.00  -0.00  -0.00    -0.00  -0.00  -0.00
  35   1    -0.00  -0.00  -0.00     0.00  -0.00   0.00     0.00  -0.00   0.00
  36   1     0.00  -0.00   0.00    -0.00   0.00  -0.00     0.65  -0.57   0.45
  37   1    -0.00   0.00   0.00    -0.00   0.00   0.00    -0.00   0.00  -0.00
  38   1    -0.00   0.00  -0.00     0.00  -0.00   0.00    -0.00   0.00  -0.00
  39   1    -0.00  -0.00  -0.00     0.00   0.00  -0.00     0.00   0.00  -0.00
  40   1    -0.00   0.00  -0.00    -0.00   0.00  -0.00     0.00   0.00   0.00
  41   1    -0.00  -0.00  -0.00    -0.00   0.00  -0.00    -0.00   0.00  -0.00
  42   1    -0.00  -0.00  -0.00    -0.00  -0.00  -0.00    -0.00  -0.00  -0.00
  43   1     0.00  -0.00   0.00    -0.00   0.00  -0.00     0.00  -0.00   0.00
  44   1    -0.00  -0.00   0.00    -0.00   0.00  -0.00     0.00   0.00  -0.00
  45   1     0.00  -0.00  -0.00    -0.00  -0.00  -0.00     0.00  -0.00  -0.00
  46   1     0.00   0.00  -0.00     0.00   0.00  -0.00     0.00   0.00  -0.00
  47   1    -0.00   0.00   0.00     0.00   0.00  -0.00     0.00   0.00   0.00
  48   1     0.00   0.00   0.00     0.00   0.00   0.00     0.00   0.00   0.00
  49   1    -0.00   0.00  -0.00     0.00   0.00   0.00    -0.00   0.00  -0.00
  50   1     0.00  -0.00   0.00     0.00   0.00  -0.00     0.00   0.00  -0.00
  51   1    -0.00  -0.00   0.00     0.00   0.00   0.00     0.00   0.00   0.00
  52   1    -0.00   0.00   0.00    -0.00   0.00   0.00     0.00  -0.00   0.00
  53   1    -0.00  -0.00   0.00     0.00   0.00  -0.00     0.00  -0.00   0.00
  54   1     0.00  -0.00   0.00     0.00  -0.01   0.01     0.00  -0.00  -0.00
  55   1    -0.00  -0.00  -0.00    -0.00  -0.00  -0.00     0.00  -0.00  -0.00
  56   8     0.00  -0.00  -0.00    -0.00  -0.00  -0.00    -0.00   0.00  -0.00
  57   1     0.00  -0.00   0.00     0.00  -0.00   0.00     0.00   0.00   0.00
  58   1    -0.00   0.00   0.00    -0.00   0.00   0.00     0.00  -0.00  -0.00
  59   8     0.00   0.00  -0.00     0.00   0.00  -0.00     0.00   0.00  -0.00
  60   1    -0.00  -0.00   0.00    -0.00  -0.00   0.00    -0.00  -0.00   0.00
  61   1    -0.00  -0.00   0.00    -0.00  -0.00   0.00    -0.00  -0.00   0.00
  62   8    -0.00  -0.00  -0.00    -0.00  -0.00  -0.00    -0.00  -0.00  -0.00
  63   1     0.00   0.00   0.00     0.00   0.00   0.00     0.00   0.00   0.00
  64   1    -0.00   0.00   0.00    -0.00   0.00   0.00    -0.00   0.00   0.00
  65   8     0.00  -0.00   0.00     0.12  -0.15   0.15    -0.00   0.00   0.00
  66   1    -0.00   0.00  -0.00    -0.47   0.61  -0.59    -0.00   0.00  -0.00
  67   1     0.00  -0.00  -0.00     0.02  -0.03   0.01     0.00  -0.00  -0.00
  68   8     0.00   0.00  -0.00     0.00   0.00  -0.00     0.00  -0.00  -0.00
  69   1    -0.00   0.00   0.00    -0.00   0.00   0.00    -0.00   0.00   0.00
  70   1    -0.00  -0.00   0.00    -0.00  -0.00   0.00    -0.00  -0.00   0.00
  71   8    -0.00   0.00  -0.00    -0.00   0.00  -0.00    -0.00  -0.00   0.00
  72   1     0.00   0.00  -0.00     0.00   0.00  -0.00     0.00   0.00  -0.00
  73   1     0.00  -0.00   0.00     0.00  -0.00   0.00     0.00  -0.00   0.00
  74   8     0.00   0.00  -0.00    -0.00  -0.00  -0.00    -0.00   0.00  -0.00
  75   1    -0.00  -0.00   0.00     0.00   0.00  -0.00    -0.00  -0.00   0.00
  76   1     0.00  -0.00   0.00     0.00  -0.00   0.00     0.00  -0.00   0.00
  77   8     0.00  -0.00  -0.00     0.00  -0.00   0.00     0.00  -0.00   0.00
  78   1    -0.00   0.00  -0.00    -0.00   0.00  -0.00    -0.00   0.00  -0.00
  79   1    -0.00   0.00   0.00    -0.00   0.00   0.00     0.00  -0.00  -0.00
  80   8    -0.00  -0.00  -0.00    -0.00  -0.00   0.00    -0.00  -0.00   0.00
  81   1     0.00   0.00   0.00     0.00   0.00   0.00     0.00  -0.00  -0.00
  82   1    -0.00  -0.00   0.00     0.00   0.00  -0.00     0.00   0.00  -0.00
  83   8     0.00  -0.00   0.00     0.00  -0.00   0.00     0.00  -0.00   0.00
  84   1     0.00  -0.00  -0.00    -0.00   0.00   0.00    -0.00  -0.00   0.00
  85   1    -0.00   0.00  -0.00    -0.00   0.00  -0.00    -0.00   0.00  -0.00
  86   8     0.00  -0.00   0.00    -0.00  -0.00   0.00    -0.00  -0.00   0.00
  87   1     0.00   0.00  -0.00     0.00   0.00  -0.00     0.00   0.00  -0.00
  88   1    -0.00   0.00   0.00    -0.00   0.00   0.00    -0.00   0.00   0.00
  89   8    -0.00  -0.00   0.00     0.00   0.00  -0.00    -0.00   0.00   0.00
  90   1     0.00  -0.00  -0.00    -0.00  -0.00  -0.00    -0.00  -0.00  -0.00
  91   1     0.00   0.00  -0.00    -0.00  -0.00   0.00     0.00   0.00  -0.00
  92   8     0.00   0.00  -0.00     0.00  -0.00  -0.00     0.00  -0.00   0.00
  93   1    -0.00  -0.00   0.00     0.00   0.00  -0.00     0.01   0.01  -0.01
  94   1    -0.00   0.00   0.00    -0.00   0.00   0.00    -0.01   0.00   0.01
  95   8    -0.00  -0.00   0.00    -0.00  -0.00  -0.00    -0.00  -0.00   0.00
  96   1     0.00  -0.00   0.00     0.00  -0.00   0.00     0.00  -0.00   0.00
  97   1    -0.00   0.01  -0.00     0.00   0.00  -0.00    -0.00   0.00  -0.00
  98   8    -0.00   0.00   0.00     0.00   0.00   0.00     0.00   0.00   0.00
  99   1     0.00  -0.00  -0.00    -0.00   0.00   0.00     0.00  -0.00  -0.00
 100   1    -0.00  -0.00  -0.00    -0.00  -0.00  -0.00    -0.00  -0.00  -0.00
 101   8     0.00  -0.00  -0.00    -0.00  -0.00   0.00     0.00  -0.00  -0.00
 102   1    -0.00  -0.00   0.00     0.00   0.00  -0.00    -0.00  -0.00   0.00
 103   1    -0.00   0.00   0.00    -0.00   0.00   0.00    -0.00   0.00   0.00
 104   8    -0.00   0.00   0.00    -0.00   0.00   0.00    -0.00   0.00   0.00
 105   1     0.02  -0.00  -0.01     0.00  -0.00  -0.00     0.00  -0.00  -0.00
 106   1    -0.00   0.00   0.00    -0.00  -0.00  -0.00     0.00  -0.00  -0.00
 107   8    -0.00   0.00   0.00     0.00  -0.00   0.00    -0.00   0.00   0.00
 108   1     0.00   0.00  -0.00     0.00   0.00  -0.00     0.00   0.00   0.00
 109   1     0.00  -0.00  -0.00    -0.00   0.00   0.00     0.00  -0.00  -0.00
 110   8    -0.00  -0.00   0.00    -0.00  -0.00   0.00    -0.00  -0.00   0.00
 111   1     0.00   0.00  -0.01     0.00   0.00  -0.00     0.00   0.00  -0.00
 112   1     0.00   0.00   0.00     0.00   0.00   0.00     0.00   0.00  -0.00
 113   8    -0.00   0.00   0.00     0.00   0.00   0.00     0.00  -0.00  -0.00
 114   1     0.00  -0.00  -0.00    -0.00   0.00  -0.00    -0.00   0.00  -0.00
 115   1    -0.00  -0.00  -0.00    -0.00  -0.00  -0.00     0.00   0.00   0.00
 116   8     0.00   0.00   0.00     0.00  -0.00   0.00     0.00  -0.00  -0.00
 117   1     0.00  -0.00  -0.00     0.00  -0.00  -0.00    -0.00   0.00   0.00
 118   1    -0.00   0.00  -0.00    -0.00   0.00  -0.00    -0.00   0.00  -0.00
 119   8     0.00  -0.00  -0.00    -0.00   0.00  -0.00    -0.00  -0.00   0.00
 120   1    -0.00   0.00  -0.00     0.00  -0.00   0.00     0.00  -0.00   0.00
 121   1    -0.00  -0.00   0.00    -0.00  -0.00  -0.00     0.00   0.00  -0.00
 122   8     0.00  -0.00  -0.00    -0.00   0.00  -0.00    -0.00  -0.00  -0.00
 123   1     0.00   0.00   0.00     0.00   0.00   0.00     0.00   0.00   0.00
 124   1    -0.00   0.00   0.00     0.00  -0.00  -0.00     0.00  -0.00   0.00
 125   8     0.00   0.00  -0.00     0.00   0.00   0.00     0.00  -0.00   0.00
 126   1    -0.00  -0.00   0.00     0.00   0.00   0.00    -0.00  -0.00   0.00
 127   1    -0.00  -0.00  -0.00     0.00  -0.00  -0.00    -0.00  -0.00  -0.00
 128   8     0.00   0.00  -0.00    -0.00   0.00   0.00    -0.00   0.00  -0.00
 129   1    -0.00  -0.00   0.00    -0.00  -0.00  -0.00     0.00   0.00  -0.00
 130   1     0.00  -0.00   0.00     0.00  -0.00   0.00     0.00  -0.00   0.00
 131   8     0.00  -0.00  -0.00     0.00  -0.00  -0.00     0.00  -0.00   0.00
 132   1    -0.00  -0.00  -0.00     0.00  -0.00   0.00    -0.00  -0.00  -0.00
 133   1    -0.00   0.00   0.00    -0.00   0.00   0.00    -0.00   0.00   0.00
 134   8     0.00  -0.00  -0.00    -0.00  -0.00  -0.00    -0.00  -0.00  -0.00
 135   1    -0.00   0.00   0.00     0.00  -0.00  -0.00     0.00  -0.00  -0.00
 136   1     0.00   0.00   0.00     0.00   0.00   0.00     0.00   0.00   0.00
 137   8     0.00   0.00   0.00    -0.00  -0.00   0.00     0.00   0.00  -0.00
 138   1    -0.00  -0.00  -0.00     0.00   0.00   0.00    -0.00  -0.00  -0.00
 139   1    -0.00  -0.00   0.00     0.00  -0.00  -0.00    -0.00  -0.00   0.00
 140   8     0.00   0.00  -0.00     0.00  -0.00  -0.00     0.00   0.00   0.00
 141   1    -0.00  -0.00  -0.00     0.00   0.00   0.00    -0.00  -0.00  -0.00
 142   1    -0.00   0.00   0.00    -0.00   0.00   0.00     0.00  -0.00  -0.00
 143   8    -0.01   0.01  -0.02    -0.00   0.00  -0.00    -0.00   0.00   0.00
 144   1     0.05  -0.06   0.08     0.00  -0.00   0.01    -0.00   0.00  -0.00
 145   1    -0.00   0.00  -0.00     0.00  -0.00  -0.00     0.00  -0.00  -0.00
 146   8     0.00   0.00   0.00     0.00   0.00   0.00     0.00   0.00   0.00
 147   1    -0.00  -0.00   0.00    -0.00  -0.00   0.00    -0.00  -0.00   0.00
 148   1    -0.00  -0.00  -0.00    -0.00  -0.00  -0.00    -0.00  -0.00  -0.00
 149   8    -0.00  -0.00  -0.00    -0.00  -0.00  -0.00    -0.00  -0.00   0.00
 150   1     0.00   0.00   0.00     0.00   0.00   0.00     0.00   0.00   0.00
 151   1    -0.00  -0.00   0.00     0.00   0.00  -0.00     0.00   0.00  -0.00
 152   8     0.00  -0.00   0.00    -0.00  -0.00  -0.00    -0.00   0.00   0.00
 153   1    -0.00  -0.00  -0.00     0.00   0.00   0.00    -0.00  -0.00  -0.00
 154   1     0.00  -0.00  -0.00     0.00  -0.00  -0.00     0.00  -0.00  -0.00
 155   8     0.00   0.00  -0.00     0.00   0.00   0.00    -0.00  -0.00  -0.00
 156   1    -0.00  -0.00  -0.00    -0.00  -0.00  -0.00    -0.00   0.00   0.00
 157   1    -0.00  -0.00   0.00     0.00   0.00  -0.00     0.00   0.00  -0.00
 158   8    -0.00   0.00  -0.00    -0.00   0.00   0.00     0.00  -0.00   0.00
 159   1     0.00  -0.00  -0.00     0.00  -0.00  -0.00    -0.00   0.00   0.00
 160   1     0.00   0.00   0.00     0.00  -0.00  -0.00    -0.00  -0.00  -0.00
 161   8    -0.00   0.00   0.00     0.00   0.00  -0.00     0.00   0.00  -0.00
 162   1     0.00  -0.00  -0.00    -0.00   0.00   0.00    -0.00  -0.00   0.00
 163   1    -0.00  -0.00   0.00    -0.00  -0.00   0.00    -0.00  -0.00   0.00
 164   8     0.00   0.00  -0.00    -0.00  -0.00  -0.00     0.00   0.00  -0.00
 165   1    -0.00  -0.00  -0.00     0.00   0.00   0.00    -0.00  -0.00  -0.00
 166   1    -0.00  -0.00   0.00     0.00   0.00  -0.00    -0.00  -0.00   0.00
 167   8     0.08  -0.19  -0.12    -0.00   0.00   0.00    -0.00   0.00   0.00
 168   1    -0.30   0.77   0.50     0.00  -0.00  -0.00     0.00  -0.00  -0.00
 169   1    -0.00  -0.02  -0.04    -0.00   0.00  -0.00    -0.00   0.00  -0.00
 170   8    -0.00   0.00   0.00     0.00  -0.00  -0.00    -0.00  -0.00   0.00
 171   1     0.00  -0.00  -0.00    -0.00   0.00   0.00    -0.00   0.00   0.00
 172   1    -0.00  -0.00   0.00    -0.00  -0.00   0.00     0.00   0.00  -0.00
 173   8    -0.00  -0.00  -0.00    -0.00   0.00   0.00     0.00  -0.00  -0.00
 174   1     0.00  -0.00   0.00     0.00  -0.00   0.00    -0.00   0.00  -0.00
 175   1    -0.00   0.00   0.00     0.00  -0.00  -0.00    -0.00   0.00   0.00
 176   8    -0.00  -0.00   0.00     0.00   0.00  -0.00     0.00  -0.00   0.00
 177   1     0.00  -0.00   0.00    -0.00   0.00  -0.00    -0.00   0.00  -0.00
 178   1     0.00   0.00  -0.00    -0.00  -0.00   0.00     0.00   0.00  -0.00
 179   8     0.00   0.00   0.00     0.00  -0.00  -0.00    -0.00   0.00  -0.00
 180   1    -0.00   0.00  -0.00    -0.00   0.00  -0.00     0.00  -0.00   0.00
 181   1     0.00  -0.00  -0.00    -0.00   0.00   0.00    -0.00   0.00   0.00
 182   8    -0.00   0.00  -0.00    -0.00  -0.00   0.00    -0.00  -0.00   0.00
 183   1    -0.00  -0.00   0.00     0.00   0.00  -0.00     0.00   0.00  -0.00
 184   1     0.00  -0.00   0.00     0.00  -0.00   0.00    -0.00   0.00  -0.00
 185   8     0.00   0.00   0.00     0.00   0.00   0.00     0.00  -0.00   0.00
 186   1     0.00  -0.00   0.00    -0.00   0.00  -0.00     0.00   0.00  -0.00
 187   1    -0.00  -0.00  -0.00    -0.00  -0.00  -0.00    -0.00  -0.00  -0.00
 188   8    -0.00  -0.00   0.00     0.00  -0.00   0.00     0.00  -0.00   0.00
 189   1    -0.00  -0.00  -0.00    -0.00  -0.00  -0.00    -0.00  -0.00  -0.00
 190   1     0.00   0.00  -0.00     0.00   0.00  -0.00     0.00   0.00  -0.00
 191   8     0.00  -0.00   0.00     0.00  -0.00   0.00    -0.00  -0.00   0.00
 192   1    -0.00   0.00  -0.00    -0.00   0.00  -0.00    -0.00   0.00  -0.00
 193   1    -0.00  -0.00  -0.00     0.00  -0.00  -0.00     0.00   0.00  -0.00
 194   8     0.00  -0.00   0.00     0.00  -0.00   0.00     0.00  -0.00   0.00
 195   1    -0.00  -0.00   0.00    -0.00  -0.00   0.00    -0.00  -0.00   0.00
 196   1    -0.00   0.00  -0.00    -0.00   0.00  -0.00    -0.00   0.00  -0.00
 197   8    -0.00   0.00   0.00     0.00   0.00   0.00     0.00  -0.00   0.00
 198   1    -0.00  -0.00  -0.00     0.00  -0.00  -0.00    -0.00   0.00   0.00
 199   1     0.00  -0.00   0.00    -0.00   0.00  -0.00    -0.00   0.00  -0.00
