 Entering Gaussian System
 *********************************************
 Gaussian 98:
 frequency output generated by the xtb code
 *********************************************
                         Standard orientation:
 --------------------------------------------------------------------
  Center     Atomic     Atomic              Coordinates (Angstroms)
  Number     Number      Type              X           Y           Z
 --------------------------------------------------------------------
    1         26             0       -0.293775    0.023306   -0.536279
    2          8             0        0.363227    2.461667   -0.569428
    3         16             0        0.207394    3.785468   -0.030772
    4          8             0       -1.019100    4.429160   -0.564152
    5          8             0        0.095083    3.754865    1.443580
    6          8             0        1.349492    4.646455   -0.397157
    7          8             0        1.760634    0.279477    0.893275
    8          1             0        1.349024    0.076752    1.759882
    9          1             0        2.018551    1.210211    0.876594
   10          8             0        0.038844   -2.075848    0.737033
   11          1             0        0.182506   -1.780534    1.651119
   12          1             0        0.929087   -2.254864    0.367866
   13          8             0       -2.570234   -0.644764    0.062866
   14          1             0       -2.803621   -1.514029   -0.327173
   15          1             0       -3.320099   -0.058309   -0.075822
   16          8             0       -1.031182    1.283773    1.504708
   17          1             0       -0.560469    2.120956    1.542220
   18          1             0       -1.151901    0.956716    2.423265
   19          8             0       -0.818483   -1.779560   -2.211035
   20          1             0       -0.852084   -1.436655   -3.112824
   21          1             0       -0.186176   -2.522460   -2.210135
   22          8             0        0.783983    6.770296    1.074191
   23          1             0        1.001495    5.989310    0.528375
   24          1             0        1.511583    7.407190    0.932864
   25          8             0       -2.314692    4.326895    2.462639
   26          1             0       -1.434824    4.104700    2.102115
   27          1             0       -2.529369    5.181988    2.062838
   28          8             0       -0.170890    3.684898   -2.971627
   29          1             0       -0.362343    3.984148   -2.070674
   30          1             0       -0.666842    4.264207   -3.581196
   31          8             0        2.826752    2.822580    0.886391
   32          1             0        2.861638    3.230050    1.768087
   33          1             0        2.294024    3.420276    0.342346
   34          8             0       -1.428826    1.226962   -2.450516
   35          1             0       -0.826333    1.969348   -2.594744
   36          1             0       -2.104942    1.574901   -1.839951
   37          8             0        7.654195    3.529229   -3.620458
   38          1             0        6.902147    3.183846   -4.112327
   39          1             0        7.303953    4.241229   -3.061250
   40          8             0       -1.554189    0.393913    4.015213
   41          1             0       -2.235755   -0.197184    3.609130
   42          1             0       -2.029865    1.174177    4.339786
   43          8             0        1.456904    0.125023   -4.705913
   44          1             0        1.867375   -0.517246   -5.289381
   45          1             0        0.487311   -0.019805   -4.756881
   46          8             0        3.900028   -1.207811    1.398574
   47          1             0        4.715352   -0.734857    1.189606
   48          1             0        3.154140   -0.581597    1.196212
   49          8             0       -3.315528   -0.999366    2.567695
   50          1             0       -2.814759   -0.899362    1.714751
   51          1             0       -4.049158   -0.384304    2.461065
   52          8             0        1.712821   -0.018111   -1.984717
   53          1             0        1.603250   -0.071145   -2.952198
   54          1             0        2.020403    0.877668   -1.822226
   55          8             0        0.713035   -0.857558    3.066171
   56          1             0        1.477814   -1.162405    3.583880
   57          1             0        0.055471   -0.461046    3.650529
   58          8             0       -2.921885   -3.045106   -1.117930
   59          1             0       -2.329919   -3.656379   -0.636157
   60          1             0       -2.296378   -2.577345   -1.713949
   61          8             0        2.364874   -2.313588   -0.615848
   62          1             0        3.033218   -2.144037    0.065404
   63          1             0        2.247002   -1.474555   -1.098033
   64          8             0       -0.860869   -4.432145    0.020972
   65          1             0       -0.338183   -4.438398   -0.801129
   66          1             0       -0.624724   -3.552959    0.421783
   67          8             0        2.913933    8.597007    0.896937
   68          1             0        3.666478    8.273142    1.403710
   69          1             0        2.717083    9.483127    1.220194
   70          8             0       -1.962059    6.549861    0.767480
   71          1             0       -1.105226    6.914832    1.043255
   72          1             0       -1.705749    5.796912    0.197210
   73          8             0       -1.810079    5.423700   -4.433224
   74          1             0       -1.685903    6.368697   -4.311529
   75          1             0       -2.754371    5.244683   -4.366185
   76          8             0        2.091830    4.186322    3.204491
   77          1             0        1.809533    3.871622    4.071139
   78          1             0        1.309694    4.139634    2.624116
   79          8             0       -2.708298    2.316479   -0.350590
   80          1             0       -2.179441    3.122499   -0.414909
   81          1             0       -2.314943    1.829145    0.401798
   82          8             0        6.346301    5.440226   -1.937118
   83          1             0        6.287568    5.227983   -1.000287
   84          1             0        5.481104    5.764985   -2.204200
   85          8             0       -2.850147    2.763998    4.681771
   86          1             0       -2.632649    3.362014    5.401044
   87          1             0       -2.764875    3.284225    3.863571
   88          8             0       -1.190204   -0.350967   -4.591901
   89          1             0       -1.862678   -0.250832   -5.267307
   90          1             0       -1.396055    0.281694   -3.868707
   91          8             0        6.214871    0.271179    0.628646
   92          1             0        6.667394    0.908044    1.186675
   93          1             0        6.301556    0.573274   -0.280431
   94          8             0       -5.289943    0.084717    0.690281
   95          1             0       -6.195884    0.385842    0.637855
   96          1             0       -5.309514   -0.899676    0.663653
   97          8             0        2.348961    2.453941   -3.279444
   98          1             0        2.084643    1.783535   -3.934037
   99          1             0        1.541824    2.945997   -3.079669
  100          8             0        1.584983    1.407512    8.147825
  101          1             0        2.246137    0.917332    7.648185
  102          1             0        0.755315    0.927361    8.058043
  103          8             0       -6.402528   -0.163465   -4.397963
  104          1             0       -6.196579   -0.935878   -3.859884
  105          1             0       -6.105596    0.606640   -3.903059
  106          8             0        5.781327   -3.290682   -4.097762
  107          1             0        5.844023   -2.358622   -3.865604
  108          1             0        5.866245   -3.788370   -3.278346
  109          8             0       -1.419272   -4.833149    6.025620
  110          1             0       -0.677866   -4.886849    5.413110
  111          1             0       -2.098727   -4.308982    5.588964
  112          8             0       -2.386480   -6.107844   -5.399235
  113          1             0       -2.476871   -6.399328   -4.485897
  114          1             0       -2.609095   -5.171051   -5.415590
  115          8             0        3.129339   -1.834249    3.931441
  116          1             0        3.194159   -2.790965    3.988771
  117          1             0        3.500613   -1.599154    3.050947
  118          8             0       -4.927143   -2.607310    0.802482
  119          1             0       -4.354769   -2.865435    0.057231
  120          1             0       -4.322615   -2.442098    1.545844
  121          8             0        0.839774   -3.949349   -2.090329
  122          1             0        1.317086   -4.425450   -2.770568
  123          1             0        1.501610   -3.481926   -1.541118
  124          8             0        1.112508   -6.008598    1.254417
  125          1             0        0.621970   -6.831517    1.332660
  126          1             0        0.459442   -5.373497    0.893763
  127          8             0       -1.799526   -6.912288    0.976113
  128          1             0       -2.525243   -6.743260    1.582402
  129          1             0       -1.565106   -6.045844    0.593739
 --------------------------------------------------------------------
     1 basis functions        1 primitive gaussians
     1 alpha electrons        1 beta electrons

 Harmonic frequencies (cm**-1), IR intensities (km*mol⁻¹),
 Raman scattering activities (A**4/amu), Raman depolarization ratios,
 reduced masses (AMU), force constants (mDyne/A) and normal coordinates:
                      1                      2                      3
                        a                      a                      a 
 Frequencies --     4.8076                 9.8605                13.2265
 Red. masses --    14.5415                14.5924                14.6347
 Frc consts  --     0.0000                 0.0000                 0.0000
 IR Inten    --     0.7872                 1.0330                 0.3143
 Raman Activ --     0.0000                 0.0000                 0.0000
 Depolar     --     0.0000                 0.0000                 0.0000
 Atom AN      X      Y      Z        X      Y      Z        X      Y      Z
   1  26     0.00   0.05  -0.00    -0.01   0.01   0.04     0.04  -0.03   0.02
   2   8    -0.00   0.02   0.00    -0.02   0.00  -0.00     0.01  -0.01  -0.01
   3  16    -0.00   0.03   0.01    -0.03   0.01  -0.02     0.02  -0.02  -0.02
   4   8    -0.00   0.02   0.00    -0.02  -0.00  -0.02     0.01  -0.01  -0.02
   5   8    -0.00   0.02   0.00    -0.02   0.02  -0.02     0.01   0.00  -0.02
   6   8    -0.00   0.02   0.00    -0.02   0.01  -0.03     0.02  -0.02  -0.03
   7   8     0.00   0.02   0.00    -0.01   0.01   0.03     0.01  -0.01   0.02
   8   1    -0.00   0.01   0.00    -0.00   0.00   0.01    -0.00  -0.00   0.01
   9   1     0.00   0.00   0.00    -0.00   0.00   0.01     0.00  -0.00   0.00
  10   8    -0.01   0.02  -0.00    -0.01   0.00   0.02     0.02  -0.02   0.01
  11   1    -0.00   0.01  -0.00    -0.00   0.00   0.01     0.00  -0.00   0.00
  12   1    -0.00   0.01  -0.00    -0.00   0.00   0.01     0.01  -0.00   0.01
  13   8     0.00   0.03  -0.00     0.00   0.01   0.04     0.02  -0.01   0.01
  14   1     0.00   0.01   0.00     0.00  -0.00   0.01     0.00  -0.00   0.00
  15   1     0.00   0.01  -0.00    -0.00  -0.00   0.01     0.01  -0.00   0.00
  16   8     0.01   0.02   0.01     0.01   0.01   0.02     0.01   0.00  -0.00
  17   1     0.00   0.00   0.00    -0.00   0.00   0.00     0.00   0.00  -0.00
  18   1     0.00   0.00   0.00     0.00   0.01   0.01     0.00   0.00   0.00
  19   8     0.00   0.03  -0.01     0.01  -0.01   0.03     0.01  -0.01   0.01
  20   1    -0.00   0.01  -0.00     0.00  -0.00   0.01    -0.00  -0.01   0.00
  21   1     0.00   0.01  -0.00     0.00  -0.00   0.01     0.01  -0.00   0.00
  22   8    -0.01   0.02  -0.00    -0.07   0.03  -0.07     0.04  -0.00  -0.04
  23   1    -0.00   0.01   0.00    -0.01   0.01  -0.01     0.01  -0.00  -0.01
  24   1    -0.00   0.01  -0.00    -0.02   0.01  -0.02     0.01  -0.00  -0.01
  25   8    -0.00   0.02   0.01    -0.02   0.01  -0.01     0.02   0.03  -0.02
  26   1    -0.00   0.00   0.00    -0.01   0.00  -0.00     0.00   0.00  -0.01
  27   1    -0.00   0.00   0.00    -0.01   0.00  -0.01     0.01   0.01  -0.01
  28   8    -0.00   0.03   0.00    -0.03  -0.02  -0.02    -0.02  -0.04  -0.02
  29   1    -0.00   0.01   0.00    -0.01  -0.00  -0.01    -0.00  -0.01  -0.01
  30   1    -0.00   0.01   0.00    -0.01  -0.01  -0.01    -0.01  -0.01  -0.01
  31   8    -0.00   0.02   0.00    -0.02   0.02  -0.01     0.00  -0.01   0.00
  32   1    -0.00   0.01   0.00    -0.00   0.01  -0.00    -0.00  -0.00  -0.00
  33   1    -0.00   0.00   0.00    -0.01   0.00  -0.00     0.00  -0.00  -0.00
  34   8    -0.00   0.03   0.00    -0.01  -0.03   0.00    -0.02  -0.03   0.03
  35   1    -0.00   0.01   0.00    -0.00  -0.01   0.00    -0.01  -0.01   0.00
  36   1    -0.00   0.01   0.00    -0.00  -0.01   0.00    -0.00  -0.00   0.01
  37   8     0.02  -0.01   0.05     0.05  -0.04   0.12     0.04  -0.26   0.06
  38   1     0.01  -0.00   0.01     0.01  -0.01   0.03     0.01  -0.07   0.01
  39   1     0.01  -0.00   0.01     0.01  -0.01   0.03     0.01  -0.05  -0.00
  40   8     0.01   0.01   0.01     0.02   0.03   0.04    -0.01   0.03  -0.00
  41   1     0.00   0.00   0.00     0.00   0.01   0.01    -0.00   0.01   0.00
  42   1     0.00   0.00   0.00     0.01   0.01   0.01    -0.00   0.01  -0.00
  43   8    -0.00   0.03   0.00     0.03  -0.01   0.03    -0.09  -0.03   0.02
  44   1     0.00   0.01   0.00     0.01  -0.01   0.01    -0.03  -0.00  -0.01
  45   1    -0.00   0.01  -0.00     0.01  -0.01   0.01    -0.02  -0.01   0.01
  46   8    -0.01  -0.00   0.01    -0.02  -0.01   0.04    -0.01  -0.02   0.08
  47   1    -0.00  -0.00   0.01    -0.00  -0.00   0.02    -0.00  -0.00   0.03
  48   1    -0.00   0.00   0.00    -0.00  -0.00   0.01    -0.00  -0.01   0.01
  49   8     0.01   0.04   0.00     0.00   0.05   0.04     0.01  -0.00   0.01
  50   1     0.00   0.01  -0.00    -0.00   0.01   0.01     0.01  -0.00   0.00
  51   1     0.00   0.01   0.00     0.00   0.01   0.01     0.00  -0.00  -0.00
  52   8     0.00   0.04   0.00     0.00   0.03   0.03     0.03  -0.04   0.01
  53   1     0.00   0.01   0.00     0.00   0.01   0.01    -0.00  -0.01   0.00
  54   1     0.00   0.01   0.00    -0.00   0.01   0.01     0.01  -0.01  -0.00
  55   8     0.00   0.01  -0.00    -0.01  -0.00   0.02    -0.02  -0.00   0.02
  56   1    -0.00  -0.01  -0.00    -0.01  -0.01   0.00    -0.01  -0.00   0.01
  57   1     0.00  -0.00   0.00     0.00  -0.00   0.01    -0.01   0.00   0.00
  58   8     0.00   0.03   0.00     0.02  -0.00   0.06     0.01  -0.01   0.01
  59   1     0.00   0.01  -0.00     0.01  -0.00   0.01     0.00  -0.00   0.00
  60   1    -0.00   0.01  -0.00     0.00  -0.00   0.01     0.00  -0.00   0.00
  61   8    -0.01   0.03  -0.00    -0.01   0.02   0.03     0.04  -0.02   0.04
  62   1    -0.00   0.01  -0.00    -0.00   0.00   0.01     0.01  -0.01   0.01
  63   1    -0.00   0.01  -0.00    -0.00   0.01   0.01     0.01  -0.01   0.01
  64   8     0.01   0.02  -0.02     0.03  -0.02   0.03     0.02  -0.01  -0.00
  65   1     0.00   0.01  -0.01     0.01  -0.00   0.01     0.01  -0.00  -0.00
  66   1     0.00   0.00  -0.00     0.01  -0.00   0.01     0.01  -0.00   0.00
  67   8    -0.02   0.03  -0.01    -0.09   0.05  -0.08     0.05  -0.01  -0.07
  68   1    -0.00   0.01  -0.00    -0.02   0.01  -0.02     0.01  -0.00  -0.02
  69   1    -0.00   0.01  -0.00    -0.02   0.01  -0.02     0.01  -0.00  -0.02
  70   8    -0.01   0.02   0.01    -0.07  -0.01  -0.04     0.05   0.01  -0.04
  71   1    -0.00   0.01   0.00    -0.02   0.00  -0.01     0.01   0.00  -0.01
  72   1    -0.00   0.00   0.00    -0.01  -0.00  -0.01     0.01   0.00  -0.01
  73   8    -0.01   0.02   0.00    -0.04  -0.04  -0.03    -0.03  -0.05  -0.03
  74   1    -0.00   0.01   0.00    -0.01  -0.01  -0.01    -0.01  -0.01  -0.01
  75   1    -0.00   0.01   0.00    -0.01  -0.01  -0.00    -0.01  -0.01  -0.00
  76   8     0.00   0.03  -0.00    -0.01   0.08  -0.05     0.00   0.01  -0.01
  77   1     0.00   0.01  -0.00    -0.00   0.02  -0.01     0.00   0.00  -0.00
  78   1    -0.00   0.01  -0.00    -0.00   0.02  -0.01     0.00   0.00  -0.00
  79   8     0.01   0.02   0.01    -0.00  -0.02   0.01    -0.00   0.00   0.02
  80   1     0.00   0.00   0.00    -0.00  -0.00  -0.00     0.00   0.00   0.00
  81   1     0.00   0.00   0.00    -0.00  -0.00   0.00     0.00   0.00   0.00
  82   8     0.02  -0.00   0.04     0.03  -0.02   0.09     0.01  -0.11  -0.10
  83   1     0.01   0.00   0.01     0.01  -0.00   0.02    -0.00  -0.01  -0.02
  84   1     0.01  -0.00   0.01     0.01  -0.01   0.02     0.00  -0.03  -0.04
  85   8     0.01   0.02   0.01     0.03   0.04   0.02    -0.01   0.04  -0.02
  86   1     0.00   0.00   0.00     0.00   0.01   0.00    -0.00   0.01  -0.01
  87   1     0.00   0.00   0.00     0.00   0.01   0.00    -0.00   0.01  -0.01
  88   8    -0.00   0.03  -0.00     0.04  -0.03   0.01    -0.09  -0.02   0.02
  89   1    -0.00   0.01   0.00     0.01  -0.01  -0.00    -0.02   0.00   0.01
  90   1    -0.00   0.01  -0.00     0.00  -0.01   0.00    -0.02  -0.01   0.01
  91   8    -0.00   0.00   0.05    -0.01  -0.00   0.11    -0.01   0.06   0.29
  92   1    -0.00   0.00   0.01    -0.01   0.00   0.03    -0.02   0.01   0.08
  93   1     0.00   0.00   0.01    -0.00  -0.00   0.03     0.01   0.02   0.08
  94   8    -0.00   0.02   0.00    -0.01  -0.01  -0.01     0.01  -0.01   0.06
  95   1    -0.00   0.00   0.00    -0.00  -0.01  -0.01     0.00  -0.00   0.03
  96   1     0.00   0.01   0.00     0.00  -0.00   0.01     0.00  -0.00   0.01
  97   8    -0.00   0.04  -0.00    -0.01   0.03  -0.02    -0.03  -0.05  -0.03
  98   1    -0.00   0.01  -0.00     0.00   0.00  -0.00    -0.01  -0.02  -0.00
  99   1    -0.00   0.01  -0.00    -0.01   0.00  -0.01    -0.01  -0.01  -0.00
 100   8     0.20   0.00  -0.06     0.60   0.12  -0.18    -0.10   0.03   0.02
 101   1     0.04  -0.01  -0.02     0.14   0.01  -0.04    -0.02   0.01   0.00
 102   1     0.05   0.01  -0.02     0.14   0.05  -0.05    -0.02   0.01   0.01
 103   8    -0.01   0.03   0.01     0.03  -0.19  -0.01    -0.07   0.05   0.08
 104   1    -0.00   0.01  -0.00     0.01  -0.04   0.00    -0.02   0.01   0.02
 105   1    -0.00   0.01   0.00     0.00  -0.04  -0.01    -0.01   0.01   0.02
 106   8     0.01   0.06   0.00     0.05  -0.03   0.13    -0.03   0.69  -0.32
 107   1     0.00   0.01   0.00     0.01  -0.01   0.03     0.03   0.16  -0.04
 108   1     0.00   0.01  -0.00     0.01  -0.00   0.03    -0.02   0.14  -0.10
 109   8    -0.14  -0.12  -0.18    -0.19  -0.09  -0.12    -0.09  -0.03  -0.03
 110   1    -0.03  -0.02  -0.04    -0.04  -0.02  -0.02    -0.02  -0.01  -0.00
 111   1    -0.03  -0.02  -0.05    -0.04  -0.02  -0.03    -0.02  -0.00  -0.01
 112   8     0.08  -0.62   0.48    -0.03   0.33  -0.20     0.07   0.07  -0.06
 113   1     0.03  -0.15   0.12    -0.01   0.08  -0.05     0.01   0.02  -0.02
 114   1     0.03  -0.15   0.12    -0.01   0.08  -0.05     0.01   0.02  -0.01
 115   8    -0.05  -0.13  -0.03    -0.06  -0.16  -0.01    -0.05  -0.03   0.06
 116   1    -0.02  -0.03  -0.02    -0.02  -0.04  -0.02    -0.01  -0.01   0.01
 117   1    -0.01  -0.02  -0.00    -0.01  -0.03   0.00    -0.01  -0.01   0.02
 118   8     0.01   0.02   0.01     0.03  -0.00   0.07     0.02  -0.01   0.01
 119   1     0.00   0.01   0.00     0.01  -0.00   0.02     0.00  -0.00   0.00
 120   1     0.00   0.01   0.00     0.01   0.01   0.02     0.00  -0.00   0.00
 121   8     0.01   0.03  -0.02     0.02  -0.00   0.03     0.04   0.00   0.01
 122   1     0.00   0.01  -0.00     0.01  -0.00   0.01     0.01   0.01   0.00
 123   1     0.00   0.01  -0.00     0.00   0.00   0.01     0.01  -0.00   0.01
 124   8    -0.04  -0.12  -0.14    -0.05  -0.17  -0.05    -0.00  -0.03   0.01
 125   1    -0.02  -0.03  -0.06    -0.02  -0.04  -0.03    -0.00  -0.01  -0.00
 126   1    -0.01  -0.02  -0.02    -0.01  -0.03  -0.00     0.00  -0.01   0.00
 127   8    -0.07  -0.03  -0.25    -0.07  -0.05  -0.13    -0.00  -0.02  -0.04
 128   1    -0.01  -0.01  -0.05    -0.02  -0.02  -0.03    -0.00  -0.01  -0.01
 129   1    -0.01  -0.00  -0.04    -0.01  -0.01  -0.02     0.00  -0.00  -0.01
                      4                      5                      6
                        a                      a                      a 
 Frequencies --    15.1023                17.1685                17.5767
 Red. masses --    14.7870                14.7797                14.4764
 Frc consts  --     0.0000                 0.0000                 0.0000
 IR Inten    --     0.4026                 0.4168                 1.0711
 Raman Activ --     0.0000                 0.0000                 0.0000
 Depolar     --     0.0000                 0.0000                 0.0000
 Atom AN      X      Y      Z        X      Y      Z        X      Y      Z
   1  26     0.02   0.05   0.07    -0.05   0.04  -0.05     0.05   0.03  -0.00
   2   8    -0.01   0.02   0.02    -0.01   0.01  -0.05    -0.01   0.02   0.00
   3  16    -0.01   0.04   0.02     0.01   0.01  -0.05    -0.03   0.03  -0.00
   4   8    -0.01   0.02   0.03    -0.00   0.02  -0.01    -0.03   0.00  -0.00
   5   8     0.01   0.03   0.02     0.04   0.01  -0.04    -0.02   0.03  -0.00
   6   8    -0.01   0.03   0.00     0.00   0.01  -0.06    -0.04   0.04  -0.01
   7   8     0.00   0.03   0.05    -0.01   0.00  -0.04     0.04   0.02  -0.02
   8   1     0.00   0.01   0.01    -0.00   0.00  -0.01     0.01   0.01  -0.00
   9   1     0.00   0.01   0.01    -0.00   0.00  -0.01     0.01   0.01  -0.00
  10   8     0.01   0.03   0.04     0.00   0.01  -0.04     0.03   0.01  -0.00
  11   1     0.00   0.01   0.01     0.00   0.00  -0.01     0.01   0.00  -0.00
  12   1     0.00   0.01   0.01     0.00   0.01  -0.01     0.00   0.00  -0.00
  13   8     0.01   0.01   0.04    -0.01   0.02   0.04     0.03  -0.00   0.00
  14   1     0.00   0.00   0.01     0.00  -0.00   0.01     0.00   0.00  -0.00
  15   1     0.00   0.00   0.01    -0.01  -0.00   0.01     0.01   0.00   0.01
  16   8     0.01   0.03   0.03     0.01   0.03  -0.02     0.03  -0.00   0.01
  17   1     0.00   0.01   0.01     0.00   0.01  -0.01     0.00   0.00   0.00
  18   1     0.00   0.01   0.01     0.00   0.01  -0.00     0.01  -0.00   0.00
  19   8     0.03   0.03   0.03    -0.02   0.00  -0.01     0.01   0.03  -0.01
  20   1     0.00   0.01   0.01    -0.00  -0.00  -0.00    -0.00   0.01  -0.00
  21   1     0.01   0.01   0.00    -0.01  -0.00  -0.00    -0.00   0.01  -0.01
  22   8     0.05   0.05  -0.01     0.12  -0.02   0.03    -0.17   0.07  -0.11
  23   1     0.01   0.01  -0.00     0.02  -0.00  -0.00    -0.03   0.01  -0.02
  24   1     0.01   0.01  -0.02     0.03  -0.01   0.02    -0.05   0.02  -0.04
  25   8     0.02   0.06   0.03     0.07   0.07   0.00    -0.03  -0.04   0.01
  26   1     0.00   0.01   0.01     0.01   0.01  -0.00    -0.01  -0.00   0.00
  27   1     0.01   0.02   0.01     0.02   0.02   0.00    -0.02  -0.01  -0.00
  28   8    -0.06   0.01   0.01    -0.09  -0.00  -0.03    -0.01   0.02  -0.00
  29   1    -0.01   0.00   0.00    -0.02   0.00  -0.01    -0.00   0.00  -0.00
  30   1    -0.02   0.00   0.01    -0.03  -0.00  -0.01    -0.01   0.00  -0.00
  31   8    -0.00   0.04   0.01     0.00  -0.01  -0.08    -0.01   0.05  -0.02
  32   1     0.00   0.01   0.00     0.01  -0.00  -0.02     0.00   0.01  -0.00
  33   1    -0.00   0.01   0.00    -0.00  -0.00  -0.02    -0.01   0.01  -0.00
  34   8    -0.03   0.00   0.04    -0.07  -0.01  -0.02     0.00   0.02   0.02
  35   1    -0.01   0.00   0.01    -0.02   0.00  -0.01    -0.00   0.01   0.00
  36   1    -0.01   0.00   0.01    -0.02  -0.00  -0.01     0.00   0.00   0.01
  37   8    -0.07  -0.19  -0.20     0.09   0.08   0.17     0.18  -0.14   0.24
  38   1    -0.02  -0.05  -0.04     0.02   0.03   0.04     0.04  -0.02   0.05
  39   1    -0.01  -0.04  -0.06     0.02   0.01   0.05     0.05  -0.04   0.07
  40   8    -0.00   0.05   0.03     0.03   0.05  -0.01     0.03  -0.01  -0.00
  41   1     0.00   0.01   0.01     0.01   0.01   0.00     0.01  -0.01  -0.00
  42   1    -0.00   0.01   0.00     0.01   0.02  -0.00     0.00  -0.01   0.00
  43   8     0.00  -0.03   0.04     0.00   0.09  -0.03    -0.05   0.05  -0.01
  44   1    -0.00  -0.01   0.01     0.01   0.02  -0.00    -0.01   0.01  -0.00
  45   1    -0.00  -0.01   0.01     0.00   0.01  -0.00    -0.01   0.01  -0.00
  46   8     0.01   0.04   0.06    -0.03  -0.02  -0.05    -0.02  -0.07  -0.02
  47   1     0.00   0.01   0.01    -0.00  -0.01  -0.01     0.00  -0.03  -0.00
  48   1     0.00   0.01   0.02    -0.00  -0.00  -0.01     0.00  -0.01  -0.00
  49   8     0.02   0.01   0.04    -0.00   0.05   0.04     0.06  -0.05   0.01
  50   1     0.00   0.00   0.01    -0.00   0.01   0.01     0.02  -0.01   0.00
  51   1     0.00  -0.00   0.01    -0.00   0.01   0.01     0.01  -0.02  -0.00
  52   8     0.01   0.04   0.04    -0.02   0.09  -0.03     0.02   0.03  -0.02
  53   1     0.00   0.01   0.01    -0.00   0.03  -0.01    -0.00   0.01  -0.00
  54   1    -0.00   0.01   0.01    -0.01   0.02   0.00     0.01   0.01  -0.00
  55   8    -0.00   0.03   0.04    -0.00   0.00  -0.03     0.05   0.02  -0.01
  56   1    -0.00   0.00   0.01    -0.00  -0.00  -0.01     0.01   0.01  -0.00
  57   1     0.00   0.01   0.01     0.00   0.00  -0.01     0.01   0.00  -0.00
  58   8     0.04   0.02   0.02     0.03  -0.01   0.09     0.00   0.02  -0.03
  59   1     0.01   0.00   0.00     0.01  -0.00   0.02     0.00   0.00  -0.01
  60   1     0.01   0.01   0.01     0.00  -0.00   0.02     0.00   0.01  -0.01
  61   8     0.01   0.05   0.05    -0.01   0.05  -0.09    -0.00  -0.00  -0.05
  62   1     0.00   0.01   0.01    -0.00   0.01  -0.02    -0.00  -0.00  -0.01
  63   1     0.00   0.01   0.01    -0.00   0.02  -0.02     0.00   0.00  -0.01
  64   8     0.05   0.03  -0.01     0.07  -0.03   0.03    -0.00   0.03  -0.02
  65   1     0.01   0.02  -0.00     0.01  -0.01   0.00    -0.00   0.01  -0.01
  66   1     0.01   0.00   0.01     0.01  -0.00   0.00     0.00   0.01  -0.00
  67   8     0.07  -0.02  -0.20     0.13  -0.01   0.18    -0.20   0.07  -0.32
  68   1     0.02  -0.01  -0.06     0.03  -0.00   0.05    -0.04   0.02  -0.09
  69   1     0.03   0.00  -0.05     0.02  -0.01   0.05    -0.04   0.02  -0.08
  70   8     0.05   0.05   0.02     0.12   0.06  -0.00    -0.18  -0.04  -0.02
  71   1     0.02   0.01   0.00     0.04   0.01  -0.00    -0.05   0.00  -0.01
  72   1     0.01   0.01   0.01     0.02   0.01  -0.00    -0.03  -0.01  -0.00
  73   8    -0.08  -0.00   0.03    -0.12  -0.00  -0.01    -0.03   0.01   0.00
  74   1    -0.02  -0.00   0.01    -0.03  -0.00  -0.00    -0.01   0.00  -0.00
  75   1    -0.02  -0.00   0.01    -0.03   0.00   0.00    -0.01   0.00   0.00
  76   8     0.01   0.03   0.02     0.06  -0.03  -0.04    -0.02   0.06  -0.02
  77   1     0.00   0.01   0.01     0.02  -0.01  -0.01    -0.00   0.01  -0.01
  78   1     0.00   0.01   0.01     0.01  -0.00  -0.01    -0.00   0.01  -0.00
  79   8    -0.01   0.02   0.04    -0.02   0.02  -0.00    -0.00  -0.01   0.03
  80   1    -0.00   0.01   0.01    -0.00   0.00  -0.00    -0.00  -0.00   0.01
  81   1    -0.00   0.01   0.01    -0.00   0.00  -0.00     0.00  -0.00   0.01
  82   8    -0.02  -0.11  -0.24     0.11   0.02   0.24     0.25  -0.20   0.36
  83   1    -0.00  -0.03  -0.06     0.03   0.00   0.06     0.07  -0.05   0.09
  84   1    -0.00  -0.02  -0.06     0.03   0.00   0.06     0.06  -0.06   0.09
  85   8    -0.00   0.05   0.02     0.06   0.07  -0.00     0.01  -0.03   0.02
  86   1     0.00   0.01   0.01     0.02   0.02  -0.00     0.00  -0.01   0.00
  87   1     0.00   0.01   0.01     0.02   0.02  -0.00    -0.00  -0.01   0.00
  88   8    -0.01   0.02   0.03     0.03   0.00  -0.02    -0.05   0.04  -0.00
  89   1    -0.00   0.01   0.01     0.01   0.00  -0.01    -0.02   0.01   0.00
  90   1    -0.00   0.00   0.01    -0.00  -0.00  -0.01    -0.01   0.01   0.00
  91   8     0.01  -0.01  -0.02    -0.00  -0.05  -0.00     0.08  -0.27   0.01
  92   1     0.01   0.00  -0.01    -0.00  -0.01  -0.00     0.01  -0.06  -0.00
  93   1     0.00  -0.01  -0.01     0.00  -0.01  -0.00     0.02  -0.08   0.00
  94   8    -0.00  -0.04   0.07    -0.02  -0.03  -0.02     0.04   0.00   0.13
  95   1    -0.00  -0.01   0.02    -0.01  -0.01  -0.01     0.01   0.00   0.05
  96   1     0.00  -0.01   0.02    -0.00  -0.01   0.01     0.01   0.00   0.02
  97   8    -0.06   0.03  -0.04    -0.03   0.13  -0.09    -0.00   0.05  -0.03
  98   1    -0.01   0.00  -0.00    -0.01   0.02  -0.02    -0.00   0.01  -0.01
  99   1    -0.02   0.00  -0.01    -0.01   0.02  -0.02     0.00   0.01  -0.00
 100   8    -0.37   0.00   0.12    -0.22  -0.08   0.04    -0.14   0.06   0.02
 101   1    -0.09   0.01   0.02    -0.06  -0.01   0.00    -0.03   0.02   0.00
 102   1    -0.09  -0.01   0.04    -0.05  -0.03   0.02    -0.03   0.01   0.01
 103   8    -0.02  -0.14   0.08     0.01  -0.63   0.01    -0.06   0.11   0.13
 104   1     0.00  -0.03   0.02     0.02  -0.14   0.01    -0.02   0.02   0.03
 105   1    -0.01  -0.03   0.02    -0.01  -0.14  -0.01    -0.01   0.02   0.04
 106   8     0.08  -0.22   0.20    -0.04   0.05  -0.11    -0.07  -0.13  -0.13
 107   1    -0.00  -0.05   0.03    -0.00   0.01  -0.02    -0.02  -0.03  -0.04
 108   1     0.03  -0.03   0.06    -0.01   0.00  -0.03    -0.01  -0.03  -0.03
 109   8    -0.09  -0.19  -0.26    -0.03   0.05   0.02     0.14  -0.03   0.01
 110   1    -0.01  -0.04  -0.06    -0.01   0.01   0.00     0.03  -0.01  -0.00
 111   1    -0.02  -0.04  -0.07    -0.01   0.01   0.00     0.03  -0.01   0.00
 112   8     0.08   0.12  -0.06    -0.15   0.01   0.09    -0.07   0.00  -0.00
 113   1     0.02   0.03  -0.02    -0.03   0.00   0.02    -0.01   0.00   0.00
 114   1     0.02   0.03  -0.01    -0.04   0.00   0.02    -0.01   0.00   0.00
 115   8    -0.03  -0.04   0.04    -0.01  -0.03  -0.05     0.04   0.02   0.02
 116   1    -0.01  -0.01  -0.00    -0.01  -0.01  -0.01     0.01   0.01   0.01
 117   1    -0.00  -0.00   0.01    -0.00  -0.01  -0.01     0.00  -0.00  -0.00
 118   8     0.05  -0.03   0.04     0.04  -0.02   0.10     0.02  -0.01  -0.02
 119   1     0.01  -0.00   0.01     0.01  -0.01   0.03     0.00   0.00  -0.01
 120   1     0.01  -0.01   0.01     0.01   0.01   0.02     0.01  -0.01  -0.00
 121   8     0.06   0.05   0.01    -0.02   0.01  -0.03    -0.02   0.01  -0.04
 122   1     0.02   0.00   0.01    -0.01   0.00  -0.01    -0.01  -0.00  -0.01
 123   1     0.01   0.01   0.01    -0.00   0.01  -0.01    -0.00   0.00  -0.01
 124   8     0.08  -0.07  -0.20    -0.01  -0.10   0.05     0.06   0.08  -0.05
 125   1     0.03  -0.02  -0.08    -0.01  -0.02   0.01     0.02   0.02  -0.01
 126   1     0.02  -0.01  -0.03     0.00  -0.02   0.01     0.01   0.02  -0.01
 127   8     0.07  -0.09  -0.31    -0.03  -0.01   0.02     0.08   0.01  -0.01
 128   1     0.02  -0.04  -0.07    -0.01   0.00   0.01     0.02  -0.00  -0.00
 129   1     0.02  -0.01  -0.05    -0.00  -0.00   0.01     0.01   0.00  -0.00
                      7                      8                      9
                        a                      a                      a 
 Frequencies --    20.0771                20.2714                22.0043
 Red. masses --    14.9219                14.7334                14.8191
 Frc consts  --     0.0000                 0.0000                 0.0000
 IR Inten    --     1.9258                 2.5144                 3.8678
 Raman Activ --     0.0000                 0.0000                 0.0000
 Depolar     --     0.0000                 0.0000                 0.0000
 Atom AN      X      Y      Z        X      Y      Z        X      Y      Z
   1  26    -0.01  -0.06   0.05     0.08   0.03   0.01    -0.07   0.03  -0.01
   2   8     0.05  -0.04  -0.00     0.03   0.01   0.03    -0.02   0.01   0.06
   3  16     0.08  -0.04  -0.05     0.03   0.02   0.05    -0.03   0.02   0.08
   4   8     0.07  -0.03  -0.07     0.02   0.00   0.04    -0.01   0.02   0.03
   5   8     0.03   0.00  -0.03     0.03   0.01   0.04    -0.05   0.01   0.05
   6   8     0.07  -0.05  -0.03     0.01   0.02   0.04    -0.01   0.01   0.08
   7   8     0.00  -0.04   0.01     0.06   0.01  -0.01    -0.04   0.00  -0.00
   8   1     0.00  -0.01   0.00     0.02   0.00  -0.00    -0.01  -0.00  -0.00
   9   1     0.00  -0.01   0.00     0.01   0.00  -0.00    -0.01   0.00   0.00
  10   8    -0.02  -0.03   0.04     0.05   0.00  -0.02    -0.03   0.01  -0.02
  11   1    -0.00  -0.01   0.01     0.02   0.00  -0.01    -0.01  -0.00  -0.00
  12   1    -0.00  -0.01   0.01     0.01   0.00  -0.01    -0.01  -0.00  -0.00
  13   8    -0.01   0.01   0.06     0.05   0.02   0.02    -0.04   0.01  -0.03
  14   1    -0.01   0.00   0.01     0.01   0.00   0.01    -0.01   0.00  -0.01
  15   1     0.00   0.01   0.02     0.01   0.00  -0.00    -0.01   0.00  -0.00
  16   8     0.02   0.01   0.01     0.06  -0.01   0.03    -0.07   0.00  -0.00
  17   1     0.01   0.00  -0.00     0.01  -0.00   0.01    -0.02   0.00   0.00
  18   1     0.00   0.01   0.00     0.02  -0.01   0.01    -0.02  -0.00  -0.00
  19   8    -0.06  -0.01   0.02     0.03   0.00   0.02    -0.06   0.05  -0.04
  20   1    -0.01  -0.00   0.01     0.01  -0.00   0.00    -0.01   0.02  -0.01
  21   1    -0.01  -0.00   0.00     0.00  -0.00   0.01    -0.01   0.01  -0.01
  22   8    -0.05  -0.00  -0.14    -0.18   0.06  -0.10    -0.00   0.05   0.03
  23   1     0.00  -0.00  -0.03    -0.03   0.01  -0.01    -0.00   0.01   0.01
  24   1    -0.01   0.00  -0.02    -0.05   0.02  -0.03    -0.00   0.01  -0.01
  25   8     0.03   0.02  -0.06     0.03  -0.06   0.07    -0.07  -0.01   0.02
  26   1     0.01   0.01  -0.01     0.01  -0.01   0.02    -0.02  -0.00   0.01
  27   1     0.00  -0.00  -0.03    -0.01  -0.02   0.01    -0.01  -0.00   0.01
  28   8     0.17  -0.07  -0.03     0.04   0.02   0.04     0.17   0.06   0.07
  29   1     0.04  -0.01  -0.01     0.01   0.00   0.01     0.03   0.01   0.02
  30   1     0.05  -0.02  -0.01     0.01   0.01   0.01     0.06   0.02   0.01
  31   8     0.04  -0.06   0.01     0.04   0.03   0.01    -0.01  -0.00   0.08
  32   1     0.01  -0.01   0.00     0.01   0.01   0.00    -0.01  -0.00   0.02
  33   1     0.01  -0.02  -0.00     0.01   0.01   0.00     0.00   0.00   0.02
  34   8     0.05  -0.01   0.00     0.05   0.01  -0.00     0.06   0.07  -0.04
  35   1     0.02  -0.01   0.00     0.01   0.00   0.00     0.02   0.02   0.00
  36   1     0.01   0.00  -0.00     0.01  -0.00  -0.00     0.01   0.01  -0.02
  37   8     0.03   0.34   0.09    -0.06   0.06  -0.12    -0.02  -0.13  -0.10
  38   1     0.01   0.08   0.02    -0.02   0.01  -0.03    -0.01  -0.04  -0.02
  39   1    -0.00   0.08   0.03    -0.01   0.02  -0.03    -0.00  -0.03  -0.03
  40   8     0.03   0.05   0.02     0.07  -0.05   0.02    -0.05  -0.02  -0.00
  41   1     0.01   0.01   0.01     0.02  -0.01   0.00    -0.01  -0.01  -0.00
  42   1     0.01   0.01   0.00     0.02  -0.01   0.01    -0.01  -0.01   0.00
  43   8    -0.02  -0.10   0.01     0.07   0.04  -0.01     0.09   0.07   0.01
  44   1    -0.01  -0.03   0.00     0.02   0.01  -0.00     0.02   0.03  -0.01
  45   1    -0.01  -0.02  -0.00     0.02   0.01  -0.00     0.02   0.02  -0.00
  46   8     0.03  -0.01  -0.01     0.06  -0.01  -0.04    -0.04   0.01   0.00
  47   1     0.00   0.01  -0.01     0.01  -0.00  -0.01    -0.01   0.00  -0.00
  48   1     0.00  -0.01  -0.00     0.02  -0.00  -0.01    -0.01   0.00  -0.00
  49   8     0.03   0.01   0.07     0.01   0.04   0.00    -0.02  -0.03  -0.02
  50   1     0.00  -0.00   0.02     0.00   0.01   0.00    -0.01  -0.00  -0.01
  51   1     0.00  -0.00   0.02     0.01   0.02   0.01    -0.01  -0.01  -0.00
  52   8    -0.03  -0.12   0.01     0.03  -0.01  -0.00    -0.03  -0.10   0.02
  53   1    -0.01  -0.03   0.00     0.01   0.00  -0.00    -0.00  -0.02   0.00
  54   1     0.00  -0.03  -0.00     0.01  -0.00   0.00     0.01  -0.03   0.01
  55   8     0.00  -0.01   0.03     0.08  -0.01  -0.02    -0.05  -0.00  -0.01
  56   1     0.00  -0.00   0.01     0.02  -0.02  -0.01    -0.01   0.01   0.00
  57   1     0.01   0.00   0.01     0.02  -0.01   0.00    -0.01   0.00  -0.01
  58   8    -0.07   0.03   0.05     0.04   0.01   0.06    -0.05   0.03  -0.05
  59   1    -0.02   0.01   0.01     0.01   0.00   0.02    -0.01   0.01  -0.01
  60   1    -0.02   0.00   0.01     0.01  -0.00   0.01    -0.01   0.01  -0.01
  61   8    -0.02  -0.08   0.05     0.05  -0.01  -0.03    -0.02  -0.07   0.03
  62   1    -0.00  -0.02   0.01     0.01   0.00  -0.01    -0.01  -0.01   0.01
  63   1    -0.01  -0.02   0.01     0.01  -0.00  -0.01    -0.01  -0.02   0.00
  64   8    -0.07   0.01   0.00     0.04  -0.02   0.06    -0.07   0.04  -0.05
  65   1    -0.02   0.01  -0.00     0.01  -0.01   0.01    -0.02   0.01  -0.01
  66   1    -0.01  -0.00   0.01     0.01  -0.00   0.01    -0.02   0.01  -0.01
  67   8    -0.10   0.11   0.09    -0.23   0.09  -0.28    -0.00   0.00  -0.21
  68   1    -0.03   0.04   0.03    -0.05   0.02  -0.08     0.00  -0.00  -0.06
  69   1    -0.05   0.02   0.03    -0.05   0.03  -0.07     0.01   0.00  -0.06
  70   8    -0.05  -0.04  -0.15    -0.20  -0.08   0.02    -0.00   0.01   0.05
  71   1    -0.02   0.00  -0.04    -0.06   0.00   0.00    -0.00   0.00   0.01
  72   1    -0.00  -0.01  -0.03    -0.03  -0.01   0.01    -0.00   0.00   0.01
  73   8     0.23  -0.07  -0.11     0.05   0.03   0.04     0.29   0.13   0.02
  74   1     0.06  -0.02  -0.03     0.01   0.01   0.01     0.07   0.03   0.02
  75   1     0.06  -0.02  -0.04     0.01   0.01   0.01     0.07   0.03  -0.01
  76   8     0.03   0.03  -0.04     0.03  -0.00   0.03    -0.06   0.01   0.06
  77   1     0.01   0.01  -0.01     0.01  -0.01   0.01    -0.02   0.00   0.01
  78   1     0.01   0.00  -0.01     0.01  -0.00   0.01    -0.01   0.00   0.01
  79   8     0.05   0.00  -0.02     0.05  -0.02   0.02    -0.02   0.02  -0.06
  80   1     0.01  -0.00  -0.01     0.01  -0.00   0.01    -0.00   0.00  -0.01
  81   1     0.01   0.00  -0.00     0.01  -0.00   0.01    -0.01   0.00  -0.01
  82   8    -0.08   0.24   0.10    -0.04   0.07  -0.13     0.00  -0.07  -0.14
  83   1    -0.02   0.05   0.02    -0.01   0.01  -0.03     0.00  -0.02  -0.04
  84   1    -0.02   0.05   0.02    -0.01   0.02  -0.03     0.00  -0.01  -0.03
  85   8     0.04   0.07  -0.02     0.07  -0.07   0.07    -0.08  -0.04   0.01
  86   1     0.01   0.02  -0.01     0.02  -0.02   0.02    -0.02  -0.01   0.00
  87   1     0.01   0.01  -0.01     0.01  -0.02   0.02    -0.02  -0.01   0.00
  88   8    -0.04  -0.02   0.00     0.09  -0.00   0.01     0.09   0.09  -0.05
  89   1    -0.02  -0.01   0.01     0.03  -0.00  -0.00     0.02   0.03  -0.02
  90   1    -0.00  -0.00   0.00     0.02   0.00   0.00     0.02   0.02  -0.01
  91   8    -0.05   0.13  -0.05     0.04   0.04  -0.06    -0.01  -0.03   0.02
  92   1    -0.01   0.03  -0.01     0.01   0.01  -0.01    -0.00  -0.01   0.01
  93   1    -0.02   0.04  -0.01     0.01   0.01  -0.01     0.00  -0.01   0.00
  94   8    -0.01   0.02   0.18     0.06   0.07  -0.12    -0.04  -0.01   0.02
  95   1    -0.00   0.01   0.06     0.02   0.02  -0.04    -0.01  -0.00   0.01
  96   1    -0.00   0.01   0.04     0.01   0.02  -0.01    -0.01  -0.00   0.00
  97   8     0.14  -0.16   0.06     0.04   0.01   0.08     0.13  -0.11   0.29
  98   1     0.03  -0.03   0.01     0.01   0.01   0.01     0.03  -0.01   0.05
  99   1     0.04  -0.03   0.01     0.01   0.00   0.02     0.04  -0.01   0.07
 100   8    -0.17   0.09   0.03    -0.20  -0.22   0.07     0.16   0.01  -0.02
 101   1    -0.05   0.02   0.00    -0.05  -0.04   0.00     0.04  -0.00  -0.00
 102   1    -0.04   0.02   0.02    -0.04  -0.07   0.03     0.04   0.01  -0.02
 103   8    -0.04   0.02   0.18     0.11  -0.07  -0.11     0.07  -0.47   0.01
 104   1    -0.01   0.00   0.04     0.03  -0.01  -0.02     0.03  -0.11   0.01
 105   1    -0.00   0.00   0.04     0.02  -0.01  -0.03     0.01  -0.11   0.00
 106   8    -0.05   0.06  -0.01    -0.01   0.07  -0.11    -0.07   0.07  -0.10
 107   1    -0.00   0.01   0.01     0.01   0.01  -0.01    -0.00   0.01  -0.01
 108   1    -0.02   0.00  -0.01    -0.01   0.00  -0.04    -0.02   0.00  -0.03
 109   8     0.03  -0.15  -0.17    -0.23   0.10   0.07     0.16  -0.03   0.00
 110   1     0.01  -0.04  -0.04    -0.06   0.04   0.01     0.04  -0.02  -0.00
 111   1     0.01  -0.03  -0.04    -0.07   0.01   0.02     0.04  -0.00   0.00
 112   8    -0.23   0.08   0.03    -0.11   0.05   0.05    -0.11  -0.05   0.03
 113   1    -0.05   0.02   0.01    -0.02   0.01   0.01    -0.02  -0.01   0.01
 114   1    -0.06   0.02   0.01    -0.03   0.01   0.01    -0.02  -0.01   0.01
 115   8     0.02   0.00  -0.00     0.02  -0.19  -0.09    -0.01   0.11   0.03
 116   1     0.00  -0.00  -0.00    -0.01  -0.05  -0.04     0.01   0.03   0.02
 117   1     0.01   0.00  -0.00     0.01  -0.03  -0.02    -0.01   0.02   0.00
 118   8    -0.02   0.02   0.09     0.01   0.07   0.03    -0.03  -0.01  -0.03
 119   1    -0.01   0.01   0.02     0.00   0.01   0.01    -0.01   0.00  -0.01
 120   1    -0.00  -0.00   0.02    -0.00   0.02   0.01    -0.01  -0.01  -0.01
 121   8    -0.07  -0.02   0.01     0.00  -0.02   0.02    -0.07   0.04  -0.04
 122   1    -0.02  -0.01   0.01    -0.00   0.00  -0.00    -0.02   0.01  -0.01
 123   1    -0.01  -0.01   0.01     0.00  -0.00   0.00    -0.02  -0.00  -0.00
 124   8     0.02  -0.02  -0.17    -0.19  -0.24   0.13     0.06   0.17  -0.07
 125   1     0.01  -0.01  -0.06    -0.08  -0.04   0.03     0.03   0.03  -0.01
 126   1    -0.01  -0.00  -0.02    -0.02  -0.04   0.02     0.00   0.03  -0.01
 127   8    -0.00  -0.07  -0.18    -0.24   0.06   0.05     0.08   0.01   0.00
 128   1     0.00  -0.03  -0.04    -0.06   0.03   0.02     0.02  -0.00  -0.00
 129   1    -0.00  -0.01  -0.03    -0.04   0.01   0.02     0.01   0.00  -0.00
                     10                     11                     12
                        a                      a                      a 
 Frequencies --    24.9033                25.8235                28.2503
 Red. masses --    14.7037                14.3200                15.1944
 Frc consts  --     0.0000                 0.0000                 0.0000
 IR Inten    --     0.4660                 0.2024                 0.9904
 Raman Activ --     0.0000                 0.0000                 0.0000
 Depolar     --     0.0000                 0.0000                 0.0000
 Atom AN      X      Y      Z        X      Y      Z        X      Y      Z
   1  26     0.06   0.03  -0.06    -0.03   0.03  -0.02    -0.12  -0.04   0.06
   2   8     0.03   0.02  -0.01     0.01   0.01  -0.02    -0.02  -0.03   0.02
   3  16     0.03   0.02  -0.01     0.02   0.01  -0.03    -0.01  -0.03   0.00
   4   8     0.03   0.02  -0.02     0.02   0.02  -0.02    -0.01  -0.02   0.02
   5   8     0.00   0.01  -0.01     0.01   0.01  -0.02     0.02  -0.00   0.00
   6   8     0.02   0.02   0.01     0.02   0.00  -0.02    -0.00  -0.04  -0.03
   7   8     0.02   0.00  -0.02    -0.03  -0.01   0.01    -0.06  -0.02   0.03
   8   1     0.00  -0.00  -0.01    -0.01  -0.00   0.00    -0.01  -0.01   0.01
   9   1     0.00   0.00  -0.00    -0.01  -0.00   0.00    -0.02  -0.01   0.01
  10   8    -0.03   0.01  -0.02    -0.03   0.00  -0.02    -0.04  -0.03   0.00
  11   1    -0.01   0.00  -0.00    -0.01  -0.00  -0.01    -0.01  -0.01   0.00
  12   1    -0.01   0.00  -0.00    -0.01   0.00  -0.01    -0.01  -0.00   0.00
  13   8     0.02   0.03  -0.08    -0.01   0.02   0.03    -0.05  -0.03   0.06
  14   1    -0.01   0.01  -0.03    -0.00   0.01   0.01    -0.01  -0.01   0.01
  15   1     0.01   0.02  -0.00    -0.00   0.01   0.01    -0.02  -0.01   0.01
  16   8     0.03  -0.01  -0.02     0.01   0.02  -0.00    -0.05   0.02   0.01
  17   1     0.01  -0.00  -0.00     0.00   0.00   0.00    -0.01   0.00   0.00
  18   1     0.01  -0.00  -0.00     0.00   0.00  -0.00    -0.01   0.00   0.00
  19   8     0.03   0.03  -0.05    -0.01   0.01  -0.01    -0.05  -0.01   0.02
  20   1     0.00   0.01  -0.01    -0.00   0.00  -0.00    -0.01  -0.00   0.01
  21   1     0.00   0.01  -0.01    -0.00   0.00  -0.00    -0.01  -0.00   0.01
  22   8    -0.04  -0.00   0.01    -0.05   0.00  -0.05     0.15   0.08  -0.15
  23   1    -0.01   0.00   0.00    -0.01   0.00  -0.01     0.03   0.01  -0.03
  24   1    -0.01   0.00   0.01    -0.01   0.00  -0.01     0.03   0.02  -0.06
  25   8    -0.03  -0.04  -0.04     0.02   0.01   0.00     0.09   0.16   0.06
  26   1    -0.00  -0.01  -0.01     0.00   0.00  -0.00     0.02   0.03   0.01
  27   1    -0.01  -0.01  -0.01     0.00  -0.00  -0.00     0.03   0.04   0.01
  28   8     0.04   0.02  -0.02    -0.03  -0.00  -0.03     0.00  -0.03   0.03
  29   1     0.01   0.01  -0.01    -0.00   0.00  -0.01    -0.00  -0.01   0.01
  30   1     0.01   0.01  -0.01    -0.01  -0.00  -0.01     0.00  -0.01   0.00
  31   8     0.01   0.01   0.02    -0.01  -0.01  -0.00    -0.01  -0.04  -0.02
  32   1    -0.00   0.00   0.01    -0.00  -0.00  -0.00     0.00  -0.01  -0.01
  33   1     0.00   0.00   0.01    -0.00  -0.00  -0.00    -0.00  -0.01  -0.01
  34   8     0.03   0.03  -0.02    -0.01   0.00  -0.02    -0.05  -0.01   0.04
  35   1     0.01   0.01  -0.01    -0.00   0.00  -0.01    -0.01  -0.00   0.01
  36   1     0.01   0.01  -0.00    -0.00   0.00  -0.00    -0.01   0.00   0.01
  37   8     0.03  -0.00   0.01     0.12  -0.16   0.10    -0.04   0.19   0.02
  38   1     0.01  -0.00  -0.00     0.04  -0.05   0.02    -0.01   0.05   0.01
  39   1     0.00   0.00  -0.00     0.02  -0.03   0.01    -0.01   0.04   0.01
  40   8     0.02  -0.01  -0.03     0.01  -0.01  -0.01    -0.04   0.02   0.01
  41   1     0.01  -0.01  -0.01     0.00  -0.00  -0.00    -0.01   0.01   0.01
  42   1    -0.00  -0.01  -0.01     0.00  -0.00  -0.00    -0.00   0.01   0.00
  43   8    -0.05  -0.06  -0.04     0.04  -0.03  -0.00    -0.02   0.08   0.04
  44   1    -0.02  -0.02  -0.01     0.01  -0.02   0.01    -0.00   0.02   0.01
  45   1    -0.01  -0.01  -0.01     0.01  -0.01  -0.00    -0.00   0.02   0.01
  46   8     0.02  -0.00  -0.01    -0.02   0.00  -0.02    -0.03   0.02   0.02
  47   1     0.01   0.00   0.00    -0.01   0.01   0.01    -0.01   0.01   0.00
  48   1     0.01   0.00  -0.00    -0.01  -0.00  -0.00    -0.01   0.00   0.01
  49   8     0.13  -0.08  -0.06    -0.02  -0.01   0.02    -0.08   0.01   0.06
  50   1     0.04  -0.02  -0.01    -0.01  -0.00   0.00    -0.02   0.00   0.01
  51   1     0.03  -0.02  -0.03    -0.00  -0.00   0.01    -0.02   0.00   0.02
  52   8     0.02  -0.00  -0.04    -0.00   0.06   0.00    -0.06  -0.00   0.04
  53   1    -0.00  -0.01  -0.01     0.00   0.01   0.00    -0.01   0.01   0.01
  54   1     0.01  -0.00  -0.02    -0.00   0.02   0.00    -0.02  -0.00   0.02
  55   8     0.02  -0.01  -0.03    -0.01  -0.05  -0.01    -0.07  -0.05   0.02
  56   1     0.00  -0.01  -0.01    -0.00  -0.02  -0.01    -0.02  -0.02   0.00
  57   1     0.01  -0.00  -0.00     0.00  -0.01   0.00    -0.01  -0.01   0.01
  58   8    -0.04   0.05  -0.14    -0.02   0.04   0.01    -0.04  -0.03   0.04
  59   1    -0.02   0.01  -0.03    -0.01   0.01   0.00    -0.01  -0.01   0.00
  60   1    -0.00   0.01  -0.03    -0.00   0.01   0.00    -0.01  -0.01   0.01
  61   8    -0.01   0.01   0.01    -0.04   0.03  -0.03    -0.02   0.01   0.03
  62   1    -0.00   0.00   0.00    -0.01   0.00  -0.01    -0.01   0.00   0.01
  63   1     0.00   0.00  -0.00    -0.01   0.01  -0.00    -0.01   0.00   0.01
  64   8    -0.09   0.05  -0.06    -0.02   0.00  -0.03    -0.02  -0.04  -0.01
  65   1    -0.02   0.01  -0.01    -0.01   0.00  -0.01    -0.00  -0.01  -0.00
  66   1    -0.02   0.01  -0.01    -0.00  -0.00  -0.01    -0.00  -0.01  -0.00
  67   8    -0.05   0.01   0.08    -0.06   0.03   0.00     0.11   0.12  -0.32
  68   1    -0.01   0.00   0.02    -0.01   0.01   0.00     0.03   0.04  -0.07
  69   1    -0.01   0.00   0.02    -0.02   0.01   0.00     0.02   0.03  -0.09
  70   8    -0.04  -0.02  -0.01    -0.05  -0.01  -0.03     0.14   0.08  -0.04
  71   1    -0.01  -0.00   0.00    -0.02   0.00  -0.01     0.04   0.02  -0.03
  72   1    -0.00  -0.00  -0.01    -0.01  -0.00  -0.01     0.02   0.01  -0.00
  73   8     0.04   0.03  -0.02    -0.05  -0.01  -0.02     0.03  -0.03  -0.00
  74   1     0.01   0.01  -0.00    -0.01  -0.00  -0.01     0.01  -0.01  -0.00
  75   1     0.01   0.01  -0.01    -0.01  -0.00  -0.00     0.01  -0.00  -0.00
  76   8    -0.03  -0.01   0.03    -0.00  -0.02   0.01     0.04  -0.02  -0.02
  77   1    -0.01  -0.00   0.01     0.00  -0.01   0.00     0.01  -0.01  -0.00
  78   1    -0.00  -0.00   0.00    -0.00  -0.00   0.00     0.01  -0.00  -0.00
  79   8     0.03   0.02  -0.01     0.02   0.02  -0.01    -0.06   0.01   0.02
  80   1     0.01   0.00  -0.00     0.01   0.00  -0.00    -0.01   0.00   0.00
  81   1     0.01   0.00  -0.00     0.00   0.01  -0.00    -0.01   0.00   0.00
  82   8    -0.04   0.01  -0.04    -0.03  -0.02  -0.12     0.05   0.10   0.14
  83   1    -0.01   0.01  -0.01    -0.02   0.02  -0.03     0.02   0.00   0.03
  84   1    -0.01   0.00  -0.02    -0.00  -0.01  -0.05     0.01   0.03   0.05
  85   8    -0.04  -0.03  -0.04     0.01  -0.01  -0.01     0.03   0.07  -0.00
  86   1    -0.01  -0.01  -0.01     0.00  -0.00  -0.00     0.01   0.01   0.00
  87   1    -0.01  -0.01  -0.01     0.00  -0.00  -0.00     0.01   0.02   0.00
  88   8    -0.08   0.03  -0.02     0.03  -0.00  -0.02    -0.00   0.01   0.02
  89   1    -0.03   0.00   0.01     0.01  -0.00  -0.01     0.00   0.01   0.00
  90   1    -0.01   0.01  -0.00     0.00   0.00  -0.01    -0.01   0.00   0.01
  91   8     0.01   0.04   0.03    -0.04   0.15   0.25    -0.03   0.00  -0.07
  92   1    -0.00   0.01   0.01    -0.03   0.04   0.08     0.00  -0.00  -0.03
  93   1     0.00   0.01   0.01     0.00   0.04   0.07    -0.01  -0.00  -0.02
  94   8     0.04   0.09   0.36     0.01   0.05  -0.05    -0.05  -0.03  -0.07
  95   1     0.01   0.03   0.14     0.01   0.02  -0.02    -0.01  -0.01  -0.03
  96   1     0.00   0.02   0.04    -0.00   0.01  -0.01    -0.01  -0.01  -0.01
  97   8     0.00  -0.03  -0.09    -0.02   0.05  -0.12     0.03   0.01   0.11
  98   1    -0.01  -0.01  -0.02    -0.00   0.00  -0.02     0.01   0.01   0.02
  99   1     0.00  -0.00  -0.02    -0.01   0.01  -0.03     0.01   0.00   0.03
 100   8     0.01  -0.13  -0.01    -0.02  -0.20   0.01     0.00  -0.12  -0.00
 101   1     0.00  -0.03  -0.01    -0.00  -0.04  -0.00     0.00  -0.03  -0.00
 102   1     0.00  -0.04  -0.00    -0.00  -0.06   0.01     0.00  -0.03   0.00
 103   8    -0.18  -0.23   0.40     0.04   0.02  -0.07     0.00   0.04  -0.08
 104   1    -0.04  -0.06   0.09     0.01   0.01  -0.01     0.00   0.01  -0.02
 105   1    -0.03  -0.06   0.10     0.01   0.01  -0.02    -0.00   0.01  -0.02
 106   8     0.08  -0.04   0.17     0.15   0.10   0.35    -0.04   0.01  -0.08
 107   1     0.00  -0.00   0.02     0.04   0.03   0.08    -0.02   0.00  -0.02
 108   1     0.02   0.01   0.05     0.03   0.03   0.09    -0.01   0.00  -0.02
 109   8    -0.03   0.08   0.12     0.54  -0.07   0.11     0.30  -0.06   0.07
 110   1    -0.02   0.02   0.02     0.12  -0.08   0.02     0.07  -0.06   0.01
 111   1    -0.01   0.01   0.04     0.16   0.00   0.02     0.09   0.00   0.01
 112   8     0.36  -0.06  -0.13    -0.27   0.02   0.10     0.47  -0.03  -0.13
 113   1     0.07  -0.02  -0.04    -0.05   0.01   0.03     0.09  -0.02  -0.04
 114   1     0.09  -0.02  -0.03    -0.07   0.01   0.02     0.12  -0.01  -0.03
 115   8    -0.01  -0.09  -0.04    -0.00  -0.09  -0.06    -0.06  -0.08  -0.02
 116   1    -0.01  -0.02  -0.02     0.01  -0.02  -0.02    -0.01  -0.02  -0.02
 117   1     0.00  -0.02  -0.01    -0.00  -0.01  -0.01    -0.01  -0.01  -0.00
 118   8    -0.01   0.07  -0.10    -0.04   0.05  -0.02    -0.05  -0.02   0.04
 119   1    -0.01   0.02  -0.03    -0.01   0.01  -0.00    -0.01  -0.01   0.01
 120   1     0.01  -0.01  -0.03    -0.01   0.01  -0.00    -0.01  -0.00   0.01
 121   8     0.01   0.01  -0.01    -0.01   0.00  -0.03    -0.00   0.02   0.01
 122   1     0.01   0.00   0.00    -0.00  -0.00  -0.01     0.01   0.01   0.00
 123   1    -0.00   0.00   0.00    -0.00   0.00  -0.01    -0.00   0.01   0.01
 124   8    -0.19  -0.00   0.05    -0.03  -0.11  -0.14    -0.08  -0.16  -0.06
 125   1    -0.06   0.01   0.02    -0.02  -0.02  -0.03    -0.03  -0.03  -0.01
 126   1    -0.04   0.00  -0.00    -0.00  -0.02  -0.02    -0.01  -0.03  -0.01
 127   8    -0.19   0.11   0.05    -0.08   0.05   0.03    -0.12  -0.00   0.02
 128   1    -0.04   0.04   0.02    -0.01   0.02   0.02    -0.02   0.01   0.01
 129   1    -0.04   0.02   0.00    -0.02   0.01   0.00    -0.02  -0.00   0.00
                     13                     14                     15
                        a                      a                      a 
 Frequencies --    29.6251                29.8680                32.0362
 Red. masses --    15.1120                14.7230                14.7458
 Frc consts  --     0.0000                 0.0000                 0.0000
 IR Inten    --     2.2332                 1.9867                 0.0261
 Raman Activ --     0.0000                 0.0000                 0.0000
 Depolar     --     0.0000                 0.0000                 0.0000
 Atom AN      X      Y      Z        X      Y      Z        X      Y      Z
   1  26    -0.06  -0.06  -0.01     0.07  -0.02   0.04    -0.02   0.05   0.06
   2   8     0.03  -0.06  -0.02     0.00  -0.01   0.00     0.03   0.02   0.01
   3  16     0.10  -0.09   0.00     0.01  -0.01   0.01     0.03   0.03  -0.01
   4   8     0.06  -0.04   0.05     0.01  -0.00   0.01     0.03   0.01  -0.04
   5   8     0.12  -0.07   0.01     0.01  -0.01   0.01    -0.01   0.04  -0.01
   6   8     0.07  -0.07  -0.03     0.01  -0.01   0.01     0.03   0.02   0.00
   7   8    -0.01  -0.07  -0.02     0.04  -0.01   0.03     0.00   0.05   0.02
   8   1    -0.00  -0.02  -0.00     0.01  -0.00   0.01     0.00   0.01   0.00
   9   1     0.00  -0.02  -0.01     0.01  -0.00   0.00     0.00   0.01   0.00
  10   8    -0.05  -0.02   0.01     0.02   0.01   0.05     0.01   0.04   0.04
  11   1    -0.01  -0.01   0.00     0.01   0.00   0.01     0.00   0.01   0.01
  12   1    -0.01  -0.01   0.00     0.00  -0.00   0.01     0.00   0.01   0.01
  13   8    -0.04   0.02   0.02     0.03   0.01   0.02    -0.01   0.03   0.06
  14   1    -0.01   0.01   0.00     0.00   0.01  -0.00     0.00   0.01   0.02
  15   1    -0.00   0.01   0.00     0.01   0.01   0.01    -0.00   0.01   0.01
  16   8     0.04  -0.03   0.02     0.05  -0.03   0.03    -0.01   0.05   0.02
  17   1     0.01  -0.01   0.00     0.01  -0.01   0.01    -0.00   0.01   0.00
  18   1     0.01  -0.01   0.01     0.01  -0.01   0.01    -0.00   0.01   0.01
  19   8    -0.06   0.00  -0.03     0.02   0.00   0.01    -0.03   0.01   0.06
  20   1    -0.01   0.00  -0.01     0.01   0.00   0.00    -0.01  -0.00   0.01
  21   1    -0.02   0.00  -0.01     0.00  -0.00   0.01    -0.01   0.00   0.02
  22   8    -0.08  -0.06  -0.11    -0.05  -0.07   0.08    -0.21  -0.05   0.02
  23   1    -0.01  -0.02  -0.02    -0.01  -0.01   0.01    -0.04  -0.01   0.00
  24   1    -0.03  -0.01  -0.03    -0.01  -0.02   0.03    -0.04  -0.02   0.04
  25   8     0.20  -0.01   0.15    -0.02  -0.11  -0.01    -0.01   0.06  -0.03
  26   1     0.04  -0.00   0.02    -0.00  -0.02  -0.00    -0.00   0.02  -0.00
  27   1     0.04  -0.01   0.02    -0.01  -0.03   0.00    -0.01   0.00  -0.03
  28   8    -0.07  -0.04   0.01    -0.06  -0.02  -0.00     0.04  -0.04  -0.03
  29   1    -0.01  -0.01   0.00    -0.01  -0.00  -0.00     0.01  -0.01  -0.01
  30   1    -0.03  -0.01   0.01    -0.02  -0.01  -0.00     0.01  -0.01  -0.01
  31   8     0.08  -0.11  -0.09     0.01  -0.01  -0.01     0.01   0.04   0.04
  32   1     0.03  -0.03  -0.02     0.01   0.00  -0.00    -0.00   0.01   0.01
  33   1     0.02  -0.03  -0.02     0.00  -0.00  -0.00     0.00   0.01   0.01
  34   8    -0.07  -0.02   0.02    -0.01  -0.04   0.02     0.00  -0.01   0.00
  35   1    -0.02  -0.01   0.00    -0.00  -0.01   0.00     0.00  -0.00  -0.00
  36   1    -0.02  -0.01   0.01    -0.00  -0.01   0.01    -0.00   0.00  -0.00
  37   8     0.04   0.02   0.06    -0.10  -0.02  -0.06     0.15  -0.11  -0.05
  38   1     0.01   0.00   0.02    -0.03  -0.00  -0.01     0.04  -0.03  -0.02
  39   1     0.01   0.01   0.01    -0.02  -0.01  -0.01     0.03  -0.03  -0.01
  40   8     0.04  -0.04   0.03     0.02  -0.06   0.01    -0.01   0.09   0.04
  41   1     0.00   0.00   0.01     0.00  -0.01   0.00    -0.01   0.02   0.01
  42   1     0.02  -0.01   0.01     0.01  -0.01   0.00    -0.00   0.02   0.01
  43   8    -0.01   0.01   0.00     0.05   0.00   0.03    -0.03  -0.09   0.00
  44   1    -0.00   0.00   0.00     0.01   0.01   0.00    -0.01  -0.03   0.00
  45   1    -0.00   0.00   0.00     0.01   0.00   0.01    -0.01  -0.02   0.01
  46   8     0.01  -0.03   0.01     0.03  -0.03   0.03     0.01   0.06   0.02
  47   1    -0.00  -0.00   0.01     0.01  -0.01   0.00     0.00   0.01  -0.00
  48   1    -0.00  -0.01  -0.00     0.01  -0.01   0.01     0.00   0.01   0.00
  49   8    -0.07   0.09   0.02    -0.03  -0.01  -0.00    -0.06   0.12   0.06
  50   1    -0.02   0.02   0.00    -0.00  -0.00   0.00    -0.01   0.02   0.01
  51   1    -0.01   0.03   0.01     0.00   0.01   0.00    -0.01   0.03   0.01
  52   8    -0.02  -0.00   0.00     0.05  -0.02   0.03    -0.03   0.01   0.01
  53   1    -0.00   0.00   0.00     0.01  -0.01   0.01    -0.01  -0.01   0.00
  54   1    -0.01  -0.00   0.01     0.01  -0.00   0.01    -0.01   0.00  -0.00
  55   8     0.01  -0.04   0.01     0.07   0.00   0.06    -0.01   0.07   0.03
  56   1     0.01   0.01   0.01     0.02  -0.00   0.01    -0.00   0.01   0.01
  57   1     0.00  -0.01  -0.00     0.01  -0.00   0.01    -0.00   0.02   0.01
  58   8    -0.13   0.07  -0.06    -0.06   0.07  -0.05    -0.03   0.02   0.10
  59   1    -0.03   0.01  -0.02    -0.02   0.02  -0.01    -0.00   0.01   0.02
  60   1    -0.03   0.02  -0.02    -0.01   0.01  -0.01    -0.01   0.00   0.02
  61   8    -0.05  -0.02   0.01     0.02  -0.03   0.04     0.01   0.03   0.03
  62   1    -0.01  -0.01   0.00     0.00  -0.01   0.01     0.00   0.01   0.01
  63   1    -0.01  -0.00   0.01     0.01  -0.01   0.01     0.00   0.01   0.01
  64   8    -0.14   0.06  -0.10    -0.10   0.07  -0.01     0.00   0.04   0.07
  65   1    -0.03   0.01  -0.02    -0.02   0.02   0.00    -0.00   0.01   0.01
  66   1    -0.03   0.01  -0.02    -0.02   0.01   0.00     0.00   0.01   0.02
  67   8    -0.14   0.02  -0.12    -0.04  -0.08   0.16    -0.14  -0.13   0.31
  68   1    -0.03   0.01  -0.03    -0.01  -0.02   0.04    -0.03  -0.05   0.07
  69   1    -0.04   0.00  -0.03    -0.01  -0.02   0.04    -0.02  -0.03   0.08
  70   8    -0.09  -0.09   0.03    -0.05  -0.06   0.06    -0.21  -0.02  -0.15
  71   1    -0.03  -0.01  -0.00    -0.01  -0.02   0.02    -0.06   0.00  -0.02
  72   1    -0.01  -0.02   0.01    -0.01  -0.01   0.01    -0.03  -0.00  -0.03
  73   8    -0.14  -0.06   0.07    -0.12  -0.05   0.02     0.07  -0.07  -0.10
  74   1    -0.03  -0.01   0.01    -0.03  -0.01   0.00     0.02  -0.02  -0.03
  75   1    -0.03  -0.01   0.03    -0.03  -0.01   0.01     0.02  -0.01  -0.03
  76   8     0.18  -0.13  -0.05     0.03   0.07  -0.06    -0.05  -0.03   0.07
  77   1     0.05  -0.04  -0.01     0.01   0.02  -0.01    -0.01  -0.01   0.02
  78   1     0.04  -0.03  -0.01     0.01   0.01  -0.01    -0.01  -0.00   0.02
  79   8     0.02   0.01   0.07     0.04  -0.02   0.05     0.02   0.03  -0.01
  80   1     0.01  -0.00   0.01     0.01  -0.01   0.01     0.01   0.01  -0.01
  81   1     0.01  -0.00   0.01     0.01  -0.00   0.01     0.00   0.01   0.00
  82   8     0.00   0.06  -0.01    -0.02  -0.02   0.00     0.03  -0.14  -0.07
  83   1    -0.00   0.02  -0.00    -0.00  -0.01   0.00    -0.00  -0.01  -0.01
  84   1     0.00   0.01  -0.01    -0.00  -0.00   0.00     0.01  -0.04  -0.03
  85   8     0.17  -0.01   0.12     0.05  -0.06   0.04    -0.04   0.09  -0.01
  86   1     0.06  -0.01   0.03     0.02  -0.01   0.01    -0.02   0.03  -0.00
  87   1     0.04  -0.00   0.03     0.01  -0.02   0.01    -0.01   0.02  -0.00
  88   8    -0.01   0.04  -0.02     0.05  -0.00   0.00    -0.03  -0.04   0.03
  89   1     0.00   0.01  -0.01     0.02   0.00  -0.01    -0.00  -0.01   0.00
  90   1    -0.01   0.00  -0.00     0.01  -0.00   0.00    -0.01  -0.01   0.00
  91   8    -0.03   0.06   0.08     0.04  -0.06  -0.04     0.03  -0.05  -0.14
  92   1    -0.00   0.01   0.03     0.01  -0.01  -0.01     0.02  -0.01  -0.05
  93   1    -0.00   0.02   0.02     0.01  -0.01  -0.01    -0.01  -0.02  -0.04
  94   8    -0.00   0.14  -0.11     0.09   0.19  -0.09    -0.00   0.07  -0.11
  95   1     0.00   0.04  -0.04     0.03   0.06  -0.03     0.00   0.02  -0.04
  96   1    -0.01   0.03  -0.01     0.01   0.05  -0.02    -0.00   0.02  -0.01
  97   8    -0.04   0.03  -0.05    -0.04   0.01   0.04     0.02  -0.05  -0.11
  98   1    -0.01  -0.00  -0.01    -0.00  -0.00   0.01     0.00  -0.02  -0.02
  99   1    -0.01   0.00  -0.01    -0.01  -0.00   0.01     0.01  -0.01  -0.03
 100   8     0.04  -0.05   0.08    -0.12   0.54  -0.12     0.10  -0.33   0.16
 101   1     0.01  -0.01   0.02    -0.04   0.10  -0.01     0.03  -0.06   0.02
 102   1     0.01  -0.01   0.01    -0.04   0.14  -0.00     0.03  -0.08   0.02
 103   8    -0.01  -0.14  -0.11     0.07  -0.14  -0.11     0.02  -0.06  -0.09
 104   1    -0.00  -0.03  -0.02     0.02  -0.03  -0.02     0.00  -0.01  -0.02
 105   1    -0.01  -0.03  -0.03     0.01  -0.03  -0.03    -0.00  -0.01  -0.03
 106   8     0.06   0.08   0.17    -0.06   0.00  -0.14    -0.15  -0.07  -0.25
 107   1     0.01   0.02   0.03    -0.00  -0.00  -0.02    -0.02  -0.02  -0.04
 108   1     0.01   0.03   0.05    -0.02  -0.01  -0.04    -0.03  -0.04  -0.07
 109   8    -0.18   0.04  -0.08     0.25  -0.09   0.00     0.13  -0.01  -0.07
 110   1    -0.04   0.04  -0.02     0.06  -0.05  -0.00     0.03  -0.02  -0.02
 111   1    -0.06   0.00  -0.02     0.07  -0.01   0.00     0.04   0.01  -0.02
 112   8     0.14  -0.06  -0.05     0.12  -0.00  -0.03     0.26   0.04  -0.02
 113   1     0.02  -0.02  -0.01     0.02  -0.00  -0.01     0.04   0.00  -0.01
 114   1     0.04  -0.01  -0.01     0.03  -0.00  -0.01     0.06   0.01  -0.00
 115   8     0.06   0.16   0.07     0.06  -0.04   0.04    -0.01   0.04   0.01
 116   1     0.02   0.04   0.04     0.01  -0.01   0.00    -0.00   0.01  -0.00
 117   1     0.01   0.02   0.01     0.01  -0.01   0.01    -0.00   0.01   0.00
 118   8    -0.10   0.13  -0.02    -0.11   0.16  -0.10    -0.03   0.07   0.09
 119   1    -0.03   0.02  -0.00    -0.03   0.03  -0.02    -0.01   0.01   0.03
 120   1    -0.02   0.03  -0.00    -0.03   0.02  -0.02    -0.01   0.03   0.02
 121   8    -0.04   0.02  -0.03    -0.01  -0.01   0.05    -0.01   0.03   0.07
 122   1    -0.00   0.01  -0.01    -0.00  -0.00   0.01    -0.00   0.00   0.02
 123   1    -0.01   0.00  -0.00    -0.00  -0.00   0.01    -0.00   0.01   0.02
 124   8     0.09   0.38  -0.03    -0.15  -0.07  -0.12     0.07   0.00  -0.09
 125   1     0.06   0.08   0.01    -0.04  -0.01  -0.04     0.02  -0.00  -0.03
 126   1    -0.00   0.06  -0.02    -0.03  -0.01  -0.02     0.01   0.00  -0.00
 127   8     0.12   0.03  -0.00    -0.23   0.10  -0.08     0.04   0.00  -0.04
 128   1     0.02  -0.00  -0.01    -0.05   0.03  -0.01     0.01  -0.01  -0.01
 129   1     0.01   0.01  -0.01    -0.04   0.03  -0.01     0.01   0.01  -0.00
                     16                     17                     18
                        a                      a                      a 
 Frequencies --    33.5195                36.6546                38.0209
 Red. masses --    15.6714                14.8953                14.9486
 Frc consts  --     0.0000                 0.0000                 0.0000
 IR Inten    --     3.8889                 2.6821                 0.8679
 Raman Activ --     0.0000                 0.0000                 0.0000
 Depolar     --     0.0000                 0.0000                 0.0000
 Atom AN      X      Y      Z        X      Y      Z        X      Y      Z
   1  26     0.17  -0.01   0.04     0.02   0.00  -0.07    -0.02  -0.04   0.06
   2   8     0.02   0.01   0.00    -0.06   0.02  -0.03     0.05  -0.04   0.01
   3  16     0.01   0.02  -0.01    -0.07   0.02  -0.04     0.11  -0.05   0.02
   4   8     0.01   0.01  -0.03    -0.07   0.01   0.01     0.09  -0.01   0.01
   5   8    -0.02   0.03  -0.01     0.00   0.01  -0.02     0.07  -0.03   0.01
   6   8     0.01   0.01   0.01    -0.07   0.03  -0.06     0.10  -0.06   0.02
   7   8     0.05  -0.01   0.07     0.03  -0.00  -0.07    -0.06  -0.08   0.10
   8   1     0.01  -0.01   0.01     0.01   0.00  -0.02    -0.02  -0.02   0.02
   9   1     0.01  -0.00   0.02     0.01  -0.00  -0.02    -0.01  -0.02   0.03
  10   8     0.04  -0.02   0.01     0.02  -0.00  -0.05    -0.03  -0.08  -0.05
  11   1     0.00  -0.01   0.00     0.00   0.00  -0.01    -0.02  -0.03  -0.01
  12   1     0.01  -0.01   0.01     0.01  -0.01  -0.01    -0.00  -0.01  -0.01
  13   8     0.08   0.01  -0.00     0.02  -0.02   0.00    -0.01  -0.02   0.06
  14   1     0.01   0.01  -0.01     0.01  -0.01   0.00     0.00  -0.00   0.00
  15   1     0.03   0.01   0.00     0.00  -0.01  -0.00    -0.00  -0.01   0.02
  16   8     0.05   0.00   0.01     0.01   0.02  -0.03     0.01   0.01   0.02
  17   1     0.01   0.00   0.00    -0.00   0.01  -0.01     0.01   0.00   0.01
  18   1     0.00   0.00   0.00     0.01   0.01  -0.01    -0.01   0.00   0.01
  19   8     0.11   0.00   0.00    -0.02   0.01  -0.04     0.04   0.05  -0.05
  20   1     0.03  -0.00   0.00    -0.00   0.00  -0.01     0.02   0.02  -0.01
  21   1     0.02  -0.00   0.00    -0.00   0.00  -0.01     0.01   0.01  -0.01
  22   8     0.07   0.07  -0.06    -0.14   0.03  -0.09    -0.13  -0.08  -0.05
  23   1     0.01   0.01  -0.01    -0.03   0.01  -0.02    -0.02  -0.02  -0.01
  24   1     0.02   0.01  -0.02    -0.02  -0.00   0.01    -0.03  -0.02   0.00
  25   8    -0.02   0.11  -0.07     0.14   0.26   0.14     0.10   0.17  -0.01
  26   1    -0.01   0.02  -0.01     0.02   0.05   0.02     0.02   0.03  -0.00
  27   1     0.00   0.03  -0.02     0.03   0.05   0.01     0.02   0.03  -0.03
  28   8    -0.12  -0.06  -0.03    -0.02   0.07   0.01    -0.03  -0.01  -0.00
  29   1    -0.03  -0.01  -0.01    -0.02   0.02   0.00    -0.01   0.00  -0.00
  30   1    -0.04  -0.03  -0.01     0.00   0.02  -0.00    -0.02  -0.02  -0.00
  31   8    -0.05   0.03   0.10    -0.00   0.00  -0.14     0.01  -0.11   0.05
  32   1    -0.02   0.01   0.02     0.01   0.00  -0.04     0.01  -0.02   0.01
  33   1    -0.01   0.00   0.02    -0.01  -0.00  -0.03     0.01  -0.02   0.01
  34   8    -0.00  -0.07   0.05    -0.00   0.03  -0.02    -0.00   0.01   0.06
  35   1    -0.01  -0.01   0.00    -0.00   0.01   0.00     0.00   0.00   0.01
  36   1     0.00  -0.02   0.01    -0.00   0.00  -0.00     0.00   0.01   0.02
  37   8    -0.33   0.09  -0.04    -0.39  -0.17  -0.02     0.10  -0.01  -0.12
  38   1    -0.09   0.03   0.00    -0.11  -0.03   0.01     0.03  -0.01  -0.03
  39   1    -0.07   0.02   0.00    -0.07  -0.04   0.00     0.02  -0.00  -0.03
  40   8    -0.05   0.02  -0.01     0.07   0.06  -0.01    -0.09   0.05  -0.00
  41   1    -0.01   0.00  -0.01     0.01   0.01   0.00    -0.02   0.01   0.00
  42   1    -0.02   0.00  -0.01     0.02   0.02  -0.00    -0.02   0.02  -0.01
  43   8     0.04  -0.06   0.07     0.03   0.06  -0.01     0.09   0.29   0.06
  44   1     0.01  -0.01   0.01     0.01   0.03  -0.01     0.03   0.08   0.01
  45   1     0.01  -0.01   0.02     0.01   0.01  -0.01     0.02   0.06   0.01
  46   8     0.03  -0.04   0.07    -0.01  -0.05  -0.02    -0.04  -0.04   0.04
  47   1     0.01  -0.01   0.01     0.00  -0.02   0.00    -0.01  -0.01   0.00
  48   1     0.01  -0.01   0.02     0.00  -0.01  -0.01    -0.01  -0.01   0.02
  49   8     0.00  -0.03  -0.03     0.06   0.04   0.03    -0.02  -0.08   0.05
  50   1     0.01  -0.01  -0.00     0.01   0.01   0.00    -0.00  -0.02   0.02
  51   1     0.00  -0.01  -0.02     0.01   0.01   0.01    -0.02  -0.03   0.00
  52   8     0.12  -0.04   0.06     0.02  -0.15  -0.02     0.02   0.16   0.07
  53   1     0.03  -0.02   0.02     0.00  -0.03  -0.00     0.01   0.06   0.02
  54   1     0.02  -0.01   0.01     0.02  -0.04  -0.01    -0.01   0.04   0.04
  55   8    -0.03  -0.02   0.03     0.02   0.02  -0.06    -0.15  -0.14   0.03
  56   1    -0.01  -0.00   0.01     0.00   0.00  -0.01    -0.03  -0.03   0.01
  57   1    -0.01  -0.00   0.00     0.01   0.01  -0.02    -0.03  -0.02   0.00
  58   8     0.00   0.08  -0.11     0.02  -0.02   0.01     0.05   0.03  -0.05
  59   1    -0.01   0.02  -0.02     0.01  -0.01  -0.00     0.01  -0.00  -0.02
  60   1     0.01   0.02  -0.02    -0.00  -0.00  -0.00     0.01   0.01  -0.01
  61   8     0.07  -0.07   0.06     0.03  -0.10   0.01    -0.01   0.06  -0.05
  62   1     0.01  -0.02   0.02     0.00  -0.02   0.00    -0.00   0.01  -0.01
  63   1     0.02  -0.02   0.01     0.01  -0.03  -0.00    -0.00   0.02  -0.00
  64   8    -0.07   0.05  -0.05     0.04  -0.02  -0.03     0.03  -0.08  -0.12
  65   1    -0.01   0.01  -0.01     0.01  -0.01  -0.01     0.01  -0.02  -0.03
  66   1    -0.01   0.01  -0.01     0.01  -0.00  -0.01     0.01  -0.02  -0.03
  67   8     0.08   0.07  -0.08    -0.04  -0.04   0.26    -0.10  -0.12   0.05
  68   1     0.02   0.02  -0.01    -0.02  -0.02   0.07    -0.03  -0.04   0.01
  69   1     0.01   0.02  -0.02    -0.01  -0.01   0.07    -0.02  -0.03   0.01
  70   8     0.08   0.08  -0.11    -0.14   0.08  -0.14    -0.12   0.04  -0.21
  71   1     0.02   0.02  -0.03    -0.04   0.03  -0.04    -0.04   0.02  -0.04
  72   1     0.02   0.01  -0.02    -0.03   0.01  -0.02    -0.02   0.00  -0.04
  73   8    -0.24  -0.19  -0.05     0.04   0.09  -0.05    -0.11  -0.13  -0.05
  74   1    -0.05  -0.05  -0.03     0.01   0.02  -0.01    -0.02  -0.03  -0.03
  75   1    -0.06  -0.04   0.01     0.01   0.02  -0.01    -0.03  -0.02   0.01
  76   8    -0.10   0.01   0.10     0.09  -0.03  -0.11     0.04  -0.04   0.03
  77   1    -0.03   0.00   0.02     0.04  -0.01  -0.03     0.00  -0.01   0.01
  78   1    -0.02   0.00   0.02     0.02  -0.00  -0.02     0.01  -0.01   0.00
  79   8     0.03  -0.01   0.03    -0.04  -0.02  -0.01     0.02   0.03   0.06
  80   1     0.01  -0.00   0.00    -0.01  -0.00  -0.00     0.01   0.00   0.01
  81   1     0.02  -0.00   0.01    -0.00  -0.01  -0.01     0.01   0.00   0.01
  82   8    -0.07   0.05   0.14    -0.05  -0.07   0.11     0.03   0.01  -0.16
  83   1    -0.01  -0.02   0.03    -0.00  -0.02   0.03    -0.01  -0.00  -0.04
  84   1    -0.02   0.02   0.06    -0.01   0.00   0.04     0.01   0.01  -0.05
  85   8    -0.12   0.03  -0.13     0.14   0.10   0.03    -0.05   0.10  -0.09
  86   1    -0.05   0.01  -0.03     0.04   0.01   0.01    -0.01   0.02  -0.02
  87   1    -0.02   0.01  -0.03     0.03   0.03   0.01    -0.00   0.03  -0.02
  88   8     0.03  -0.02   0.01     0.03   0.05  -0.03     0.11   0.15  -0.02
  89   1     0.01  -0.00   0.00     0.00   0.01  -0.01     0.03   0.05  -0.01
  90   1     0.00  -0.01   0.01     0.01   0.01  -0.01     0.02   0.02   0.01
  91   8     0.06  -0.09  -0.01     0.06  -0.12   0.15    -0.09   0.01  -0.10
  92   1     0.01  -0.02  -0.00    -0.00  -0.03   0.05    -0.00  -0.01  -0.03
  93   1     0.01  -0.03  -0.00     0.03  -0.02   0.04    -0.03   0.00  -0.03
  94   8     0.12   0.16   0.03     0.02  -0.04   0.03    -0.04  -0.09   0.19
  95   1     0.04   0.06   0.01     0.00  -0.02   0.01    -0.01  -0.03   0.05
  96   1     0.02   0.04  -0.01     0.01  -0.01   0.01    -0.00  -0.02   0.02
  97   8    -0.09  -0.01   0.04    -0.04  -0.11   0.36     0.07   0.22   0.05
  98   1    -0.02  -0.01   0.01    -0.01   0.00   0.06     0.02   0.05   0.02
  99   1    -0.03  -0.01   0.01    -0.00  -0.01   0.08     0.01   0.04   0.01
 100   8     0.13  -0.29   0.10    -0.05  -0.02  -0.03     0.01   0.12  -0.09
 101   1     0.04  -0.05   0.01    -0.01  -0.00  -0.01    -0.00   0.02  -0.01
 102   1     0.03  -0.07  -0.00    -0.01  -0.01   0.00    -0.00   0.04  -0.02
 103   8     0.02  -0.07   0.00     0.03   0.06   0.02     0.13   0.05   0.09
 104   1     0.00  -0.02   0.00     0.01   0.02   0.01     0.04   0.01   0.02
 105   1     0.01  -0.02  -0.00     0.00   0.02   0.00     0.02   0.01   0.03
 106   8    -0.00  -0.02  -0.12     0.09  -0.01   0.11    -0.00  -0.04  -0.09
 107   1     0.00  -0.01  -0.02     0.01   0.00   0.02    -0.01  -0.01  -0.02
 108   1    -0.00  -0.01  -0.03     0.02   0.01   0.04     0.01  -0.01  -0.02
 109   8     0.02  -0.05  -0.02     0.03   0.07   0.01    -0.03  -0.05   0.10
 110   1     0.01  -0.02  -0.00     0.00   0.01  -0.00    -0.01  -0.03   0.03
 111   1     0.01  -0.00  -0.00     0.01   0.01   0.00     0.00   0.00   0.02
 112   8    -0.21   0.01   0.05     0.06  -0.03  -0.04    -0.07  -0.02   0.02
 113   1    -0.04   0.01   0.02     0.01  -0.01  -0.01    -0.01  -0.00   0.01
 114   1    -0.05   0.00   0.01     0.02  -0.01  -0.01    -0.01  -0.00   0.01
 115   8    -0.02   0.01   0.07    -0.00  -0.02  -0.02    -0.10  -0.01   0.04
 116   1    -0.00   0.00   0.02    -0.00  -0.01  -0.00    -0.02  -0.00   0.02
 117   1    -0.00  -0.00   0.02    -0.00  -0.01  -0.01    -0.02  -0.01   0.01
 118   8    -0.06   0.13  -0.20     0.08  -0.03   0.08     0.02  -0.09  -0.07
 119   1    -0.01   0.03  -0.05     0.02  -0.01   0.02     0.01  -0.01  -0.02
 120   1    -0.02   0.00  -0.04     0.02  -0.00   0.02     0.00  -0.04  -0.01
 121   8     0.04  -0.04   0.03    -0.01   0.00  -0.07     0.04   0.05  -0.10
 122   1     0.01  -0.01   0.01    -0.00   0.01  -0.02     0.01   0.02  -0.03
 123   1     0.01  -0.02   0.01    -0.00  -0.01  -0.01     0.01   0.01  -0.02
 124   8     0.02   0.14  -0.05     0.00  -0.04  -0.00    -0.04   0.00   0.09
 125   1     0.02   0.03  -0.01    -0.00  -0.01   0.00    -0.01   0.00   0.04
 126   1    -0.01   0.03  -0.01     0.01  -0.01  -0.01    -0.00  -0.01  -0.00
 127   8     0.01   0.05  -0.02     0.02  -0.01   0.00     0.01  -0.02   0.05
 128   1    -0.00   0.01  -0.01     0.01   0.00   0.00     0.00   0.01   0.01
 129   1    -0.00   0.01  -0.01     0.00  -0.00  -0.00     0.00  -0.01  -0.00
                     19                     20                     21
                        a                      a                      a 
 Frequencies --    40.2141                41.6165                42.5920
 Red. masses --    14.8983                15.5678                14.6127
 Frc consts  --     0.0000                 0.0000                 0.0000
 IR Inten    --     3.0249                 2.6721                 0.9158
 Raman Activ --     0.0000                 0.0000                 0.0000
 Depolar     --     0.0000                 0.0000                 0.0000
 Atom AN      X      Y      Z        X      Y      Z        X      Y      Z
   1  26     0.05   0.02   0.01    -0.00   0.06  -0.05    -0.01   0.01   0.01
   2   8     0.03   0.01   0.05     0.11   0.02   0.01    -0.02   0.02  -0.01
   3  16     0.02   0.01   0.08     0.20   0.01   0.05    -0.02   0.04  -0.03
   4   8     0.00  -0.01   0.07     0.18   0.06   0.01    -0.01   0.03  -0.04
   5   8     0.02  -0.00   0.06     0.09  -0.02   0.03    -0.03   0.05  -0.02
   6   8     0.01   0.02   0.06     0.18  -0.03   0.10    -0.01   0.02  -0.03
   7   8     0.01  -0.00   0.02    -0.05  -0.08   0.06    -0.01  -0.04   0.01
   8   1     0.00  -0.00   0.00    -0.02  -0.02   0.01     0.00  -0.02   0.00
   9   1     0.00   0.00   0.01    -0.01  -0.02   0.02    -0.00  -0.01   0.01
  10   8     0.02  -0.01  -0.03    -0.10   0.00  -0.03    -0.03  -0.01  -0.01
  11   1     0.00  -0.01  -0.01    -0.03  -0.01  -0.01    -0.00  -0.01  -0.00
  12   1     0.00  -0.00  -0.01    -0.02   0.00  -0.01    -0.01  -0.01  -0.01
  13   8     0.02  -0.03  -0.05    -0.03   0.09  -0.09     0.01  -0.00   0.04
  14   1     0.01  -0.01  -0.02    -0.00   0.01  -0.01    -0.00   0.00   0.01
  15   1     0.00  -0.01  -0.01    -0.01   0.01  -0.03     0.00   0.00   0.02
  16   8    -0.05   0.02  -0.01     0.04   0.01  -0.01     0.06  -0.01   0.03
  17   1    -0.01   0.01   0.00     0.02   0.00  -0.00     0.01   0.00   0.00
  18   1    -0.01  -0.00  -0.01     0.01   0.01  -0.00     0.02  -0.00   0.01
  19   8     0.06   0.00   0.01     0.00   0.02  -0.01    -0.05   0.02  -0.00
  20   1     0.00  -0.00   0.00    -0.01   0.00  -0.00    -0.00   0.01  -0.00
  21   1     0.01   0.00  -0.00     0.00   0.00  -0.01    -0.02   0.00   0.00
  22   8    -0.03   0.18  -0.18    -0.02  -0.07   0.09     0.07   0.19  -0.23
  23   1     0.00   0.03  -0.03     0.01  -0.02   0.02     0.02   0.04  -0.04
  24   1     0.00   0.04  -0.03    -0.02   0.00   0.01     0.03   0.04  -0.04
  25   8     0.24   0.36   0.36    -0.02  -0.13  -0.15    -0.10  -0.13  -0.10
  26   1     0.04   0.06   0.06     0.00  -0.02  -0.02    -0.02  -0.02  -0.02
  27   1     0.05   0.07   0.05    -0.00  -0.03  -0.03    -0.02  -0.02  -0.00
  28   8     0.03  -0.01   0.06     0.03   0.06  -0.02    -0.02   0.03  -0.03
  29   1     0.02  -0.01   0.02     0.01   0.01  -0.00    -0.01   0.01  -0.01
  30   1     0.01   0.01   0.02     0.01   0.02   0.00    -0.01   0.00  -0.01
  31   8    -0.01   0.01   0.08     0.03  -0.12   0.15    -0.08  -0.01   0.04
  32   1    -0.00   0.00   0.02     0.01  -0.03   0.04    -0.02   0.01   0.01
  33   1    -0.01   0.00   0.02     0.02  -0.03   0.03    -0.02  -0.01   0.00
  34   8    -0.02   0.01   0.03     0.04   0.06  -0.03     0.04   0.01  -0.02
  35   1    -0.00   0.00   0.01     0.01   0.01  -0.01     0.01   0.00  -0.00
  36   1    -0.01   0.00   0.00     0.01   0.02  -0.01     0.01  -0.00  -0.00
  37   8     0.11  -0.03   0.09    -0.39  -0.02  -0.02     0.03  -0.13   0.16
  38   1     0.04  -0.01   0.00    -0.10   0.01  -0.00     0.02  -0.03   0.01
  39   1     0.01  -0.01   0.01    -0.08  -0.00   0.00    -0.01  -0.02   0.02
  40   8    -0.05  -0.08  -0.06    -0.01   0.11   0.00     0.11  -0.02   0.03
  41   1    -0.01  -0.02  -0.02    -0.00   0.03  -0.00     0.03  -0.01   0.01
  42   1    -0.02  -0.02  -0.01    -0.00   0.03   0.00     0.02  -0.01   0.01
  43   8    -0.07  -0.20   0.00    -0.06  -0.11  -0.01     0.10   0.04  -0.01
  44   1    -0.03  -0.06   0.00    -0.02  -0.03  -0.00     0.03   0.01   0.00
  45   1    -0.02  -0.04   0.00    -0.02  -0.02   0.00     0.02   0.01  -0.01
  46   8     0.00  -0.01   0.00    -0.07  -0.11   0.04    -0.03  -0.09  -0.04
  47   1     0.00  -0.00  -0.00    -0.01  -0.03   0.01    -0.01  -0.02  -0.00
  48   1     0.00  -0.00   0.00    -0.01  -0.02   0.01    -0.01  -0.02  -0.00
  49   8    -0.02  -0.09  -0.08     0.03   0.14  -0.06     0.09  -0.03   0.06
  50   1    -0.00  -0.02  -0.02     0.01   0.03  -0.02     0.02  -0.01   0.01
  51   1    -0.00  -0.02  -0.02     0.00   0.03  -0.02     0.02  -0.01   0.02
  52   8     0.02  -0.00  -0.00     0.01   0.06  -0.01    -0.01   0.02   0.00
  53   1     0.00  -0.01  -0.00     0.00   0.00  -0.00     0.01   0.01   0.00
  54   1     0.00   0.00  -0.01    -0.00   0.02  -0.01    -0.00   0.01   0.00
  55   8    -0.01  -0.03  -0.01    -0.10  -0.10   0.03     0.05  -0.10   0.01
  56   1    -0.00  -0.01   0.00    -0.02  -0.02   0.01     0.01  -0.03  -0.00
  57   1    -0.01  -0.01  -0.00    -0.02  -0.01   0.01     0.02  -0.02   0.01
  58   8     0.06  -0.04  -0.06     0.05  -0.01   0.04    -0.06   0.02  -0.00
  59   1     0.01  -0.01  -0.01     0.01  -0.01   0.01    -0.01   0.00  -0.00
  60   1     0.02  -0.01  -0.01     0.01  -0.00   0.01    -0.02   0.01  -0.00
  61   8     0.03  -0.01  -0.02    -0.08   0.01  -0.01    -0.06  -0.03  -0.05
  62   1     0.00  -0.00  -0.00    -0.02  -0.01  -0.00    -0.01  -0.01  -0.01
  63   1     0.01  -0.00  -0.00    -0.01   0.01  -0.00    -0.01  -0.00  -0.01
  64   8     0.04  -0.03  -0.00     0.06  -0.07  -0.00    -0.10   0.01   0.01
[...]
  12   1     0.00  -0.00  -0.00     0.00  -0.00  -0.00     0.00  -0.00  -0.00
  13   8    -0.00   0.00   0.00     0.00  -0.00  -0.00    -0.00   0.00  -0.00
  14   1    -0.00  -0.00  -0.00     0.00   0.00   0.00     0.00   0.00   0.00
  15   1     0.00  -0.00   0.00    -0.00   0.00  -0.00     0.00  -0.00   0.00
  16   8    -0.00  -0.00   0.00    -0.00  -0.00  -0.00    -0.00  -0.00   0.00
  17   1     0.00   0.01   0.00     0.00   0.00   0.00     0.00   0.00   0.00
  18   1     0.00   0.00  -0.00     0.00   0.00   0.00     0.00   0.00  -0.00
  19   8    -0.00   0.00   0.00     0.00  -0.00  -0.00    -0.00   0.00  -0.00
  20   1     0.00   0.00  -0.00     0.00  -0.00   0.00     0.00  -0.00   0.00
  21   1     0.00  -0.00  -0.00    -0.00   0.00   0.00     0.00  -0.00   0.00
  22   8    -0.00  -0.00  -0.00     0.00   0.00   0.00    -0.00  -0.00   0.00
  23   1    -0.00   0.00   0.00     0.00  -0.00  -0.00     0.00   0.00  -0.00
  24   1     0.00   0.00  -0.00    -0.00  -0.00   0.00     0.00   0.00  -0.00
  25   8    -0.00  -0.00   0.00    -0.00   0.00   0.00    -0.00   0.00   0.00
  26   1     0.00  -0.00  -0.00     0.00  -0.00  -0.00     0.00  -0.00  -0.00
  27   1    -0.00   0.01  -0.00     0.00  -0.00   0.00     0.00  -0.00   0.00
  28   8     0.00  -0.00   0.00    -0.00  -0.00  -0.00    -0.00   0.00   0.00
  29   1     0.00   0.00   0.00    -0.00   0.00   0.00     0.00  -0.00  -0.00
  30   1    -0.00   0.00  -0.00     0.00  -0.00   0.00     0.00  -0.00   0.00
  31   8    -0.00  -0.00  -0.00    -0.00   0.00  -0.00    -0.00   0.00   0.00
  32   1     0.00   0.00   0.00     0.00  -0.00   0.00    -0.00  -0.00  -0.00
  33   1    -0.00   0.00  -0.00     0.00  -0.00   0.00     0.00  -0.00   0.00
  34   8    -0.00   0.00   0.00    -0.00  -0.00  -0.00    -0.00   0.00   0.00
  35   1     0.00   0.00  -0.00     0.00   0.00  -0.00     0.00  -0.00   0.00
  36   1     0.00  -0.00  -0.00    -0.00   0.00   0.00     0.00  -0.00  -0.00
  37   8    -0.00   0.00   0.00     0.00  -0.00  -0.00     0.00   0.00   0.00
  38   1     0.00   0.00   0.00    -0.00  -0.00  -0.00    -0.00  -0.00  -0.00
  39   1     0.00  -0.00  -0.00    -0.00   0.00   0.00     0.00  -0.00  -0.00
  40   8     0.00  -0.00  -0.00    -0.00  -0.00  -0.00    -0.00   0.00   0.00
  41   1    -0.00  -0.00  -0.00     0.00   0.00   0.00     0.00   0.00   0.00
  42   1    -0.01   0.02   0.01     0.00   0.00   0.00     0.00  -0.00  -0.00
  43   8    -0.00   0.00   0.00     0.00  -0.00  -0.00    -0.00   0.00   0.00
  44   1     0.01  -0.01  -0.01    -0.01   0.01   0.01     0.00  -0.00  -0.00
  45   1    -0.00   0.00   0.00     0.00  -0.00  -0.00    -0.00   0.00   0.00
  46   8     0.00   0.00  -0.00     0.00   0.00   0.00    -0.00  -0.00   0.00
  47   1    -0.00  -0.00   0.00    -0.01  -0.00   0.00     0.00   0.00  -0.00
  48   1     0.00  -0.00   0.00     0.00  -0.00   0.00     0.00  -0.00   0.00
  49   8    -0.00   0.00   0.00     0.00  -0.00   0.00    -0.00  -0.00   0.00
  50   1     0.00  -0.00  -0.00     0.00   0.00  -0.00     0.00   0.00  -0.00
  51   1     0.00  -0.00  -0.00    -0.00   0.00  -0.00    -0.00   0.00  -0.00
  52   8    -0.00  -0.00  -0.00    -0.00  -0.00  -0.00     0.00   0.00   0.00
  53   1     0.00  -0.00   0.00     0.00  -0.00   0.00     0.00  -0.00   0.00
  54   1     0.00   0.00   0.00     0.00   0.00   0.00    -0.00  -0.00  -0.00
  55   8    -0.00   0.00   0.00     0.00  -0.00   0.00    -0.00   0.00   0.00
  56   1     0.00  -0.00   0.00    -0.02   0.01  -0.01     0.00  -0.00   0.00
  57   1     0.00  -0.00  -0.00     0.01  -0.00  -0.00     0.00  -0.00  -0.00
  58   8    -0.00   0.00   0.00     0.00  -0.00   0.00    -0.00  -0.00   0.00
  59   1     0.00  -0.00   0.00    -0.00   0.00  -0.00     0.00   0.00  -0.00
  60   1     0.00  -0.00  -0.00     0.00   0.00  -0.00     0.00   0.00  -0.00
  61   8    -0.00   0.00  -0.00    -0.00  -0.00  -0.00     0.00   0.00   0.00
  62   1     0.00   0.00   0.00     0.00   0.00   0.00    -0.00  -0.00  -0.00
  63   1     0.00  -0.00   0.00    -0.00   0.00  -0.00     0.00  -0.00   0.00
  64   8    -0.00   0.00   0.00    -0.00  -0.00   0.00    -0.00   0.00   0.00
  65   1     0.00  -0.00  -0.00     0.00   0.00  -0.00    -0.00  -0.00   0.00
  66   1     0.00  -0.00  -0.00    -0.00  -0.00  -0.00     0.00  -0.00  -0.00
  67   8     0.00  -0.00  -0.00    -0.00   0.00  -0.00     0.00  -0.00  -0.00
  68   1    -0.00  -0.00  -0.00     0.00  -0.00   0.00    -0.00   0.00  -0.00
  69   1    -0.00   0.00   0.00    -0.00   0.00   0.00    -0.00   0.00   0.00
  70   8    -0.00  -0.00  -0.00    -0.00   0.00   0.00    -0.00   0.00   0.00
  71   1     0.00   0.00   0.00     0.00   0.00   0.00     0.00   0.00   0.00
  72   1    -0.00   0.00   0.00     0.00  -0.00  -0.00     0.00  -0.00  -0.00
  73   8    -0.00  -0.00  -0.00    -0.00  -0.00  -0.00    -0.00   0.00   0.00
  74   1     0.00   0.00   0.00     0.00   0.00   0.00    -0.00  -0.00  -0.00
  75   1     0.00   0.00  -0.00    -0.00  -0.00   0.00     0.00   0.00  -0.00
  76   8    -0.00   0.00  -0.00    -0.00   0.00  -0.00    -0.00  -0.00   0.00
  77   1    -0.00  -0.00   0.00    -0.00  -0.00   0.00     0.00   0.00  -0.00
  78   1     0.00   0.00   0.00     0.00  -0.00   0.00    -0.00  -0.00  -0.00
  79   8    -0.00  -0.00   0.00    -0.00  -0.00   0.00    -0.00  -0.00   0.00
  80   1     0.00   0.00  -0.00     0.00   0.00  -0.00     0.00   0.00  -0.00
  81   1    -0.00   0.00  -0.00     0.00   0.00  -0.00    -0.00   0.00  -0.00
  82   8     0.00   0.00  -0.00     0.00   0.00  -0.00     0.00   0.00  -0.00
  83   1    -0.00  -0.00   0.00    -0.00  -0.00   0.00    -0.00  -0.00   0.00
  84   1    -0.00   0.00  -0.00    -0.00   0.00  -0.00    -0.00   0.00  -0.00
  85   8     0.05   0.15   0.17     0.00   0.00   0.00    -0.00  -0.00  -0.00
  86   1    -0.21  -0.58  -0.73    -0.00  -0.00  -0.00     0.01   0.02   0.02
  87   1     0.00  -0.01   0.06     0.00   0.00   0.00    -0.00   0.00  -0.00
  88   8     0.00   0.00   0.00     0.00  -0.00   0.00     0.00  -0.00   0.00
  89   1    -0.00   0.00  -0.00    -0.00   0.00  -0.00    -0.00   0.00  -0.00
  90   1     0.00  -0.00  -0.00    -0.00   0.00   0.00     0.00  -0.00  -0.00
  91   8    -0.02  -0.03  -0.02    -0.01  -0.01  -0.01     0.00   0.00   0.00
  92   1     0.08   0.11   0.10     0.02   0.03   0.03    -0.01  -0.01  -0.01
  93   1    -0.00   0.00  -0.02    -0.00  -0.00   0.01     0.00   0.00  -0.00
  94   8    -0.00   0.00   0.00     0.00  -0.00   0.00    -0.00  -0.00  -0.00
  95   1     0.00  -0.00   0.00    -0.00   0.00  -0.00     0.00  -0.00   0.00
  96   1    -0.00  -0.00  -0.00     0.00   0.00   0.00     0.00   0.00   0.00
  97   8    -0.00   0.00   0.00    -0.00  -0.00  -0.00    -0.00   0.00   0.00
  98   1     0.00   0.00   0.00     0.00   0.00   0.00     0.00   0.00   0.00
  99   1     0.00  -0.00  -0.00    -0.00   0.00   0.00     0.00  -0.00  -0.00
 100   8     0.00  -0.00  -0.00    -0.00   0.00   0.00    -0.00  -0.00   0.00
 101   1    -0.01   0.00   0.01     0.01  -0.00  -0.00     0.00  -0.00  -0.00
 102   1    -0.01  -0.00  -0.00     0.00   0.00   0.00     0.00   0.00   0.00
 103   8     0.00   0.00   0.00    -0.00  -0.00  -0.00     0.00  -0.00   0.00
 104   1    -0.00   0.00  -0.00    -0.00   0.00  -0.00    -0.00   0.00  -0.00
 105   1    -0.00  -0.00  -0.00     0.00   0.00   0.00    -0.00  -0.00  -0.00
 106   8    -0.00  -0.00  -0.00     0.00  -0.00   0.00    -0.00   0.00  -0.00
 107   1     0.00   0.00   0.00     0.00   0.00   0.00    -0.00  -0.00  -0.00
 108   1     0.00  -0.00   0.00    -0.00   0.00  -0.00     0.00  -0.00   0.00
 109   8    -0.00   0.00  -0.00    -0.01  -0.00   0.01    -0.00   0.00   0.00
 110   1     0.00  -0.00  -0.00     0.04  -0.00  -0.03     0.01  -0.00  -0.01
 111   1     0.00  -0.00   0.00    -0.01   0.01  -0.00    -0.00  -0.00  -0.00
 112   8    -0.00   0.00   0.00     0.00  -0.00   0.00    -0.00   0.00  -0.00
 113   1     0.00   0.00  -0.00     0.00   0.00  -0.00    -0.00  -0.00   0.00
 114   1     0.00  -0.00   0.00    -0.00   0.00   0.00     0.00  -0.00   0.00
 115   8     0.00  -0.00   0.00    -0.02   0.23  -0.01    -0.00   0.00  -0.00
 116   1    -0.00   0.01  -0.00     0.06  -0.96   0.08     0.00  -0.01   0.00
 117   1     0.00  -0.00  -0.00     0.01   0.03  -0.03     0.00   0.00  -0.00
 118   8     0.00   0.00   0.00     0.00  -0.00   0.00    -0.00   0.00   0.00
 119   1     0.00  -0.00  -0.00    -0.00   0.00   0.00     0.00  -0.00  -0.00
 120   1    -0.00  -0.00  -0.00    -0.00  -0.00  -0.00     0.00  -0.00   0.00
 121   8     0.00  -0.00  -0.00    -0.00   0.00   0.00    -0.00   0.00   0.00
 122   1    -0.00   0.00   0.00     0.00  -0.00  -0.00     0.00  -0.00  -0.00
 123   1     0.00   0.00   0.00    -0.00  -0.00  -0.00    -0.00  -0.00  -0.00
 124   8    -0.00  -0.00   0.00     0.00   0.00  -0.00    -0.01  -0.01   0.00
 125   1     0.00   0.00  -0.00    -0.01  -0.01   0.00     0.02   0.04  -0.01
 126   1     0.00  -0.00   0.00    -0.00   0.00  -0.00     0.00  -0.00   0.00
 127   8     0.01  -0.00  -0.00    -0.00   0.00   0.00     0.18  -0.04  -0.15
 128   1    -0.02   0.00   0.02     0.01  -0.00  -0.01    -0.73   0.15   0.62
 129   1     0.00   0.00  -0.00    -0.00  -0.00   0.00     0.03   0.02  -0.03
                    379                    380                    381
                        a                      a                      a 
 Frequencies --  3651.0038              3663.9594              3695.2014
 Red. masses --     1.8383                 1.8351                 1.8517
 Frc consts  --     0.0000                 0.0000                 0.0000
 IR Inten    --    59.9231                61.9496                42.0485
 Raman Activ --     0.0000                 0.0000                 0.0000
 Depolar     --     0.0000                 0.0000                 0.0000
 Atom AN      X      Y      Z        X      Y      Z        X      Y      Z
   1  26    -0.00   0.00   0.00     0.00   0.00   0.00     0.00   0.00  -0.00
   2   8    -0.00  -0.00  -0.00    -0.00  -0.00   0.00    -0.00  -0.00  -0.00
   3  16    -0.00   0.00   0.00     0.00   0.00   0.00    -0.00   0.00   0.00
   4   8     0.00  -0.00   0.00     0.00  -0.00   0.00     0.00  -0.00   0.00
   5   8     0.00  -0.00  -0.00    -0.00  -0.00  -0.00    -0.00  -0.00  -0.00
   6   8    -0.00  -0.00  -0.00    -0.00  -0.00   0.00    -0.00  -0.00   0.00
   7   8    -0.00  -0.00  -0.00    -0.00  -0.00  -0.00    -0.00  -0.00  -0.00
   8   1    -0.00  -0.00   0.00    -0.00   0.00   0.00     0.00  -0.00   0.00
   9   1     0.00   0.00   0.00     0.00   0.00  -0.00     0.00   0.00  -0.00
  10   8    -0.00  -0.00  -0.00    -0.00  -0.00  -0.00    -0.00   0.00  -0.00
  11   1     0.00   0.00   0.00     0.00   0.00   0.00     0.00   0.00   0.00
  12   1    -0.00  -0.00   0.00     0.00   0.00  -0.00     0.00  -0.00  -0.00
  13   8     0.00  -0.00   0.00     0.00  -0.00   0.00     0.00  -0.00   0.00
  14   1    -0.00  -0.00  -0.00    -0.00  -0.00  -0.00     0.00  -0.00  -0.00
  15   1    -0.00   0.00  -0.00    -0.00   0.00  -0.00    -0.01   0.01  -0.00
  16   8    -0.00  -0.00  -0.00    -0.00  -0.00  -0.00    -0.00  -0.00  -0.00
  17   1     0.00   0.00   0.00     0.00   0.00   0.00     0.00   0.00   0.00
  18   1    -0.00  -0.00   0.00    -0.00  -0.00   0.00     0.00  -0.00   0.00
  19   8     0.00  -0.00   0.01    -0.00   0.00   0.00    -0.00  -0.00   0.00
  20   1    -0.00   0.01  -0.03    -0.00   0.00  -0.00     0.00   0.00  -0.00
  21   1     0.00  -0.00   0.00     0.02  -0.02  -0.00     0.00  -0.00  -0.00
  22   8     0.00  -0.00  -0.00    -0.00  -0.00  -0.00     0.00  -0.00  -0.00
  23   1    -0.00   0.00   0.00    -0.00   0.00   0.00    -0.00   0.00   0.00
  24   1     0.00   0.00  -0.00     0.00   0.00  -0.00     0.00   0.00  -0.00
  25   8     0.00  -0.00  -0.00     0.00  -0.00  -0.00     0.00  -0.00   0.00
  26   1    -0.00   0.00   0.00    -0.00   0.00   0.00    -0.00   0.00   0.00
  27   1    -0.00   0.00  -0.00    -0.00   0.00  -0.00    -0.00   0.00  -0.00
  28   8     0.00  -0.00   0.00    -0.00  -0.00   0.00     0.00  -0.00   0.00
  29   1    -0.00   0.00   0.00     0.00  -0.00  -0.00     0.00   0.00  -0.00
  30   1    -0.00   0.00  -0.00    -0.00   0.00  -0.00    -0.00   0.00  -0.00
  31   8     0.00  -0.00  -0.00    -0.00  -0.00  -0.00     0.00  -0.00   0.00
  32   1     0.00   0.00   0.00     0.00   0.00   0.00     0.00   0.00   0.00
  33   1    -0.00   0.00  -0.00     0.00  -0.00   0.00    -0.00   0.00  -0.00
  34   8     0.00  -0.00   0.00    -0.00  -0.00   0.00    -0.00  -0.00   0.00
  35   1     0.00   0.00  -0.00     0.00   0.00  -0.00     0.00   0.00  -0.00
  36   1    -0.00   0.00   0.00    -0.00   0.00   0.00    -0.00   0.00   0.00
  37   8    -0.00  -0.00  -0.00     0.00   0.00   0.00    -0.00   0.00  -0.00
  38   1     0.00   0.00   0.00    -0.00  -0.00  -0.00     0.00   0.00   0.00
  39   1     0.00  -0.00  -0.00     0.00  -0.00  -0.00     0.00  -0.00  -0.00
  40   8     0.00  -0.00  -0.00     0.00  -0.00  -0.00    -0.00  -0.00  -0.00
  41   1    -0.00  -0.00   0.00    -0.00   0.00   0.00     0.00   0.00   0.00
  42   1    -0.00   0.00   0.00    -0.00   0.00   0.00    -0.00   0.00   0.00
  43   8     0.00   0.00   0.00    -0.00   0.00   0.00    -0.00   0.00   0.00
  44   1     0.01  -0.02  -0.02     0.00  -0.00  -0.00     0.00  -0.00  -0.00
  45   1    -0.02  -0.00  -0.00     0.00   0.00   0.00     0.00   0.00  -0.00
  46   8    -0.00   0.00  -0.00    -0.00  -0.00   0.00    -0.00   0.00  -0.00
  47   1     0.00   0.00  -0.00     0.00   0.00  -0.00     0.00   0.00  -0.00
  48   1     0.00  -0.00   0.00     0.00  -0.00   0.00     0.00  -0.00   0.00
  49   8     0.00  -0.00  -0.00     0.00  -0.00  -0.00     0.01  -0.00   0.00
  50   1    -0.00  -0.00   0.00    -0.00   0.00   0.00     0.00  -0.00  -0.00
  51   1    -0.00   0.00  -0.00    -0.00   0.00  -0.00    -0.02   0.02  -0.00
  52   8    -0.00  -0.00  -0.00    -0.00  -0.00   0.00    -0.00  -0.00   0.00
  53   1     0.00   0.00   0.00    -0.00  -0.00  -0.00    -0.00  -0.00  -0.00
  54   1     0.00   0.00   0.00     0.00   0.00   0.00     0.00   0.00   0.00
  55   8     0.00  -0.00  -0.00    -0.00  -0.00  -0.00    -0.00   0.00  -0.00
  56   1    -0.00   0.00   0.00     0.00  -0.00   0.00     0.00  -0.00   0.00
  57   1    -0.00   0.00   0.00    -0.00   0.00   0.00     0.00  -0.00  -0.00
  58   8     0.00   0.00  -0.00     0.00  -0.00   0.00    -0.00   0.00   0.00
  59   1    -0.00   0.00  -0.00    -0.00   0.00  -0.00     0.00  -0.00   0.00
  60   1    -0.00  -0.00   0.00    -0.00  -0.00   0.00     0.00  -0.00  -0.00
  61   8    -0.00   0.00  -0.00    -0.00   0.00   0.00    -0.00   0.00  -0.00
  62   1     0.00   0.00   0.00     0.00   0.00   0.00     0.00  -0.00   0.00
  63   1     0.00  -0.00   0.00    -0.00   0.00  -0.00     0.00  -0.00   0.00
  64   8     0.00   0.00  -0.00    -0.00   0.00   0.00    -0.00   0.00   0.00
  65   1    -0.00  -0.00   0.00     0.01  -0.00  -0.02     0.00  -0.00  -0.00
  66   1    -0.00  -0.00  -0.00    -0.00   0.00   0.00     0.00  -0.00  -0.00
  67   8     0.00  -0.00   0.00    -0.00   0.00   0.00     0.00  -0.00   0.00
  68   1    -0.00   0.00  -0.00    -0.00  -0.00  -0.00    -0.00   0.00  -0.00
  69   1    -0.00   0.00   0.00     0.00  -0.00  -0.00    -0.00   0.00   0.00
  70   8     0.00  -0.00  -0.00     0.00  -0.00  -0.00     0.00  -0.00  -0.00
  71   1    -0.00  -0.00  -0.00    -0.00  -0.00  -0.00    -0.00  -0.00  -0.00
  72   1    -0.00   0.00   0.00    -0.00   0.00   0.00    -0.00   0.00   0.00
  73   8     0.00   0.00   0.00    -0.00   0.00   0.00     0.00   0.00  -0.00
  74   1    -0.00  -0.00  -0.00    -0.00  -0.00  -0.00    -0.00  -0.00   0.00
  75   1    -0.00  -0.00   0.00     0.00   0.00  -0.00    -0.00  -0.00   0.00
  76   8    -0.00  -0.00  -0.00    -0.00  -0.00   0.00    -0.00  -0.00  -0.00
  77   1    -0.00  -0.00   0.00     0.00   0.00  -0.00     0.00   0.00  -0.00
  78   1     0.00   0.00   0.00     0.00   0.00   0.00     0.00   0.00   0.00
  79   8     0.00  -0.00   0.00     0.00  -0.00   0.00    -0.00  -0.00   0.00
  80   1    -0.00   0.00   0.00     0.00   0.00  -0.00     0.00   0.00  -0.00
  81   1    -0.00   0.00  -0.00    -0.00   0.00  -0.00    -0.00   0.00  -0.00
  82   8    -0.00  -0.00   0.00    -0.00  -0.00   0.00    -0.00  -0.00   0.00
  83   1     0.00   0.00  -0.00     0.00   0.00  -0.00     0.00   0.00  -0.00
  84   1     0.00  -0.00   0.00     0.00  -0.00   0.00     0.00   0.00   0.00
  85   8    -0.00  -0.00  -0.00    -0.00  -0.00  -0.00    -0.00  -0.00  -0.00
  86   1     0.00   0.00   0.00     0.00   0.00   0.00     0.00   0.00   0.00
  87   1    -0.00  -0.00   0.00    -0.00   0.00  -0.00    -0.00   0.00  -0.00
  88   8    -0.16   0.03  -0.17     0.00  -0.00   0.00     0.00   0.00   0.00
  89   1     0.67  -0.09   0.69    -0.01   0.00  -0.01    -0.00   0.00  -0.00
  90   1    -0.01  -0.01  -0.03     0.00  -0.00  -0.00     0.00  -0.00  -0.00
  91   8    -0.00  -0.00  -0.00     0.00  -0.00   0.00    -0.00  -0.00   0.00
  92   1     0.00   0.00   0.00    -0.00  -0.00  -0.00     0.00   0.00   0.00
  93   1    -0.00  -0.00   0.00     0.00   0.00  -0.00     0.00   0.00  -0.00
  94   8    -0.00   0.00  -0.00    -0.00   0.00  -0.00    -0.22   0.08  -0.01
  95   1     0.00  -0.00   0.00     0.00  -0.00   0.00     0.91  -0.33   0.05
  96   1    -0.00  -0.00   0.00    -0.00   0.00   0.00    -0.02   0.02  -0.00
  97   8    -0.00  -0.00  -0.00    -0.00   0.00   0.00     0.00  -0.00  -0.00
  98   1     0.00   0.00   0.00    -0.00  -0.00  -0.00     0.00   0.00  -0.00
  99   1    -0.00   0.00   0.00     0.00  -0.00  -0.00    -0.00   0.00   0.00
 100   8     0.00  -0.00  -0.00    -0.00  -0.00  -0.00    -0.00  -0.00  -0.00
 101   1    -0.00   0.00   0.00    -0.00   0.00   0.00     0.00  -0.00  -0.00
 102   1     0.00   0.00   0.00     0.00   0.00   0.00     0.00   0.00   0.00
 103   8    -0.00  -0.00  -0.00     0.00   0.00   0.00     0.00  -0.00   0.00
 104   1    -0.00  -0.00   0.00    -0.00   0.00  -0.00    -0.00   0.00  -0.00
 105   1     0.00   0.01   0.00    -0.00  -0.00  -0.00     0.00   0.00   0.00
 106   8     0.00   0.00   0.00     0.00   0.00   0.00     0.00  -0.00   0.00
 107   1    -0.00  -0.00  -0.00    -0.00  -0.01  -0.00     0.00  -0.00  -0.00
 108   1     0.00   0.00  -0.00     0.00   0.00  -0.00    -0.00   0.00  -0.00
 109   8     0.00   0.00  -0.00     0.00   0.00  -0.00    -0.00   0.00  -0.00
 110   1    -0.00   0.00   0.00    -0.00   0.00   0.00    -0.00  -0.00   0.00
 111   1     0.00  -0.00   0.00     0.00  -0.00   0.00     0.00  -0.00   0.00
 112   8     0.00  -0.00   0.00    -0.00   0.00   0.00    -0.00   0.00   0.00
 113   1     0.00   0.00  -0.00    -0.00   0.00  -0.00     0.00   0.00  -0.00
 114   1    -0.00   0.01  -0.00     0.00  -0.00   0.00     0.00  -0.00  -0.00
 115   8     0.00   0.00  -0.00    -0.00   0.00  -0.00    -0.00   0.00  -0.00
 116   1     0.00  -0.00   0.00     0.00  -0.00   0.00     0.00  -0.00   0.00
 117   1    -0.00  -0.00   0.00    -0.00  -0.00   0.00     0.00  -0.00   0.00
 118   8     0.00   0.00   0.00     0.00  -0.00  -0.00    -0.00  -0.00   0.00
 119   1    -0.00  -0.00   0.00    -0.00   0.00   0.00     0.00  -0.00  -0.00
 120   1    -0.00  -0.00  -0.00    -0.00  -0.00  -0.00     0.00  -0.00   0.00
 121   8     0.00  -0.00  -0.00     0.12  -0.12  -0.17    -0.00   0.00   0.00
 122   1    -0.01   0.01   0.01    -0.47   0.49   0.70     0.00  -0.00  -0.00
 123   1    -0.00  -0.00  -0.00    -0.00  -0.02  -0.03     0.00  -0.00  -0.00
 124   8     0.00   0.00  -0.00    -0.00   0.00  -0.00    -0.00   0.00  -0.00
 125   1    -0.00  -0.00   0.00    -0.00  -0.00   0.00    -0.00  -0.00   0.00
 126   1     0.00  -0.00   0.00     0.00  -0.00   0.00     0.00  -0.00   0.00
 127   8     0.00   0.00  -0.00     0.00   0.00  -0.00     0.00   0.00  -0.00
 128   1    -0.00   0.00   0.00    -0.00   0.00   0.00     0.00  -0.00  -0.00
 129   1    -0.00  -0.00   0.00    -0.00  -0.00   0.00    -0.00  -0.00   0.00
