      -----------------------------------------------------------      
     |                   =====================                   |     
     |                           x T B                           |     
     |                   =====================                   |     
     |                         S. Grimme                         |     
     |          Mulliken Center for Theoretical Chemistry        |     
     |                    University of Bonn                     |     
      -----------------------------------------------------------      

   * xtb version 6.6.0 (conda-forge) compiled by 'runner@Mac-1676020848589.local' on 2023-02-10

   xtb is free software: you can redistribute it and/or modify it under
   the terms of the GNU Lesser General Public License as published by
   the Free Software Foundation, either version 3 of the License, or
   (at your option) any later version.
   
   xtb is distributed in the hope that it will be useful,
   but WITHOUT ANY WARRANTY; without even the implied warranty of
   MERCHANTABILITY or FITNESS FOR A PARTICULAR PURPOSE.  See the
   GNU Lesser General Public License for more details.
   
   Cite this work as:
   * C. Bannwarth, E. Caldeweyher, S. Ehlert, A. Hansen, P. Pracht,
     J. Seibert, S. Spicher, S. Grimme, WIREs Comput. Mol. Sci., 2020, 11,
     e01493. DOI: 10.1002/wcms.1493
   
   for GFN2-xTB:
   * C. Bannwarth, S. Ehlert and S. Grimme., J. Chem. Theory Comput., 2019,
     15, 1652-1671. DOI: 10.1021/acs.jctc.8b01176
   for GFN1-xTB:
   * S. Grimme, C. Bannwarth, P. Shushkov, J. Chem. Theory Comput., 2017,
     13, 1989-2009. DOI: 10.1021/acs.jctc.7b00118
   for GFN0-xTB:
   * P. Pracht, E. Caldeweyher, S. Ehlert, S. Grimme, ChemRxiv, 2019, preprint.
     DOI: 10.26434/chemrxiv.8326202.v1
   for GFN-FF:
   * S. Spicher and S. Grimme, Angew. Chem. Int. Ed., 2020, 59, 15665-15673.
     DOI: 10.1002/anie.202004239
   
   for ALPB and GBSA implicit solvation:
   * S. Ehlert, M. Stahn, S. Spicher, S. Grimme, J. Chem. Theory Comput.,
     2021, 17, 4250-4261. DOI: 10.1021/acs.jctc.1c00471
   
   for DFT-D4:
   * E. Caldeweyher, C. Bannwarth and S. Grimme, J. Chem. Phys., 2017,
     147, 034112. DOI: 10.1063/1.4993215
   * E. Caldeweyher, S. Ehlert, A. Hansen, H. Neugebauer, S. Spicher,
     C. Bannwarth and S. Grimme, J. Chem. Phys., 2019, 150, 154122.
     DOI: 10.1063/1.5090222
   * E. Caldeweyher, J.-M. Mewes, S. Ehlert and S. Grimme, Phys. Chem. Chem. Phys.
     2020, 22, 8499-8512. DOI: 10.1039/D0CP00502A
   
   for sTDA-xTB:
   * S. Grimme and C. Bannwarth, J. Chem. Phys., 2016, 145, 054103.
     DOI: 10.1063/1.4959605
   
   in the mass-spec context:
   * V. Asgeirsson, C. Bauer and S. Grimme, Chem. Sci., 2017, 8, 4879.
     DOI: 10.1039/c7sc00601b
   * J. Koopman and S. Grimme, ACS Omega 2019, 4, 12, 15120-15133.
     DOI: 10.1021/acsomega.9b02011
   
   for metadynamics refer to:
   * S. Grimme, J. Chem. Theory Comput., 2019, 155, 2847-2862
     DOI: 10.1021/acs.jctc.9b00143
   
   for SPH calculations refer to:
   * S. Spicher and S. Grimme, J. Chem. Theory Comput., 2021, 17, 1701-1714
     DOI: 10.1021/acs.jctc.0c01306
   
   with help from (in alphabetical order)
   P. Atkinson, C. Bannwarth, F. Bohle, G. Brandenburg, E. Caldeweyher
   M. Checinski, S. Dohm, S. Ehlert, S. Ehrlich, I. Gerasimov, C. Hölzer
   A. Katbashev, J. Koopman, C. Lavigne, S. Lehtola, F. März, M. Müller,
   F. Musil, H. Neugebauer, J. Pisarek, C. Plett, P. Pracht, F. Pultar,
   J. Seibert, P. Shushkov, S. Spicher, M. Stahn, M. Steiner, T. Strunk,
   J. Stückrath, T. Rose, and J. Unsleber
   
 * started run on 2024/05/17 at 16:37:03.559     

           -------------------------------------------------
          |                Calculation Setup                |
           -------------------------------------------------

          program call               : xtb monosubstituted_Sulfate_solvated_radius_5_solvated_radius_7_0_5.xyz --gfn2 --chrg 0 --uhf 5 --hess --alpb water
          coordinate file            : monosubstituted_Sulfate_solvated_radius_5_solvated_radius_7_0_5.xyz
          omp threads                :                     8

   ID    Z sym.   atoms
    1   26 Fe     1
    2    8 O      2, 4-7, 10, 13, 16, 19, 22, 25, 28, 31, 34, 37, 40, 43, 46,
                  49, 52, 55, 58, 61, 64, 67, 70, 73, 76, 79, 82, 85, 88, 91,
                  94, 97, 100, 103, 106, 109, 112, 115, 118, 121, 124, 127
    3   16 S      3
    4    1 H      8, 9, 11, 12, 14, 15, 17, 18, 20, 21, 23, 24, 26, 27, 29,
                  30, 32, 33, 35, 36, 38, 39, 41, 42, 44, 45, 47, 48, 50, 51,
                  53, 54, 56, 57, 59, 60, 62, 63, 65, 66, 68, 69, 71, 72, 74,
                  75, 77, 78, 80, 81, 83, 84, 86, 87, 89, 90, 92, 93, 95, 96,
                  98, 99, 101, 102, 104, 105, 107, 108, 110, 111, 113, 114,
                  116, 117, 119, 120, 122, 123, 125, 126, 128, 129

molecular fragmentation (1/2 indicates fragments):
122222222112222222222222222222222222222222222222222222222222222222222222
222222222222222222222222222222222222222222222222222222222
# atoms in fragment 1/2:     3   126
 fragment masses (1/2) :       72.85      817.68
CMA distance (Bohr)    :   2.405
constraining FC (au)   :  0.0500

           -------------------------------------------------
          |                 G F N 2 - x T B                 |
           -------------------------------------------------

        Reference                      10.1021/acs.jctc.8b01176
      * Hamiltonian:
        H0-scaling (s, p, d)           1.850000    2.230000    2.230000
        zeta-weighting                 0.500000
      * Dispersion:
        s8                             2.700000
        a1                             0.520000
        a2                             5.000000
        s9                             5.000000
      * Repulsion:
        kExp                           1.500000    1.000000
        rExp                           1.000000
      * Coulomb:
        alpha                          2.000000
        third order                    shell-resolved
        anisotropic                    true
        a3                             3.000000
        a5                             4.000000
        cn-shift                       1.200000
        cn-exp                         4.000000
        max-rad                        5.000000

      * Solvation model:               ALPB
        Solvent                        water
        Parameter file                 internal GFN2-xTB/ALPB
        Dielectric constant                8.0200E+01
        Reference state                gsolv [1 M gas/solution]
        Free energy shift                  1.0808E-03 Eh       6.7819E-01 kcal/mol
        Temperature                        2.9815E+02 K
        Density                            1.0000E+00 kg/L
        Solvent mass                       1.8000E+01 g/mol
        Interaction kernel             P16
        Born radius scaling (c1)           1.4744E+00
        Born radii integrator          GBOBC
        Born offset                        0.0000E+00 a0       0.0000E+00 AA
        H-bond correction              true
        Ion screening                  false
        Surface tension                    1.0000E-05 Eh       1.5569E+01 dyn/cm
        Grid points                               230 per atom
q/qsh data taken from xtbrestart
CAMM data taken from xtbrestart

          ...................................................
          :                      SETUP                      :
          :.................................................:
          :  # basis functions                 282          :
          :  # atomic orbitals                 280          :
          :  # shells                          178          :
          :  # electrons                       366          :
          :  max. iterations                   250          :
          :  Hamiltonian                  GFN2-xTB          :
          :  restarted?                       true          :
          :  GBSA solvation                   true          :
          :  PC potential                    false          :
          :  electronic temp.          300.0000000     K    :
          :  accuracy                    1.0000000          :
          :  -> integral cutoff          0.2500000E+02      :
          :  -> integral neglect         0.1000000E-07      :
          :  -> SCF convergence          0.1000000E-05 Eh   :
          :  -> wf. convergence          0.1000000E-03 e    :
          :  Broyden damping             0.4000000          :
          ...................................................

 iter      E             dE          RMSdq      gap      omega  full diag
   1   -233.1071307 -0.233107E+03  0.105E-05    6.91       0.0  T
   2   -233.1071307  0.102318E-11  0.127E-05    6.91     694.0  T
   3   -233.1071307 -0.198952E-11  0.398E-06    6.91    2213.8  T

   *** convergence criteria satisfied after 3 iterations ***

         #    Occupation            Energy/Eh            Energy/eV
      -------------------------------------------------------------
         1        2.0000           -0.7423542             -20.2005
       ...           ...                  ...                  ...
       179        2.0000           -0.3961329             -10.7793
       180        2.0000           -0.3952969             -10.7566
       181        1.8187           -0.3162981              -8.6069
       182        1.1379           -0.3131243              -8.5205
       183        1.0421           -0.3118961              -8.4871
       184        1.0013           -0.3085819              -8.3969
       185        1.0000           -0.3040559              -8.2738 (HOMO)
       186                         -0.0499988              -1.3605 (LUMO)
       187                         -0.0269155              -0.7324
       188                          0.0203337               0.5533
       189                          0.0265798               0.7233
       190                          0.0389098               1.0588
       ...                                ...                  ...
       280                          1.3486199              36.6978
      -------------------------------------------------------------
                  HL-Gap            0.2540571 Eh            6.9132 eV
             Fermi-level           -0.2459466 Eh           -6.6925 eV

 SCC (total)                   0 d,  0 h,  0 min,  0.174 sec
 SCC setup                      ...        0 min,  0.005 sec (  2.806%)
 Dispersion                     ...        0 min,  0.003 sec (  1.888%)
 classical contributions        ...        0 min,  0.001 sec (  0.303%)
 integral evaluation            ...        0 min,  0.011 sec (  6.076%)
 iterations                     ...        0 min,  0.059 sec ( 33.997%)
 molecular gradient             ...        0 min,  0.095 sec ( 54.220%)
 printout                       ...        0 min,  0.001 sec (  0.692%)

         :::::::::::::::::::::::::::::::::::::::::::::::::::::
         ::                     SUMMARY                     ::
         :::::::::::::::::::::::::::::::::::::::::::::::::::::
         :: total energy            -231.752173869041 Eh    ::
         :: total w/o Gsasa/hb      -231.535903934616 Eh    ::
         :: gradient norm              0.000046682513 Eh/a0 ::
         :: HOMO-LUMO gap              6.913244865941 eV    ::
         ::.................................................::
         :: SCC energy              -233.107130688852 Eh    ::
         :: -> isotropic ES            1.652693854285 Eh    ::
         :: -> anisotropic ES         -0.330321876275 Eh    ::
         :: -> anisotropic XC         -0.023550252269 Eh    ::
         :: -> dispersion             -0.100800963184 Eh    ::
         :: -> Gsolv                  -0.495248774984 Eh    ::
         ::    -> Gelec               -0.278978840558 Eh    ::
         ::    -> Gsasa                0.031093204798 Eh    ::
         ::    -> Ghb                 -0.248443898922 Eh    ::
         ::    -> Gshift               0.001080759698 Eh    ::
         :: repulsion energy           1.347406466476 Eh    ::
         :: add. restraining           0.000000000000 Eh    ::
         :: total charge              -0.000000000000 e     ::
         :::::::::::::::::::::::::::::::::::::::::::::::::::::

           ------------------------------------------------- 
          |                Numerical Hessian                |
           ------------------------------------------------- 
step length          :   0.00500
SCC accuracy         :   0.30000
Hessian scale factor :   1.00000
frozen atoms in %    :   0.00000    0
RMS gradient         :   0.00005
estimated CPU  time     71.84 min
estimated wall time     10.68 min

writing file <hessian>.

 projected vibrational frequencies (cm⁻¹)
eigval :       -0.00    -0.00    -0.00     0.00     0.00     0.00
eigval :        4.81     9.86    13.23    15.10    17.17    17.58
eigval :       20.08    20.27    22.00    24.90    25.82    28.25
eigval :       29.63    29.87    32.04    33.52    36.65    38.02
eigval :       40.21    41.62    42.59    43.56    46.03    46.33
eigval :       46.45    48.12    49.55    50.78    51.59    51.89
eigval :       53.14    54.37    55.23    56.02    57.17    58.67
eigval :       59.63    61.22    62.56    63.21    64.73    67.14
eigval :       68.00    69.44    70.13    71.49    72.27    73.40
eigval :       76.77    77.30    79.02    82.16    82.89    84.25
eigval :       85.52    88.28    89.34    92.83    93.90    95.95
eigval :      100.74   101.10   103.32   106.95   108.65   113.00
eigval :      116.55   124.73   126.02   131.90   132.38   134.64
eigval :      135.75   136.42   140.56   142.76   147.61   151.78
eigval :      158.34   162.96   165.22   168.52   170.38   172.77
eigval :      176.52   178.91   183.86   186.99   187.67   191.33
eigval :      192.14   193.86   195.84   197.79   200.21   202.81
eigval :      205.74   211.37   215.04   216.66   217.71   220.23
eigval :      221.08   224.19   226.00   229.85   232.11   234.35
eigval :      235.44   236.67   237.36   239.90   243.50   244.48
eigval :      244.72   246.35   247.17   249.89   250.78   251.68
eigval :      254.56   256.35   257.26   257.67   260.22   262.35
eigval :      262.81   264.76   270.12   275.91   276.21   277.18
eigval :      279.71   286.86   288.59   291.91   296.48   297.75
eigval :      299.79   301.22   302.34   306.16   310.63   311.28
eigval :      313.18   317.30   320.81   324.87   326.67   331.31
eigval :      332.29   335.13   337.20   339.27   344.12   345.23
eigval :      350.54   360.97   369.46   371.77   373.88   380.78
eigval :      381.53   382.42   402.47   410.09   418.70   421.40
eigval :      421.79   425.93   429.89   434.10   448.70   457.19
eigval :      460.98   463.42   469.61   474.04   479.30   480.15
eigval :      486.14   489.27   489.98   496.64   499.18   506.33
eigval :      509.85   513.81   516.48   522.24   524.24   525.35
eigval :      529.23   531.60   537.55   543.05   545.88   548.35
eigval :      552.10   557.40   561.92   566.52   567.74   572.13
eigval :      573.59   580.37   584.08   587.37   596.35   602.62
eigval :      605.63   613.23   618.94   621.39   631.88   640.04
eigval :      646.12   649.67   650.73   655.88   660.78   665.63
eigval :      668.36   671.65   679.24   683.57   685.45   690.55
eigval :      695.85   708.24   709.68   715.93   728.73   736.05
eigval :      748.38   755.62   761.37   764.66   767.47   779.32
eigval :      783.24   784.49   787.42   796.75   804.05   810.46
eigval :      818.63   826.45   842.68   855.10   891.34   914.09
eigval :      925.39   931.75   962.15  1017.90  1038.06  1191.39
eigval :     1442.93  1446.34  1449.58  1449.98  1451.50  1456.58
eigval :     1456.98  1459.35  1461.41  1462.16  1462.49  1463.66
eigval :     1466.72  1467.92  1473.26  1476.89  1477.37  1480.73
eigval :     1481.91  1484.34  1486.43  1487.48  1490.93  1495.06
eigval :     1495.44  1495.61  1497.09  1498.65  1499.63  1501.59
eigval :     1503.43  1504.05  1508.01  1512.56  1519.56  1526.50
eigval :     1529.65  1532.39  1538.63  1543.65  1549.63  2934.01
eigval :     2936.82  2966.12  3038.25  3129.43  3137.39  3142.98
eigval :     3143.32  3146.31  3173.79  3181.68  3183.42  3191.82
eigval :     3230.74  3233.77  3245.04  3246.31  3254.39  3285.94
eigval :     3287.90  3288.55  3289.35  3301.45  3306.30  3308.15
eigval :     3318.92  3328.92  3334.19  3338.69  3355.07  3368.21
eigval :     3376.44  3380.63  3383.15  3395.71  3407.66  3420.24
eigval :     3422.56  3425.73  3426.86  3428.88  3446.33  3467.62
eigval :     3478.53  3479.70  3494.40  3498.34  3507.63  3507.89
eigval :     3512.30  3560.43  3567.54  3573.23  3581.22  3586.59
eigval :     3586.91  3588.44  3591.29  3591.41  3597.55  3598.45
eigval :     3598.92  3600.89  3601.76  3602.47  3603.74  3603.95
eigval :     3605.46  3606.84  3608.02  3612.51  3620.28  3622.00
eigval :     3624.67  3627.87  3630.68  3630.82  3631.57  3632.22
eigval :     3651.00  3663.96  3695.20
           -------------------------------------------------
          |                Property Printout                |
           -------------------------------------------------

    * Orbital Energies and Occupations

         #    Occupation            Energy/Eh            Energy/eV
      -------------------------------------------------------------
         1        2.0000           -0.7423541             -20.2005
       ...           ...                  ...                  ...
       173        2.0000           -0.4028778             -10.9629
       174        2.0000           -0.4025419             -10.9537
       175        2.0000           -0.4005907             -10.9006
       176        2.0000           -0.3996120             -10.8740
       177        2.0000           -0.3978668             -10.8265
       178        2.0000           -0.3967298             -10.7956
       179        2.0000           -0.3961329             -10.7793
       180        2.0000           -0.3952970             -10.7566
       181        1.8187           -0.3162981              -8.6069
       182        1.1379           -0.3131243              -8.5205
       183        1.0421           -0.3118961              -8.4871
       184        1.0013           -0.3085819              -8.3969
       185        1.0000           -0.3040559              -8.2738 (HOMO)
       186                         -0.0499988              -1.3605 (LUMO)
       187                         -0.0269155              -0.7324
       188                          0.0203337               0.5533
       189                          0.0265798               0.7233
       190                          0.0389098               1.0588
       191                          0.0493463               1.3428
       192                          0.0528615               1.4384
       193                          0.0637122               1.7337
       194                          0.0690998               1.8803
       195                          0.0744380               2.0256
       196                          0.0761753               2.0728
       ...                                ...                  ...
       280                          1.3486200              36.6978
      -------------------------------------------------------------
                  HL-Gap            0.2540571 Eh            6.9132 eV
             Fermi-level           -0.2459466 Eh           -6.6925 eV

     #   Z          covCN         q      C6AA      α(0)
     1  26 Fe       0.602     1.200   410.536    58.678
     2   8 O        0.919    -0.779    30.898     7.454
     3  16 S        3.473     2.019    81.901    15.232
     4   8 O        0.860    -0.955    36.690     8.121
     5   8 O        0.860    -0.927    35.707     8.012
     6   8 O        0.860    -0.968    37.180     8.175
     7   8 O        1.672    -0.612    25.436     6.809
     8   1 H        0.803     0.370     0.543     1.158
     9   1 H        0.805     0.318     0.671     1.286
    10   8 O        1.696    -0.624    25.711     6.846
    11   1 H        0.804     0.364     0.557     1.173
    12   1 H        0.803     0.368     0.548     1.163
    13   8 O        1.720    -0.615    25.483     6.816
    14   1 H        0.803     0.381     0.522     1.135
    15   1 H        0.805     0.349     0.591     1.207
    16   8 O        1.676    -0.630    25.877     6.868
    17   1 H        0.805     0.291     0.748     1.359
    18   1 H        0.803     0.371     0.541     1.155
    19   8 O        1.672    -0.619    25.605     6.831
    20   1 H        0.805     0.352     0.583     1.199
    21   1 H        0.804     0.371     0.542     1.156
    22   8 O        1.607    -0.685    27.303     7.052
    23   1 H        0.804     0.282     0.776     1.384
    24   1 H        0.803     0.340     0.613     1.230
    25   8 O        1.608    -0.667    26.836     6.992
    26   1 H        0.803     0.305     0.705     1.319
    27   1 H        0.804     0.324     0.653     1.270
    28   8 O        1.608    -0.658    26.627     6.964
    29   1 H        0.825     0.276     0.795     1.399
    30   1 H        0.803     0.350     0.588     1.205
    31   8 O        1.609    -0.653    26.503     6.948
    32   1 H        0.804     0.345     0.600     1.217
    33   1 H        0.819     0.274     0.801     1.405
    34   8 O        1.665    -0.618    25.591     6.829
    35   1 H        0.805     0.324     0.652     1.268
    36   1 H        0.804     0.350     0.588     1.204
    37   8 O        1.609    -0.707    27.885     7.127
    38   1 H        0.805     0.360     0.566     1.182
    39   1 H        0.804     0.328     0.643     1.259
    40   8 O        1.606    -0.689    27.430     7.069
    41   1 H        0.801     0.358     0.570     1.187
    42   1 H        0.804     0.320     0.663     1.279
    43   8 O        1.608    -0.700    27.712     7.105
    44   1 H        0.805     0.357     0.573     1.189
    45   1 H        0.803     0.354     0.580     1.196
    46   8 O        1.605    -0.686    27.350     7.058
    47   1 H        0.805     0.314     0.682     1.297
    48   1 H        0.801     0.366     0.554     1.169
    49   8 O        1.606    -0.689    27.433     7.069
    50   1 H        0.801     0.376     0.531     1.145
    51   1 H        0.805     0.325     0.651     1.267
    52   8 O        1.699    -0.609    25.364     6.800
    53   1 H        0.804     0.363     0.558     1.174
    54   1 H        0.805     0.325     0.650     1.267
    55   8 O        1.609    -0.653    26.483     6.946
    56   1 H        0.804     0.339     0.614     1.230
    57   1 H        0.805     0.339     0.615     1.232
    58   8 O        1.606    -0.713    28.065     7.150
    59   1 H        0.803     0.344     0.604     1.220
    60   1 H        0.803     0.368     0.547     1.162
    61   8 O        1.608    -0.673    27.008     7.014
    62   1 H        0.804     0.343     0.604     1.221
    63   1 H        0.804     0.361     0.563     1.179
    64   8 O        1.604    -0.707    27.887     7.127
    65   1 H        0.804     0.347     0.594     1.211
    66   1 H        0.801     0.376     0.531     1.145
    67   8 O        1.610    -0.710    27.988     7.140
    68   1 H        0.805     0.369     0.545     1.159
    69   1 H        0.805     0.370     0.543     1.158
    70   8 O        1.607    -0.679    27.159     7.034
    71   1 H        0.804     0.329     0.640     1.257
    72   1 H        0.803     0.309     0.695     1.309
    73   8 O        1.610    -0.703    27.779     7.114
    74   1 H        0.805     0.356     0.574     1.190
    75   1 H        0.805     0.373     0.537     1.151
    76   8 O        1.609    -0.700    27.723     7.106
    77   1 H        0.805     0.379     0.524     1.137
    78   1 H        0.804     0.308     0.699     1.313
    79   8 O        1.608    -0.662    26.714     6.976
    80   1 H        0.805     0.277     0.794     1.399
    81   1 H        0.803     0.360     0.565     1.181
    82   8 O        1.610    -0.702    27.759     7.111
    83   1 H        0.805     0.363     0.558     1.173
    84   1 H        0.805     0.357     0.571     1.187
    85   8 O        1.609    -0.682    27.231     7.043
    86   1 H        0.805     0.350     0.588     1.205
    87   1 H        0.804     0.335     0.625     1.242
    88   8 O        1.608    -0.690    27.444     7.070
    89   1 H        0.806     0.351     0.586     1.203
    90   1 H        0.803     0.364     0.556     1.172
    91   8 O        1.611    -0.698    27.655     7.098
    92   1 H        0.805     0.351     0.585     1.201
    93   1 H        0.805     0.364     0.557     1.172
    94   8 O        1.608    -0.702    27.756     7.111
    95   1 H        0.806     0.322     0.658     1.274
    96   1 H        0.802     0.349     0.591     1.208
    97   8 O        1.608    -0.691    27.463     7.073
    98   1 H        0.804     0.357     0.571     1.187
    99   1 H        0.805     0.306     0.704     1.318
   100   8 O        1.610    -0.730    28.508     7.206
   101   1 H        0.805     0.365     0.554     1.169
   102   1 H        0.805     0.365     0.555     1.170
   103   8 O        1.610    -0.734    28.638     7.223
   104   1 H        0.805     0.372     0.540     1.154
   105   1 H        0.805     0.363     0.560     1.175
   106   8 O        1.610    -0.728    28.478     7.202
   107   1 H        0.805     0.365     0.553     1.168
   108   1 H        0.805     0.363     0.558     1.174
   109   8 O        1.610    -0.736    28.681     7.228
   110   1 H        0.805     0.369     0.545     1.160
   111   1 H        0.805     0.367     0.551     1.166
   112   8 O        1.610    -0.734    28.639     7.223
   113   1 H        0.805     0.366     0.553     1.168
   114   1 H        0.805     0.369     0.547     1.161
   115   8 O        1.608    -0.709    27.946     7.135
   116   1 H        0.805     0.350     0.588     1.205
   117   1 H        0.802     0.349     0.591     1.208
   118   8 O        1.608    -0.706    27.865     7.124
   119   1 H        0.804     0.356     0.573     1.189
   120   1 H        0.804     0.355     0.578     1.194
   121   8 O        1.609    -0.683    27.258     7.046
   122   1 H        0.806     0.347     0.594     1.210
   123   1 H        0.803     0.363     0.560     1.175
   124   8 O        1.608    -0.704    27.805     7.117
   125   1 H        0.805     0.320     0.664     1.280
   126   1 H        0.803     0.347     0.595     1.212
   127   8 O        1.609    -0.716    28.140     7.160
   128   1 H        0.805     0.349     0.591     1.208
   129   1 H        0.804     0.345     0.599     1.216

 Mol. C6AA /au·bohr⁶  :     106447.473453
 Mol. C8AA /au·bohr⁸  :    2293885.216143
 Mol. α(0) /au        :        494.291692


Wiberg/Mayer (AO) data.
largest (>0.10) Wiberg bond orders for each atom

 ---------------------------------------------------------------------------
     #   Z sym  total        # sym  WBO       # sym  WBO       # sym  WBO
 ---------------------------------------------------------------------------
     1  26 Fe   1.298 --    19 O    0.188    10 O    0.187    13 O    0.184
                            52 O    0.155     7 O    0.144    16 O    0.131
                            34 O    0.130     2 O    0.115
     2   8 O    1.679 --     3 S    1.242     1 Fe   0.115
     3  16 S    4.506 --     2 O    1.242     6 O    1.095     5 O    1.088
                             4 O    1.069
     4   8 O    1.531 --     3 S    1.069
     5   8 O    1.546 --     3 S    1.088
     6   8 O    1.514 --     3 S    1.095
     7   8 O    1.974 --     9 H    0.855     8 H    0.798     1 Fe   0.144
     8   1 H    0.863 --     7 O    0.798
     9   1 H    0.899 --     7 O    0.855
    10   8 O    1.974 --    11 H    0.818    12 H    0.799     1 Fe   0.187
    11   1 H    0.867 --    10 O    0.818
    12   1 H    0.865 --    10 O    0.799
    13   8 O    1.986 --    15 H    0.860    14 H    0.782     1 Fe   0.184
    14   1 H    0.854 --    13 O    0.782
    15   1 H    0.877 --    13 O    0.860
    16   8 O    1.923 --    17 H    0.874    18 H    0.788     1 Fe   0.131
    17   1 H    0.914 --    16 O    0.874
    18   1 H    0.861 --    16 O    0.788
    19   8 O    1.967 --    20 H    0.840    21 H    0.809     1 Fe   0.188
    20   1 H    0.875 --    19 O    0.840
    21   1 H    0.861 --    19 O    0.809
    22   8 O    1.786 --    23 H    0.854    24 H    0.840
    23   1 H    0.920 --    22 O    0.854
    24   1 H    0.885 --    22 O    0.840
    25   8 O    1.798 --    27 H    0.861    26 H    0.848
    26   1 H    0.907 --    25 O    0.848
    27   1 H    0.895 --    25 O    0.861
    28   8 O    1.830 --    29 H    0.870    30 H    0.834
    29   1 H    0.924 --    28 O    0.870
    30   1 H    0.877 --    28 O    0.834
    31   8 O    1.823 --    33 H    0.874    32 H    0.847
    32   1 H    0.881 --    31 O    0.847
    33   1 H    0.925 --    31 O    0.874
    34   8 O    1.930 --    35 H    0.858    36 H    0.815     1 Fe   0.130
    35   1 H    0.894 --    34 O    0.858
    36   1 H    0.877 --    34 O    0.815
    37   8 O    1.751 --    38 H    0.871    39 H    0.866
    38   1 H    0.871 --    37 O    0.871
    39   1 H    0.892 --    37 O    0.866
    40   8 O    1.836 --    42 H    0.855    41 H    0.799
    41   1 H    0.872 --    40 O    0.799
    42   1 H    0.897 --    40 O    0.855
    43   8 O    1.812 --    44 H    0.867    45 H    0.814
    44   1 H    0.873 --    43 O    0.867
    45   1 H    0.875 --    43 O    0.814
    46   8 O    1.838 --    47 H    0.872    48 H    0.784
    47   1 H    0.902 --    46 O    0.872
    48   1 H    0.866 --    46 O    0.784
    49   8 O    1.842 --    51 H    0.883    50 H    0.783
    50   1 H    0.858 --    49 O    0.783
    51   1 H    0.895 --    49 O    0.883
    52   8 O    1.938 --    54 H    0.874    53 H    0.812     1 Fe   0.155
    53   1 H    0.867 --    52 O    0.812
    54   1 H    0.894 --    52 O    0.874
    55   8 O    1.873 --    57 H    0.851    56 H    0.837
    56   1 H    0.885 --    55 O    0.837
    57   1 H    0.885 --    55 O    0.851
    58   8 O    1.820 --    59 H    0.829    60 H    0.801
    59   1 H    0.882 --    58 O    0.829
    60   1 H    0.864 --    58 O    0.801
    61   8 O    1.863 --    62 H    0.835    63 H    0.825
    62   1 H    0.882 --    61 O    0.835
    63   1 H    0.869 --    61 O    0.825
    64   8 O    1.854 --    65 H    0.838    66 H    0.774
    65   1 H    0.879 --    64 O    0.838
    66   1 H    0.858 --    64 O    0.774
    67   8 O    1.781 --    68 H    0.862    69 H    0.861
    68   1 H    0.863 --    67 O    0.862
    69   1 H    0.863 --    67 O    0.861
    70   8 O    1.794 --    71 H    0.862    72 H    0.847
    71   1 H    0.892 --    70 O    0.862
    72   1 H    0.904 --    70 O    0.847
    73   8 O    1.782 --    74 H    0.871    75 H    0.859
    74   1 H    0.873 --    73 O    0.871
    75   1 H    0.861 --    73 O    0.859
    76   8 O    1.779 --    78 H    0.856    77 H    0.853
    77   1 H    0.856 --    76 O    0.853
    78   1 H    0.905 --    76 O    0.856
    79   8 O    1.834 --    80 H    0.880    81 H    0.816
    80   1 H    0.923 --    79 O    0.880
    81   1 H    0.870 --    79 O    0.816
    82   8 O    1.774 --    84 H    0.870    83 H    0.866
    83   1 H    0.868 --    82 O    0.866
    84   1 H    0.872 --    82 O    0.870
    85   8 O    1.796 --    86 H    0.874    87 H    0.853
    86   1 H    0.878 --    85 O    0.874
    87   1 H    0.888 --    85 O    0.853
    88   8 O    1.829 --    89 H    0.868    90 H    0.810
    89   1 H    0.877 --    88 O    0.868
    90   1 H    0.867 --    88 O    0.810
    91   8 O    1.773 --    92 H    0.874    93 H    0.865
    92   1 H    0.877 --    91 O    0.874
    93   1 H    0.868 --    91 O    0.865
    94   8 O    1.765 --    95 H    0.892    96 H    0.817
    95   1 H    0.896 --    94 O    0.892
    96   1 H    0.878 --    94 O    0.817
    97   8 O    1.775 --    99 H    0.878    98 H    0.845
    98   1 H    0.872 --    97 O    0.845
    99   1 H    0.906 --    97 O    0.878
   100   8 O    1.733 --   102 H    0.867   101 H    0.867
   101   1 H    0.867 --   100 O    0.867
   102   1 H    0.867 --   100 O    0.867
   103   8 O    1.730 --   105 H    0.868   104 H    0.862
   104   1 H    0.862 --   103 O    0.862
   105   1 H    0.869 --   103 O    0.868
   106   8 O    1.734 --   108 H    0.868   107 H    0.866
   107   1 H    0.866 --   106 O    0.866
   108   1 H    0.868 --   106 O    0.868
   109   8 O    1.729 --   111 H    0.865   110 H    0.863
   110   1 H    0.864 --   109 O    0.863
   111   1 H    0.866 --   109 O    0.865
   112   8 O    1.730 --   113 H    0.866   114 H    0.864
   113   1 H    0.866 --   112 O    0.866
   114   1 H    0.864 --   112 O    0.864
   115   8 O    1.786 --   116 H    0.875   117 H    0.821
   116   1 H    0.878 --   115 O    0.875
   117   1 H    0.878 --   115 O    0.821
   118   8 O    1.805 --   120 H    0.849   119 H    0.837
   119   1 H    0.873 --   118 O    0.837
   120   1 H    0.874 --   118 O    0.849
   121   8 O    1.832 --   122 H    0.869   123 H    0.819
   122   1 H    0.879 --   121 O    0.869
   123   1 H    0.868 --   121 O    0.819
   124   8 O    1.751 --   125 H    0.893   126 H    0.830
   125   1 H    0.898 --   124 O    0.893
   126   1 H    0.879 --   124 O    0.830
   127   8 O    1.747 --   128 H    0.878   129 H    0.843
   128   1 H    0.878 --   127 O    0.878
   129   1 H    0.881 --   127 O    0.843
 ---------------------------------------------------------------------------

Topologies differ in total number of bonds
Writing topology from bond orders to xtbtopo.mol

molecular dipole:
                 x           y           z       tot (Debye)
 q only:       -1.067      -6.851      -2.284
   full:       -0.931      -3.499      -2.207      10.778
molecular quadrupole (traceless):
                xx          xy          yy          xz          yz          zz
 q only:       31.010      -6.200     -58.870      34.689      -1.052      27.860
  q+dip:       23.302      -7.263     -36.855      42.383      -3.676      13.553
   full:       22.791      -7.526     -36.188      42.534      -3.149      13.397

           -------------------------------------------------
          |               Frequency Printout                |
           -------------------------------------------------
 projected vibrational frequencies (cm⁻¹)
eigval :       -0.00    -0.00    -0.00     0.00     0.00     0.00
eigval :        4.81     9.86    13.23    15.10    17.17    17.58
eigval :       20.08    20.27    22.00    24.90    25.82    28.25
eigval :       29.63    29.87    32.04    33.52    36.65    38.02
eigval :       40.21    41.62    42.59    43.56    46.03    46.33
eigval :       46.45    48.12    49.55    50.78    51.59    51.89
eigval :       53.14    54.37    55.23    56.02    57.17    58.67
eigval :       59.63    61.22    62.56    63.21    64.73    67.14
eigval :       68.00    69.44    70.13    71.49    72.27    73.40
eigval :       76.77    77.30    79.02    82.16    82.89    84.25
eigval :       85.52    88.28    89.34    92.83    93.90    95.95
eigval :      100.74   101.10   103.32   106.95   108.65   113.00
eigval :      116.55   124.73   126.02   131.90   132.38   134.64
eigval :      135.75   136.42   140.56   142.76   147.61   151.78
eigval :      158.34   162.96   165.22   168.52   170.38   172.77
eigval :      176.52   178.91   183.86   186.99   187.67   191.33
eigval :      192.14   193.86   195.84   197.79   200.21   202.81
eigval :      205.74   211.37   215.04   216.66   217.71   220.23
eigval :      221.08   224.19   226.00   229.85   232.11   234.35
eigval :      235.44   236.67   237.36   239.90   243.50   244.48
eigval :      244.72   246.35   247.17   249.89   250.78   251.68
eigval :      254.56   256.35   257.26   257.67   260.22   262.35
eigval :      262.81   264.76   270.12   275.91   276.21   277.18
eigval :      279.71   286.86   288.59   291.91   296.48   297.75
eigval :      299.79   301.22   302.34   306.16   310.63   311.28
eigval :      313.18   317.30   320.81   324.87   326.67   331.31
eigval :      332.29   335.13   337.20   339.27   344.12   345.23
eigval :      350.54   360.97   369.46   371.77   373.88   380.78
eigval :      381.53   382.42   402.47   410.09   418.70   421.40
eigval :      421.79   425.93   429.89   434.10   448.70   457.19
eigval :      460.98   463.42   469.61   474.04   479.30   480.15
eigval :      486.14   489.27   489.98   496.64   499.18   506.33
eigval :      509.85   513.81   516.48   522.24   524.24   525.35
eigval :      529.23   531.60   537.55   543.05   545.88   548.35
eigval :      552.10   557.40   561.92   566.52   567.74   572.13
eigval :      573.59   580.37   584.08   587.37   596.35   602.62
eigval :      605.63   613.23   618.94   621.39   631.88   640.04
eigval :      646.12   649.67   650.73   655.88   660.78   665.63
eigval :      668.36   671.65   679.24   683.57   685.45   690.55
eigval :      695.85   708.24   709.68   715.93   728.73   736.05
eigval :      748.38   755.62   761.37   764.66   767.47   779.32
eigval :      783.24   784.49   787.42   796.75   804.05   810.46
eigval :      818.63   826.45   842.68   855.10   891.34   914.09
eigval :      925.39   931.75   962.15  1017.90  1038.06  1191.39
eigval :     1442.93  1446.34  1449.58  1449.98  1451.50  1456.58
eigval :     1456.98  1459.35  1461.41  1462.16  1462.49  1463.66
eigval :     1466.72  1467.92  1473.26  1476.89  1477.37  1480.73
eigval :     1481.91  1484.34  1486.43  1487.48  1490.93  1495.06
eigval :     1495.44  1495.61  1497.09  1498.65  1499.63  1501.59
eigval :     1503.43  1504.05  1508.01  1512.56  1519.56  1526.50
eigval :     1529.65  1532.39  1538.63  1543.65  1549.63  2934.01
eigval :     2936.82  2966.12  3038.25  3129.43  3137.39  3142.98
eigval :     3143.32  3146.31  3173.79  3181.68  3183.42  3191.82
eigval :     3230.74  3233.77  3245.04  3246.31  3254.39  3285.94
eigval :     3287.90  3288.55  3289.35  3301.45  3306.30  3308.15
eigval :     3318.92  3328.92  3334.19  3338.69  3355.07  3368.21
eigval :     3376.44  3380.63  3383.15  3395.71  3407.66  3420.24
eigval :     3422.56  3425.73  3426.86  3428.88  3446.33  3467.62
eigval :     3478.53  3479.70  3494.40  3498.34  3507.63  3507.89
eigval :     3512.30  3560.43  3567.54  3573.23  3581.22  3586.59
eigval :     3586.91  3588.44  3591.29  3591.41  3597.55  3598.45
eigval :     3598.92  3600.89  3601.76  3602.47  3603.74  3603.95
eigval :     3605.46  3606.84  3608.02  3612.51  3620.28  3622.00
eigval :     3624.67  3627.87  3630.68  3630.82  3631.57  3632.22
eigval :     3651.00  3663.96  3695.20
 reduced masses (amu)
   1: 16.94   2: 14.71   3: 17.23   4: 16.99   5: 15.37   6: 15.81   7: 14.54   8: 14.59
   9: 14.63  10: 14.79  11: 14.78  12: 14.48  13: 14.92  14: 14.73  15: 14.82  16: 14.70
  17: 14.32  18: 15.19  19: 15.11  20: 14.72  21: 14.75  22: 15.67  23: 14.90  24: 14.95
  25: 14.90  26: 15.57  27: 14.61  28: 14.83  29: 14.88  30: 15.11  31: 15.01  32: 14.82
  33: 15.09  34: 14.76  35: 15.13  36: 15.39  37: 15.22  38: 14.59  39: 14.84  40: 14.83
  41: 15.21  42: 14.99  43: 14.84  44: 15.69  45: 15.15  46: 15.56  47: 15.84  48: 15.29
  49: 15.10  50: 14.95  51: 14.79  52: 14.61  53: 15.59  54: 16.38  55: 16.52  56: 15.53
  57: 15.70  58: 14.87  59: 15.87  60: 16.94  61: 15.64  62: 15.01  63: 15.44  64: 16.96
  65: 14.95  66: 17.50  67: 16.09  68: 16.47  69: 16.63  70: 18.83  71: 14.39  72: 19.08
  73: 15.39  74: 15.70  75: 15.72  76: 14.31  77: 14.91  78: 15.95  79: 15.63  80: 14.49
  81: 14.79  82: 14.70  83: 15.13  84: 13.45  85: 16.53  86: 12.06  87: 17.22  88:  8.38
  89: 14.22  90:  4.52  91:  3.56  92: 10.80  93: 13.37  94:  6.50  95: 11.82  96: 12.77
  97: 14.34  98: 14.38  99:  4.66 100: 13.78 101: 11.35 102:  9.39 103: 12.89 104:  9.25
 105:  2.78 106:  6.77 107: 11.68 108: 11.33 109: 12.20 110: 14.55 111:  9.60 112: 12.95
 113:  7.72 114: 13.94 115:  5.74 116: 12.75 117:  9.20 118: 10.17 119: 12.05 120:  8.56
 121:  8.66 122:  9.62 123:  9.11 124:  8.41 125: 12.55 126:  5.27 127:  6.85 128:  9.96
 129: 10.15 130: 10.42 131: 11.63 132: 10.97 133:  8.23 134: 11.18 135: 13.91 136:  3.00
 137:  2.64 138:  4.48 139: 15.50 140: 13.57 141: 14.38 142:  6.69 143: 12.46 144:  7.77
 145:  7.46 146:  8.00 147:  9.67 148:  6.25 149: 15.45 150:  6.98 151:  7.31 152:  2.39
 153: 12.53 154:  7.36 155: 12.29 156:  5.73 157:  7.33 158:  3.59 159: 12.13 160:  8.78
 161: 14.41 162:  4.39 163: 19.65 164:  1.55 165:  9.58 166:  4.78 167:  2.80 168:  2.61
 169:  1.99 170:  5.41 171:  2.13 172:  2.44 173:  2.67 174:  2.08 175:  1.86 176:  2.00
 177: 11.74 178:  4.08 179: 13.01 180:  2.27 181:  2.05 182:  1.66 183:  1.86 184:  1.96
 185:  1.82 186:  1.66 187:  2.42 188:  2.56 189:  3.05 190:  2.05 191:  2.28 192:  2.00
 193:  5.35 194:  5.10 195:  6.70 196:  4.38 197:  7.90 198:  2.03 199: 12.55 200:  2.53
 201:  2.78 202:  3.29 203:  2.76 204:  5.20 205:  2.81 206:  1.73 207:  2.57 208:  2.01
 209:  2.02 210:  2.45 211:  1.95 212:  1.62 213:  2.91 214:  2.99 215:  4.34 216:  4.43
 217:  1.89 218:  4.10 219:  4.16 220:  1.92 221:  2.53 222:  2.00 223:  1.75 224:  2.17
 225:  1.70 226:  1.88 227:  1.90 228:  1.93 229:  2.02 230:  1.76 231:  1.69 232:  1.94
 233:  2.35 234:  1.86 235:  1.84 236:  1.80 237:  1.68 238:  1.83 239:  1.88 240:  1.72
 241:  1.85 242:  2.08 243:  2.09 244:  1.80 245:  1.83 246:  2.05 247:  2.01 248:  1.89
 249:  2.05 250:  1.83 251:  1.96 252:  1.96 253:  2.12 254:  2.41 255:  2.19 256:  2.57
 257:  1.99 258:  1.80 259: 11.92 260:  4.74 261:  2.17 262: 21.89 263: 21.98 264: 21.52
 265:  2.09 266:  2.04 267:  2.04 268:  2.17 269:  2.17 270:  2.11 271:  2.09 272:  2.09
 273:  2.09 274:  2.11 275:  2.07 276:  2.12 277:  2.05 278:  2.00 279:  2.02 280:  2.01
 281:  2.09 282:  2.06 283:  1.97 284:  2.05 285:  2.00 286:  2.07 287:  2.05 288:  2.07
 289:  2.04 290:  2.06 291:  2.04 292:  2.03 293:  2.06 294:  2.05 295:  2.12 296:  2.16
 297:  2.09 298:  2.03 299:  2.09 300:  2.04 301:  2.07 302:  2.06 303:  2.08 304:  2.05
 305:  2.03 306:  1.94 307:  1.93 308:  1.90 309:  1.93 310:  1.89 311:  1.92 312:  1.91
 313:  1.93 314:  1.92 315:  2.00 316:  1.97 317:  1.98 318:  1.87 319:  2.11 320:  1.89
 321:  1.90 322:  1.92 323:  1.97 324:  1.73 325:  1.96 326:  1.94 327:  1.96 328:  1.92
 329:  1.96 330:  1.70 331:  1.87 332:  1.88 333:  2.01 334:  1.88 335:  2.00 336:  1.80
 337:  1.87 338:  1.80 339:  2.02 340:  1.92 341:  1.69 342:  1.82 343:  1.68 344:  1.88
 345:  1.74 346:  1.73 347:  1.75 348:  1.77 349:  1.73 350:  1.75 351:  1.77 352:  1.78
 353:  1.75 354:  1.80 355:  1.83 356:  1.80 357:  1.82 358:  1.83 359:  1.82 360:  2.10
 361:  1.88 362:  1.82 363:  1.72 364:  1.66 365:  1.86 366:  1.61 367:  1.81 368:  2.08
 369:  1.88 370:  1.84 371:  1.82 372:  1.79 373:  1.91 374:  2.00 375:  1.87 376:  1.70
 377:  1.83 378:  1.89 379:  1.81 380:  1.84 381:  1.77 382:  1.83 383:  1.83 384:  1.84
 385:  1.84 386:  1.84 387:  1.85
 IR intensities (km·mol⁻¹)
   1:  0.05   2:  0.18   3:  0.00   4:  0.11   5:  0.07   6:  0.17   7:  0.79   8:  1.03
   9:  0.31  10:  0.40  11:  0.42  12:  1.07  13:  1.93  14:  2.51  15:  3.87  16:  0.47
  17:  0.20  18:  0.99  19:  2.23  20:  1.99  21:  0.03  22:  3.89  23:  2.68  24:  0.87
  25:  3.02  26:  2.67  27:  0.92  28:  5.77  29:  6.61  30:  8.84  31:  0.65  32:  6.62
  33:  4.52  34:  4.35  35:  3.55  36:  5.56  37:  7.25  38:  5.38  39: 11.51  40:  2.15
  41:  9.26  42: 17.40  43: 10.62  44:  3.74  45:  3.98  46:  9.41  47:  1.21  48:  4.64
  49:  1.37  50:  0.48  51: 25.34  52: 21.92  53:  5.62  54: 10.25  55: 13.50  56:  7.96
  57:  1.02  58:  3.55  59:  0.59  60:  3.98  61: 19.86  62:  0.70  63: 15.03  64: 11.71
  65:  2.18  66:  2.62  67:  7.47  68:  6.14  69:  5.46  70:  9.68  71:  3.88  72:  7.73
  73:  1.62  74:  9.19  75: 13.23  76: 38.56  77:  0.96  78:  4.00  79: 16.63  80:  2.62
  81:  3.51  82: 23.29  83: 10.51  84: 15.34  85: 35.29  86: 47.86  87: 59.48  88: 49.76
  89: 17.52  90: 63.28  91: 88.80  92: 27.95  93: 10.36  94:147.95  95: 91.47  96: 16.08
  97: 25.12  98:  7.46  99:127.10 100: 71.76 101: 40.66 102:109.15 103: 70.76 104: 86.62
 105:139.61 106:224.41 107:155.91 108: 81.13 109: 38.70 110: 58.01 111: 29.45 112: 27.02
 113: 24.25 114:  7.99 115:171.57 116: 53.17 117: 64.33 118: 49.08 119: 42.13 120:154.01
 121: 82.45 122:195.70 123: 20.21 124:132.39 125: 52.33 126:112.44 127: 22.04 128: 95.64
 129: 78.36 130:122.83 131: 72.67 132: 15.09 133:281.13 134:130.57 135: 58.27 136: 24.33
 137:250.91 138: 76.07 139: 78.72 140:108.51 141:  3.01 142: 50.35 143: 42.01 144: 66.95
 145: 55.02 146:108.24 147:119.62 148:108.25 149: 82.89 150: 74.05 151:691.49 152: 44.90
 153: 25.12 154:313.15 155: 38.99 156:262.92 157: 54.13 158:139.10 159:149.10 160:  3.72
 161: 35.84 162:299.68 163: 12.80 164:110.18 165: 51.11 166:244.76 167: 14.35 168:108.76
 169:176.29 170: 61.57 171: 42.48 172: 61.63 173: 90.25 174: 58.55 175: 76.94 176: 96.96
 177: 19.02 178: 59.32 179: 15.44 180:100.26 181:109.98 182:134.83 183:293.66 184:161.24
 185: 43.47 186:104.34 187: 39.20 188: 92.68 189:101.38 190:106.28 191: 10.72 192: 40.50
 193:134.49 194: 95.63 195:252.30 196: 45.54 197:187.46 198: 81.77 199:202.55 200:101.98
 201:153.27 202: 54.91 203: 54.13 204:269.58 205:169.85 206: 33.34 207:  4.26 208: 34.02
 209:134.05 210:160.30 211:275.13 212: 97.97 213:184.21 214:267.92 215:158.82 216: 17.11
 217: 68.99 218: 59.69 219: 20.62 220: 86.50 221: 39.74 222:109.68 223:519.18 224: 70.83
 225:112.09 226:178.08 227:219.63 228:142.13 229:118.05 230:367.52 231:140.89 232:395.13
 233:452.41 234:164.61 235:371.27 236:788.29 237:171.25 238:718.63 239:196.41 240:142.79
 241:536.47 242:153.72 243:273.42 244: 68.36 245:790.66 246:646.45 247: 65.81 248:503.63
 249:462.87 250:414.65 251: 63.93 252:209.93 253: 55.91 254:663.06 255:125.09 256:387.52
 257:192.74 258: 71.69 259:238.38 260:278.92 261:880.13 262:953.37 263:996.92 264:812.50
 265:440.84 266:395.25 267: 40.30 268:230.51 269:256.42 270:248.51 271:226.72 272:291.43
 273: 95.21 274: 74.03 275:164.26 276:127.83 277:265.35 278: 52.47 279:238.10 280:137.41
 281:249.35 282:750.72 283: 70.26 284:359.00 285:160.10 286:  0.93 287:150.44 288:553.79
 289:156.63 290:642.33 291:216.59 292: 45.01 293:186.08 294: 65.81 295:384.45 296:103.64
 297:361.81 298:163.95 299:179.51 300:167.09 301:487.53 302: 50.79 303: 92.06 304:229.03
 305:226.39 306:****** 307:****** 308:****** 309:****** 310:950.82 311:****** 312:481.07
 313:150.68 314:****** 315:****** 316:627.13 317:****** 318:****** 319:****** 320:563.08
 321:****** 322:366.69 323:951.09 324:660.39 325:383.85 326:****** 327:****** 328:879.82
 329:673.03 330:548.87 331:551.27 332:581.72 333:528.22 334:781.59 335:310.02 336:336.08
 337:785.96 338:699.88 339:546.47 340:502.29 341:144.50 342:492.16 343:237.96 344:314.89
 345:364.81 346:233.67 347:440.62 348:196.40 349:718.42 350:381.25 351:378.61 352:192.80
 353:158.22 354:165.92 355:278.47 356:510.58 357:179.37 358:121.67 359: 69.07 360:152.79
 361: 90.04 362: 94.64 363: 60.83 364: 88.14 365: 95.17 366: 43.51 367: 80.71 368:122.29
 369: 94.44 370: 65.55 371: 83.80 372: 66.85 373: 96.29 374:122.84 375: 84.36 376:120.37
 377: 57.03 378: 33.36 379: 81.38 380: 68.04 381: 93.39 382: 39.03 383: 61.15 384: 58.52
 385: 59.92 386: 61.95 387: 42.05
 Raman intensities (amu)
   1:  0.00   2:  0.00   3:  0.00   4:  0.00   5:  0.00   6:  0.00   7:  0.00   8:  0.00
   9:  0.00  10:  0.00  11:  0.00  12:  0.00  13:  0.00  14:  0.00  15:  0.00  16:  0.00
  17:  0.00  18:  0.00  19:  0.00  20:  0.00  21:  0.00  22:  0.00  23:  0.00  24:  0.00
  25:  0.00  26:  0.00  27:  0.00  28:  0.00  29:  0.00  30:  0.00  31:  0.00  32:  0.00
  33:  0.00  34:  0.00  35:  0.00  36:  0.00  37:  0.00  38:  0.00  39:  0.00  40:  0.00
  41:  0.00  42:  0.00  43:  0.00  44:  0.00  45:  0.00  46:  0.00  47:  0.00  48:  0.00
  49:  0.00  50:  0.00  51:  0.00  52:  0.00  53:  0.00  54:  0.00  55:  0.00  56:  0.00
  57:  0.00  58:  0.00  59:  0.00  60:  0.00  61:  0.00  62:  0.00  63:  0.00  64:  0.00
  65:  0.00  66:  0.00  67:  0.00  68:  0.00  69:  0.00  70:  0.00  71:  0.00  72:  0.00
  73:  0.00  74:  0.00  75:  0.00  76:  0.00  77:  0.00  78:  0.00  79:  0.00  80:  0.00
  81:  0.00  82:  0.00  83:  0.00  84:  0.00  85:  0.00  86:  0.00  87:  0.00  88:  0.00
  89:  0.00  90:  0.00  91:  0.00  92:  0.00  93:  0.00  94:  0.00  95:  0.00  96:  0.00
  97:  0.00  98:  0.00  99:  0.00 100:  0.00 101:  0.00 102:  0.00 103:  0.00 104:  0.00
 105:  0.00 106:  0.00 107:  0.00 108:  0.00 109:  0.00 110:  0.00 111:  0.00 112:  0.00
 113:  0.00 114:  0.00 115:  0.00 116:  0.00 117:  0.00 118:  0.00 119:  0.00 120:  0.00
 121:  0.00 122:  0.00 123:  0.00 124:  0.00 125:  0.00 126:  0.00 127:  0.00 128:  0.00
 129:  0.00 130:  0.00 131:  0.00 132:  0.00 133:  0.00 134:  0.00 135:  0.00 136:  0.00
 137:  0.00 138:  0.00 139:  0.00 140:  0.00 141:  0.00 142:  0.00 143:  0.00 144:  0.00
 145:  0.00 146:  0.00 147:  0.00 148:  0.00 149:  0.00 150:  0.00 151:  0.00 152:  0.00
 153:  0.00 154:  0.00 155:  0.00 156:  0.00 157:  0.00 158:  0.00 159:  0.00 160:  0.00
 161:  0.00 162:  0.00 163:  0.00 164:  0.00 165:  0.00 166:  0.00 167:  0.00 168:  0.00
Molecule has no symmetry elements
It seems to be the C1 point group
 169:  0.00 170:  0.00 171:  0.00 172:  0.00 173:  0.00 174:  0.00 175:  0.00 176:  0.00
 177:  0.00 178:  0.00 179:  0.00 180:  0.00 181:  0.00 182:  0.00 183:  0.00 184:  0.00
 185:  0.00 186:  0.00 187:  0.00 188:  0.00 189:  0.00 190:  0.00 191:  0.00 192:  0.00
 193:  0.00 194:  0.00 195:  0.00 196:  0.00 197:  0.00 198:  0.00 199:  0.00 200:  0.00
 201:  0.00 202:  0.00 203:  0.00 204:  0.00 205:  0.00 206:  0.00 207:  0.00 208:  0.00
 209:  0.00 210:  0.00 211:  0.00 212:  0.00 213:  0.00 214:  0.00 215:  0.00 216:  0.00
 217:  0.00 218:  0.00 219:  0.00 220:  0.00 221:  0.00 222:  0.00 223:  0.00 224:  0.00
 225:  0.00 226:  0.00 227:  0.00 228:  0.00 229:  0.00 230:  0.00 231:  0.00 232:  0.00
 233:  0.00 234:  0.00 235:  0.00 236:  0.00 237:  0.00 238:  0.00 239:  0.00 240:  0.00
 241:  0.00 242:  0.00 243:  0.00 244:  0.00 245:  0.00 246:  0.00 247:  0.00 248:  0.00
 249:  0.00 250:  0.00 251:  0.00 252:  0.00 253:  0.00 254:  0.00 255:  0.00 256:  0.00
 257:  0.00 258:  0.00 259:  0.00 260:  0.00 261:  0.00 262:  0.00 263:  0.00 264:  0.00
 265:  0.00 266:  0.00 267:  0.00 268:  0.00 269:  0.00 270:  0.00 271:  0.00 272:  0.00
 273:  0.00 274:  0.00 275:  0.00 276:  0.00 277:  0.00 278:  0.00 279:  0.00 280:  0.00
 281:  0.00 282:  0.00 283:  0.00 284:  0.00 285:  0.00 286:  0.00 287:  0.00 288:  0.00
 289:  0.00 290:  0.00 291:  0.00 292:  0.00 293:  0.00 294:  0.00 295:  0.00 296:  0.00
 297:  0.00 298:  0.00 299:  0.00 300:  0.00 301:  0.00 302:  0.00 303:  0.00 304:  0.00
 305:  0.00 306:  0.00 307:  0.00 308:  0.00 309:  0.00 310:  0.00 311:  0.00 312:  0.00
 313:  0.00 314:  0.00 315:  0.00 316:  0.00 317:  0.00 318:  0.00 319:  0.00 320:  0.00
 321:  0.00 322:  0.00 323:  0.00 324:  0.00 325:  0.00 326:  0.00 327:  0.00 328:  0.00
 329:  0.00 330:  0.00 331:  0.00 332:  0.00 333:  0.00 334:  0.00 335:  0.00 336:  0.00
 337:  0.00 338:  0.00 339:  0.00 340:  0.00 341:  0.00 342:  0.00 343:  0.00 344:  0.00
 345:  0.00 346:  0.00 347:  0.00 348:  0.00 349:  0.00 350:  0.00 351:  0.00 352:  0.00
 353:  0.00 354:  0.00 355:  0.00 356:  0.00 357:  0.00 358:  0.00 359:  0.00 360:  0.00
 361:  0.00 362:  0.00 363:  0.00 364:  0.00 365:  0.00 366:  0.00 367:  0.00 368:  0.00
 369:  0.00 370:  0.00 371:  0.00 372:  0.00 373:  0.00 374:  0.00 375:  0.00 376:  0.00
 377:  0.00 378:  0.00 379:  0.00 380:  0.00 381:  0.00 382:  0.00 383:  0.00 384:  0.00
 385:  0.00 386:  0.00 387:  0.00
 output can be read by thermo (or use thermo option).
 writing <g98.out> molden fake output.
 recommended (thermochemical) frequency scaling factor: 1.0
           -------------------------------------------------
          |             Thermodynamic Functions             |
           -------------------------------------------------

c1  symmetry found (for desy threshold:  0.10E+00) used in thermo

          ...................................................
          :                      SETUP                      :
          :.................................................:
          :  # frequencies                         381      :
          :  # imaginary freq.                       0      :
          :  linear?                             false      :
          :  only rotor calc.                    false      :
          :  symmetry                               c1      :
          :  rotational number                       1      :
          :  scaling factor                  1.0000000      :
          :  rotor cutoff                   50.0000000 cm⁻¹ :
          :  imag. cutoff                  -20.0000000 cm⁻¹ :
          :.................................................:

    mode    ω/cm⁻¹     T·S(HO)/kcal·mol⁻¹    T·S(FR)/kcal·mol⁻¹   T·S(vib)
   ------------------------------------------------------------------------
       1      4.81    -2.82237 (  0.01%)    -1.75023 ( 99.99%)    -1.75033
       2      9.86    -2.39681 (  0.15%)    -1.53746 ( 99.85%)    -1.53876
       3     13.23    -2.22285 (  0.49%)    -1.45047 ( 99.51%)    -1.45423
       4     15.10    -2.14430 (  0.83%)    -1.41118 ( 99.17%)    -1.41724
       5     17.17    -2.06837 (  1.37%)    -1.37320 ( 98.63%)    -1.38273
       6     17.58    -2.05446 (  1.50%)    -1.36624 ( 98.50%)    -1.37659
       7     20.08    -1.97571 (  2.53%)    -1.32684 ( 97.47%)    -1.34328
       8     20.27    -1.97000 (  2.63%)    -1.32399 ( 97.37%)    -1.34098
       9     22.00    -1.92145 (  3.62%)    -1.29969 ( 96.38%)    -1.32217
      10     24.90    -1.84820 (  5.80%)    -1.26303 ( 94.20%)    -1.29695
      11     25.82    -1.82673 (  6.64%)    -1.25228 ( 93.36%)    -1.29044
      12     28.25    -1.77359 (  9.25%)    -1.22567 ( 90.75%)    -1.27634
      13     29.63    -1.74548 ( 10.97%)    -1.21159 ( 89.03%)    -1.27017
      14     29.87    -1.74065 ( 11.30%)    -1.20917 ( 88.70%)    -1.26921
      15     32.04    -1.69920 ( 14.42%)    -1.18842 ( 85.58%)    -1.26208
      16     33.52    -1.67244 ( 16.80%)    -1.17501 ( 83.20%)    -1.25860
      17     36.65    -1.61959 ( 22.41%)    -1.14852 ( 77.59%)    -1.25409
      18     38.02    -1.59797 ( 25.06%)    -1.13768 ( 74.94%)    -1.25302
      19     40.21    -1.56484 ( 29.50%)    -1.12107 ( 70.50%)    -1.25198
      20     41.62    -1.54460 ( 32.43%)    -1.11091 ( 67.57%)    -1.25155
      21     42.59    -1.53092 ( 34.49%)    -1.10405 ( 65.51%)    -1.25129
      22     43.56    -1.51764 ( 36.55%)    -1.09739 ( 63.45%)    -1.25100
      23     46.03    -1.48506 ( 41.81%)    -1.08103 ( 58.19%)    -1.24995
      24     46.33    -1.48132 ( 42.43%)    -1.07916 ( 57.57%)    -1.24978
      25     46.45    -1.47968 ( 42.70%)    -1.07833 ( 57.30%)    -1.24970
      26     48.12    -1.45890 ( 46.18%)    -1.06790 ( 53.82%)    -1.24844
      27     49.55    -1.44159 ( 49.10%)    -1.05920 ( 50.90%)    -1.24697
      28     50.78    -1.42720 ( 51.54%)    -1.05197 ( 48.46%)    -1.24538
      29     51.59    -1.41782 ( 53.13%)    -1.04726 ( 46.87%)    -1.24414
      30     51.89    -1.41445 ( 53.70%)    -1.04556 ( 46.30%)    -1.24366
      31     53.14    -1.40039 ( 56.06%)    -1.03850 ( 43.94%)    -1.24138
      32     54.37    -1.38695 ( 58.30%)    -1.03174 ( 41.70%)    -1.23881
      33     55.23    -1.37765 ( 59.82%)    -1.02706 ( 40.18%)    -1.23679
      34     56.02    -1.36927 ( 61.18%)    -1.02285 ( 38.82%)    -1.23480
      35     57.17    -1.35739 ( 63.08%)    -1.01687 ( 36.92%)    -1.23168
      36     58.67    -1.34211 ( 65.46%)    -1.00918 ( 34.54%)    -1.22713
      37     59.63    -1.33254 ( 66.92%)    -1.00436 ( 33.08%)    -1.22398
      38     61.22    -1.31703 ( 69.21%)    -0.99655 ( 30.79%)    -1.21836
      39     62.56    -1.30437 ( 71.02%)    -0.99017 ( 28.98%)    -1.21330
      40     63.21    -1.29829 ( 71.86%)    -0.98711 ( 28.14%)    -1.21072
      41     64.73    -1.28433 ( 73.74%)    -0.98008 ( 26.26%)    -1.20443
      42     67.14    -1.26282 ( 76.48%)    -0.96923 ( 23.52%)    -1.19376
      43     68.00    -1.25532 ( 77.38%)    -0.96545 ( 22.62%)    -1.18976
      44     69.44    -1.24305 ( 78.81%)    -0.95926 ( 21.19%)    -1.18292
      45     70.13    -1.23720 ( 79.47%)    -0.95631 ( 20.53%)    -1.17954
      46     71.49    -1.22593 ( 80.70%)    -0.95061 ( 19.30%)    -1.17278
      47     72.27    -1.21963 ( 81.36%)    -0.94743 ( 18.64%)    -1.16888
      48     73.40    -1.21051 ( 82.28%)    -0.94282 ( 17.72%)    -1.16308
      49     76.77    -1.18422 ( 84.75%)    -0.92953 ( 15.25%)    -1.14537
      50     77.30    -1.18017 ( 85.10%)    -0.92749 ( 14.90%)    -1.14253
      51     79.02    -1.16731 ( 86.18%)    -0.92098 ( 13.82%)    -1.13327
      52     82.16    -1.14450 ( 87.94%)    -0.90943 ( 12.06%)    -1.11615
      53     82.89    -1.13927 ( 88.31%)    -0.90678 ( 11.69%)    -1.11210
      54     84.25    -1.12981 ( 88.96%)    -0.90199 ( 11.04%)    -1.10466
      55     85.52    -1.12107 ( 89.54%)    -0.89756 ( 10.46%)    -1.09768
      56     88.28    -1.10253 ( 90.67%)    -0.88815 (  9.33%)    -1.08252
      57     89.34    -1.09555 ( 91.07%)    -0.88460 (  8.93%)    -1.07670
      58     92.83    -1.07322 ( 92.24%)    -0.87326 (  7.76%)    -1.05769
      59     93.90    -1.06652 ( 92.56%)    -0.86985 (  7.44%)    -1.05188
      60     95.95    -1.05392 ( 93.13%)    -0.86344 (  6.87%)    -1.04084
      61    100.74    -1.02561 ( 94.28%)    -0.84902 (  5.72%)    -1.01550
      62    101.10    -1.02357 ( 94.35%)    -0.84798 (  5.65%)    -1.01366
      63    103.32    -1.01094 ( 94.80%)    -0.84154 (  5.20%)    -1.00213
      64    106.95    -0.99093 ( 95.44%)    -0.83132 (  4.56%)    -0.98366
      65    108.65    -0.98177 ( 95.71%)    -0.82663 (  4.29%)    -0.97511
      66    113.00    -0.95908 ( 96.31%)    -0.81501 (  3.69%)    -0.95376
      67    116.55    -0.94117 ( 96.72%)    -0.80583 (  3.28%)    -0.93674
      68    124.73    -0.90211 ( 97.48%)    -0.78574 (  2.52%)    -0.89918
      69    126.02    -0.89621 ( 97.58%)    -0.78270 (  2.42%)    -0.89347
      70    131.90    -0.87005 ( 97.98%)    -0.76919 (  2.02%)    -0.86801
      71    132.38    -0.86795 ( 98.01%)    -0.76810 (  1.99%)    -0.86596
      72    134.64    -0.85827 ( 98.13%)    -0.76310 (  1.87%)    -0.85650
      73    135.75    -0.85358 ( 98.19%)    -0.76066 (  1.81%)    -0.85190
      74    136.42    -0.85076 ( 98.23%)    -0.75920 (  1.77%)    -0.84914
      75    140.56    -0.83370 ( 98.42%)    -0.75035 (  1.58%)    -0.83238
      76    142.76    -0.82483 ( 98.52%)    -0.74574 (  1.48%)    -0.82366
      77    147.61    -0.80584 ( 98.70%)    -0.73585 (  1.30%)    -0.80493
      78    151.78    -0.79003 ( 98.84%)    -0.72760 (  1.16%)    -0.78930
      79    158.34    -0.76610 ( 99.02%)    -0.71506 (  0.98%)    -0.76560
      80    162.96    -0.74988 ( 99.12%)    -0.70654 (  0.88%)    -0.74950
      81    165.22    -0.74214 ( 99.17%)    -0.70246 (  0.83%)    -0.74181
      82    168.52    -0.73103 ( 99.23%)    -0.69660 (  0.77%)    -0.73077
      83    170.38    -0.72489 ( 99.26%)    -0.69336 (  0.74%)    -0.72466
      84    172.77    -0.71709 ( 99.30%)    -0.68923 (  0.70%)    -0.71690
      85    176.52    -0.70511 ( 99.36%)    -0.68287 (  0.64%)    -0.70496
      86    178.91    -0.69760 ( 99.39%)    -0.67888 (  0.61%)    -0.69749
      87    183.86    -0.68242 ( 99.46%)    -0.67080 (  0.54%)    -0.68236
      88    186.99    -0.67308 ( 99.49%)    -0.66580 (  0.51%)    -0.67304
      89    187.67    -0.67106 ( 99.50%)    -0.66473 (  0.50%)    -0.67103
      90    191.33    -0.66037 ( 99.54%)    -0.65900 (  0.46%)    -0.66036
      91    192.14    -0.65804 ( 99.54%)    -0.65775 (  0.46%)    -0.65804
      92    193.86    -0.65314 ( 99.56%)    -0.65511 (  0.44%)    -0.65315
      93    195.84    -0.64754 ( 99.58%)    -0.65210 (  0.42%)    -0.64756
      94    197.79    -0.64207 ( 99.59%)    -0.64916 (  0.41%)    -0.64210
      95    200.21    -0.63541 ( 99.61%)    -0.64556 (  0.39%)    -0.63545
      96    202.81    -0.62833 ( 99.63%)    -0.64173 (  0.37%)    -0.62838
      97    205.74    -0.62050 ( 99.65%)    -0.63749 (  0.35%)    -0.62056
      98    211.37    -0.60578 ( 99.69%)    -0.62949 (  0.31%)    -0.60585
      99    215.04    -0.59643 ( 99.71%)    -0.62439 (  0.29%)    -0.59651
     100    216.66    -0.59238 ( 99.72%)    -0.62217 (  0.28%)    -0.59247
     101    217.71    -0.58976 ( 99.72%)    -0.62074 (  0.28%)    -0.58984
     102    220.23    -0.58353 ( 99.74%)    -0.61732 (  0.26%)    -0.58362
     103    221.08    -0.58147 ( 99.74%)    -0.61619 (  0.26%)    -0.58156
     104    224.19    -0.57394 ( 99.75%)    -0.61205 (  0.25%)    -0.57403
     105    226.00    -0.56962 ( 99.76%)    -0.60967 (  0.24%)    -0.56971
     106    229.85    -0.56056 ( 99.78%)    -0.60467 (  0.22%)    -0.56066
     107    232.11    -0.55532 ( 99.79%)    -0.60176 (  0.21%)    -0.55542
     108    234.35    -0.55019 ( 99.79%)    -0.59891 (  0.21%)    -0.55029
     109    235.44    -0.54772 ( 99.80%)    -0.59754 (  0.20%)    -0.54783
     110    236.67    -0.54496 ( 99.80%)    -0.59600 (  0.20%)    -0.54506
     111    237.36    -0.54340 ( 99.80%)    -0.59513 (  0.20%)    -0.54350
     112    239.90    -0.53775 ( 99.81%)    -0.59199 (  0.19%)    -0.53786
     113    243.50    -0.52985 ( 99.82%)    -0.58757 (  0.18%)    -0.52995
     114    244.48    -0.52773 ( 99.83%)    -0.58638 (  0.17%)    -0.52784
     115    244.72    -0.52721 ( 99.83%)    -0.58609 (  0.17%)    -0.52732
     116    246.35    -0.52371 ( 99.83%)    -0.58412 (  0.17%)    -0.52381
     117    247.17    -0.52197 ( 99.83%)    -0.58314 (  0.17%)    -0.52207
     118    249.89    -0.51620 ( 99.84%)    -0.57990 (  0.16%)    -0.51631
     119    250.78    -0.51432 ( 99.84%)    -0.57884 (  0.16%)    -0.51443
     120    251.68    -0.51245 ( 99.84%)    -0.57778 (  0.16%)    -0.51255
     121    254.56    -0.50650 ( 99.85%)    -0.57441 (  0.15%)    -0.50660
     122    256.35    -0.50283 ( 99.86%)    -0.57234 (  0.14%)    -0.50293
     123    257.26    -0.50097 ( 99.86%)    -0.57128 (  0.14%)    -0.50107
     124    257.67    -0.50015 ( 99.86%)    -0.57082 (  0.14%)    -0.50025
     125    260.22    -0.49501 ( 99.86%)    -0.56789 (  0.14%)    -0.49511
     126    262.35    -0.49077 ( 99.87%)    -0.56548 (  0.13%)    -0.49087
     127    262.81    -0.48987 ( 99.87%)    -0.56496 (  0.13%)    -0.48997
     128    264.76    -0.48603 ( 99.87%)    -0.56277 (  0.13%)    -0.48613
     129    270.12    -0.47568 ( 99.88%)    -0.55684 (  0.12%)    -0.47578
     130    275.91    -0.46479 ( 99.89%)    -0.55055 (  0.11%)    -0.46488
     131    276.21    -0.46422 ( 99.89%)    -0.55023 (  0.11%)    -0.46431
     132    277.18    -0.46244 ( 99.89%)    -0.54920 (  0.11%)    -0.46253
     133    279.71    -0.45779 ( 99.90%)    -0.54650 (  0.10%)    -0.45788
     134    286.86    -0.44496 ( 99.91%)    -0.53902 (  0.09%)    -0.44505
     135    288.59    -0.44193 ( 99.91%)    -0.53725 (  0.09%)    -0.44201
     136    291.91    -0.43615 ( 99.91%)    -0.53385 (  0.09%)    -0.43624
     137    296.48    -0.42835 ( 99.92%)    -0.52925 (  0.08%)    -0.42843
     138    297.75    -0.42621 ( 99.92%)    -0.52798 (  0.08%)    -0.42629
     139    299.79    -0.42280 ( 99.92%)    -0.52597 (  0.08%)    -0.42288
   ------------------------------------------------------------------------

   temp. (K)  partition function   enthalpy   heat capacity  entropy
                                   cal/mol     cal/K/mol   cal/K/mol   J/K/mol
 298.15  VIB  0.758E+65            74180.604    367.297    493.426
         ROT  0.165E+09              888.752      2.981     40.581
         INT  0.125E+74            75069.356    370.278    534.007
         TR   0.257E+29             1481.254      4.968     46.215
         TOT                       76550.6103   375.2463   580.2224  2427.6506

       T/K    H(0)-H(T)+PV         H(T)/Eh          T*S/Eh         G(T)/Eh
   ------------------------------------------------------------------------
    298.15    0.121991E+00    0.110031E+01    0.275682E+00    0.824631E+00
   ------------------------------------------------------------------------

         :::::::::::::::::::::::::::::::::::::::::::::::::::::
         ::                  THERMODYNAMIC                  ::
         :::::::::::::::::::::::::::::::::::::::::::::::::::::
         :: total free energy        -230.927542561469 Eh   ::
         ::.................................................::
         :: total energy             -231.752173856746 Eh   ::
         :: zero point energy           0.978322522041 Eh   ::
         :: G(RRHO) w/o ZPVE           -0.153691226764 Eh   ::
         :: G(RRHO) contrib.            0.824631295277 Eh   ::
         :::::::::::::::::::::::::::::::::::::::::::::::::::::

           -------------------------------------------------
          | TOTAL ENERGY             -231.752173856746 Eh   |
          | TOTAL ENTHALPY           -230.651860172080 Eh   |
          | TOTAL FREE ENERGY        -230.927542561469 Eh   |
          | GRADIENT NORM               0.000046648528 Eh/α |
          | HOMO-LUMO GAP               6.913245490809 eV   |
           -------------------------------------------------

------------------------------------------------------------------------
 * finished run on 2024/05/17 at 16:38:20.884     
------------------------------------------------------------------------
 total:
 * wall-time:     0 d,  0 h,  1 min, 17.322 sec
 *  cpu-time:     0 d,  0 h,  8 min, 24.288 sec
 * ratio c/w:     6.522 speedup
 SCF:
 * wall-time:     0 d,  0 h,  0 min,  0.175 sec
 *  cpu-time:     0 d,  0 h,  0 min,  1.203 sec
 * ratio c/w:     6.875 speedup
 analytical hessian:
 * wall-time:     0 d,  0 h,  1 min, 16.666 sec
 *  cpu-time:     0 d,  0 h,  8 min, 20.908 sec
 * ratio c/w:     6.534 speedup

