      -----------------------------------------------------------      
     |                   =====================                   |     
     |                           x T B                           |     
     |                   =====================                   |     
     |                         S. Grimme                         |     
     |          Mulliken Center for Theoretical Chemistry        |     
     |                    University of Bonn                     |     
      -----------------------------------------------------------      

   * xtb version 6.6.0 (conda-forge) compiled by 'runner@Mac-1676020848589.local' on 2023-02-10

   xtb is free software: you can redistribute it and/or modify it under
   the terms of the GNU Lesser General Public License as published by
   the Free Software Foundation, either version 3 of the License, or
   (at your option) any later version.
   
   xtb is distributed in the hope that it will be useful,
   but WITHOUT ANY WARRANTY; without even the implied warranty of
   MERCHANTABILITY or FITNESS FOR A PARTICULAR PURPOSE.  See the
   GNU Lesser General Public License for more details.
   
   Cite this work as:
   * C. Bannwarth, E. Caldeweyher, S. Ehlert, A. Hansen, P. Pracht,
     J. Seibert, S. Spicher, S. Grimme, WIREs Comput. Mol. Sci., 2020, 11,
     e01493. DOI: 10.1002/wcms.1493
   
   for GFN2-xTB:
   * C. Bannwarth, S. Ehlert and S. Grimme., J. Chem. Theory Comput., 2019,
     15, 1652-1671. DOI: 10.1021/acs.jctc.8b01176
   for GFN1-xTB:
   * S. Grimme, C. Bannwarth, P. Shushkov, J. Chem. Theory Comput., 2017,
     13, 1989-2009. DOI: 10.1021/acs.jctc.7b00118
   for GFN0-xTB:
   * P. Pracht, E. Caldeweyher, S. Ehlert, S. Grimme, ChemRxiv, 2019, preprint.
     DOI: 10.26434/chemrxiv.8326202.v1
   for GFN-FF:
   * S. Spicher and S. Grimme, Angew. Chem. Int. Ed., 2020, 59, 15665-15673.
     DOI: 10.1002/anie.202004239
   
   for ALPB and GBSA implicit solvation:
   * S. Ehlert, M. Stahn, S. Spicher, S. Grimme, J. Chem. Theory Comput.,
     2021, 17, 4250-4261. DOI: 10.1021/acs.jctc.1c00471
   
   for DFT-D4:
   * E. Caldeweyher, C. Bannwarth and S. Grimme, J. Chem. Phys., 2017,
     147, 034112. DOI: 10.1063/1.4993215
   * E. Caldeweyher, S. Ehlert, A. Hansen, H. Neugebauer, S. Spicher,
     C. Bannwarth and S. Grimme, J. Chem. Phys., 2019, 150, 154122.
     DOI: 10.1063/1.5090222
   * E. Caldeweyher, J.-M. Mewes, S. Ehlert and S. Grimme, Phys. Chem. Chem. Phys.
     2020, 22, 8499-8512. DOI: 10.1039/D0CP00502A
   
   for sTDA-xTB:
   * S. Grimme and C. Bannwarth, J. Chem. Phys., 2016, 145, 054103.
     DOI: 10.1063/1.4959605
   
   in the mass-spec context:
   * V. Asgeirsson, C. Bauer and S. Grimme, Chem. Sci., 2017, 8, 4879.
     DOI: 10.1039/c7sc00601b
   * J. Koopman and S. Grimme, ACS Omega 2019, 4, 12, 15120-15133.
     DOI: 10.1021/acsomega.9b02011
   
   for metadynamics refer to:
   * S. Grimme, J. Chem. Theory Comput., 2019, 155, 2847-2862
     DOI: 10.1021/acs.jctc.9b00143
   
   for SPH calculations refer to:
   * S. Spicher and S. Grimme, J. Chem. Theory Comput., 2021, 17, 1701-1714
     DOI: 10.1021/acs.jctc.0c01306
   
   with help from (in alphabetical order)
   P. Atkinson, C. Bannwarth, F. Bohle, G. Brandenburg, E. Caldeweyher
   M. Checinski, S. Dohm, S. Ehlert, S. Ehrlich, I. Gerasimov, C. Hölzer
   A. Katbashev, J. Koopman, C. Lavigne, S. Lehtola, F. März, M. Müller,
   F. Musil, H. Neugebauer, J. Pisarek, C. Plett, P. Pracht, F. Pultar,
   J. Seibert, P. Shushkov, S. Spicher, M. Stahn, M. Steiner, T. Strunk,
   J. Stückrath, T. Rose, and J. Unsleber
   
 * started run on 2024/05/29 at 10:50:24.801     

           -------------------------------------------------
          |                Calculation Setup                |
           -------------------------------------------------

          program call               : xtb monosubstituted_Sulfate_solvated_radius_5_solvated_radius_7.xyz --opt extreme --gfn2 --chrg 3 --uhf 6 --alpb water
          coordinate file            : monosubstituted_Sulfate_solvated_radius_5_solvated_radius_7.xyz
          omp threads                :                     8

   ID    Z sym.   atoms
    1   26 Fe     1
    2    8 O      2, 4-7, 10, 13, 16, 19, 22, 25, 28, 31, 34, 37, 40, 43, 46,
                  49, 52, 55, 58, 61, 64, 67, 70, 73, 76, 79, 82, 85, 88, 91,
                  94, 97, 100, 103, 106, 109, 112, 115, 118, 121, 124, 127
    3   16 S      3
    4    1 H      8, 9, 11, 12, 14, 15, 17, 18, 20, 21, 23, 24, 26, 27, 29,
                  30, 32, 33, 35, 36, 38, 39, 41, 42, 44, 45, 47, 48, 50, 51,
                  53, 54, 56, 57, 59, 60, 62, 63, 65, 66, 68, 69, 71, 72, 74,
                  75, 77, 78, 80, 81, 83, 84, 86, 87, 89, 90, 92, 93, 95, 96,
                  98, 99, 101, 102, 104, 105, 107, 108, 110, 111, 113, 114,
                  116, 117, 119, 120, 122, 123, 125, 126, 128, 129

molecular fragmentation (1/2 indicates fragments):
111111111111111222222222222222222222222222222222222222222222222222222222
222222222222222222222222222222222222222222222222222222222
# atoms in fragment 1/2:    15   114
 fragment masses (1/2) :      205.95      684.58
CMA distance (Bohr)    :   2.336
constraining FC (au)   :  0.0500

           -------------------------------------------------
          |                 G F N 2 - x T B                 |
           -------------------------------------------------

        Reference                      10.1021/acs.jctc.8b01176
      * Hamiltonian:
        H0-scaling (s, p, d)           1.850000    2.230000    2.230000
        zeta-weighting                 0.500000
      * Dispersion:
        s8                             2.700000
        a1                             0.520000
        a2                             5.000000
        s9                             5.000000
      * Repulsion:
        kExp                           1.500000    1.000000
        rExp                           1.000000
      * Coulomb:
        alpha                          2.000000
        third order                    shell-resolved
        anisotropic                    true
        a3                             3.000000
        a5                             4.000000
        cn-shift                       1.200000
        cn-exp                         4.000000
        max-rad                        5.000000

      * Solvation model:               ALPB
        Solvent                        water
        Parameter file                 internal GFN2-xTB/ALPB
        Dielectric constant                8.0200E+01
        Reference state                gsolv [1 M gas/solution]
        Free energy shift                  1.0808E-03 Eh       6.7819E-01 kcal/mol
        Temperature                        2.9815E+02 K
        Density                            1.0000E+00 kg/L
        Solvent mass                       1.8000E+01 g/mol
        Interaction kernel             P16
        Born radius scaling (c1)           1.4744E+00
        Born radii integrator          GBOBC
        Born offset                        0.0000E+00 a0       0.0000E+00 AA
        H-bond correction              true
        Ion screening                  false
        Surface tension                    1.0000E-05 Eh       1.5569E+01 dyn/cm
        Grid points                               230 per atom
q/qsh data taken from xtbrestart
CAMM data taken from xtbrestart

          ...................................................
          :                      SETUP                      :
          :.................................................:
          :  # basis functions                 282          :
          :  # atomic orbitals                 280          :
          :  # shells                          178          :
          :  # electrons                       363          :
          :  max. iterations                   250          :
          :  Hamiltonian                  GFN2-xTB          :
          :  restarted?                       true          :
          :  GBSA solvation                   true          :
          :  PC potential                    false          :
          :  electronic temp.          300.0000000     K    :
          :  accuracy                    1.0000000          :
          :  -> integral cutoff          0.2500000E+02      :
          :  -> integral neglect         0.1000000E-07      :
          :  -> SCF convergence          0.1000000E-05 Eh   :
          :  -> wf. convergence          0.1000000E-03 e    :
          :  Broyden damping             0.4000000          :
          ...................................................

 iter      E             dE          RMSdq      gap      omega  full diag
   1   -230.9320434 -0.230932E+03  0.387E+00    0.20       0.0  T
   2   -231.1555187 -0.223475E+00  0.337E+00    0.04       1.0  T
   3   -231.3494594 -0.193941E+00  0.253E+00    0.13       1.0  T
   4   -231.5685870 -0.219128E+00  0.199E+00    0.17       1.0  T
   5   -231.6682658 -0.996788E-01  0.150E+00    0.19       1.0  T
   6   -231.6290867  0.391791E-01  0.147E+00    0.24       1.0  T
   7   -231.6851249 -0.560383E-01  0.116E+00    0.21       1.0  T
   8   -231.5561434  0.128982E+00  0.160E+00    0.19       1.0  T
   9   -231.7516719 -0.195529E+00  0.839E-01    0.19       1.0  T
  10   -231.6950717  0.566002E-01  0.113E+00    0.19       1.0  T
  11   -231.6788724  0.161993E-01  0.118E+00    0.19       1.0  T
  12   -231.5882612  0.906113E-01  0.148E+00    0.20       1.0  T
  13   -231.6344303 -0.461691E-01  0.131E+00    0.19       1.0  T
  14   -231.7449413 -0.110511E+00  0.806E-01    0.19       1.0  T
  15   -231.7699292 -0.249879E-01  0.662E-01    0.20       1.0  T
  16   -231.7861134 -0.161842E-01  0.556E-01    0.20       1.0  T
  17   -231.7853422  0.771229E-03  0.473E-01    0.21       1.0  T
  18   -231.7440047  0.413374E-01  0.850E-01    0.20       1.0  T
  19   -231.7894130 -0.454083E-01  0.517E-01    0.20       1.0  T
  20   -231.7966773 -0.726426E-02  0.449E-01    0.20       1.0  T
  21   -231.8046158 -0.793855E-02  0.360E-01    0.20       1.0  T
  22   -231.8100553 -0.543944E-02  0.275E-01    0.20       1.0  T
  23   -231.8087932  0.126205E-02  0.290E-01    0.20       1.0  T
  24   -231.8110043 -0.221107E-02  0.254E-01    0.20       1.0  T
  25   -231.8079545  0.304977E-02  0.303E-01    0.20       1.0  T
  26   -231.8137163 -0.576178E-02  0.196E-01    0.20       1.0  T
  27   -231.8153733 -0.165697E-02  0.150E-01    0.20       1.0  T
  28   -231.8147322  0.641037E-03  0.170E-01    0.20       1.0  T
  29   -231.8168886 -0.215634E-02  0.908E-02    0.20       1.0  T
  30   -231.8173296 -0.441064E-03  0.641E-02    0.20       1.0  T
  31   -231.8172900  0.396664E-04  0.675E-02    0.20       1.0  T
  32   -231.8173928 -0.102839E-03  0.595E-02    0.20       1.0  T
  33   -231.8174640 -0.712248E-04  0.530E-02    0.20       1.0  T
  34   -231.8176428 -0.178813E-03  0.328E-02    0.20       1.0  T
  35   -231.8177050 -0.621279E-04  0.226E-02    0.20       1.0  T
  36   -231.8177022  0.272855E-05  0.230E-02    0.20       1.0  T
  37   -231.8177366 -0.343338E-04  0.146E-02    0.20       1.0  T
  38   -231.8177509 -0.143298E-04  0.829E-03    0.20       1.1  T
  39   -231.8177521 -0.117566E-05  0.768E-03    0.20       1.1  T
  40   -231.8177561 -0.403052E-05  0.456E-03    0.20       1.9  T
  41   -231.8177568 -0.678606E-06  0.377E-03    0.20       2.3  T
  42   -231.8177570 -0.235945E-06  0.343E-03    0.20       2.6  T
  43   -231.8177580 -0.965398E-06  0.151E-03    0.20       5.8  T
  44   -231.8177581 -0.145068E-06  0.932E-04    0.20       9.5  T
  45   -231.8177581  0.621131E-08  0.943E-04    0.20       9.3  T

   *** convergence criteria satisfied after 45 iterations ***

         #    Occupation            Energy/Eh            Energy/eV
      -------------------------------------------------------------
         1        2.0000           -0.8011886             -21.8015
       ...           ...                  ...                  ...
       178        1.8734           -0.4384910             -11.9319
       179        1.7857           -0.4378909             -11.9156
       180        1.6854           -0.4373963             -11.9022
       181        1.4852           -0.4366002             -11.8805
       182        1.2314           -0.4355159             -11.8510
       183        1.1152           -0.4347197             -11.8293
       184        0.9798           -0.3897645             -10.6060 (HOMO)
       185        0.0202           -0.3823864             -10.4053 (LUMO)
       186                         -0.1314225              -3.5762
       187                         -0.0586421              -1.5957
       188                         -0.0515978              -1.4040
       189                         -0.0065878              -0.1793
       ...                                ...                  ...
       280                          2.9806527              81.1077
      -------------------------------------------------------------
                  HL-Gap            0.0073781 Eh            0.2008 eV
             Fermi-level           -0.4113660 Eh          -11.1938 eV

 SCC (total)                   0 d,  0 h,  0 min,  0.711 sec
 SCC setup                      ...        0 min,  0.007 sec (  0.919%)
 Dispersion                     ...        0 min,  0.003 sec (  0.388%)
 classical contributions        ...        0 min,  0.001 sec (  0.076%)
 integral evaluation            ...        0 min,  0.008 sec (  1.101%)
 iterations                     ...        0 min,  0.631 sec ( 88.730%)
 molecular gradient             ...        0 min,  0.060 sec (  8.453%)
 printout                       ...        0 min,  0.002 sec (  0.330%)

         :::::::::::::::::::::::::::::::::::::::::::::::::::::
         ::                     SUMMARY                     ::
         :::::::::::::::::::::::::::::::::::::::::::::::::::::
         :: total energy            -229.444796221354 Eh    ::
         :: total w/o Gsasa/hb      -229.185212165029 Eh    ::
         :: gradient norm              0.779428427996 Eh/a0 ::
         :: HOMO-LUMO gap              0.200767810212 eV    ::
         ::.................................................::
         :: SCC energy              -231.817758121384 Eh    ::
         :: -> isotropic ES            1.768367969937 Eh    ::
         :: -> anisotropic ES         -0.084097397629 Eh    ::
         :: -> anisotropic XC         -0.045753602975 Eh    ::
         :: -> dispersion             -0.056446234952 Eh    ::
         :: -> Gsolv                  -0.907503767020 Eh    ::
         ::    -> Gelec               -0.647919710695 Eh    ::
         ::    -> Gsasa                0.042675654809 Eh    ::
         ::    -> Ghb                 -0.303340470833 Eh    ::
         ::    -> Gshift               0.001080759698 Eh    ::
         :: repulsion energy           2.370184844545 Eh    ::
         :: add. restraining           0.000000000000 Eh    ::
         :: total charge               3.000000833354 e     ::
         :::::::::::::::::::::::::::::::::::::::::::::::::::::

      ----------------------------------------------------------- 
     |                   =====================                   |
     |                        A N C O P T                        |
     |                   =====================                   |
     |               Approximate Normal Coordinate               |
     |                Rational Function Optimizer                |
      ----------------------------------------------------------- 

          ...................................................
          :                      SETUP                      :
          :.................................................:
          :   optimization level           extreme          :
          :   max. optcycles                  2580          :
          :   ANC micro-cycles                  20          :
          :   degrees of freedom               381          :
          :.................................................:
          :   RF solver                   davidson          :
          :   write xtbopt.log                true          :
          :   linear?                        false          :
          :   energy convergence         0.5000000E-07 Eh   :
          :   grad. convergence          0.5000000E-04 Eh/α :
          :   maxmium RF displ.          1.0000000          :
          :   Hlow (freq-cutoff)         0.1000000E-01      :
          :   Hmax (freq-cutoff)         5.0000000          :
          :   S6 in model hess.         20.0000000          :
          ...................................................

generating ANC from model Hessian ...
Using Lindh-Hessian (1995)
 Shifting diagonal of input Hessian by    1.0554383068606074E-002
 Lowest  eigenvalues of input Hessian
    0.010000    0.010145    0.010279    0.010282    0.010288    0.010302
    0.010305    0.010311    0.010327    0.010366    0.010372    0.010381
    0.010393    0.010410    0.010412    0.010416    0.010426    0.010438
 Highest eigenvalues
    1.811155    1.890109    1.962208    3.080770    3.541869    3.569957


........................................................................
.............................. CYCLE    1 ..............................
........................................................................

 iter      E             dE          RMSdq      gap      omega  full diag
   1   -231.8177582 -0.231818E+03  0.391E-04    0.20       0.0  T
   2   -231.8177570  0.118669E-05  0.334E-03    0.20       2.6  T
   3   -231.8177581 -0.110103E-05  0.983E-04    0.20       9.0  T
   4   -231.8177582 -0.899121E-07  0.327E-04    0.20      26.9  T
   5   -231.8177582 -0.242528E-08  0.289E-04    0.20      30.5  T
     SCC iter.                  ...        0 min,  0.070 sec
     gradient                   ...        0 min,  0.058 sec
 * total energy  :  -229.4447963 Eh     change       -0.8491247E-07 Eh
   gradient norm :     0.7793697 Eh/α   predicted     0.0000000E+00 (-100.00%)
   displ. norm   :     0.6183140 α      lambda       -0.4282792E+00
   maximum displ.:     0.1122076 α      in ANC's #246, #289, #287, ...

........................................................................
.............................. CYCLE    2 ..............................
........................................................................

 iter      E             dE          RMSdq      gap      omega  full diag
   1   -231.3128181 -0.231313E+03  0.146E+00    0.30       0.0  T
   2   -229.2459084  0.206691E+01  0.442E+00    0.12       1.0  T
   3   -231.1576223 -0.191171E+01  0.190E+00    0.44       1.0  T
   4   -231.2645628 -0.106941E+00  0.156E+00    0.39       1.0  T
   5   -231.3804821 -0.115919E+00  0.117E+00    0.39       1.0  T
   6   -231.3662089  0.142731E-01  0.121E+00    0.35       1.0  T
   7   -231.5007757 -0.134567E+00  0.569E-01    0.34       1.0  T
   8   -231.4982386  0.253713E-02  0.538E-01    0.35       1.0  T
   9   -231.4932584  0.498016E-02  0.563E-01    0.35       1.0  T
  10   -231.4528667  0.403917E-01  0.786E-01    0.33       1.0  T
  11   -231.5021930 -0.493263E-01  0.438E-01    0.31       1.0  T
  12   -231.5070597 -0.486676E-02  0.397E-01    0.31       1.0  T
  13   -231.5157825 -0.872276E-02  0.244E-01    0.31       1.0  T
  14   -231.4970880  0.186945E-01  0.467E-01    0.30       1.0  T
  15   -231.4811996  0.158884E-01  0.608E-01    0.30       1.0  T
  16   -231.5131600 -0.319604E-01  0.265E-01    0.30       1.0  T
  17   -231.5177061 -0.454612E-02  0.161E-01    0.30       1.0  T
  18   -231.5193151 -0.160897E-02  0.106E-01    0.30       1.0  T
  19   -231.5198489 -0.533795E-03  0.775E-02    0.30       1.0  T
  20   -231.5199417 -0.928122E-04  0.639E-02    0.30       1.0  T
  21   -231.5195399  0.401804E-03  0.845E-02    0.30       1.0  T
  22   -231.5200245 -0.484601E-03  0.494E-02    0.30       1.0  T
  23   -231.5202376 -0.213069E-03  0.262E-02    0.30       1.0  T
  24   -231.5202400 -0.241041E-05  0.255E-02    0.30       1.0  T
  25   -231.5202612 -0.212513E-04  0.196E-02    0.30       1.0  T
  26   -231.5202724 -0.111302E-04  0.152E-02    0.30       1.0  T
  27   -231.5202768 -0.444614E-05  0.133E-02    0.30       1.0  T
  28   -231.5202807 -0.387571E-05  0.111E-02    0.30       1.0  T
  29   -231.5202853 -0.462259E-05  0.889E-03    0.30       1.0  T
  30   -231.5202901 -0.482539E-05  0.576E-03    0.30       1.5  T
  31   -231.5202914 -0.127893E-05  0.451E-03    0.30       2.0  T
  32   -231.5202927 -0.128581E-05  0.263E-03    0.30       3.3  T
  33   -231.5202931 -0.437328E-06  0.173E-03    0.30       5.1  T
  34   -231.5202934 -0.243840E-06  0.647E-04    0.30      13.6  T
  35   -231.5202934 -0.732862E-08  0.606E-04    0.30      14.5  T
     SCC iter.                  ...        0 min,  0.466 sec
     gradient                   ...        0 min,  0.060 sec
 * total energy  :  -229.7397051 Eh     change       -0.2949088E+00 Eh
   gradient norm :     0.3610610 Eh/α   predicted    -0.2960228E+00 (   0.38%)
   displ. norm   :     0.6565893 α      lambda       -0.1898335E+00
   maximum displ.:     0.1707836 α      in ANC's #246, #238, #245, ...

........................................................................
.............................. CYCLE    3 ..............................
........................................................................

 iter      E             dE          RMSdq      gap      omega  full diag
   1   -231.1156606 -0.231116E+03  0.156E+00    0.54       0.0  T
   2   -228.7267788  0.238888E+01  0.471E+00    0.28       1.0  T
   3   -230.9804218 -0.225364E+01  0.171E+00    0.68       1.0  T
   4   -231.1489205 -0.168499E+00  0.143E+00    0.60       1.0  T
   5   -231.2922742 -0.143354E+00  0.818E-01    0.60       1.0  T
   6   -231.3112146 -0.189403E-01  0.636E-01    0.60       1.0  T
   7   -231.3138992 -0.268462E-02  0.577E-01    0.59       1.0  T
   8   -231.3091874  0.471185E-02  0.601E-01    0.59       1.0  T
   9   -231.2982431  0.109442E-01  0.628E-01    0.58       1.0  T
  10   -231.3166734 -0.184302E-01  0.443E-01    0.57       1.0  T
  11   -231.3089350  0.773837E-02  0.518E-01    0.56       1.0  T
  12   -231.3267104 -0.177754E-01  0.302E-01    0.55       1.0  T
  13   -231.3311493 -0.443885E-02  0.207E-01    0.54       1.0  T
  14   -231.3281301  0.301917E-02  0.264E-01    0.54       1.0  T
  15   -231.3285426 -0.412523E-03  0.247E-01    0.54       1.0  T
  16   -231.3301036 -0.156094E-02  0.208E-01    0.54       1.0  T
  17   -231.3332860 -0.318249E-02  0.112E-01    0.54       1.0  T
  18   -231.3338497 -0.563663E-03  0.800E-02    0.54       1.0  T
  19   -231.3340129 -0.163197E-03  0.667E-02    0.54       1.0  T
  20   -231.3340230 -0.101281E-04  0.627E-02    0.54       1.0  T
  21   -231.3340586 -0.356045E-04  0.585E-02    0.54       1.0  T
  22   -231.3341291 -0.705070E-04  0.520E-02    0.54       1.0  T
  23   -231.3342590 -0.129832E-03  0.389E-02    0.54       1.0  T
  24   -231.3343592 -0.100213E-03  0.223E-02    0.54       1.0  T
  25   -231.3343835 -0.242763E-04  0.143E-02    0.54       1.0  T
  26   -231.3343946 -0.111722E-04  0.964E-03    0.54       1.0  T
  27   -231.3344011 -0.645744E-05  0.510E-03    0.54       1.7  T
  28   -231.3344012 -0.771488E-07  0.485E-03    0.54       1.8  T
  29   -231.3344026 -0.145947E-05  0.317E-03    0.54       2.8  T
  30   -231.3344026  0.425547E-07  0.310E-03    0.54       2.8  T
  31   -231.3344033 -0.679177E-06  0.120E-03    0.54       7.3  T
  32   -231.3344033 -0.319025E-07  0.998E-04    0.54       8.8  T
  33   -231.3344033 -0.223030E-07  0.896E-04    0.54       9.8  T
     SCC iter.                  ...        0 min,  0.431 sec
     gradient                   ...        0 min,  0.061 sec
 * total energy  :  -229.8766572 Eh     change       -0.1369521E+00 Eh
   gradient norm :     0.1675560 Eh/α   predicted    -0.1358384E+00 (  -0.81%)
   displ. norm   :     0.7167749 α      lambda       -0.1010512E+00
   maximum displ.:     0.2406905 α      in ANC's #233, #238, #225, ...

........................................................................
.............................. CYCLE    4 ..............................
........................................................................

 iter      E             dE          RMSdq      gap      omega  full diag
   1   -231.1284502 -0.231128E+03  0.150E+00    0.96       0.0  T
   2   -229.1484543  0.198000E+01  0.435E+00    0.18       1.0  T
   3   -231.2009685 -0.205251E+01  0.105E+00    1.04       1.0  T
   4   -231.2067717 -0.580323E-02  0.105E+00    1.00       1.0  T
   5   -231.2600823 -0.533106E-01  0.726E-01    1.00       1.0  T
   6   -231.2785367 -0.184544E-01  0.561E-01    1.00       1.0  T
   7   -231.2779934  0.543259E-03  0.541E-01    1.00       1.0  T
   8   -231.2352541  0.427393E-01  0.809E-01    0.98       1.0  T
   9   -231.2623954 -0.271413E-01  0.613E-01    0.98       1.0  T
  10   -231.2749472 -0.125518E-01  0.495E-01    0.97       1.0  T
  11   -231.2331728  0.417744E-01  0.814E-01    0.97       1.0  T
  12   -231.2908670 -0.576942E-01  0.289E-01    0.97       1.0  T
  13   -231.2917187 -0.851779E-03  0.280E-01    0.97       1.0  T
  14   -231.2964240 -0.470521E-02  0.172E-01    0.96       1.0  T
  15   -231.2981214 -0.169749E-02  0.120E-01    0.96       1.0  T
  16   -231.2987064 -0.585000E-03  0.956E-02    0.96       1.0  T
  17   -231.2992049 -0.498460E-03  0.629E-02    0.96       1.0  T
  18   -231.2993522 -0.147271E-03  0.504E-02    0.96       1.0  T
  19   -231.2995235 -0.171307E-03  0.299E-02    0.96       1.0  T
  20   -231.2993949  0.128629E-03  0.443E-02    0.96       1.0  T
  21   -231.2995436 -0.148778E-03  0.240E-02    0.96       1.0  T
  22   -231.2995503 -0.669626E-05  0.217E-02    0.96       1.0  T
  23   -231.2995786 -0.282642E-04  0.135E-02    0.96       1.0  T
  24   -231.2995794 -0.767230E-06  0.141E-02    0.96       1.0  T
  25   -231.2995967 -0.173359E-04  0.555E-03    0.96       1.6  T
  26   -231.2995972 -0.522313E-06  0.471E-03    0.96       1.9  T
  27   -231.2995971  0.107423E-06  0.500E-03    0.96       1.8  T
  28   -231.2995993 -0.215863E-05  0.221E-03    0.96       4.0  T
  29   -231.2995989  0.321487E-06  0.276E-03    0.96       3.2  T
  30   -231.2995983  0.626370E-06  0.363E-03    0.96       2.4  T
  31   -231.2995992 -0.903630E-06  0.215E-03    0.96       4.1  T
  32   -231.2995996 -0.423669E-06  0.869E-04    0.96      10.1  T
  33   -231.2995997 -0.430524E-07  0.596E-04    0.96      14.8  T
     SCC iter.                  ...        0 min,  0.483 sec
     gradient                   ...        0 min,  0.056 sec
 * total energy  :  -229.9581286 Eh     change       -0.8147138E-01 Eh
   gradient norm :     0.1629160 Eh/α   predicted    -0.7648406E-01 (  -6.12%)
   displ. norm   :     0.7736137 α      lambda       -0.8931709E-01
   maximum displ.:     0.2825263 α      in ANC's #238, #225, #240, ...

........................................................................
.............................. CYCLE    5 ..............................
........................................................................

 iter      E             dE          RMSdq      gap      omega  full diag
   1   -231.2180804 -0.231218E+03  0.140E+00    1.38       0.0  T
   2   -229.8728945  0.134519E+01  0.368E+00    0.79       1.0  T
   3   -231.2352779 -0.136238E+01  0.108E+00    1.37       1.0  T
   4   -231.2552421 -0.199641E-01  0.942E-01    1.37       1.0  T
   5   -231.2559812 -0.739131E-03  0.869E-01    1.37       1.0  T
   6   -231.2635165 -0.753535E-02  0.868E-01    1.39       1.0  T
   7   -231.3035902 -0.400737E-01  0.661E-01    1.38       1.0  T
   8   -231.2954506  0.813959E-02  0.625E-01    1.38       1.0  T
   9   -231.2999504 -0.449975E-02  0.536E-01    1.38       1.0  T
  10   -231.2880075  0.119428E-01  0.711E-01    1.39       1.0  T
  11   -231.3133383 -0.253308E-01  0.512E-01    1.38       1.0  T
  12   -231.3260977 -0.127593E-01  0.356E-01    1.38       1.0  T
  13   -231.3301461 -0.404839E-02  0.305E-01    1.38       1.0  T
  14   -231.3356589 -0.551286E-02  0.244E-01    1.38       1.0  T
  15   -231.3374441 -0.178518E-02  0.183E-01    1.38       1.0  T
  16   -231.3376106 -0.166474E-03  0.175E-01    1.38       1.0  T
  17   -231.3374238  0.186737E-03  0.140E-01    1.39       1.0  T
  18   -231.3382748 -0.850998E-03  0.103E-01    1.39       1.0  T
  19   -231.3381986  0.762691E-04  0.104E-01    1.39       1.0  T
  20   -231.3387982 -0.599649E-03  0.781E-02    1.39       1.0  T
  21   -231.3390216 -0.223421E-03  0.776E-02    1.39       1.0  T
  22   -231.3389419  0.797111E-04  0.780E-02    1.39       1.0  T
  23   -231.3392107 -0.268767E-03  0.437E-02    1.39       1.0  T
  24   -231.3392579 -0.472296E-04  0.382E-02    1.39       1.0  T
  25   -231.3393658 -0.107929E-03  0.196E-02    1.39       1.0  T
  26   -231.3393876 -0.217285E-04  0.102E-02    1.39       1.0  T
  27   -231.3393873  0.254678E-06  0.114E-02    1.39       1.0  T
  28   -231.3393961 -0.873986E-05  0.535E-03    1.39       1.6  T
  29   -231.3393982 -0.218469E-05  0.360E-03    1.39       2.4  T
  30   -231.3393978  0.465188E-06  0.485E-03    1.39       1.8  T
  31   -231.3393987 -0.953086E-06  0.307E-03    1.39       2.9  T
  32   -231.3393990 -0.310785E-06  0.102E-03    1.39       8.7  T
  33   -231.3393991 -0.315547E-07  0.495E-04    1.39      17.8  T
  34   -231.3393991 -0.116358E-07  0.345E-04    1.39      25.5  T
     SCC iter.                  ...        0 min,  0.460 sec
     gradient                   ...        0 min,  0.055 sec
 * total energy  :  -230.0263250 Eh     change       -0.6819641E-01 Eh
   gradient norm :     0.1748524 Eh/α   predicted    -0.7138576E-01 (   4.68%)
   displ. norm   :     0.7010197 α      lambda       -0.6476739E-01
   maximum displ.:     0.2782014 α      in ANC's #238, #232, #240, ...

........................................................................
.............................. CYCLE    6 ..............................
........................................................................

 iter      E             dE          RMSdq      gap      omega  full diag
   1   -231.3606490 -0.231361E+03  0.128E+00    1.34       0.0  T
   2   -230.8283706  0.532278E+00  0.278E+00    1.24       1.0  T
   3   -231.3394732 -0.511103E+00  0.115E+00    1.35       1.0  T
   4   -231.3395961 -0.122884E-03  0.103E+00    1.36       1.0  T
   5   -231.3990726 -0.594765E-01  0.583E-01    1.35       1.0  T
   6   -231.4047451 -0.567255E-02  0.433E-01    1.36       1.0  T
   7   -231.4165041 -0.117590E-01  0.317E-01    1.36       1.0  T
   8   -231.3924892  0.240149E-01  0.632E-01    1.35       1.0  T
   9   -231.4058064 -0.133172E-01  0.503E-01    1.35       1.0  T
  10   -231.4161730 -0.103666E-01  0.349E-01    1.35       1.0  T
  11   -231.4213121 -0.513910E-02  0.155E-01    1.35       1.0  T
  12   -231.4140587  0.725339E-02  0.341E-01    1.34       1.0  T
  13   -231.4178308 -0.377209E-02  0.330E-01    1.35       1.0  T
  14   -231.4221298 -0.429894E-02  0.148E-01    1.35       1.0  T
  15   -231.4229500 -0.820192E-03  0.673E-02    1.35       1.0  T
  16   -231.4230204 -0.704769E-04  0.576E-02    1.35       1.0  T
  17   -231.4231979 -0.177474E-03  0.333E-02    1.35       1.0  T
  18   -231.4232665 -0.685526E-04  0.195E-02    1.35       1.0  T
  19   -231.4232275  0.390143E-04  0.304E-02    1.35       1.0  T
  20   -231.4232745 -0.470002E-04  0.174E-02    1.35       1.0  T
  21   -231.4232555  0.189685E-04  0.296E-02    1.35       1.0  T
  22   -231.4232791 -0.236111E-04  0.179E-02    1.35       1.0  T
  23   -231.4232946 -0.155466E-04  0.993E-03    1.35       1.0  T
  24   -231.4232966 -0.193485E-05  0.622E-03    1.35       1.4  T
  25   -231.4232986 -0.206057E-05  0.307E-03    1.35       2.9  T
  26   -231.4232992 -0.575227E-06  0.192E-03    1.35       4.6  T
  27   -231.4232989  0.279022E-06  0.289E-03    1.35       3.0  T
  28   -231.4232994 -0.446338E-06  0.140E-03    1.35       6.3  T
  29   -231.4232995 -0.882531E-07  0.676E-04    1.35      13.0  T
  30   -231.4232995 -0.235656E-07  0.298E-04    1.35      29.6  T
     SCC iter.                  ...        0 min,  0.453 sec
     gradient                   ...        0 min,  0.060 sec
 * total energy  :  -230.0840150 Eh     change       -0.5768997E-01 Eh
   gradient norm :     0.1537800 Eh/α   predicted    -0.4829798E-01 ( -16.28%)
   displ. norm   :     0.7537260 α      lambda       -0.7361566E-01
   maximum displ.:     0.3427605 α      in ANC's #238, #240, #225, ...

........................................................................
.............................. CYCLE    7 ..............................
........................................................................

 iter      E             dE          RMSdq      gap      omega  full diag
   1   -231.5371810 -0.231537E+03  0.112E+00    1.36       0.0  T
   2   -231.3855518  0.151629E+00  0.185E+00    1.37       1.0  T
   3   -231.4828945 -0.973427E-01  0.121E+00    1.37       1.0  T
   4   -231.5124806 -0.295860E-01  0.998E-01    1.37       1.0  T
   5   -231.5504751 -0.379945E-01  0.590E-01    1.36       1.0  T
   6   -231.5710283 -0.205532E-01  0.305E-01    1.37       1.0  T
   7   -231.5417154  0.293130E-01  0.673E-01    1.36       1.0  T
   8   -231.5542158 -0.125005E-01  0.497E-01    1.36       1.0  T
   9   -231.5652220 -0.110061E-01  0.471E-01    1.36       1.0  T
  10   -231.5710210 -0.579905E-02  0.236E-01    1.36       1.0  T
  11   -231.5711861 -0.165099E-03  0.342E-01    1.36       1.0  T
  12   -231.5718272 -0.641041E-03  0.299E-01    1.36       1.0  T
  13   -231.5770910 -0.526381E-02  0.124E-01    1.36       1.0  T
  14   -231.5764048  0.686153E-03  0.164E-01    1.36       1.0  T
  15   -231.5757420  0.662881E-03  0.174E-01    1.36       1.0  T
  16   -231.5773093 -0.156732E-02  0.151E-01    1.36       1.0  T
  17   -231.5781949 -0.885583E-03  0.692E-02    1.36       1.0  T
  18   -231.5779776  0.217218E-03  0.102E-01    1.36       1.0  T
  19   -231.5782855 -0.307818E-03  0.605E-02    1.36       1.0  T
  20   -231.5784010 -0.115533E-03  0.326E-02    1.36       1.0  T
  21   -231.5784203 -0.192942E-04  0.280E-02    1.36       1.0  T
  22   -231.5784557 -0.354067E-04  0.120E-02    1.36       1.0  T
  23   -231.5784643 -0.859417E-05  0.884E-03    1.36       1.0  T
  24   -231.5784654 -0.107244E-05  0.792E-03    1.36       1.1  T
  25   -231.5784687 -0.338490E-05  0.163E-03    1.36       5.4  T
  26   -231.5784683  0.400402E-06  0.249E-03    1.36       3.5  T
  27   -231.5784689 -0.522579E-06  0.768E-04    1.36      11.5  T
  28   -231.5784689 -0.774091E-08  0.699E-04    1.36      12.6  T
     SCC iter.                  ...        0 min,  0.373 sec
     gradient                   ...        0 min,  0.059 sec
 * total energy  :  -230.1434104 Eh     change       -0.5939540E-01 Eh
   gradient norm :     0.0937427 Eh/α   predicted    -0.5771846E-01 (  -2.82%)
   displ. norm   :     0.8280380 α      lambda       -0.6088345E-01
   maximum displ.:     0.3236267 α      in ANC's #238, #233, #240, ...

........................................................................
.............................. CYCLE    8 ..............................
........................................................................

 iter      E             dE          RMSdq      gap      omega  full diag
   1   -231.6162458 -0.231616E+03  0.956E-01    1.54       0.0  T
   2   -231.4587628  0.157483E+00  0.178E+00    1.56       1.0  T
   3   -231.5680577 -0.109295E+00  0.925E-01    1.53       1.0  T
   4   -231.5814113 -0.133536E-01  0.890E-01    1.54       1.0  T
   5   -231.6194030 -0.379917E-01  0.622E-01    1.54       1.0  T
   6   -231.5784643  0.409388E-01  0.830E-01    1.54       1.0  T
   7   -231.6405881 -0.621238E-01  0.212E-01    1.54       1.0  T
   8   -231.6429248 -0.233679E-02  0.148E-01    1.54       1.0  T
   9   -231.5884286  0.544963E-01  0.862E-01    1.54       1.0  T
  10   -231.6228559 -0.344273E-01  0.546E-01    1.54       1.0  T
  11   -231.6361723 -0.133165E-01  0.369E-01    1.54       1.0  T
  12   -231.6390604 -0.288805E-02  0.300E-01    1.54       1.0  T
  13   -231.6405847 -0.152436E-02  0.270E-01    1.54       1.0  T
  14   -231.6438358 -0.325104E-02  0.952E-02    1.54       1.0  T
  15   -231.6441221 -0.286360E-03  0.854E-02    1.54       1.0  T
  16   -231.6444648 -0.342655E-03  0.439E-02    1.54       1.0  T
  17   -231.6444988 -0.339837E-04  0.404E-02    1.54       1.0  T
  18   -231.6445105 -0.117140E-04  0.310E-02    1.54       1.0  T
  19   -231.6445467 -0.362248E-04  0.286E-02    1.54       1.0  T
  20   -231.6445807 -0.339828E-04  0.782E-03    1.54       1.1  T
  21   -231.6445850 -0.429395E-05  0.418E-03    1.54       2.1  T
  22   -231.6445857 -0.692508E-06  0.320E-03    1.54       2.7  T
  23   -231.6445856  0.738300E-07  0.436E-03    1.54       2.0  T
  24   -231.6445860 -0.433131E-06  0.345E-03    1.54       2.5  T
  25   -231.6445866 -0.580462E-06  0.100E-03    1.54       8.8  T
  26   -231.6445867 -0.263623E-07  0.102E-03    1.54       8.7  T
  27   -231.6445867 -0.504572E-07  0.424E-04    1.54      20.8  T
  28   -231.6445867 -0.779835E-08  0.150E-04    1.54      58.5  T
     SCC iter.                  ...        0 min,  0.403 sec
     gradient                   ...        0 min,  0.062 sec
 * total energy  :  -230.1799918 Eh     change       -0.3658148E-01 Eh
   gradient norm :     0.1357231 Eh/α   predicted    -0.5131397E-01 (  40.27%)
   displ. norm   :     0.7283805 α      lambda       -0.5374490E-01
   maximum displ.:     0.2743873 α      in ANC's #225, #238, #240, ...

........................................................................
.............................. CYCLE    9 ..............................
........................................................................

 iter      E             dE          RMSdq      gap      omega  full diag
   1   -231.6114143 -0.231611E+03  0.556E-01    1.58       0.0  T
   2   -231.4280971  0.183317E+00  0.175E+00    1.58       1.0  T
   3   -231.6027491 -0.174652E+00  0.434E-01    1.57       1.0  T
   4   -231.5616361  0.411130E-01  0.784E-01    1.58       1.0  T
   5   -231.5956923 -0.340562E-01  0.572E-01    1.58       1.0  T
   6   -231.6140432 -0.183508E-01  0.384E-01    1.58       1.0  T
   7   -231.6175293 -0.348618E-02  0.253E-01    1.58       1.0  T
   8   -231.6193999 -0.187055E-02  0.232E-01    1.58       1.0  T
   9   -231.6059981  0.134018E-01  0.432E-01    1.58       1.0  T
  10   -231.6129159 -0.691782E-02  0.323E-01    1.58       1.0  T
  11   -231.6219616 -0.904574E-02  0.133E-01    1.58       1.0  T
  12   -231.6227325 -0.770855E-03  0.939E-02    1.58       1.0  T
  13   -231.6233410 -0.608483E-03  0.572E-02    1.58       1.0  T
  14   -231.6234693 -0.128323E-03  0.420E-02    1.58       1.0  T
  15   -231.6234382  0.310439E-04  0.510E-02    1.58       1.0  T
  16   -231.6235784 -0.140186E-03  0.284E-02    1.58       1.0  T
  17   -231.6236395 -0.610447E-04  0.133E-02    1.58       1.0  T
  18   -231.6236177  0.217212E-04  0.225E-02    1.58       1.0  T
  19   -231.6236395 -0.217148E-04  0.161E-02    1.58       1.0  T
  20   -231.6236509 -0.114181E-04  0.380E-03    1.58       2.3  T
  21   -231.6236507  0.189617E-06  0.407E-03    1.58       2.2  T
  22   -231.6236513 -0.572431E-06  0.251E-03    1.58       3.5  T
  23   -231.6236517 -0.417095E-06  0.111E-03    1.58       8.0  T
  24   -231.6236517 -0.548457E-07  0.556E-04    1.58      15.8  T
  25   -231.6236517 -0.155358E-07  0.514E-04    1.58      17.1  T
     SCC iter.                  ...        0 min,  0.367 sec
     gradient                   ...        0 min,  0.055 sec
 * total energy  :  -230.2105045 Eh     change       -0.3051262E-01 Eh
   gradient norm :     0.1420619 Eh/α   predicted    -0.4112933E-01 (  34.79%)
   displ. norm   :     0.6775914 α      lambda       -0.5502851E-01
   maximum displ.:     0.2127989 α      in ANC's #238, #233, #232, ...

........................................................................
.............................. CYCLE   10 ..............................
........................................................................

 iter      E             dE          RMSdq      gap      omega  full diag
   1   -231.6950062 -0.231695E+03  0.409E-01    1.65       0.0  T
   2   -231.5258535  0.169153E+00  0.166E+00    1.67       1.0  T
   3   -231.6832285 -0.157375E+00  0.446E-01    1.65       1.0  T
   4   -231.6940347 -0.108062E-01  0.316E-01    1.65       1.0  T
   5   -231.6726860  0.213487E-01  0.535E-01    1.66       1.0  T
   6   -231.6962880 -0.236020E-01  0.265E-01    1.66       1.0  T
   7   -231.7000635 -0.377545E-02  0.195E-01    1.66       1.0  T
   8   -231.7003274 -0.263985E-03  0.163E-01    1.66       1.0  T
   9   -231.7011807 -0.853293E-03  0.130E-01    1.66       1.0  T
  10   -231.7005890  0.591698E-03  0.171E-01    1.66       1.0  T
  11   -231.7024028 -0.181373E-02  0.821E-02    1.66       1.0  T
  12   -231.7028390 -0.436234E-03  0.494E-02    1.66       1.0  T
  13   -231.7030524 -0.213359E-03  0.204E-02    1.66       1.0  T
  14   -231.7030263  0.260859E-04  0.270E-02    1.66       1.0  T
  15   -231.7030833 -0.570159E-04  0.115E-02    1.66       1.0  T
  16   -231.7030914 -0.813825E-05  0.756E-03    1.66       1.2  T
  17   -231.7030885  0.297128E-05  0.101E-02    1.66       1.0  T
  18   -231.7030945 -0.600195E-05  0.503E-03    1.66       1.7  T
  19   -231.7030953 -0.790834E-06  0.369E-03    1.66       2.4  T
  20   -231.7030963 -0.998915E-06  0.141E-03    1.66       6.2  T
  21   -231.7030963 -0.668089E-07  0.107E-03    1.66       8.2  T
  22   -231.7030963  0.550830E-07  0.130E-03    1.66       6.8  T
  23   -231.7030964 -0.157321E-06  0.504E-04    1.66      17.5  T
  24   -231.7030964 -0.582980E-08  0.406E-04    1.66      21.7  T
     SCC iter.                  ...        0 min,  0.386 sec
     gradient                   ...        0 min,  0.068 sec
 * total energy  :  -230.2213529 Eh     change       -0.1084840E-01 Eh
   gradient norm :     0.1942886 Eh/α   predicted    -0.4014690E-01 ( 270.07%)
   displ. norm   :     0.5183144 α      lambda       -0.5926226E-01
   maximum displ.:     0.1689815 α      in ANC's #233, #225, #238, ...

........................................................................
.............................. CYCLE   11 ..............................
........................................................................

 iter      E             dE          RMSdq      gap      omega  full diag
   1   -231.7144038 -0.231714E+03  0.330E-01    2.09       0.0  T
   2   -231.6038085  0.110595E+00  0.129E+00    2.07       1.0  T
   3   -231.7056650 -0.101856E+00  0.367E-01    2.07       1.0  T
   4   -231.6834720  0.221930E-01  0.567E-01    2.07       1.0  T
   5   -231.6979813 -0.145093E-01  0.444E-01    2.07       1.0  T
   6   -231.7132061 -0.152248E-01  0.256E-01    2.07       1.0  T
   7   -231.7139551 -0.749060E-03  0.237E-01    2.07       1.0  T
   8   -231.7145046 -0.549499E-03  0.197E-01    2.06       1.0  T
   9   -231.7154641 -0.959494E-03  0.165E-01    2.06       1.0  T
  10   -231.7169944 -0.153024E-02  0.999E-02    2.06       1.0  T
  11   -231.7172776 -0.283248E-03  0.791E-02    2.06       1.0  T
  12   -231.7174930 -0.215382E-03  0.432E-02    2.06       1.0  T
  13   -231.7175688 -0.758307E-04  0.303E-02    2.06       1.0  T
  14   -231.7175772 -0.835192E-05  0.342E-02    2.06       1.0  T
  15   -231.7176473 -0.701073E-04  0.156E-02    2.06       1.0  T
  16   -231.7176524 -0.507220E-05  0.151E-02    2.06       1.0  T
  17   -231.7176643 -0.119288E-04  0.144E-02    2.06       1.0  T
  18   -231.7176739 -0.955347E-05  0.648E-03    2.06       1.4  T
  19   -231.7176776 -0.374034E-05  0.299E-03    2.06       2.9  T
  20   -231.7176779 -0.345953E-06  0.184E-03    2.06       4.8  T
  21   -231.7176783 -0.356068E-06  0.941E-04    2.06       9.4  T
  22   -231.7176783 -0.429565E-07  0.742E-04    2.06      11.9  T
     SCC iter.                  ...        0 min,  0.327 sec
     gradient                   ...        0 min,  0.061 sec
 * total energy  :  -230.2482104 Eh     change       -0.2685755E-01 Eh
   gradient norm :     0.1406810 Eh/α   predicted    -0.3759151E-01 (  39.97%)
   displ. norm   :     0.6744942 α      lambda       -0.5433783E-01
   maximum displ.:     0.1933556 α      in ANC's #206, #160, #242, ...

........................................................................
.............................. CYCLE   12 ..............................
........................................................................

 iter      E             dE          RMSdq      gap      omega  full diag
   1   -231.6200524 -0.231620E+03  0.495E-01    2.36       0.0  T
   2   -231.5734165  0.466359E-01  0.817E-01    2.36       1.0  T
   3   -231.6142195 -0.408030E-01  0.482E-01    2.35       1.0  T
   4   -231.5807937  0.334258E-01  0.742E-01    2.36       1.0  T
   5   -231.6158887 -0.350950E-01  0.474E-01    2.35       1.0  T
   6   -231.6277301 -0.118415E-01  0.315E-01    2.35       1.0  T
   7   -231.6301907 -0.246061E-02  0.298E-01    2.36       1.0  T
   8   -231.6207326  0.945810E-02  0.416E-01    2.36       1.0  T
   9   -231.5252703  0.954623E-01  0.961E-01    2.36       1.0  T
  10   -231.6343026 -0.109032E+00  0.203E-01    2.36       1.0  T
  11   -231.6375692 -0.326654E-02  0.114E-01    2.36       1.0  T
  12   -231.6371357  0.433523E-03  0.132E-01    2.35       1.0  T
  13   -231.6363651  0.770536E-03  0.157E-01    2.35       1.0  T
  14   -231.6377291 -0.136401E-02  0.104E-01    2.35       1.0  T
  15   -231.6374127  0.316397E-03  0.117E-01    2.35       1.0  T
  16   -231.6381848 -0.772087E-03  0.824E-02    2.35       1.0  T
  17   -231.6382900 -0.105158E-03  0.756E-02    2.35       1.0  T
  18   -231.6383975 -0.107493E-03  0.693E-02    2.35       1.0  T
  19   -231.6385448 -0.147316E-03  0.591E-02    2.35       1.0  T
  20   -231.6386670 -0.122180E-03  0.494E-02    2.35       1.0  T
  21   -231.6387445 -0.775529E-04  0.421E-02    2.35       1.0  T
  22   -231.6389037 -0.159194E-03  0.209E-02    2.35       1.0  T
  23   -231.6389551 -0.513302E-04  0.361E-03    2.35       2.4  T
  24   -231.6389550  0.594156E-07  0.359E-03    2.35       2.4  T
  25   -231.6389563 -0.127320E-05  0.153E-03    2.35       5.8  T
  26   -231.6389565 -0.269968E-06  0.365E-04    2.35      24.1  T
  27   -231.6389565 -0.109568E-07  0.199E-04    2.35      44.3  T
     SCC iter.                  ...        0 min,  0.402 sec
     gradient                   ...        0 min,  0.058 sec
 * total energy  :  -230.2465612 Eh     change        0.1649212E-02 Eh
   gradient norm :     0.1843176 Eh/α   predicted    -0.3952920E-01 (*******%)
   displ. norm   :     0.4481122 α      lambda       -0.4521900E-01
   maximum displ.:     0.1691801 α      in ANC's #184, #172, #225, ...

........................................................................
.............................. CYCLE   13 ..............................
........................................................................

 iter      E             dE          RMSdq      gap      omega  full diag
   1   -231.6862408 -0.231686E+03  0.212E-01    2.56       0.0  T
   2   -231.6365395  0.497013E-01  0.640E-01    2.56       1.0  T
   3   -231.6834893 -0.469498E-01  0.204E-01    2.56       1.0  T
   4   -231.6575918  0.258975E-01  0.518E-01    2.56       1.0  T
   5   -231.6798570 -0.222651E-01  0.267E-01    2.56       1.0  T
   6   -231.6825805 -0.272354E-02  0.201E-01    2.56       1.0  T
   7   -231.6780396  0.454087E-02  0.298E-01    2.56       1.0  T
   8   -231.6851704 -0.713074E-02  0.129E-01    2.56       1.0  T
   9   -231.6842314  0.939019E-03  0.166E-01    2.56       1.0  T
  10   -231.6861801 -0.194877E-02  0.928E-02    2.56       1.0  T
  11   -231.6866692 -0.489092E-03  0.711E-02    2.56       1.0  T
  12   -231.6869859 -0.316724E-03  0.484E-02    2.56       1.0  T
  13   -231.6870915 -0.105560E-03  0.379E-02    2.56       1.0  T
  14   -231.6872344 -0.142914E-03  0.149E-02    2.56       1.0  T
  15   -231.6872193  0.151618E-04  0.184E-02    2.56       1.0  T
  16   -231.6872474 -0.281150E-04  0.103E-02    2.56       1.0  T
  17   -231.6872588 -0.114660E-04  0.313E-03    2.56       2.8  T
  18   -231.6872596 -0.767391E-06  0.170E-03    2.56       5.2  T
  19   -231.6872598 -0.158240E-06  0.123E-03    2.56       7.2  T
  20   -231.6872599 -0.167834E-06  0.438E-04    2.56      20.1  T
  21   -231.6872600 -0.175873E-07  0.174E-04    2.56      50.7  T
     SCC iter.                  ...        0 min,  0.316 sec
     gradient                   ...        0 min,  0.056 sec
 * total energy  :  -230.2726031 Eh     change       -0.2604195E-01 Eh
   gradient norm :     0.1145883 Eh/α   predicted    -0.2714958E-01 (   4.25%)
   displ. norm   :     0.7821723 α      lambda       -0.6826732E-01
   maximum displ.:     0.3637913 α      in ANC's #242, #184, #243, ...

........................................................................
.............................. CYCLE   14 ..............................
........................................................................

 iter      E             dE          RMSdq      gap      omega  full diag
   1   -231.6502589 -0.231650E+03  0.159E+00    2.90       0.0  T
   2   -231.7128312 -0.625723E-01  0.150E+00    2.84       1.0  T
   3   -231.6964440  0.163872E-01  0.994E-01    2.87       1.0  T
   4   -231.7342681 -0.378241E-01  0.764E-01    2.87       1.0  T
   5   -231.7484030 -0.141349E-01  0.601E-01    2.88       1.0  T
   6   -231.7279056  0.204974E-01  0.640E-01    2.88       1.0  T
   7   -231.7605147 -0.326091E-01  0.336E-01    2.88       1.0  T
   8   -231.7549286  0.558618E-02  0.378E-01    2.88       1.0  T
   9   -231.7553428 -0.414285E-03  0.324E-01    2.89       1.0  T
  10   -231.7455504  0.979245E-02  0.571E-01    2.89       1.0  T
  11   -231.7605454 -0.149950E-01  0.227E-01    2.89       1.0  T
  12   -231.7623386 -0.179312E-02  0.203E-01    2.89       1.0  T
  13   -231.7641381 -0.179954E-02  0.124E-01    2.89       1.0  T
  14   -231.7634714  0.666738E-03  0.168E-01    2.89       1.0  T
  15   -231.7650397 -0.156833E-02  0.116E-01    2.89       1.0  T
  16   -231.7657891 -0.749448E-03  0.477E-02    2.89       1.0  T
  17   -231.7658646 -0.754485E-04  0.333E-02    2.89       1.0  T
  18   -231.7659444 -0.798094E-04  0.183E-02    2.89       1.0  T
  19   -231.7659577 -0.133048E-04  0.130E-02    2.89       1.0  T
  20   -231.7659721 -0.143615E-04  0.882E-03    2.89       1.0  T
  21   -231.7659750 -0.299264E-05  0.280E-03    2.89       3.1  T
  22   -231.7659751 -0.456719E-07  0.315E-03    2.89       2.8  T
  23   -231.7659756 -0.536304E-06  0.276E-03    2.89       3.2  T
  24   -231.7659759 -0.278337E-06  0.834E-04    2.89      10.6  T
  25   -231.7659759 -0.379650E-07  0.486E-04    2.89      18.1  T
     SCC iter.                  ...        0 min,  0.356 sec
     gradient                   ...        0 min,  0.068 sec
 * total energy  :  -230.1382702 Eh     change        0.1343330E+00 Eh
   gradient norm :     0.9087342 Eh/α   predicted    -0.5501642E-01 (-140.96%)
   displ. norm   :     0.4184312 α      lambda       -0.3502576E+00
   maximum displ.:     0.2371197 α      in ANC's #242, #243, #248, ...

........................................................................
.............................. CYCLE   15 ..............................
........................................................................

 iter      E             dE          RMSdq      gap      omega  full diag
   1   -231.7273583 -0.231727E+03  0.277E-01    2.95       0.0  T
   2   -231.6820677  0.452906E-01  0.673E-01    2.96       1.0  T
   3   -231.7167093 -0.346416E-01  0.361E-01    2.96       1.0  T
   4   -231.7128173  0.389198E-02  0.364E-01    2.96       1.0  T
   5   -231.6832528  0.295646E-01  0.633E-01    2.96       1.0  T
   6   -231.7190197 -0.357669E-01  0.301E-01    2.96       1.0  T
   7   -231.7285587 -0.953903E-02  0.115E-01    2.96       1.0  T
   8   -231.7279488  0.609967E-03  0.129E-01    2.96       1.0  T
   9   -231.7286898 -0.741009E-03  0.992E-02    2.96       1.0  T
  10   -231.7287476 -0.577947E-04  0.969E-02    2.96       1.0  T
  11   -231.7297287 -0.981149E-03  0.291E-02    2.96       1.0  T
  12   -231.7296793  0.494600E-04  0.350E-02    2.96       1.0  T
  13   -231.7297364 -0.571708E-04  0.260E-02    2.96       1.0  T
  14   -231.7297768 -0.403409E-04  0.178E-02    2.96       1.0  T
  15   -231.7297705  0.623694E-05  0.202E-02    2.96       1.0  T
  16   -231.7297986 -0.280680E-04  0.110E-02    2.96       1.0  T
  17   -231.7298133 -0.146999E-04  0.384E-03    2.96       2.3  T
  18   -231.7298148 -0.146659E-05  0.137E-03    2.96       6.4  T
  19   -231.7298148 -0.217472E-08  0.138E-03    2.96       6.4  T
  20   -231.7298150 -0.188244E-06  0.633E-04    2.96      13.9  T
  21   -231.7298150 -0.399666E-07  0.298E-04    2.96      29.5  T
     SCC iter.                  ...        0 min,  0.341 sec
     gradient                   ...        0 min,  0.067 sec
 * total energy  :  -230.2836231 Eh     change       -0.1453530E+00 Eh
   gradient norm :     0.1144919 Eh/α   predicted    -0.2057911E+00 (  41.58%)
   displ. norm   :     0.7438939 α      lambda       -0.5128386E-01
   maximum displ.:     0.1641163 α      in ANC's #99, #103, #184, ...

........................................................................
.............................. CYCLE   16 ..............................
........................................................................

 iter      E             dE          RMSdq      gap      omega  full diag
   1   -231.6016639 -0.231602E+03  0.836E-01    3.43       0.0  T
   2   -231.6258003 -0.241364E-01  0.664E-01    3.43       1.0  T
   3   -231.6004354  0.253649E-01  0.821E-01    3.43       1.0  T
   4   -231.6146260 -0.141906E-01  0.732E-01    3.42       1.0  T
   5   -231.6605656 -0.459396E-01  0.309E-01    3.43       1.0  T
   6   -231.6564592  0.410635E-02  0.343E-01    3.43       1.0  T
   7   -231.6443414  0.121178E-01  0.473E-01    3.43       1.0  T
   8   -231.5671403  0.772010E-01  0.900E-01    3.42       1.0  T
   9   -231.6615065 -0.943662E-01  0.244E-01    3.42       1.0  T
  10   -231.6634568 -0.195032E-02  0.189E-01    3.42       1.0  T
  11   -231.6659728 -0.251596E-02  0.134E-01    3.42       1.0  T
  12   -231.6654372  0.535649E-03  0.147E-01    3.42       1.0  T
  13   -231.6653822  0.549406E-04  0.135E-01    3.42       1.0  T
  14   -231.6659302 -0.548022E-03  0.118E-01    3.42       1.0  T
  15   -231.6668587 -0.928511E-03  0.883E-02    3.42       1.0  T
  16   -231.6671474 -0.288641E-03  0.752E-02    3.42       1.0  T
  17   -231.6672273 -0.798698E-04  0.676E-02    3.42       1.0  T
  18   -231.6673106 -0.833777E-04  0.629E-02    3.42       1.0  T
  19   -231.6674708 -0.160208E-03  0.519E-02    3.42       1.0  T
  20   -231.6675577 -0.869057E-04  0.444E-02    3.42       1.0  T
  21   -231.6677490 -0.191211E-03  0.215E-02    3.42       1.0  T
  22   -231.6677952 -0.462835E-04  0.111E-02    3.42       1.0  T
  23   -231.6678023 -0.707669E-05  0.798E-03    3.42       1.1  T
  24   -231.6678104 -0.808138E-05  0.387E-04    3.42      22.7  T
  25   -231.6678104 -0.103238E-07  0.220E-04    3.42      40.1  T
  26   -231.6678104 -0.288887E-08  0.166E-04    3.42      53.0  T
     SCC iter.                  ...        0 min,  0.381 sec
     gradient                   ...        0 min,  0.060 sec
 * total energy  :  -230.2539581 Eh     change        0.2966507E-01 Eh
   gradient norm :     0.2605144 Eh/α   predicted    -0.3983162E-01 (-234.27%)
   displ. norm   :     0.4651321 α      lambda       -0.8145089E-01
   maximum displ.:     0.1376694 α      in ANC's #103, #99, #243, ...

........................................................................
.............................. CYCLE   17 ..............................
........................................................................

 iter      E             dE          RMSdq      gap      omega  full diag
   1   -231.7313844 -0.231731E+03  0.280E-01    3.56       0.0  T
   2   -231.6848841  0.465002E-01  0.602E-01    3.56       1.0  T
   3   -231.7278617 -0.429775E-01  0.274E-01    3.56       1.0  T
   4   -231.7221295  0.573221E-02  0.318E-01    3.56       1.0  T
   5   -231.7232616 -0.113212E-02  0.306E-01    3.56       1.0  T
   6   -231.7312119 -0.795027E-02  0.157E-01    3.56       1.0  T
   7   -231.7289020  0.230989E-02  0.217E-01    3.56       1.0  T
   8   -231.7307560 -0.185401E-02  0.159E-01    3.56       1.0  T
   9   -231.7310977 -0.341729E-03  0.151E-01    3.56       1.0  T
  10   -231.7318248 -0.727089E-03  0.126E-01    3.56       1.0  T
  11   -231.7329702 -0.114538E-02  0.819E-02    3.56       1.0  T
  12   -231.7329890 -0.188363E-04  0.757E-02    3.56       1.0  T
  13   -231.7328012  0.187860E-03  0.832E-02    3.56       1.0  T
  14   -231.7331660 -0.364894E-03  0.658E-02    3.56       1.0  T
  15   -231.7336024 -0.436361E-03  0.392E-02    3.56       1.0  T
  16   -231.7337310 -0.128623E-03  0.208E-02    3.56       1.0  T
  17   -231.7337677 -0.366262E-04  0.102E-02    3.56       1.0  T
  18   -231.7337760 -0.837785E-05  0.646E-03    3.56       1.4  T
  19   -231.7337804 -0.440759E-05  0.136E-03    3.56       6.5  T
  20   -231.7337805 -0.254328E-07  0.129E-03    3.56       6.8  T
  21   -231.7337806 -0.827393E-07  0.915E-04    3.56       9.6  T
  22   -231.7337806 -0.836533E-07  0.378E-04    3.56      23.3  T
     SCC iter.                  ...        0 min,  0.309 sec
     gradient                   ...        0 min,  0.056 sec
 * total energy  :  -230.2996760 Eh     change       -0.4571796E-01 Eh
   gradient norm :     0.0855575 Eh/α   predicted    -0.4953631E-01 (   8.35%)
   displ. norm   :     0.6954422 α      lambda       -0.2980437E-01
   maximum displ.:     0.2596018 α      in ANC's #103, #170, #99, ...

........................................................................
.............................. CYCLE   18 ..............................
........................................................................

 iter      E             dE          RMSdq      gap      omega  full diag
   1   -231.5965685 -0.231597E+03  0.109E+00    3.48       0.0  T
   2   -231.6470067 -0.504381E-01  0.887E-01    3.50       1.0  T
   3   -231.6464299  0.576760E-03  0.868E-01    3.47       1.0  T
   4   -231.6831980 -0.367680E-01  0.623E-01    3.48       1.0  T
   5   -231.7035666 -0.203687E-01  0.407E-01    3.48       1.0  T
   6   -231.7107575 -0.719089E-02  0.311E-01    3.48       1.0  T
   7   -231.7112024 -0.444956E-03  0.272E-01    3.48       1.0  T
   8   -231.7148936 -0.369116E-02  0.189E-01    3.48       1.0  T
   9   -231.7169608 -0.206723E-02  0.147E-01    3.48       1.0  T
  10   -231.7036523  0.133085E-01  0.348E-01    3.48       1.0  T
  11   -231.7155424 -0.118901E-01  0.175E-01    3.48       1.0  T
  12   -231.7165571 -0.101469E-02  0.150E-01    3.48       1.0  T
  13   -231.7172183 -0.661230E-03  0.124E-01    3.48       1.0  T
  14   -231.7184433 -0.122499E-02  0.651E-02    3.48       1.0  T
  15   -231.7174122  0.103112E-02  0.111E-01    3.48       1.0  T
  16   -231.7187072 -0.129496E-02  0.453E-02    3.48       1.0  T
  17   -231.7189476 -0.240407E-03  0.125E-02    3.48       1.0  T
  18   -231.7188523  0.952372E-04  0.292E-02    3.48       1.0  T
  19   -231.7189599 -0.107602E-03  0.751E-03    3.48       1.2  T
  20   -231.7189490  0.109271E-04  0.110E-02    3.48       1.0  T
  21   -231.7189657 -0.166384E-04  0.297E-03    3.48       3.0  T
  22   -231.7189660 -0.360256E-06  0.237E-03    3.48       3.7  T
  23   -231.7189666 -0.554224E-06  0.981E-04    3.48       9.0  T
  24   -231.7189666 -0.764228E-07  0.655E-04    3.48      13.4  T
     SCC iter.                  ...        0 min,  0.347 sec
     gradient                   ...        0 min,  0.060 sec
 * total energy  :  -230.2602027 Eh     change        0.3947336E-01 Eh
   gradient norm :     0.2775126 Eh/α   predicted    -0.2210950E-01 (-156.01%)
   displ. norm   :     0.4376506 α      lambda       -0.8382348E-01
   maximum displ.:     0.1957058 α      in ANC's #103, #170, #99, ...

........................................................................
.............................. CYCLE   19 ..............................
........................................................................

 iter      E             dE          RMSdq      gap      omega  full diag
   1   -231.7383949 -0.231738E+03  0.276E-01    3.66       0.0  T
   2   -231.7048210  0.335739E-01  0.522E-01    3.65       1.0  T
   3   -231.7369553 -0.321344E-01  0.233E-01    3.66       1.0  T
   4   -231.7259473  0.110080E-01  0.385E-01    3.66       1.0  T
   5   -231.7320602 -0.611294E-02  0.268E-01    3.66       1.0  T
   6   -231.7303033  0.175692E-02  0.313E-01    3.65       1.0  T
   7   -231.7380243 -0.772103E-02  0.175E-01    3.65       1.0  T
   8   -231.7402590 -0.223468E-02  0.992E-02    3.65       1.0  T
   9   -231.7406480 -0.388936E-03  0.735E-02    3.65       1.0  T
  10   -231.7410547 -0.406778E-03  0.476E-02    3.65       1.0  T
  11   -231.7412373 -0.182568E-03  0.245E-02    3.65       1.0  T
  12   -231.7409373  0.300008E-03  0.518E-02    3.65       1.0  T
  13   -231.7411505 -0.213223E-03  0.333E-02    3.65       1.0  T
  14   -231.7412707 -0.120228E-03  0.160E-02    3.65       1.0  T
  15   -231.7412275  0.432594E-04  0.219E-02    3.65       1.0  T
  16   -231.7412957 -0.682273E-04  0.467E-03    3.65       1.9  T
  17   -231.7412966 -0.901555E-06  0.361E-03    3.65       2.4  T
  18   -231.7412975 -0.904175E-06  0.208E-03    3.65       4.2  T
  19   -231.7412980 -0.443677E-06  0.106E-03    3.65       8.3  T
  20   -231.7412981 -0.140883E-06  0.381E-04    3.65      23.1  T
  21   -231.7412981  0.854951E-08  0.429E-04    3.65      20.5  T
     SCC iter.                  ...        0 min,  0.287 sec
     gradient                   ...        0 min,  0.059 sec
 * total energy  :  -230.3075795 Eh     change       -0.4737687E-01 Eh
   gradient norm :     0.0914816 Eh/α   predicted    -0.4993948E-01 (   5.41%)
   displ. norm   :     0.6780304 α      lambda       -0.3267495E-01
   maximum displ.:     0.3158270 α      in ANC's #160, #182, #221, ...

........................................................................
.............................. CYCLE   20 ..............................
........................................................................

 iter      E             dE          RMSdq      gap      omega  full diag
   1   -231.7011654 -0.231701E+03  0.289E-01    3.83       0.0  T
   2   -231.6623846  0.387808E-01  0.593E-01    3.83       1.0  T
   3   -231.6969507 -0.345661E-01  0.265E-01    3.83       1.0  T
   4   -231.6796715  0.172791E-01  0.469E-01    3.83       1.0  T
   5   -231.6928826 -0.132111E-01  0.298E-01    3.83       1.0  T
   6   -231.6983174 -0.543477E-02  0.204E-01    3.83       1.0  T
   7   -231.6990153 -0.697849E-03  0.178E-01    3.83       1.0  T
   8   -231.7022022 -0.318692E-02  0.848E-02    3.83       1.0  T
   9   -231.7027069 -0.504678E-03  0.534E-02    3.83       1.0  T
  10   -231.7029354 -0.228518E-03  0.282E-02    3.83       1.0  T
  11   -231.7029255  0.991808E-05  0.303E-02    3.83       1.0  T
  12   -231.7029744 -0.489178E-04  0.195E-02    3.83       1.0  T
  13   -231.7029556  0.187870E-04  0.226E-02    3.83       1.0  T
  14   -231.7029757 -0.201104E-04  0.184E-02    3.83       1.0  T
  15   -231.7030083 -0.325529E-04  0.102E-02    3.83       1.0  T
  16   -231.7030090 -0.733432E-06  0.937E-03    3.83       1.0  T
  17   -231.7030193 -0.103643E-04  0.306E-03    3.83       2.9  T
  18   -231.7030204 -0.101563E-05  0.103E-03    3.83       8.5  T
  19   -231.7030204 -0.707745E-07  0.628E-04    3.83      14.0  T
  20   -231.7030204 -0.875428E-08  0.602E-04    3.83      14.6  T
     SCC iter.                  ...        0 min,  0.296 sec
     gradient                   ...        0 min,  0.060 sec
 * total energy  :  -230.2878595 Eh     change        0.1972007E-01 Eh
   gradient norm :     0.2012497 Eh/α   predicted    -0.2384822E-01 (-220.93%)
   displ. norm   :     0.4193347 α      lambda       -0.5447453E-01
   maximum displ.:     0.1866520 α      in ANC's #160, #90, #243, ...
 * RMSD in coord.:     0.6337485 α      energy gain  -0.8430632E+00 Eh

generating ANC from model Hessian ...
Using Lindh-Hessian (1995)
 Shifting diagonal of input Hessian by    1.0279213456435789E-002
 Lowest  eigenvalues of input Hessian
    0.010000    0.010051    0.010059    0.010091    0.010099    0.010111
    0.010139    0.010142    0.010156    0.010164    0.010184    0.010191
    0.010204    0.010206    0.010210    0.010211    0.010214    0.010219
 Highest eigenvalues
    1.486701    1.525979    2.095281    3.087142    3.448799    3.619976


........................................................................
.............................. CYCLE   21 ..............................
........................................................................

 iter      E             dE          RMSdq      gap      omega  full diag
   1   -231.7552262 -0.231755E+03  0.220E-01    3.95       0.0  T
   2   -231.7282599  0.269663E-01  0.468E-01    3.94       1.0  T
   3   -231.7466141 -0.183542E-01  0.283E-01    3.95       1.0  T
   4   -231.7483992 -0.178512E-02  0.272E-01    3.94       1.0  T
   5   -231.7546680 -0.626873E-02  0.138E-01    3.94       1.0  T
   6   -231.7551379 -0.469920E-03  0.112E-01    3.94       1.0  T
   7   -231.7547311  0.406794E-03  0.122E-01    3.94       1.0  T
   8   -231.7562352 -0.150407E-02  0.527E-02    3.94       1.0  T
   9   -231.7564591 -0.223907E-03  0.288E-02    3.94       1.0  T
  10   -231.7565265 -0.674439E-04  0.152E-02    3.94       1.0  T
  11   -231.7565237  0.279419E-05  0.159E-02    3.94       1.0  T
  12   -231.7565380 -0.142641E-04  0.107E-02    3.94       1.0  T
  13   -231.7565431 -0.513098E-05  0.762E-03    3.94       1.2  T
  14   -231.7565423  0.838539E-06  0.871E-03    3.94       1.0  T
  15   -231.7565485 -0.619797E-05  0.481E-03    3.94       1.8  T
  16   -231.7565500 -0.150830E-05  0.265E-03    3.94       3.3  T
  17   -231.7565501 -0.102778E-06  0.250E-03    3.94       3.5  T
  18   -231.7565507 -0.599121E-06  0.128E-03    3.94       6.9  T
  19   -231.7565508 -0.146267E-06  0.750E-04    3.94      11.7  T
  20   -231.7565509 -0.616483E-07  0.310E-04    3.94      28.4  T
     SCC iter.                  ...        0 min,  0.270 sec
     gradient                   ...        0 min,  0.061 sec
 * total energy  :  -230.3167724 Eh     change       -0.2891296E-01 Eh
   gradient norm :     0.0849462 Eh/α   predicted     0.0000000E+00 (-100.00%)
   displ. norm   :     0.6395287 α      lambda       -0.1871518E-01
   maximum displ.:     0.1858700 α      in ANC's #166, #126, #159, ...

........................................................................
.............................. CYCLE   22 ..............................
........................................................................

 iter      E             dE          RMSdq      gap      omega  full diag
   1   -231.7530197 -0.231753E+03  0.315E-01    3.91       0.0  T
   2   -231.7427708  0.102489E-01  0.413E-01    3.91       1.0  T
   3   -231.7071609  0.356099E-01  0.690E-01    3.90       1.0  T
   4   -231.7465835 -0.394226E-01  0.394E-01    3.90       1.0  T
   5   -231.7590027 -0.124192E-01  0.196E-01    3.91       1.0  T
   6   -231.7592568 -0.254067E-03  0.177E-01    3.90       1.0  T
   7   -231.7592411  0.156402E-04  0.179E-01    3.90       1.0  T
   8   -231.6852982  0.739429E-01  0.779E-01    3.90       1.0  T
   9   -231.7475514 -0.622532E-01  0.337E-01    3.90       1.0  T
  10   -231.7614047 -0.138533E-01  0.103E-01    3.90       1.0  T
  11   -231.7611941  0.210606E-03  0.111E-01    3.90       1.0  T
  12   -231.7614767 -0.282585E-03  0.100E-01    3.90       1.0  T
  13   -231.7615766 -0.998909E-04  0.947E-02    3.90       1.0  T
  14   -231.7616633 -0.867453E-04  0.880E-02    3.90       1.0  T
  15   -231.7617523 -0.889459E-04  0.819E-02    3.90       1.0  T
  16   -231.7618798 -0.127496E-03  0.732E-02    3.90       1.0  T
  17   -231.7621029 -0.223106E-03  0.577E-02    3.90       1.0  T
  18   -231.7624716 -0.368737E-03  0.170E-02    3.90       1.0  T
  19   -231.7619313  0.540335E-03  0.676E-02    3.90       1.0  T
  20   -231.7623964 -0.465163E-03  0.302E-02    3.90       1.0  T
  21   -231.7625029 -0.106482E-03  0.750E-03    3.90       1.2  T
  22   -231.7625048 -0.182844E-05  0.633E-03    3.90       1.4  T
  23   -231.7625083 -0.351279E-05  0.359E-03    3.90       2.5  T
  24   -231.7625098 -0.153765E-05  0.455E-04    3.90      19.4  T
  25   -231.7625098 -0.229741E-07  0.129E-04    3.90      68.4  T
  26   -231.7625098  0.401593E-08  0.221E-04    3.90      39.8  T
     SCC iter.                  ...        0 min,  0.338 sec
     gradient                   ...        0 min,  0.056 sec
 * total energy  :  -230.3320184 Eh     change       -0.1524599E-01 Eh
   gradient norm :     0.0563831 Eh/α   predicted    -0.1319147E-01 ( -13.48%)
   displ. norm   :     0.7445254 α      lambda       -0.1619497E-01
   maximum displ.:     0.1585667 α      in ANC's #157, #218, #152, ...

........................................................................
.............................. CYCLE   23 ..............................
........................................................................

 iter      E             dE          RMSdq      gap      omega  full diag
   1   -231.7671445 -0.231767E+03  0.175E-01    3.81       0.0  T
   2   -231.7565816  0.105629E-01  0.318E-01    3.81       1.0  T
   3   -231.7588977 -0.231614E-02  0.304E-01    3.81       1.0  T
   4   -231.7657251 -0.682737E-02  0.159E-01    3.81       1.0  T
   5   -231.7373686  0.283565E-01  0.484E-01    3.81       1.0  T
   6   -231.7605567 -0.231881E-01  0.257E-01    3.81       1.0  T
   7   -231.7638208 -0.326409E-02  0.176E-01    3.81       1.0  T
   8   -231.7653353 -0.151446E-02  0.153E-01    3.81       1.0  T
   9   -231.7658425 -0.507288E-03  0.135E-01    3.81       1.0  T
  10   -231.7667014 -0.858880E-03  0.112E-01    3.81       1.0  T
  11   -231.7673934 -0.692008E-03  0.807E-02    3.81       1.0  T
  12   -231.7678622 -0.468756E-03  0.497E-02    3.81       1.0  T
  13   -231.7681253 -0.263091E-03  0.165E-02    3.81       1.0  T
  14   -231.7681157  0.961443E-05  0.177E-02    3.81       1.0  T
  15   -231.7681488 -0.331080E-04  0.711E-03    3.81       1.2  T
  16   -231.7681467  0.203415E-05  0.847E-03    3.81       1.0  T
  17   -231.7681535 -0.680169E-05  0.396E-03    3.81       2.2  T
  18   -231.7681539 -0.374674E-06  0.370E-03    3.81       2.4  T
  19   -231.7681555 -0.156198E-05  0.110E-03    3.81       8.0  T
  20   -231.7681556 -0.104551E-06  0.520E-04    3.81      16.9  T
  21   -231.7681556 -0.165210E-07  0.371E-04    3.81      23.7  T
     SCC iter.                  ...        0 min,  0.274 sec
     gradient                   ...        0 min,  0.058 sec
 * total energy  :  -230.3435549 Eh     change       -0.1153650E-01 Eh
   gradient norm :     0.0619867 Eh/α   predicted    -0.1258638E-01 (   9.10%)
   displ. norm   :     0.7545369 α      lambda       -0.1293087E-01
   maximum displ.:     0.1756180 α      in ANC's #159, #166, #196, ...

........................................................................
.............................. CYCLE   24 ..............................
........................................................................

 iter      E             dE          RMSdq      gap      omega  full diag
   1   -231.7299027 -0.231730E+03  0.543E-01    3.72       0.0  T
   2   -231.7356751 -0.577245E-02  0.516E-01    3.73       1.0  T
   3   -231.6878922  0.477829E-01  0.797E-01    3.72       1.0  T
   4   -231.7372797 -0.493875E-01  0.497E-01    3.72       1.0  T
   5   -231.7590260 -0.217462E-01  0.229E-01    3.72       1.0  T
   6   -231.7585996  0.426353E-03  0.222E-01    3.72       1.0  T
   7   -231.7595391 -0.939506E-03  0.187E-01    3.72       1.0  T
   8   -231.7616935 -0.215438E-02  0.112E-01    3.72       1.0  T
   9   -231.7613445  0.349045E-03  0.119E-01    3.72       1.0  T
  10   -231.7495786  0.117659E-01  0.322E-01    3.72       1.0  T
  11   -231.7616286 -0.120500E-01  0.112E-01    3.72       1.0  T
  12   -231.7618143 -0.185683E-03  0.105E-01    3.72       1.0  T
  13   -231.7619260 -0.111766E-03  0.968E-02    3.72       1.0  T
  14   -231.7620121 -0.860811E-04  0.903E-02    3.72       1.0  T
  15   -231.7622682 -0.256120E-03  0.745E-02    3.72       1.0  T
  16   -231.7626189 -0.350703E-03  0.499E-02    3.72       1.0  T
  17   -231.7629018 -0.282866E-03  0.116E-02    3.72       1.0  T
  18   -231.7628684  0.333756E-04  0.199E-02    3.72       1.0  T
  19   -231.7628916 -0.231419E-04  0.149E-02    3.72       1.0  T
  20   -231.7629178 -0.262691E-04  0.223E-03    3.72       3.9  T
  21   -231.7629180 -0.165693E-06  0.214E-03    3.72       4.1  T
  22   -231.7629184 -0.430367E-06  0.104E-03    3.72       8.4  T
  23   -231.7629186 -0.126543E-06  0.204E-04    3.72      43.2  T
  24   -231.7629186 -0.445499E-08  0.537E-05    3.72     164.0  T
     SCC iter.                  ...        0 min,  0.316 sec
     gradient                   ...        0 min,  0.061 sec
 * total energy  :  -230.3529729 Eh     change       -0.9418006E-02 Eh
   gradient norm :     0.0797552 Eh/α   predicted    -0.1014646E-01 (   7.73%)
   displ. norm   :     0.6988895 α      lambda       -0.1526946E-01
   maximum displ.:     0.1513106 α      in ANC's #196, #197, #94, ...

........................................................................
.............................. CYCLE   25 ..............................
........................................................................

 iter      E             dE          RMSdq      gap      omega  full diag
   1   -231.7865735 -0.231787E+03  0.177E-01    3.63       0.0  T
   2   -231.7185421  0.680314E-01  0.720E-01    3.62       1.0  T
   3   -231.7862095 -0.676673E-01  0.155E-01    3.63       1.0  T
   4   -231.7825362  0.367327E-02  0.215E-01    3.62       1.0  T
   5   -231.7831877 -0.651505E-03  0.198E-01    3.62       1.0  T
   6   -231.7834816 -0.293883E-03  0.180E-01    3.63       1.0  T
   7   -231.7869392 -0.345762E-02  0.103E-01    3.62       1.0  T
   8   -231.7871977 -0.258533E-03  0.869E-02    3.62       1.0  T
   9   -231.7876968 -0.499097E-03  0.577E-02    3.62       1.0  T
  10   -231.7878599 -0.163061E-03  0.431E-02    3.62       1.0  T
  11   -231.7880186 -0.158694E-03  0.220E-02    3.62       1.0  T
  12   -231.7880613 -0.427592E-04  0.945E-03    3.62       1.0  T
  13   -231.7880657 -0.432111E-05  0.789E-03    3.62       1.1  T
  14   -231.7880654  0.237654E-06  0.752E-03    3.62       1.2  T
  15   -231.7880725 -0.710241E-05  0.337E-03    3.62       2.6  T
  16   -231.7880728 -0.254466E-06  0.294E-03    3.62       3.0  T
  17   -231.7880737 -0.882548E-06  0.117E-03    3.62       7.5  T
  18   -231.7880736  0.420134E-07  0.139E-03    3.62       6.3  T
  19   -231.7880739 -0.228716E-06  0.244E-04    3.62      36.0  T
  20   -231.7880739 -0.510519E-08  0.142E-04    3.62      62.2  T
     SCC iter.                  ...        0 min,  0.258 sec
     gradient                   ...        0 min,  0.062 sec
 * total energy  :  -230.3632869 Eh     change       -0.1031401E-01 Eh
   gradient norm :     0.0564289 Eh/α   predicted    -0.1136389E-01 (  10.18%)
   displ. norm   :     0.7510643 α      lambda       -0.1611787E-01
   maximum displ.:     0.1544542 α      in ANC's #159, #152, #196, ...

........................................................................
.............................. CYCLE   26 ..............................
........................................................................

 iter      E             dE          RMSdq      gap      omega  full diag
   1   -231.8469643 -0.231847E+03  0.200E-01    3.56       0.0  T
   2   -231.8197415  0.272228E-01  0.470E-01    3.56       1.0  T
   3   -231.8406755 -0.209340E-01  0.240E-01    3.56       1.0  T
   4   -231.7787884  0.618871E-01  0.732E-01    3.56       1.0  T
   5   -231.8181860 -0.393976E-01  0.487E-01    3.56       1.0  T
   6   -231.8458023 -0.276163E-01  0.136E-01    3.56       1.0  T
   7   -231.8459251 -0.122796E-03  0.123E-01    3.56       1.0  T
   8   -231.8466230 -0.697909E-03  0.956E-02    3.56       1.0  T
   9   -231.8472760 -0.653002E-03  0.647E-02    3.56       1.0  T
  10   -231.8474760 -0.200015E-03  0.467E-02    3.56       1.0  T
  11   -231.8476909 -0.214955E-03  0.196E-02    3.56       1.0  T
  12   -231.8477088 -0.178337E-04  0.139E-02    3.56       1.0  T
  13   -231.8477200 -0.112389E-04  0.893E-03    3.56       1.0  T
  14   -231.8477276 -0.763496E-05  0.362E-03    3.56       2.4  T
  15   -231.8477283 -0.682663E-06  0.254E-03    3.56       3.5  T
  16   -231.8477290 -0.655215E-06  0.103E-03    3.56       8.5  T
  17   -231.8477291 -0.110493E-06  0.370E-04    3.56      23.8  T
  18   -231.8477291  0.386319E-08  0.372E-04    3.56      23.7  T
     SCC iter.                  ...        0 min,  0.234 sec
     gradient                   ...        0 min,  0.057 sec
 * total energy  :  -230.3645061 Eh     change       -0.1219159E-02 Eh
   gradient norm :     0.1247280 Eh/α   predicted    -0.1260496E-01 ( 933.91%)
   displ. norm   :     0.5620980 α      lambda       -0.2257861E-01
   maximum displ.:     0.2316567 α      in ANC's #166, #186, #179, ...

........................................................................
.............................. CYCLE   27 ..............................
........................................................................

 iter      E             dE          RMSdq      gap      omega  full diag
   1   -231.7404231 -0.231740E+03  0.827E-01    3.56       0.0  T
   2   -231.7835114 -0.430883E-01  0.599E-01    3.60       1.0  T
   3   -231.7192575  0.642539E-01  0.905E-01    3.57       1.0  T
   4   -231.7797934 -0.605359E-01  0.595E-01    3.57       1.0  T
   5   -231.8035618 -0.237684E-01  0.356E-01    3.58       1.0  T
   6   -231.8124649 -0.890305E-02  0.233E-01    3.57       1.0  T
   7   -231.8130632 -0.598297E-03  0.194E-01    3.57       1.0  T
   8   -231.8150424 -0.197928E-02  0.140E-01    3.57       1.0  T
   9   -231.8153198 -0.277334E-03  0.121E-01    3.57       1.0  T
  10   -231.8146532  0.666568E-03  0.122E-01    3.56       1.0  T
  11   -231.8158260 -0.117277E-02  0.725E-02    3.56       1.0  T
  12   -231.8159187 -0.926863E-04  0.605E-02    3.56       1.0  T
  13   -231.8162044 -0.285708E-03  0.383E-02    3.56       1.0  T
  14   -231.8162918 -0.874827E-04  0.234E-02    3.56       1.0  T
  15   -231.8163621 -0.702864E-04  0.847E-03    3.56       1.0  T
  16   -231.8163668 -0.465473E-05  0.575E-03    3.56       1.5  T
  17   -231.8163663  0.477131E-06  0.640E-03    3.56       1.4  T
  18   -231.8163690 -0.266384E-05  0.403E-03    3.56       2.2  T
  19   -231.8163707 -0.177385E-05  0.546E-04    3.56      16.1  T
  20   -231.8163705  0.208726E-06  0.137E-03    3.56       6.4  T
  21   -231.8163707 -0.182387E-06  0.703E-04    3.56      12.5  T
  22   -231.8163708 -0.587897E-07  0.119E-04    3.56      74.0  T
     SCC iter.                  ...        0 min,  0.291 sec
     gradient                   ...        0 min,  0.060 sec
 * total energy  :  -230.3756285 Eh     change       -0.1112237E-01 Eh
   gradient norm :     0.0849514 Eh/α   predicted    -0.1485622E-01 (  33.57%)
[...]
H            0.06237348135984       -3.76749630103559       -6.40822208783871
H           -1.13063785765160       -2.91652958299621       -6.40822208783871
O            4.53547710034863       -4.48666036881190        3.83051883145264
H            5.43547710034863       -4.48666036881190        3.83051883145264
H            4.24246576133719       -3.63569365077251        3.83051883145264
O           -5.18896244880000       -5.10679093260828        0.21615452244338
H           -4.28896244880000       -5.10679093260828        0.21615452244338
H           -5.48197378781144       -4.25582421456889        0.21615452244338
O            3.11908578610616       -5.90269652956836       -3.10670579720031
H            4.01908578610616       -5.90269652956836       -3.10670579720031
H            2.82607444709472       -5.05172981152897       -3.10670579720031
O           -0.14856107434437       -6.51350829473600        3.14471923300534
H            0.75143892565563       -6.51350829473600        3.14471923300534
H           -0.44157241335581       -5.66254157669662        3.14471923300534
O           -0.00280888278905       -7.20581567834865        0.00124612415534
H            0.89719111721095       -7.20581567834865        0.00124612415534
H           -0.29582022180049       -6.35484896030927        0.00124612415534

 Bond Distances (Angstroems)
 ---------------------------
Fe1-O2=2.0800        Fe1-O7=2.0800        Fe1-H8=1.7232        Fe1-H9=1.6065        Fe1-O10=2.0800       Fe1-H11=1.7448       
Fe1-H12=1.6929       Fe1-O13=2.0800       Fe1-H15=1.6370       Fe1-O16=2.0800       Fe1-H18=1.7590       Fe1-O19=2.0800       
O2-Fe1=2.0800        O2-S3=1.4743         S3-O2=1.4743         S3-O4=1.4615         S3-O5=1.4671         S3-O6=1.4592         
O4-S3=1.4615         O5-S3=1.4671         O6-S3=1.4592         O7-Fe1=2.0800        O7-H8=0.9772         O7-H9=0.9715         
H8-Fe1=1.7232        H8-O7=0.9772         H9-Fe1=1.6065        H9-O7=0.9715         O10-Fe1=2.0800       O10-H11=0.9781       
O10-H12=0.9761       H11-Fe1=1.7448       H11-O10=0.9781       H12-Fe1=1.6929       H12-O10=0.9761       O13-Fe1=2.0800       
O13-H14=0.9768       O13-H15=0.9787       H14-O13=0.9768       H15-Fe1=1.6370       H15-O13=0.9787       O16-Fe1=2.0800       
O16-H17=0.9734       O16-H18=0.9824       H17-O16=0.9734       H18-Fe1=1.7590       H18-O16=0.9824       O19-Fe1=2.0800       
O19-H20=0.9749       O19-H21=0.9741       H20-O19=0.9749       H21-O19=0.9741       O22-H23=0.9000       O22-H24=0.9000       
H23-O22=0.9000       H24-O22=0.9000       H24-O67=1.2340       O25-H26=0.9000       O25-H27=0.9000       H26-O25=0.9000       
H27-O25=0.9000       O28-H29=0.9000       O28-H30=0.9000       H29-O28=0.9000       H30-O28=0.9000       O31-H32=0.9000       
O31-H33=0.9000       H32-O31=0.9000       H33-O31=0.9000       O34-H35=0.9000       O34-H36=0.9000       H35-O34=0.9000       
H36-O34=0.9000       O37-H38=0.9000       O37-H39=0.9000       H38-O37=0.9000       H39-O37=0.9000       O40-H41=0.9000       
O40-H42=0.9000       H41-O40=0.9000       H42-O40=0.9000       O43-H44=0.9000       O43-H45=0.9000       H44-O43=0.9000       
H45-O43=0.9000       O46-H47=0.9000       O46-H48=0.9000       H47-O46=0.9000       H48-O46=0.9000       O49-H50=0.9000       
O49-H51=0.9000       H50-O49=0.9000       H51-O49=0.9000       O52-H53=0.9000       O52-H54=0.9000       H53-O52=0.9000       
H54-O52=0.9000       O55-H56=0.9000       O55-H57=0.9000       H56-O55=0.9000       H57-O55=0.9000       O58-H59=0.9000       
O58-H60=0.9000       H59-O58=0.9000       H60-O58=0.9000       O61-H62=0.9000       O61-H63=0.9000       H62-O61=0.9000       
H63-O61=0.9000       O64-H65=0.9000       O64-H66=0.9000       H65-O64=0.9000       H66-O64=0.9000       O67-H24=1.2340       
O67-H68=0.9000       O67-H69=0.9000       H68-O67=0.9000       H69-O67=0.9000       O70-H71=0.9000       O70-H72=0.9000       
H71-O70=0.9000       H72-O70=0.9000       O73-H74=0.9000       O73-H75=0.9000       H74-O73=0.9000       H75-O73=0.9000       
O76-H77=0.9000       O76-H78=0.9000       H77-O76=0.9000       H78-O76=0.9000       O79-H80=0.9000       O79-H81=0.9000       
H80-O79=0.9000       H81-O79=0.9000       O82-H83=0.9000       O82-H84=0.9000       H83-O82=0.9000       H84-O82=0.9000       
O85-H86=0.9000       O85-H87=0.9000       H86-O85=0.9000       H87-O85=0.9000       O88-H89=0.9000       O88-H90=0.9000       
H89-O88=0.9000       H90-O88=0.9000       O91-H92=0.9000       O91-H93=0.9000       H92-O91=0.9000       H93-O91=0.9000       
O94-H95=0.9000       O94-H96=0.9000       H95-O94=0.9000       H96-O94=0.9000       O97-H98=0.9000       O97-H99=0.9000       
H98-O97=0.9000       H99-O97=0.9000       O100-H101=0.9000     O100-H102=0.9000     H101-O100=0.9000     H102-O100=0.9000     
O103-H104=0.9000     O103-H105=0.9000     H104-O103=0.9000     H105-O103=0.9000     O106-H107=0.9000     O106-H108=0.9000     
H107-O106=0.9000     H108-O106=0.9000     O109-H110=0.9000     O109-H111=0.9000     H110-O109=0.9000     H111-O109=0.9000     
O112-H113=0.9000     O112-H114=0.9000     H113-O112=0.9000     H114-O112=0.9000     O115-H116=0.9000     O115-H117=0.9000     
H116-O115=0.9000     H117-O115=0.9000     O118-H119=0.9000     O118-H120=0.9000     H119-O118=0.9000     H120-O118=0.9000     
O121-H122=0.9000     O121-H123=0.9000     H122-O121=0.9000     H123-O121=0.9000     O124-H125=0.9000     O124-H126=0.9000     
H125-O124=0.9000     H126-O124=0.9000     O127-H128=0.9000     O127-H129=0.9000     H128-O127=0.9000     H129-O127=0.9000     
 O  H  Rav=0.9132 sigma=0.0433  Rmin=0.9000  Rmax=1.2340    83
 S  O  Rav=1.4655 sigma=0.0058  Rmin=1.4592  Rmax=1.4743     4
 Fe H  Rav=1.6939 sigma=0.0556  Rmin=1.6065  Rmax=1.7590     6
 Fe O  Rav=2.0800 sigma=0.0000  Rmin=2.0800  Rmax=2.0800     6

 selected bond angles (degree)
 --------------------
O7-Fe1-O2= 90.00               H8-Fe1-O2= 90.75               H8-Fe1-O7= 27.80               H9-Fe1-O2= 81.80               
H9-Fe1-O7= 26.84               H9-Fe1-H8= 54.00               O10-Fe1-O2=180.00              O10-Fe1-O7= 90.00              
O10-Fe1-H8= 89.25              O10-Fe1-H9= 98.20              H11-Fe1-O2=152.09              H11-Fe1-O7= 83.35              
H11-Fe1-H8= 71.01              H11-Fe1-H9=102.53              H11-Fe1-O10= 27.91             H12-Fe1-O2=152.37              
H12-Fe1-O7= 78.76              H12-Fe1-H8= 90.69              H12-Fe1-H9= 76.83              H12-Fe1-O10= 27.63             
H12-Fe1-H11= 52.07             O13-Fe1-O2= 90.00              O13-Fe1-O7=180.00              O13-Fe1-H8=152.20              
O13-Fe1-H9=153.16              O13-Fe1-O10= 90.00             O13-Fe1-H11= 96.65             O13-Fe1-H12=101.24             
H15-Fe1-O2= 93.56              H15-Fe1-O7=152.64              H15-Fe1-H8=175.64              H15-Fe1-H9=127.33              
H15-Fe1-O10= 86.44             H15-Fe1-H11=104.75             H15-Fe1-H12= 85.79             H15-Fe1-O13= 27.36             
O16-Fe1-O2= 90.00              O16-Fe1-O7= 90.00              O16-Fe1-H8= 62.21              O16-Fe1-H9=115.36              
O16-Fe1-O10= 90.00             O16-Fe1-H11= 63.03             O16-Fe1-H12=114.88             O16-Fe1-O13= 90.00             
O16-Fe1-H15=117.09             H18-Fe1-O2= 81.12              H18-Fe1-O7=116.41              H18-Fe1-H8= 89.09              
H18-Fe1-H9=138.83              H18-Fe1-O10= 98.88             H18-Fe1-H11= 77.75             H18-Fe1-H12=126.49             
H18-Fe1-O13= 63.59             H18-Fe1-H15= 90.93             H18-Fe1-O16= 28.09             O19-Fe1-O2= 90.00              
O19-Fe1-O7= 90.00              O19-Fe1-H8=117.79              O19-Fe1-H9= 64.64              O19-Fe1-O10= 90.00             
O19-Fe1-H11=116.97             O19-Fe1-H12= 65.12             O19-Fe1-O13= 90.00             O19-Fe1-H15= 62.91             
O19-Fe1-O16=180.00             O19-Fe1-H18=151.91             S3-O2-Fe1=180.00               O4-S3-O2=104.78                
O5-S3-O2=104.03                O5-S3-O4=113.91                O6-S3-O2=104.33                O6-S3-O4=113.74                
O6-S3-O5=114.48                H8-O7-Fe1= 55.34               H9-O7-Fe1= 48.29               H9-O7-H8=102.08                
O7-H8-Fe1= 96.86               O7-H9-Fe1=104.88               H11-O10-Fe1= 56.62             H12-O10-Fe1= 53.54             
H12-O10-H11=101.16             

 selected dihedral angles (degree)
 ---------------------------------
S3-O2-Fe1-O7=  0.00           S3-O2-Fe1-H8=  0.00           S3-O2-Fe1-H9=  0.00           S3-O2-Fe1-O10=  0.00          
S3-O2-Fe1-H11=  0.00          S3-O2-Fe1-H12=  0.00          S3-O2-Fe1-O13=  0.00          S3-O2-Fe1-H15=  0.00          
S3-O2-Fe1-O16=  0.00          S3-O2-Fe1-H18=  0.00          S3-O2-Fe1-O19=  0.00          O4-S3-O2-Fe1=  0.00           
O5-S3-O2-Fe1=  0.00           O6-S3-O2-Fe1=  0.00           H8-O7-Fe1-O2= 91.61           H8-O7-Fe1-H9=163.18           
H8-O7-Fe1-O10=271.61          H8-O7-Fe1-H11=298.78          H8-O7-Fe1-H12=246.21          H8-O7-Fe1-O13=  0.00          
H8-O7-Fe1-H15=189.37          H8-O7-Fe1-O16=  1.61          H8-O7-Fe1-H18= 11.54          H8-O7-Fe1-O19=181.61          
H9-O7-Fe1-O2=288.43           H9-O7-Fe1-H8=196.82           H9-O7-Fe1-O10=108.43          H9-O7-Fe1-H11=135.60          
H9-O7-Fe1-H12= 83.02          H9-O7-Fe1-O13=  0.00          H9-O7-Fe1-H15= 26.18          H9-O7-Fe1-O16=198.43          
H9-O7-Fe1-H18=208.35          H9-O7-Fe1-O19= 18.43          O7-H8-Fe1-O2=271.42           O7-H8-Fe1-H9=350.71           
O7-H8-Fe1-O10= 91.42          O7-H8-Fe1-H11=112.97          O7-H8-Fe1-H12= 63.83          O7-H8-Fe1-O13=180.00          
O7-H8-Fe1-H15=100.02          O7-H8-Fe1-O16=181.82          O7-H8-Fe1-H18=190.32          O7-H8-Fe1-O19=  1.82          
Fe1-H8-O7-H9= 12.76           O7-H9-Fe1-O2=106.56           O7-H9-Fe1-H8=  9.60           O7-H9-Fe1-O10=286.56          
O7-H9-Fe1-H11=314.61          O7-H9-Fe1-H12=268.92          O7-H9-Fe1-O13=180.00          O7-H9-Fe1-H15=194.77          
O7-H9-Fe1-O16= 20.47          O7-H9-Fe1-H18= 40.25          O7-H9-Fe1-O19=200.47          Fe1-H9-O7-H8=345.92           
H11-O10-Fe1-O2=  0.00         H11-O10-Fe1-O7= 75.68         H11-O10-Fe1-H8= 47.89         H11-O10-Fe1-H9=101.32         
H11-O10-Fe1-H12=140.82        H11-O10-Fe1-O13=255.68        H11-O10-Fe1-H15=228.54        H11-O10-Fe1-O16=345.68        
H11-O10-Fe1-H18=318.92        H11-O10-Fe1-O19=165.68        H12-O10-Fe1-O2=  0.00         H12-O10-Fe1-O7=294.86         
H12-O10-Fe1-H8=267.07         H12-O10-Fe1-H9=320.50         H12-O10-Fe1-H11=219.18        H12-O10-Fe1-O13=114.86        
H12-O10-Fe1-H15= 87.72        H12-O10-Fe1-O16=204.86        H12-O10-Fe1-H18=178.10        H12-O10-Fe1-O19= 24.86        

 CMA Distance (Angstroems)
 ---------------------------
R(CMA):  1.2361
           -------------------------------------------------
          |                Final Singlepoint                |
           -------------------------------------------------

          ...................................................
          :                      SETUP                      :
          :.................................................:
          :  # basis functions                 282          :
          :  # atomic orbitals                 280          :
          :  # shells                          178          :
          :  # electrons                       363          :
          :  max. iterations                   250          :
          :  Hamiltonian                  GFN2-xTB          :
          :  restarted?                      false          :
          :  GBSA solvation                   true          :
          :  PC potential                    false          :
          :  electronic temp.          300.0000000     K    :
          :  accuracy                    1.0000000          :
          :  -> integral cutoff          0.2500000E+02      :
          :  -> integral neglect         0.1000000E-07      :
          :  -> SCF convergence          0.1000000E-05 Eh   :
          :  -> wf. convergence          0.1000000E-03 e    :
          :  Broyden damping             0.4000000          :
          ...................................................

 iter      E             dE          RMSdq      gap      omega  full diag
   1   -200.2684929 -0.200268E+03  0.292E+01    1.39       0.0  T
   2   -224.3206065 -0.240521E+02  0.153E+01    2.76       1.0  T
   3   -229.0870785 -0.476647E+01  0.818E+00    0.06       1.0  T
   4   -230.5805074 -0.149343E+01  0.548E+00    0.15       1.0  T
   5   -230.8032310 -0.222724E+00  0.404E+00    0.23       1.0  T
   6   -231.2391293 -0.435898E+00  0.300E+00    0.23       1.0  T
   7   -230.2445441  0.994585E+00  0.391E+00    0.24       1.0  T
   8   -231.5201475 -0.127560E+01  0.212E+00    0.26       1.0  T
   9   -231.4406421  0.795054E-01  0.213E+00    0.23       1.0  T
  10   -231.4572240 -0.165819E-01  0.216E+00    0.22       1.0  T
  11   -231.6001972 -0.142973E+00  0.181E+00    0.22       1.0  T
  12   -231.3970454  0.203152E+00  0.220E+00    0.22       1.0  T
  13   -231.3536542  0.433912E-01  0.220E+00    0.23       1.0  T
  14   -231.5373841 -0.183730E+00  0.178E+00    0.23       1.0  T
  15   -231.5841437 -0.467596E-01  0.163E+00    0.21       1.0  T
  16   -231.5467278  0.374159E-01  0.174E+00    0.21       1.0  T
  17   -231.5658812 -0.191534E-01  0.160E+00    0.20       1.0  T
  18   -231.6300803 -0.641991E-01  0.136E+00    0.21       1.0  T
  19   -231.7302175 -0.100137E+00  0.878E-01    0.22       1.0  T
  20   -231.7289123  0.130516E-02  0.941E-01    0.21       1.0  T
  21   -231.7256317  0.328057E-02  0.948E-01    0.21       1.0  T
  22   -231.7677800 -0.421483E-01  0.702E-01    0.22       1.0  T
  23   -231.7809545 -0.131744E-01  0.645E-01    0.22       1.0  T
  24   -231.7972751 -0.163206E-01  0.486E-01    0.22       1.0  T
  25   -231.7790088  0.182663E-01  0.650E-01    0.21       1.0  T
  26   -231.7803585 -0.134979E-02  0.638E-01    0.21       1.0  T
  27   -231.7839145 -0.355598E-02  0.609E-01    0.21       1.0  T
  28   -231.7972513 -0.133368E-01  0.474E-01    0.20       1.0  T
  29   -231.8057651 -0.851381E-02  0.346E-01    0.20       1.0  T
  30   -231.7986072  0.715787E-02  0.435E-01    0.20       1.0  T
  31   -231.8053763 -0.676903E-02  0.350E-01    0.20       1.0  T
  32   -231.8113758 -0.599953E-02  0.253E-01    0.20       1.0  T
  33   -231.8134932 -0.211739E-02  0.216E-01    0.20       1.0  T
  34   -231.8146249 -0.113175E-02  0.183E-01    0.20       1.0  T
  35   -231.8131537  0.147127E-02  0.217E-01    0.20       1.0  T
  36   -231.8160143 -0.286067E-02  0.134E-01    0.20       1.0  T
  37   -231.8152863  0.728068E-03  0.157E-01    0.20       1.0  T
  38   -231.8164100 -0.112374E-02  0.113E-01    0.20       1.0  T
  39   -231.8171188 -0.708820E-03  0.767E-02    0.20       1.0  T
  40   -231.8171846 -0.657363E-04  0.744E-02    0.20       1.0  T
  41   -231.8175299 -0.345345E-03  0.473E-02    0.20       1.0  T
  42   -231.8177008 -0.170921E-03  0.239E-02    0.20       1.0  T
  43   -231.8175944  0.106415E-03  0.392E-02    0.20       1.0  T
  44   -231.8176938 -0.993554E-04  0.247E-02    0.20       1.0  T
  45   -231.8177421 -0.483778E-04  0.124E-02    0.20       1.0  T
  46   -231.8177502 -0.803878E-05  0.888E-03    0.20       1.0  T
  47   -231.8177554 -0.520379E-05  0.523E-03    0.20       1.7  T
  48   -231.8177550  0.369184E-06  0.545E-03    0.20       1.6  T
  49   -231.8177573 -0.232071E-05  0.287E-03    0.20       3.1  T
  50   -231.8177579 -0.583584E-06  0.167E-03    0.20       5.3  T
  51   -231.8177581 -0.191787E-06  0.994E-04    0.20       8.9  T
  52   -231.8177582 -0.527801E-07  0.669E-04    0.20      13.2  T

   *** convergence criteria satisfied after 52 iterations ***

         #    Occupation            Energy/Eh            Energy/eV
      -------------------------------------------------------------
         1        2.0000           -0.8011888             -21.8015
       ...           ...                  ...                  ...
       178        1.8734           -0.4384919             -11.9320
       179        1.7866           -0.4378960             -11.9158
       180        1.6853           -0.4373961             -11.9022
       181        1.4849           -0.4365994             -11.8805
       182        1.2313           -0.4355158             -11.8510
       183        1.1152           -0.4347196             -11.8293
       184        0.9798           -0.3897661             -10.6061 (HOMO)
       185        0.0202           -0.3823875             -10.4053 (LUMO)
       186                         -0.1314229              -3.5762
       187                         -0.0586393              -1.5957
       188                         -0.0515977              -1.4040
       189                         -0.0065879              -0.1793
       ...                                ...                  ...
       280                          2.9806545              81.1077
      -------------------------------------------------------------
                  HL-Gap            0.0073787 Eh            0.2008 eV
             Fermi-level           -0.4113668 Eh          -11.1939 eV

 SCC (total)                   0 d,  0 h,  0 min,  0.779 sec
 SCC setup                      ...        0 min,  0.003 sec (  0.335%)
 Dispersion                     ...        0 min,  0.002 sec (  0.224%)
 classical contributions        ...        0 min,  0.001 sec (  0.079%)
 integral evaluation            ...        0 min,  0.006 sec (  0.734%)
 iterations                     ...        0 min,  0.704 sec ( 90.378%)
 molecular gradient             ...        0 min,  0.063 sec (  8.087%)
 printout                       ...        0 min,  0.001 sec (  0.161%)

         :::::::::::::::::::::::::::::::::::::::::::::::::::::
         ::                     SUMMARY                     ::
         :::::::::::::::::::::::::::::::::::::::::::::::::::::
         :: total energy            -229.444796267475 Eh    ::
         :: total w/o Gsasa/hb      -229.185212067650 Eh    ::
         :: gradient norm              0.779426078293 Eh/a0 ::
         :: HOMO-LUMO gap              0.200784130754 eV    ::
         ::.................................................::
         :: SCC energy              -231.817758167505 Eh    ::
         :: -> isotropic ES            1.768232472968 Eh    ::
         :: -> anisotropic ES         -0.084058764294 Eh    ::
         :: -> anisotropic XC         -0.045752480097 Eh    ::
         :: -> dispersion             -0.056445315564 Eh    ::
         :: -> Gsolv                  -0.907507714618 Eh    ::
         ::    -> Gelec               -0.647923514794 Eh    ::
         ::    -> Gsasa                0.042675654809 Eh    ::
         ::    -> Ghb                 -0.303340614332 Eh    ::
         ::    -> Gshift               0.001080759698 Eh    ::
         :: repulsion energy           2.370184844545 Eh    ::
         :: add. restraining           0.000000000000 Eh    ::
         :: total charge               3.000000000320 e     ::
         :::::::::::::::::::::::::::::::::::::::::::::::::::::


last geometry written to: xtblast.xyz

########################################################################
[ERROR] Program stopped due to fatal error
-9- Geometry optimization failed
-8- xtb_geoopt: Trying to recover from failed geometry optimization
-7- xtb_geoopt: Geometry optimization did not converge
-6- optimizer_ancopt: Could not relax structure
-5- optimizer_relax: SCF not converged, aborting...
-4- xtb_calculator_singlepoint: Electronic structure method terminated
-3- scf: Self consistent charge iterator did not converge
-2- restart_readRestart: Multiplicity missmatch in restart file.
-1- restart_readRestart: Number of electron missmatch in restart file.
########################################################################
