      -----------------------------------------------------------      
     |                   =====================                   |     
     |                           x T B                           |     
     |                   =====================                   |     
     |                         S. Grimme                         |     
     |          Mulliken Center for Theoretical Chemistry        |     
     |                    University of Bonn                     |     
      -----------------------------------------------------------      

   * xtb version 6.6.0 (conda-forge) compiled by 'runner@Mac-1676020848589.local' on 2023-02-10

   xtb is free software: you can redistribute it and/or modify it under
   the terms of the GNU Lesser General Public License as published by
   the Free Software Foundation, either version 3 of the License, or
   (at your option) any later version.
   
   xtb is distributed in the hope that it will be useful,
   but WITHOUT ANY WARRANTY; without even the implied warranty of
   MERCHANTABILITY or FITNESS FOR A PARTICULAR PURPOSE.  See the
   GNU Lesser General Public License for more details.
   
   Cite this work as:
   * C. Bannwarth, E. Caldeweyher, S. Ehlert, A. Hansen, P. Pracht,
     J. Seibert, S. Spicher, S. Grimme, WIREs Comput. Mol. Sci., 2020, 11,
     e01493. DOI: 10.1002/wcms.1493
   
   for GFN2-xTB:
   * C. Bannwarth, S. Ehlert and S. Grimme., J. Chem. Theory Comput., 2019,
     15, 1652-1671. DOI: 10.1021/acs.jctc.8b01176
   for GFN1-xTB:
   * S. Grimme, C. Bannwarth, P. Shushkov, J. Chem. Theory Comput., 2017,
     13, 1989-2009. DOI: 10.1021/acs.jctc.7b00118
   for GFN0-xTB:
   * P. Pracht, E. Caldeweyher, S. Ehlert, S. Grimme, ChemRxiv, 2019, preprint.
     DOI: 10.26434/chemrxiv.8326202.v1
   for GFN-FF:
   * S. Spicher and S. Grimme, Angew. Chem. Int. Ed., 2020, 59, 15665-15673.
     DOI: 10.1002/anie.202004239
   
   for ALPB and GBSA implicit solvation:
   * S. Ehlert, M. Stahn, S. Spicher, S. Grimme, J. Chem. Theory Comput.,
     2021, 17, 4250-4261. DOI: 10.1021/acs.jctc.1c00471
   
   for DFT-D4:
   * E. Caldeweyher, C. Bannwarth and S. Grimme, J. Chem. Phys., 2017,
     147, 034112. DOI: 10.1063/1.4993215
   * E. Caldeweyher, S. Ehlert, A. Hansen, H. Neugebauer, S. Spicher,
     C. Bannwarth and S. Grimme, J. Chem. Phys., 2019, 150, 154122.
     DOI: 10.1063/1.5090222
   * E. Caldeweyher, J.-M. Mewes, S. Ehlert and S. Grimme, Phys. Chem. Chem. Phys.
     2020, 22, 8499-8512. DOI: 10.1039/D0CP00502A
   
   for sTDA-xTB:
   * S. Grimme and C. Bannwarth, J. Chem. Phys., 2016, 145, 054103.
     DOI: 10.1063/1.4959605
   
   in the mass-spec context:
   * V. Asgeirsson, C. Bauer and S. Grimme, Chem. Sci., 2017, 8, 4879.
     DOI: 10.1039/c7sc00601b
   * J. Koopman and S. Grimme, ACS Omega 2019, 4, 12, 15120-15133.
     DOI: 10.1021/acsomega.9b02011
   
   for metadynamics refer to:
   * S. Grimme, J. Chem. Theory Comput., 2019, 155, 2847-2862
     DOI: 10.1021/acs.jctc.9b00143
   
   for SPH calculations refer to:
   * S. Spicher and S. Grimme, J. Chem. Theory Comput., 2021, 17, 1701-1714
     DOI: 10.1021/acs.jctc.0c01306
   
   with help from (in alphabetical order)
   P. Atkinson, C. Bannwarth, F. Bohle, G. Brandenburg, E. Caldeweyher
   M. Checinski, S. Dohm, S. Ehlert, S. Ehrlich, I. Gerasimov, C. Hölzer
   A. Katbashev, J. Koopman, C. Lavigne, S. Lehtola, F. März, M. Müller,
   F. Musil, H. Neugebauer, J. Pisarek, C. Plett, P. Pracht, F. Pultar,
   J. Seibert, P. Shushkov, S. Spicher, M. Stahn, M. Steiner, T. Strunk,
   J. Stückrath, T. Rose, and J. Unsleber
   
 * started run on 2024/05/17 at 16:31:49.192     

           -------------------------------------------------
          |                Calculation Setup                |
           -------------------------------------------------

          program call               : xtb monosubstituted_Sulfate_solvated_radius_5_solvated_radius_7.xyz --opt extreme --gfn2 --chrg 3 --uhf 6 --alpb water
          coordinate file            : monosubstituted_Sulfate_solvated_radius_5_solvated_radius_7.xyz
          omp threads                :                     8

   ID    Z sym.   atoms
    1   26 Fe     1
    2    8 O      2, 4-7, 10, 13, 16, 19, 22, 25, 28, 31, 34, 37, 40, 43, 46,
                  49, 52, 55, 58, 61, 64, 67, 70, 73, 76, 79, 82, 85, 88, 91,
                  94, 97, 100, 103, 106, 109, 112, 115, 118, 121, 124, 127
    3   16 S      3
    4    1 H      8, 9, 11, 12, 14, 15, 17, 18, 20, 21, 23, 24, 26, 27, 29,
                  30, 32, 33, 35, 36, 38, 39, 41, 42, 44, 45, 47, 48, 50, 51,
                  53, 54, 56, 57, 59, 60, 62, 63, 65, 66, 68, 69, 71, 72, 74,
                  75, 77, 78, 80, 81, 83, 84, 86, 87, 89, 90, 92, 93, 95, 96,
                  98, 99, 101, 102, 104, 105, 107, 108, 110, 111, 113, 114,
                  116, 117, 119, 120, 122, 123, 125, 126, 128, 129

molecular fragmentation (1/2 indicates fragments):
111111111111111222222222222222222222222222222222222222222222222222222222
222222222222222222222222222222222222222222222222222222222
# atoms in fragment 1/2:    15   114
 fragment masses (1/2) :      205.95      684.58
CMA distance (Bohr)    :   2.336
constraining FC (au)   :  0.0500

           -------------------------------------------------
          |                 G F N 2 - x T B                 |
           -------------------------------------------------

        Reference                      10.1021/acs.jctc.8b01176
      * Hamiltonian:
        H0-scaling (s, p, d)           1.850000    2.230000    2.230000
        zeta-weighting                 0.500000
      * Dispersion:
        s8                             2.700000
        a1                             0.520000
        a2                             5.000000
        s9                             5.000000
      * Repulsion:
        kExp                           1.500000    1.000000
        rExp                           1.000000
      * Coulomb:
        alpha                          2.000000
        third order                    shell-resolved
        anisotropic                    true
        a3                             3.000000
        a5                             4.000000
        cn-shift                       1.200000
        cn-exp                         4.000000
        max-rad                        5.000000

      * Solvation model:               ALPB
        Solvent                        water
        Parameter file                 internal GFN2-xTB/ALPB
        Dielectric constant                8.0200E+01
        Reference state                gsolv [1 M gas/solution]
        Free energy shift                  1.0808E-03 Eh       6.7819E-01 kcal/mol
        Temperature                        2.9815E+02 K
        Density                            1.0000E+00 kg/L
        Solvent mass                       1.8000E+01 g/mol
        Interaction kernel             P16
        Born radius scaling (c1)           1.4744E+00
        Born radii integrator          GBOBC
        Born offset                        0.0000E+00 a0       0.0000E+00 AA
        H-bond correction              true
        Ion screening                  false
        Surface tension                    1.0000E-05 Eh       1.5569E+01 dyn/cm
        Grid points                               230 per atom

          ...................................................
          :                      SETUP                      :
          :.................................................:
          :  # basis functions                 282          :
          :  # atomic orbitals                 280          :
          :  # shells                          178          :
          :  # electrons                       363          :
          :  max. iterations                   250          :
          :  Hamiltonian                  GFN2-xTB          :
          :  restarted?                      false          :
          :  GBSA solvation                   true          :
          :  PC potential                    false          :
          :  electronic temp.          300.0000000     K    :
          :  accuracy                    1.0000000          :
          :  -> integral cutoff          0.2500000E+02      :
          :  -> integral neglect         0.1000000E-07      :
          :  -> SCF convergence          0.1000000E-05 Eh   :
          :  -> wf. convergence          0.1000000E-03 e    :
          :  Broyden damping             0.4000000          :
          ...................................................

 iter      E             dE          RMSdq      gap      omega  full diag
   1   -231.1012519 -0.231101E+03  0.554E+00    0.04       0.0  T
   2   -229.2442436  0.185701E+01  0.574E+00    0.03       1.0  T
   3   -231.3448286 -0.210058E+01  0.307E+00    0.20       1.0  T
   4   -230.9959652  0.348863E+00  0.270E+00    0.16       1.0  T
   5   -231.2458102 -0.249845E+00  0.251E+00    0.24       1.0  T
   6   -231.6473934 -0.401583E+00  0.165E+00    0.25       1.0  T
   7   -231.6718311 -0.244377E-01  0.120E+00    0.25       1.0  T
   8   -231.2861240  0.385707E+00  0.219E+00    0.17       1.0  T
   9   -231.3760288 -0.899048E-01  0.205E+00    0.17       1.0  T
  10   -231.7203090 -0.344280E+00  0.103E+00    0.17       1.0  T
  11   -231.5490842  0.171225E+00  0.158E+00    0.19       1.0  T
  12   -231.7005075 -0.151423E+00  0.108E+00    0.21       1.0  T
  13   -231.6489500  0.515575E-01  0.131E+00    0.20       1.0  T
  14   -231.6661615 -0.172115E-01  0.125E+00    0.20       1.0  T
  15   -231.7596237 -0.934622E-01  0.768E-01    0.21       1.0  T
  16   -231.7857855 -0.261618E-01  0.523E-01    0.22       1.0  T
  17   -231.7839052  0.188035E-02  0.580E-01    0.21       1.0  T
  18   -231.7658505  0.180547E-01  0.727E-01    0.20       1.0  T
  19   -231.7725372 -0.668673E-02  0.676E-01    0.20       1.0  T
  20   -231.7234732  0.490640E-01  0.968E-01    0.21       1.0  T
  21   -231.7864805 -0.630073E-01  0.555E-01    0.21       1.0  T
  22   -231.7828831  0.359740E-02  0.580E-01    0.21       1.0  T
  23   -231.7973766 -0.144934E-01  0.443E-01    0.21       1.0  T
  24   -231.7943903  0.298629E-02  0.471E-01    0.21       1.0  T
  25   -231.8013332 -0.694288E-02  0.392E-01    0.21       1.0  T
  26   -231.8135167 -0.121835E-01  0.202E-01    0.20       1.0  T
  27   -231.8119501  0.156652E-02  0.243E-01    0.20       1.0  T
  28   -231.8143641 -0.241400E-02  0.187E-01    0.20       1.0  T
  29   -231.8157980 -0.143390E-02  0.139E-01    0.20       1.0  T
  30   -231.8162187 -0.420680E-03  0.121E-01    0.20       1.0  T
  31   -231.8165088 -0.290123E-03  0.109E-01    0.20       1.0  T
  32   -231.8169134 -0.404533E-03  0.902E-02    0.20       1.0  T
  33   -231.8174395 -0.526091E-03  0.555E-02    0.20       1.0  T
  34   -231.8176370 -0.197510E-03  0.337E-02    0.20       1.0  T
  35   -231.8177244 -0.874374E-04  0.185E-02    0.20       1.0  T
  36   -231.8177351 -0.106402E-04  0.148E-02    0.20       1.0  T
  37   -231.8177184  0.166157E-04  0.196E-02    0.20       1.0  T
  38   -231.8177449 -0.264302E-04  0.113E-02    0.20       1.0  T
  39   -231.8177541 -0.926621E-05  0.617E-03    0.20       1.4  T
  40   -231.8177545 -0.319827E-06  0.598E-03    0.20       1.5  T
  41   -231.8177575 -0.301274E-05  0.262E-03    0.20       3.4  T
  42   -231.8177580 -0.550443E-06  0.143E-03    0.20       6.2  T
  43   -231.8177580  0.410739E-07  0.151E-03    0.20       5.8  T
  44   -231.8177580 -0.654011E-07  0.126E-03    0.20       7.0  T
  45   -231.8177582 -0.110874E-06  0.730E-04    0.20      12.1  T
  46   -231.8177582 -0.376865E-07  0.422E-04    0.20      20.8  T

   *** convergence criteria satisfied after 46 iterations ***

         #    Occupation            Energy/Eh            Energy/eV
      -------------------------------------------------------------
         1        2.0000           -0.8011878             -21.8014
       ...           ...                  ...                  ...
       178        1.8735           -0.4384920             -11.9320
       179        1.7862           -0.4378933             -11.9157
       180        1.6855           -0.4373965             -11.9022
       181        1.4847           -0.4365981             -11.8804
       182        1.2312           -0.4355152             -11.8510
       183        1.1151           -0.4347189             -11.8293
       184        0.9798           -0.3897643             -10.6060 (HOMO)
       185        0.0202           -0.3823860             -10.4053 (LUMO)
       186                         -0.1314220              -3.5762
       187                         -0.0586403              -1.5957
       188                         -0.0515970              -1.4040
       189                         -0.0065873              -0.1793
       ...                                ...                  ...
       280                          2.9806551              81.1078
      -------------------------------------------------------------
                  HL-Gap            0.0073783 Eh            0.2008 eV
             Fermi-level           -0.4113658 Eh          -11.1938 eV

 SCC (total)                   0 d,  0 h,  0 min,  0.672 sec
 SCC setup                      ...        0 min,  0.005 sec (  0.745%)
 Dispersion                     ...        0 min,  0.003 sec (  0.381%)
 classical contributions        ...        0 min,  0.001 sec (  0.094%)
 integral evaluation            ...        0 min,  0.008 sec (  1.164%)
 iterations                     ...        0 min,  0.597 sec ( 88.810%)
 molecular gradient             ...        0 min,  0.058 sec (  8.571%)
 printout                       ...        0 min,  0.002 sec (  0.232%)

         :::::::::::::::::::::::::::::::::::::::::::::::::::::
         ::                     SUMMARY                     ::
         :::::::::::::::::::::::::::::::::::::::::::::::::::::
         :: total energy            -229.444796297988 Eh    ::
         :: total w/o Gsasa/hb      -229.185212194699 Eh    ::
         :: gradient norm              0.779426858711 Eh/a0 ::
         :: HOMO-LUMO gap              0.200773801873 eV    ::
         ::.................................................::
         :: SCC energy              -231.817758198018 Eh    ::
         :: -> isotropic ES            1.768393318773 Eh    ::
         :: -> anisotropic ES         -0.084084601090 Eh    ::
         :: -> anisotropic XC         -0.045753276759 Eh    ::
         :: -> dispersion             -0.056445759124 Eh    ::
         :: -> Gsolv                  -0.907508258322 Eh    ::
         ::    -> Gelec               -0.647924155034 Eh    ::
         ::    -> Gsasa                0.042675654809 Eh    ::
         ::    -> Ghb                 -0.303340517796 Eh    ::
         ::    -> Gshift               0.001080759698 Eh    ::
         :: repulsion energy           2.370184844545 Eh    ::
         :: add. restraining           0.000000000000 Eh    ::
         :: total charge               3.000000000319 e     ::
         :::::::::::::::::::::::::::::::::::::::::::::::::::::

      ----------------------------------------------------------- 
     |                   =====================                   |
     |                        A N C O P T                        |
     |                   =====================                   |
     |               Approximate Normal Coordinate               |
     |                Rational Function Optimizer                |
      ----------------------------------------------------------- 

          ...................................................
          :                      SETUP                      :
          :.................................................:
          :   optimization level           extreme          :
          :   max. optcycles                  2580          :
          :   ANC micro-cycles                  20          :
          :   degrees of freedom               381          :
          :.................................................:
          :   RF solver                   davidson          :
          :   write xtbopt.log                true          :
          :   linear?                        false          :
          :   energy convergence         0.5000000E-07 Eh   :
          :   grad. convergence          0.5000000E-04 Eh/α :
          :   maxmium RF displ.          1.0000000          :
          :   Hlow (freq-cutoff)         0.1000000E-01      :
          :   Hmax (freq-cutoff)         5.0000000          :
          :   S6 in model hess.         20.0000000          :
          ...................................................

generating ANC from model Hessian ...
Using Lindh-Hessian (1995)
 Shifting diagonal of input Hessian by    1.0554383068606074E-002
 Lowest  eigenvalues of input Hessian
    0.010000    0.010145    0.010279    0.010282    0.010288    0.010302
    0.010305    0.010311    0.010327    0.010366    0.010372    0.010381
    0.010393    0.010410    0.010412    0.010416    0.010426    0.010438
 Highest eigenvalues
    1.811155    1.890109    1.962208    3.080770    3.541869    3.569957


........................................................................
.............................. CYCLE    1 ..............................
........................................................................

 iter      E             dE          RMSdq      gap      omega  full diag
   1   -231.8177582 -0.231818E+03  0.539E-04    0.20       0.0  T
   2   -231.8177524  0.579266E-05  0.743E-03    0.20       1.2  T
   3   -231.8177582 -0.575913E-05  0.762E-04    0.20      11.6  T
   4   -231.8177582 -0.539759E-07  0.301E-04    0.20      29.3  T
   5   -231.8177582 -0.226117E-08  0.263E-04    0.20      33.5  T
     SCC iter.                  ...        0 min,  0.066 sec
     gradient                   ...        0 min,  0.055 sec
 * total energy  :  -229.4447963 Eh     change       -0.9714313E-08 Eh
   gradient norm :     0.7793705 Eh/α   predicted     0.0000000E+00 (-100.00%)
   displ. norm   :     0.6183147 α      lambda       -0.4282801E+00
   maximum displ.:     0.1122097 α      in ANC's #246, #289, #287, ...

........................................................................
.............................. CYCLE    2 ..............................
........................................................................

 iter      E             dE          RMSdq      gap      omega  full diag
   1   -231.3128308 -0.231313E+03  0.146E+00    0.30       0.0  T
   2   -229.2459969  0.206683E+01  0.442E+00    0.12       1.0  T
   3   -231.1576507 -0.191165E+01  0.190E+00    0.44       1.0  T
   4   -231.2644175 -0.106767E+00  0.156E+00    0.39       1.0  T
   5   -231.3804931 -0.116076E+00  0.117E+00    0.39       1.0  T
   6   -231.3663231  0.141700E-01  0.121E+00    0.35       1.0  T
   7   -231.5007296 -0.134406E+00  0.569E-01    0.34       1.0  T
   8   -231.4979027  0.282686E-02  0.541E-01    0.35       1.0  T
   9   -231.4938503  0.405244E-02  0.558E-01    0.35       1.0  T
  10   -231.4516083  0.422420E-01  0.792E-01    0.33       1.0  T
  11   -231.5029445 -0.513362E-01  0.430E-01    0.31       1.0  T
  12   -231.5071318 -0.418736E-02  0.397E-01    0.31       1.0  T
  13   -231.5156765 -0.854465E-02  0.246E-01    0.31       1.0  T
  14   -231.4995139  0.161626E-01  0.443E-01    0.30       1.0  T
  15   -231.4842262  0.152876E-01  0.577E-01    0.30       1.0  T
  16   -231.5159682 -0.317419E-01  0.209E-01    0.30       1.0  T
  17   -231.5178577 -0.188953E-02  0.157E-01    0.30       1.0  T
  18   -231.5195393 -0.168159E-02  0.955E-02    0.30       1.0  T
  19   -231.5199628 -0.423558E-03  0.692E-02    0.30       1.0  T
  20   -231.5198024  0.160405E-03  0.717E-02    0.30       1.0  T
  21   -231.5194355  0.366943E-03  0.900E-02    0.30       1.0  T
  22   -231.5198719 -0.436465E-03  0.624E-02    0.30       1.0  T
  23   -231.5202424 -0.370483E-03  0.265E-02    0.30       1.0  T
  24   -231.5202509 -0.845343E-05  0.234E-02    0.30       1.0  T
  25   -231.5202519 -0.970807E-06  0.227E-02    0.30       1.0  T
  26   -231.5202748 -0.229406E-04  0.154E-02    0.30       1.0  T
  27   -231.5202843 -0.949566E-05  0.103E-02    0.30       1.0  T
  28   -231.5202815  0.281074E-05  0.113E-02    0.30       1.0  T
  29   -231.5202898 -0.829130E-05  0.681E-03    0.30       1.3  T
  30   -231.5202924 -0.258809E-05  0.450E-03    0.30       2.0  T
  31   -231.5202929 -0.495477E-06  0.395E-03    0.30       2.2  T
  32   -231.5202939 -0.100069E-05  0.222E-03    0.30       4.0  T
  33   -231.5202943 -0.423040E-06  0.979E-04    0.30       9.0  T
  34   -231.5202943 -0.421506E-07  0.734E-04    0.30      12.0  T
     SCC iter.                  ...        0 min,  0.428 sec
     gradient                   ...        0 min,  0.055 sec
 * total energy  :  -229.7397055 Eh     change       -0.2949091E+00 Eh
   gradient norm :     0.3610550 Eh/α   predicted    -0.2960236E+00 (   0.38%)
   displ. norm   :     0.6565836 α      lambda       -0.1898263E+00
   maximum displ.:     0.1707837 α      in ANC's #246, #238, #245, ...

........................................................................
.............................. CYCLE    3 ..............................
........................................................................

 iter      E             dE          RMSdq      gap      omega  full diag
   1   -231.1156619 -0.231116E+03  0.156E+00    0.54       0.0  T
   2   -228.7268891  0.238877E+01  0.471E+00    0.28       1.0  T
   3   -230.9804533 -0.225356E+01  0.171E+00    0.68       1.0  T
   4   -231.1488692 -0.168416E+00  0.143E+00    0.60       1.0  T
   5   -231.2922170 -0.143348E+00  0.818E-01    0.60       1.0  T
   6   -231.3112060 -0.189890E-01  0.636E-01    0.60       1.0  T
   7   -231.3138830 -0.267698E-02  0.577E-01    0.59       1.0  T
   8   -231.3091586  0.472432E-02  0.601E-01    0.59       1.0  T
   9   -231.2981195  0.110391E-01  0.629E-01    0.58       1.0  T
  10   -231.3166978 -0.185783E-01  0.442E-01    0.57       1.0  T
  11   -231.3092727  0.742519E-02  0.515E-01    0.56       1.0  T
  12   -231.3267039 -0.174312E-01  0.303E-01    0.55       1.0  T
  13   -231.3311577 -0.445381E-02  0.207E-01    0.54       1.0  T
  14   -231.3281244  0.303333E-02  0.264E-01    0.54       1.0  T
  15   -231.3285514 -0.427045E-03  0.246E-01    0.54       1.0  T
  16   -231.3301308 -0.157941E-02  0.207E-01    0.54       1.0  T
  17   -231.3332955 -0.316463E-02  0.111E-01    0.54       1.0  T
  18   -231.3338541 -0.558652E-03  0.798E-02    0.54       1.0  T
  19   -231.3340138 -0.159699E-03  0.667E-02    0.54       1.0  T
  20   -231.3340224 -0.862138E-05  0.629E-02    0.54       1.0  T
  21   -231.3340593 -0.368815E-04  0.585E-02    0.54       1.0  T
  22   -231.3341305 -0.711990E-04  0.519E-02    0.54       1.0  T
  23   -231.3342599 -0.129431E-03  0.388E-02    0.54       1.0  T
  24   -231.3343601 -0.100197E-03  0.223E-02    0.54       1.0  T
  25   -231.3343846 -0.244450E-04  0.142E-02    0.54       1.0  T
  26   -231.3343955 -0.109516E-04  0.958E-03    0.54       1.0  T
  27   -231.3344019 -0.639369E-05  0.505E-03    0.54       1.7  T
  28   -231.3344020 -0.431571E-07  0.483E-03    0.54       1.8  T
  29   -231.3344034 -0.144572E-05  0.316E-03    0.54       2.8  T
  30   -231.3344033  0.842126E-07  0.316E-03    0.54       2.8  T
  31   -231.3344040 -0.652196E-06  0.147E-03    0.54       6.0  T
  32   -231.3344041 -0.868339E-07  0.104E-03    0.54       8.5  T
  33   -231.3344041 -0.373653E-07  0.850E-04    0.54      10.4  T
  34   -231.3344042 -0.423545E-07  0.516E-04    0.54      17.1  T
     SCC iter.                  ...        0 min,  0.431 sec
     gradient                   ...        0 min,  0.055 sec
 * total energy  :  -229.8766550 Eh     change       -0.1369495E+00 Eh
   gradient norm :     0.1675514 Eh/α   predicted    -0.1358325E+00 (  -0.82%)
   displ. norm   :     0.7167778 α      lambda       -0.1010494E+00
   maximum displ.:     0.2406838 α      in ANC's #233, #238, #225, ...

........................................................................
.............................. CYCLE    4 ..............................
........................................................................

 iter      E             dE          RMSdq      gap      omega  full diag
   1   -231.1284411 -0.231128E+03  0.150E+00    0.96       0.0  T
   2   -229.1483893  0.198005E+01  0.435E+00    0.18       1.0  T
   3   -231.2008899 -0.205250E+01  0.105E+00    1.04       1.0  T
   4   -231.2066983 -0.580838E-02  0.105E+00    1.00       1.0  T
   5   -231.2600271 -0.533288E-01  0.726E-01    1.00       1.0  T
   6   -231.2785089 -0.184817E-01  0.562E-01    1.00       1.0  T
   7   -231.2777750  0.733901E-03  0.543E-01    0.99       1.0  T
   8   -231.2350682  0.427068E-01  0.811E-01    0.98       1.0  T
   9   -231.2619677 -0.268995E-01  0.616E-01    0.98       1.0  T
  10   -231.2747494 -0.127817E-01  0.497E-01    0.97       1.0  T
  11   -231.2330932  0.416562E-01  0.815E-01    0.97       1.0  T
  12   -231.2908613 -0.577681E-01  0.289E-01    0.97       1.0  T
  13   -231.2916430 -0.781732E-03  0.282E-01    0.97       1.0  T
  14   -231.2963992 -0.475614E-02  0.173E-01    0.96       1.0  T
  15   -231.2981488 -0.174961E-02  0.119E-01    0.96       1.0  T
  16   -231.2986590 -0.510201E-03  0.979E-02    0.96       1.0  T
  17   -231.2991993 -0.540314E-03  0.631E-02    0.96       1.0  T
  18   -231.2993575 -0.158166E-03  0.497E-02    0.96       1.0  T
  19   -231.2995216 -0.164138E-03  0.300E-02    0.96       1.0  T
  20   -231.2994317  0.898944E-04  0.403E-02    0.96       1.0  T
  21   -231.2995717 -0.139970E-03  0.158E-02    0.96       1.0  T
  22   -231.2995678  0.386711E-05  0.164E-02    0.96       1.0  T
  23   -231.2995441  0.237474E-04  0.225E-02    0.96       1.0  T
  24   -231.2995845 -0.403995E-04  0.114E-02    0.96       1.0  T
  25   -231.2995945 -0.100010E-04  0.570E-03    0.96       1.5  T
  26   -231.2995953 -0.865106E-06  0.451E-03    0.96       2.0  T
  27   -231.2995945  0.874758E-06  0.554E-03    0.96       1.6  T
  28   -231.2995972 -0.276951E-05  0.219E-03    0.96       4.0  T
  29   -231.2995974 -0.179555E-06  0.170E-03    0.96       5.2  T
  30   -231.2995965  0.927003E-06  0.333E-03    0.96       2.6  T
  31   -231.2995974 -0.878575E-06  0.172E-03    0.96       5.1  T
  32   -231.2995976 -0.275970E-06  0.660E-04    0.96      13.3  T
  33   -231.2995976  0.145107E-07  0.748E-04    0.96      11.8  T
     SCC iter.                  ...        0 min,  0.410 sec
     gradient                   ...        0 min,  0.056 sec
 * total energy  :  -229.9581271 Eh     change       -0.8147211E-01 Eh
   gradient norm :     0.1629203 Eh/α   predicted    -0.7648291E-01 (  -6.12%)
   displ. norm   :     0.7736337 α      lambda       -0.8932214E-01
   maximum displ.:     0.2825284 α      in ANC's #238, #225, #240, ...

........................................................................
.............................. CYCLE    5 ..............................
........................................................................

 iter      E             dE          RMSdq      gap      omega  full diag
   1   -231.2180663 -0.231218E+03  0.140E+00    1.38       0.0  T
   2   -229.8728967  0.134517E+01  0.368E+00    0.79       1.0  T
   3   -231.2352702 -0.136237E+01  0.108E+00    1.37       1.0  T
   4   -231.2552319 -0.199617E-01  0.942E-01    1.37       1.0  T
   5   -231.2559698 -0.737963E-03  0.869E-01    1.37       1.0  T
   6   -231.2634971 -0.752724E-02  0.868E-01    1.39       1.0  T
   7   -231.3035655 -0.400684E-01  0.661E-01    1.38       1.0  T
   8   -231.2954396  0.812583E-02  0.625E-01    1.38       1.0  T
   9   -231.2999155 -0.447584E-02  0.536E-01    1.38       1.0  T
  10   -231.2879841  0.119314E-01  0.711E-01    1.39       1.0  T
  11   -231.3133132 -0.253291E-01  0.512E-01    1.38       1.0  T
  12   -231.3260793 -0.127661E-01  0.356E-01    1.38       1.0  T
  13   -231.3301352 -0.405589E-02  0.305E-01    1.38       1.0  T
  14   -231.3356541 -0.551896E-02  0.243E-01    1.38       1.0  T
  15   -231.3374366 -0.178244E-02  0.183E-01    1.38       1.0  T
  16   -231.3376021 -0.165492E-03  0.175E-01    1.38       1.0  T
  17   -231.3374135  0.188577E-03  0.140E-01    1.39       1.0  T
  18   -231.3382647 -0.851205E-03  0.103E-01    1.39       1.0  T
  19   -231.3381925  0.722143E-04  0.104E-01    1.39       1.0  T
  20   -231.3387895 -0.597041E-03  0.782E-02    1.39       1.0  T
  21   -231.3390143 -0.224785E-03  0.776E-02    1.39       1.0  T
  22   -231.3389337  0.805778E-04  0.781E-02    1.39       1.0  T
  23   -231.3392025 -0.268747E-03  0.438E-02    1.39       1.0  T
  24   -231.3392506 -0.481902E-04  0.382E-02    1.39       1.0  T
  25   -231.3393585 -0.107822E-03  0.196E-02    1.39       1.0  T
  26   -231.3393803 -0.217832E-04  0.102E-02    1.39       1.0  T
  27   -231.3393800  0.266708E-06  0.114E-02    1.39       1.0  T
  28   -231.3393887 -0.875590E-05  0.535E-03    1.39       1.6  T
  29   -231.3393909 -0.218321E-05  0.361E-03    1.39       2.4  T
  30   -231.3393905  0.464088E-06  0.486E-03    1.39       1.8  T
  31   -231.3393914 -0.954076E-06  0.307E-03    1.39       2.9  T
  32   -231.3393917 -0.310346E-06  0.102E-03    1.39       8.7  T
  33   -231.3393918 -0.314865E-07  0.496E-04    1.39      17.7  T
  34   -231.3393918 -0.117254E-07  0.345E-04    1.39      25.5  T
     SCC iter.                  ...        0 min,  0.425 sec
     gradient                   ...        0 min,  0.057 sec
 * total energy  :  -230.0263267 Eh     change       -0.6819962E-01 Eh
   gradient norm :     0.1748525 Eh/α   predicted    -0.7139119E-01 (   4.68%)
   displ. norm   :     0.7010005 α      lambda       -0.6476475E-01
   maximum displ.:     0.2781926 α      in ANC's #238, #232, #240, ...

........................................................................
.............................. CYCLE    6 ..............................
........................................................................

 iter      E             dE          RMSdq      gap      omega  full diag
   1   -231.3606426 -0.231361E+03  0.128E+00    1.34       0.0  T
   2   -230.8283131  0.532329E+00  0.278E+00    1.24       1.0  T
   3   -231.3394533 -0.511140E+00  0.115E+00    1.35       1.0  T
   4   -231.3396085 -0.155186E-03  0.103E+00    1.36       1.0  T
   5   -231.3990670 -0.594585E-01  0.583E-01    1.35       1.0  T
   6   -231.4047378 -0.567085E-02  0.433E-01    1.36       1.0  T
   7   -231.4165045 -0.117667E-01  0.317E-01    1.36       1.0  T
   8   -231.3924768  0.240277E-01  0.632E-01    1.35       1.0  T
   9   -231.4057963 -0.133195E-01  0.503E-01    1.35       1.0  T
  10   -231.4161663 -0.103700E-01  0.349E-01    1.35       1.0  T
  11   -231.4213060 -0.513969E-02  0.156E-01    1.35       1.0  T
  12   -231.4140406  0.726539E-02  0.341E-01    1.34       1.0  T
  13   -231.4178143 -0.377369E-02  0.331E-01    1.35       1.0  T
  14   -231.4221225 -0.430819E-02  0.148E-01    1.35       1.0  T
  15   -231.4229465 -0.823968E-03  0.674E-02    1.35       1.0  T
  16   -231.4230175 -0.710212E-04  0.575E-02    1.35       1.0  T
  17   -231.4231952 -0.177711E-03  0.333E-02    1.35       1.0  T
  18   -231.4232633 -0.681371E-04  0.195E-02    1.35       1.0  T
  19   -231.4232248  0.385034E-04  0.303E-02    1.35       1.0  T
  20   -231.4232715 -0.466753E-04  0.173E-02    1.35       1.0  T
  21   -231.4232529  0.186224E-04  0.294E-02    1.35       1.0  T
  22   -231.4232756 -0.226817E-04  0.181E-02    1.35       1.0  T
  23   -231.4232915 -0.159786E-04  0.986E-03    1.35       1.0  T
  24   -231.4232934 -0.186506E-05  0.624E-03    1.35       1.4  T
  25   -231.4232955 -0.208002E-05  0.308E-03    1.35       2.9  T
  26   -231.4232961 -0.580171E-06  0.191E-03    1.35       4.6  T
  27   -231.4232958  0.282002E-06  0.290E-03    1.35       3.0  T
  28   -231.4232962 -0.447593E-06  0.139E-03    1.35       6.3  T
  29   -231.4232963 -0.881518E-07  0.672E-04    1.35      13.1  T
  30   -231.4232963 -0.232392E-07  0.296E-04    1.35      29.7  T
     SCC iter.                  ...        0 min,  0.364 sec
     gradient                   ...        0 min,  0.056 sec
 * total energy  :  -230.0840147 Eh     change       -0.5768801E-01 Eh
   gradient norm :     0.1537807 Eh/α   predicted    -0.4829514E-01 ( -16.28%)
   displ. norm   :     0.7537178 α      lambda       -0.7361451E-01
   maximum displ.:     0.3427475 α      in ANC's #238, #240, #225, ...

........................................................................
.............................. CYCLE    7 ..............................
........................................................................

 iter      E             dE          RMSdq      gap      omega  full diag
   1   -231.5371700 -0.231537E+03  0.112E+00    1.36       0.0  T
   2   -231.3855547  0.151615E+00  0.185E+00    1.37       1.0  T
   3   -231.4828506 -0.972959E-01  0.121E+00    1.37       1.0  T
   4   -231.5125322 -0.296816E-01  0.998E-01    1.37       1.0  T
   5   -231.5504880 -0.379558E-01  0.590E-01    1.36       1.0  T
   6   -231.5710260 -0.205380E-01  0.305E-01    1.37       1.0  T
   7   -231.5415484  0.294776E-01  0.674E-01    1.36       1.0  T
   8   -231.5542188 -0.126704E-01  0.496E-01    1.36       1.0  T
   9   -231.5651863 -0.109674E-01  0.471E-01    1.36       1.0  T
  10   -231.5709833 -0.579703E-02  0.236E-01    1.36       1.0  T
  11   -231.5712141 -0.230772E-03  0.341E-01    1.36       1.0  T
  12   -231.5717618 -0.547761E-03  0.301E-01    1.36       1.0  T
  13   -231.5770576 -0.529577E-02  0.125E-01    1.36       1.0  T
  14   -231.5763968  0.660817E-03  0.165E-01    1.36       1.0  T
  15   -231.5757066  0.690186E-03  0.175E-01    1.36       1.0  T
  16   -231.5773077 -0.160116E-02  0.149E-01    1.36       1.0  T
  17   -231.5781804 -0.872666E-03  0.698E-02    1.36       1.0  T
  18   -231.5779683  0.212120E-03  0.102E-01    1.36       1.0  T
  19   -231.5782660 -0.297714E-03  0.622E-02    1.36       1.0  T
  20   -231.5783911 -0.125080E-03  0.322E-02    1.36       1.0  T
  21   -231.5784095 -0.184593E-04  0.282E-02    1.36       1.0  T
  22   -231.5784455 -0.360038E-04  0.120E-02    1.36       1.0  T
  23   -231.5784541 -0.854997E-05  0.883E-03    1.36       1.0  T
  24   -231.5784552 -0.113690E-05  0.783E-03    1.36       1.1  T
  25   -231.5784585 -0.331407E-05  0.158E-03    1.36       5.6  T
  26   -231.5784581  0.430608E-06  0.253E-03    1.36       3.5  T
  27   -231.5784587 -0.544755E-06  0.751E-04    1.36      11.7  T
  28   -231.5784587 -0.566374E-08  0.696E-04    1.36      12.7  T
     SCC iter.                  ...        0 min,  0.351 sec
     gradient                   ...        0 min,  0.055 sec
 * total energy  :  -230.1434102 Eh     change       -0.5939550E-01 Eh
   gradient norm :     0.0937448 Eh/α   predicted    -0.5771711E-01 (  -2.83%)
   displ. norm   :     0.8280311 α      lambda       -0.6088097E-01
   maximum displ.:     0.3236344 α      in ANC's #238, #233, #240, ...

........................................................................
.............................. CYCLE    8 ..............................
........................................................................

 iter      E             dE          RMSdq      gap      omega  full diag
   1   -231.6162488 -0.231616E+03  0.956E-01    1.54       0.0  T
   2   -231.4587579  0.157491E+00  0.178E+00    1.56       1.0  T
   3   -231.5680296 -0.109272E+00  0.925E-01    1.53       1.0  T
   4   -231.5814149 -0.133853E-01  0.890E-01    1.54       1.0  T
   5   -231.6194057 -0.379908E-01  0.622E-01    1.54       1.0  T
   6   -231.5784737  0.409320E-01  0.830E-01    1.54       1.0  T
   7   -231.6405949 -0.621212E-01  0.211E-01    1.54       1.0  T
   8   -231.6429300 -0.233512E-02  0.148E-01    1.54       1.0  T
   9   -231.5884166  0.545134E-01  0.862E-01    1.54       1.0  T
  10   -231.6228579 -0.344413E-01  0.546E-01    1.54       1.0  T
  11   -231.6361664 -0.133085E-01  0.369E-01    1.54       1.0  T
  12   -231.6390558 -0.288945E-02  0.300E-01    1.54       1.0  T
  13   -231.6405956 -0.153975E-02  0.270E-01    1.54       1.0  T
  14   -231.6438342 -0.323860E-02  0.957E-02    1.54       1.0  T
  15   -231.6441236 -0.289489E-03  0.858E-02    1.54       1.0  T
  16   -231.6444699 -0.346286E-03  0.437E-02    1.54       1.0  T
  17   -231.6445024 -0.324237E-04  0.405E-02    1.54       1.0  T
  18   -231.6445140 -0.115950E-04  0.312E-02    1.54       1.0  T
  19   -231.6445511 -0.371263E-04  0.285E-02    1.54       1.0  T
  20   -231.6445849 -0.338012E-04  0.776E-03    1.54       1.1  T
  21   -231.6445891 -0.424185E-05  0.417E-03    1.54       2.1  T
  22   -231.6445898 -0.688931E-06  0.320E-03    1.54       2.7  T
  23   -231.6445897  0.751578E-07  0.436E-03    1.54       2.0  T
  24   -231.6445902 -0.437039E-06  0.345E-03    1.54       2.6  T
  25   -231.6445907 -0.578386E-06  0.100E-03    1.54       8.8  T
  26   -231.6445908 -0.266114E-07  0.102E-03    1.54       8.7  T
  27   -231.6445908 -0.503523E-07  0.424E-04    1.54      20.8  T
  28   -231.6445908 -0.779639E-08  0.150E-04    1.54      58.7  T
     SCC iter.                  ...        0 min,  0.357 sec
     gradient                   ...        0 min,  0.055 sec
 * total energy  :  -230.1799920 Eh     change       -0.3658184E-01 Eh
   gradient norm :     0.1357272 Eh/α   predicted    -0.5131158E-01 (  40.27%)
   displ. norm   :     0.7284181 α      lambda       -0.5375366E-01
   maximum displ.:     0.2745599 α      in ANC's #225, #238, #240, ...

........................................................................
.............................. CYCLE    9 ..............................
........................................................................

 iter      E             dE          RMSdq      gap      omega  full diag
   1   -231.6114268 -0.231611E+03  0.556E-01    1.58       0.0  T
   2   -231.4280789  0.183348E+00  0.175E+00    1.58       1.0  T
   3   -231.6027585 -0.174680E+00  0.434E-01    1.57       1.0  T
   4   -231.5615927  0.411658E-01  0.784E-01    1.58       1.0  T
   5   -231.5956787 -0.340859E-01  0.572E-01    1.58       1.0  T
   6   -231.6140606 -0.183819E-01  0.384E-01    1.58       1.0  T
   7   -231.6175368 -0.347613E-02  0.253E-01    1.58       1.0  T
   8   -231.6194095 -0.187276E-02  0.232E-01    1.58       1.0  T
   9   -231.6059834  0.134261E-01  0.433E-01    1.58       1.0  T
  10   -231.6128928 -0.690942E-02  0.323E-01    1.58       1.0  T
  11   -231.6219721 -0.907928E-02  0.133E-01    1.58       1.0  T
  12   -231.6227382 -0.766042E-03  0.943E-02    1.58       1.0  T
  13   -231.6233553 -0.617192E-03  0.571E-02    1.58       1.0  T
  14   -231.6234840 -0.128619E-03  0.418E-02    1.58       1.0  T
  15   -231.6234506  0.333834E-04  0.511E-02    1.58       1.0  T
  16   -231.6235920 -0.141412E-03  0.282E-02    1.58       1.0  T
  17   -231.6236526 -0.605643E-04  0.132E-02    1.58       1.0  T
  18   -231.6236309  0.217073E-04  0.224E-02    1.58       1.0  T
  19   -231.6236522 -0.213355E-04  0.162E-02    1.58       1.0  T
  20   -231.6236638 -0.115892E-04  0.390E-03    1.58       2.3  T
  21   -231.6236636  0.136697E-06  0.405E-03    1.58       2.2  T
  22   -231.6236642 -0.554326E-06  0.253E-03    1.58       3.5  T
  23   -231.6236646 -0.422382E-06  0.110E-03    1.58       8.0  T
  24   -231.6236647 -0.533931E-07  0.557E-04    1.58      15.8  T
  25   -231.6236647 -0.155377E-07  0.516E-04    1.58      17.0  T
     SCC iter.                  ...        0 min,  0.310 sec
     gradient                   ...        0 min,  0.057 sec
 * total energy  :  -230.2105016 Eh     change       -0.3050953E-01 Eh
   gradient norm :     0.1420805 Eh/α   predicted    -0.4113744E-01 (  34.83%)
   displ. norm   :     0.6775304 α      lambda       -0.5502927E-01
   maximum displ.:     0.2127366 α      in ANC's #238, #233, #232, ...

........................................................................
.............................. CYCLE   10 ..............................
........................................................................

 iter      E             dE          RMSdq      gap      omega  full diag
   1   -231.6950078 -0.231695E+03  0.409E-01    1.65       0.0  T
   2   -231.5258663  0.169141E+00  0.166E+00    1.67       1.0  T
   3   -231.6832334 -0.157367E+00  0.446E-01    1.65       1.0  T
   4   -231.6940516 -0.108182E-01  0.315E-01    1.65       1.0  T
   5   -231.6727226  0.213290E-01  0.535E-01    1.66       1.0  T
   6   -231.6962868 -0.235642E-01  0.265E-01    1.66       1.0  T
   7   -231.7000851 -0.379831E-02  0.194E-01    1.66       1.0  T
   8   -231.7003115 -0.226404E-03  0.163E-01    1.66       1.0  T
   9   -231.7011406 -0.829104E-03  0.131E-01    1.66       1.0  T
  10   -231.7006265  0.514168E-03  0.170E-01    1.66       1.0  T
  11   -231.7024430 -0.181654E-02  0.797E-02    1.66       1.0  T
  12   -231.7028171 -0.374059E-03  0.511E-02    1.66       1.0  T
  13   -231.7030512 -0.234120E-03  0.203E-02    1.66       1.0  T
  14   -231.7030249  0.263301E-04  0.269E-02    1.66       1.0  T
  15   -231.7030832 -0.583070E-04  0.110E-02    1.66       1.0  T
  16   -231.7030893 -0.612810E-05  0.812E-03    1.66       1.1  T
  17   -231.7030877  0.158741E-05  0.987E-03    1.66       1.0  T
  18   -231.7030933 -0.556203E-05  0.476E-03    1.66       1.8  T
  19   -231.7030939 -0.613137E-06  0.368E-03    1.66       2.4  T
  20   -231.7030948 -0.951163E-06  0.159E-03    1.66       5.5  T
  21   -231.7030950 -0.133260E-06  0.100E-03    1.66       8.8  T
  22   -231.7030950 -0.815578E-08  0.999E-04    1.66       8.8  T
  23   -231.7030950 -0.670712E-07  0.590E-04    1.66      14.9  T
     SCC iter.                  ...        0 min,  0.282 sec
     gradient                   ...        0 min,  0.058 sec
 * total energy  :  -230.2213528 Eh     change       -0.1085124E-01 Eh
   gradient norm :     0.1942834 Eh/α   predicted    -0.4014512E-01 ( 269.96%)
   displ. norm   :     0.5183070 α      lambda       -0.5925564E-01
   maximum displ.:     0.1690637 α      in ANC's #233, #225, #238, ...

........................................................................
.............................. CYCLE   11 ..............................
........................................................................

 iter      E             dE          RMSdq      gap      omega  full diag
   1   -231.7143892 -0.231714E+03  0.330E-01    2.09       0.0  T
   2   -231.6038249  0.110564E+00  0.129E+00    2.07       1.0  T
   3   -231.7056722 -0.101847E+00  0.366E-01    2.07       1.0  T
   4   -231.6833089  0.223633E-01  0.568E-01    2.07       1.0  T
   5   -231.6977779 -0.144690E-01  0.446E-01    2.07       1.0  T
   6   -231.7131751 -0.153972E-01  0.256E-01    2.07       1.0  T
   7   -231.7139379 -0.762850E-03  0.237E-01    2.07       1.0  T
   8   -231.7144572 -0.519245E-03  0.198E-01    2.06       1.0  T
   9   -231.7154308 -0.973682E-03  0.166E-01    2.06       1.0  T
  10   -231.7169757 -0.154484E-02  0.100E-01    2.06       1.0  T
  11   -231.7172622 -0.286553E-03  0.795E-02    2.06       1.0  T
  12   -231.7174831 -0.220816E-03  0.428E-02    2.06       1.0  T
  13   -231.7175550 -0.719919E-04  0.303E-02    2.06       1.0  T
  14   -231.7175674 -0.123638E-04  0.336E-02    2.06       1.0  T
  15   -231.7176353 -0.678708E-04  0.153E-02    2.06       1.0  T
  16   -231.7176383 -0.305437E-05  0.154E-02    2.06       1.0  T
  17   -231.7176510 -0.126916E-04  0.144E-02    2.06       1.0  T
  18   -231.7176606 -0.955790E-05  0.651E-03    2.06       1.4  T
  19   -231.7176643 -0.372529E-05  0.297E-03    2.06       3.0  T
  20   -231.7176646 -0.336017E-06  0.183E-03    2.06       4.8  T
  21   -231.7176650 -0.349971E-06  0.936E-04    2.06       9.4  T
  22   -231.7176650 -0.418401E-07  0.739E-04    2.06      11.9  T
     SCC iter.                  ...        0 min,  0.274 sec
     gradient                   ...        0 min,  0.054 sec
 * total energy  :  -230.2482166 Eh     change       -0.2686382E-01 Eh
   gradient norm :     0.1406156 Eh/α   predicted    -0.3758712E-01 (  39.92%)
   displ. norm   :     0.6745408 α      lambda       -0.5431756E-01
   maximum displ.:     0.1933907 α      in ANC's #206, #160, #242, ...

........................................................................
.............................. CYCLE   12 ..............................
........................................................................

 iter      E             dE          RMSdq      gap      omega  full diag
   1   -231.6200641 -0.231620E+03  0.495E-01    2.36       0.0  T
   2   -231.5734227  0.466414E-01  0.817E-01    2.36       1.0  T
   3   -231.6142243 -0.408016E-01  0.482E-01    2.35       1.0  T
   4   -231.5807991  0.334252E-01  0.741E-01    2.36       1.0  T
   5   -231.6158882 -0.350891E-01  0.474E-01    2.35       1.0  T
   6   -231.6277303 -0.118421E-01  0.315E-01    2.35       1.0  T
   7   -231.6301887 -0.245844E-02  0.298E-01    2.36       1.0  T
   8   -231.6207521  0.943663E-02  0.416E-01    2.36       1.0  T
   9   -231.5254528  0.952993E-01  0.960E-01    2.36       1.0  T
  10   -231.6343122 -0.108859E+00  0.203E-01    2.36       1.0  T
  11   -231.6375682 -0.325596E-02  0.114E-01    2.35       1.0  T
  12   -231.6371350  0.433132E-03  0.132E-01    2.35       1.0  T
  13   -231.6363756  0.759469E-03  0.157E-01    2.35       1.0  T
  14   -231.6377276 -0.135201E-02  0.104E-01    2.35       1.0  T
  15   -231.6374133  0.314320E-03  0.117E-01    2.35       1.0  T
  16   -231.6381844 -0.771132E-03  0.823E-02    2.35       1.0  T
  17   -231.6382889 -0.104472E-03  0.756E-02    2.35       1.0  T
  18   -231.6383962 -0.107302E-03  0.693E-02    2.35       1.0  T
  19   -231.6385433 -0.147163E-03  0.591E-02    2.35       1.0  T
  20   -231.6386652 -0.121914E-03  0.494E-02    2.35       1.0  T
  21   -231.6387426 -0.774027E-04  0.421E-02    2.35       1.0  T
  22   -231.6389019 -0.159255E-03  0.209E-02    2.35       1.0  T
  23   -231.6389534 -0.514540E-04  0.361E-03    2.35       2.4  T
  24   -231.6389533  0.744274E-07  0.361E-03    2.35       2.4  T
  25   -231.6389546 -0.128452E-05  0.154E-03    2.35       5.7  T
  26   -231.6389548 -0.273800E-06  0.364E-04    2.35      24.2  T
  27   -231.6389549 -0.108293E-07  0.198E-04    2.35      44.4  T
     SCC iter.                  ...        0 min,  0.335 sec
     gradient                   ...        0 min,  0.060 sec
 * total energy  :  -230.2465584 Eh     change        0.1658200E-02 Eh
   gradient norm :     0.1843259 Eh/α   predicted    -0.3951615E-01 (*******%)
   displ. norm   :     0.4481471 α      lambda       -0.4522542E-01
   maximum displ.:     0.1692021 α      in ANC's #184, #172, #225, ...

........................................................................
.............................. CYCLE   13 ..............................
........................................................................

 iter      E             dE          RMSdq      gap      omega  full diag
   1   -231.6862692 -0.231686E+03  0.212E-01    2.56       0.0  T
   2   -231.6365197  0.497495E-01  0.640E-01    2.56       1.0  T
   3   -231.6835179 -0.469982E-01  0.204E-01    2.56       1.0  T
   4   -231.6576264  0.258915E-01  0.518E-01    2.56       1.0  T
   5   -231.6798728 -0.222464E-01  0.267E-01    2.56       1.0  T
   6   -231.6826164 -0.274358E-02  0.201E-01    2.56       1.0  T
   7   -231.6780444  0.457200E-02  0.298E-01    2.56       1.0  T
   8   -231.6851985 -0.715407E-02  0.129E-01    2.56       1.0  T
   9   -231.6842460  0.952513E-03  0.167E-01    2.56       1.0  T
  10   -231.6862084 -0.196244E-02  0.928E-02    2.56       1.0  T
  11   -231.6866967 -0.488329E-03  0.711E-02    2.56       1.0  T
  12   -231.6870138 -0.317040E-03  0.484E-02    2.56       1.0  T
  13   -231.6871184 -0.104659E-03  0.380E-02    2.56       1.0  T
  14   -231.6872622 -0.143807E-03  0.149E-02    2.56       1.0  T
  15   -231.6872476  0.146407E-04  0.183E-02    2.56       1.0  T
  16   -231.6872752 -0.275761E-04  0.104E-02    2.56       1.0  T
  17   -231.6872868 -0.116063E-04  0.311E-03    2.56       2.8  T
  18   -231.6872875 -0.739562E-06  0.174E-03    2.56       5.1  T
  19   -231.6872877 -0.162645E-06  0.126E-03    2.56       7.0  T
  20   -231.6872879 -0.178311E-06  0.442E-04    2.56      19.9  T
  21   -231.6872879 -0.180123E-07  0.174E-04    2.56      50.7  T
     SCC iter.                  ...        0 min,  0.263 sec
     gradient                   ...        0 min,  0.056 sec
 * total energy  :  -230.2725972 Eh     change       -0.2603875E-01 Eh
   gradient norm :     0.1146238 Eh/α   predicted    -0.2715414E-01 (   4.28%)
   displ. norm   :     0.7821635 α      lambda       -0.6829144E-01
   maximum displ.:     0.3638975 α      in ANC's #242, #184, #243, ...

........................................................................
.............................. CYCLE   14 ..............................
........................................................................

 iter      E             dE          RMSdq      gap      omega  full diag
   1   -231.6502936 -0.231650E+03  0.159E+00    2.90       0.0  T
   2   -231.7128180 -0.625244E-01  0.150E+00    2.84       1.0  T
   3   -231.6964767  0.163413E-01  0.994E-01    2.87       1.0  T
   4   -231.7342494 -0.377727E-01  0.765E-01    2.87       1.0  T
   5   -231.7484176 -0.141682E-01  0.601E-01    2.88       1.0  T
   6   -231.7278839  0.205337E-01  0.641E-01    2.88       1.0  T
   7   -231.7605083 -0.326244E-01  0.336E-01    2.88       1.0  T
   8   -231.7549481  0.556024E-02  0.378E-01    2.88       1.0  T
   9   -231.7553633 -0.415165E-03  0.323E-01    2.89       1.0  T
  10   -231.7453024  0.100609E-01  0.574E-01    2.89       1.0  T
  11   -231.7605927 -0.152903E-01  0.226E-01    2.89       1.0  T
  12   -231.7623290 -0.173637E-02  0.203E-01    2.89       1.0  T
  13   -231.7641162 -0.178719E-02  0.124E-01    2.89       1.0  T
  14   -231.7634722  0.644026E-03  0.167E-01    2.89       1.0  T
  15   -231.7650395 -0.156727E-02  0.116E-01    2.89       1.0  T
  16   -231.7657786 -0.739166E-03  0.479E-02    2.89       1.0  T
  17   -231.7658583 -0.796471E-04  0.333E-02    2.89       1.0  T
  18   -231.7659378 -0.795174E-04  0.183E-02    2.89       1.0  T
  19   -231.7659509 -0.131471E-04  0.129E-02    2.89       1.0  T
  20   -231.7659653 -0.143113E-04  0.882E-03    2.89       1.0  T
  21   -231.7659682 -0.298171E-05  0.280E-03    2.89       3.1  T
  22   -231.7659683 -0.577635E-07  0.316E-03    2.89       2.8  T
  23   -231.7659688 -0.519924E-06  0.280E-03    2.89       3.1  T
  24   -231.7659691 -0.290663E-06  0.824E-04    2.89      10.7  T
  25   -231.7659691 -0.371053E-07  0.480E-04    2.89      18.4  T
     SCC iter.                  ...        0 min,  0.311 sec
     gradient                   ...        0 min,  0.058 sec
 * total energy  :  -230.1382115 Eh     change        0.1343856E+00 Eh
   gradient norm :     0.9091846 Eh/α   predicted    -0.5503536E-01 (-140.95%)
   displ. norm   :     0.4184487 α      lambda       -0.3504677E+00
   maximum displ.:     0.2371863 α      in ANC's #242, #243, #248, ...

........................................................................
.............................. CYCLE   15 ..............................
........................................................................

 iter      E             dE          RMSdq      gap      omega  full diag
   1   -231.7273421 -0.231727E+03  0.277E-01    2.95       0.0  T
   2   -231.6820671  0.452750E-01  0.673E-01    2.96       1.0  T
   3   -231.7166917 -0.346246E-01  0.361E-01    2.96       1.0  T
   4   -231.7128024  0.388927E-02  0.363E-01    2.96       1.0  T
   5   -231.6832862  0.295162E-01  0.633E-01    2.96       1.0  T
   6   -231.7190359 -0.357497E-01  0.301E-01    2.96       1.0  T
   7   -231.7285425 -0.950653E-02  0.115E-01    2.96       1.0  T
   8   -231.7279264  0.616060E-03  0.129E-01    2.96       1.0  T
   9   -231.7286711 -0.744657E-03  0.992E-02    2.96       1.0  T
  10   -231.7287344 -0.633718E-04  0.967E-02    2.96       1.0  T
  11   -231.7297112 -0.976739E-03  0.292E-02    2.96       1.0  T
  12   -231.7296657  0.454685E-04  0.345E-02    2.96       1.0  T
  13   -231.7297176 -0.519370E-04  0.263E-02    2.96       1.0  T
  14   -231.7297592 -0.416008E-04  0.179E-02    2.96       1.0  T
  15   -231.7297532  0.600582E-05  0.202E-02    2.96       1.0  T
  16   -231.7297813 -0.280750E-04  0.110E-02    2.96       1.0  T
  17   -231.7297961 -0.147888E-04  0.386E-03    2.96       2.3  T
  18   -231.7297976 -0.148570E-05  0.137E-03    2.96       6.4  T
  19   -231.7297976 -0.343556E-08  0.138E-03    2.96       6.4  T
  20   -231.7297978 -0.186666E-06  0.640E-04    2.96      13.8  T
  21   -231.7297978 -0.409732E-07  0.300E-04    2.96      29.3  T
     SCC iter.                  ...        0 min,  0.267 sec
     gradient                   ...        0 min,  0.056 sec
 * total energy  :  -230.2836323 Eh     change       -0.1454208E+00 Eh
   gradient norm :     0.1144280 Eh/α   predicted    -0.2059172E+00 (  41.60%)
   displ. norm   :     0.7438922 α      lambda       -0.5124246E-01
   maximum displ.:     0.1640806 α      in ANC's #99, #103, #184, ...

........................................................................
.............................. CYCLE   16 ..............................
........................................................................

 iter      E             dE          RMSdq      gap      omega  full diag
   1   -231.6016810 -0.231602E+03  0.836E-01    3.43       0.0  T
   2   -231.6258026 -0.241216E-01  0.664E-01    3.43       1.0  T
   3   -231.6004445  0.253581E-01  0.821E-01    3.43       1.0  T
   4   -231.6146032 -0.141587E-01  0.733E-01    3.42       1.0  T
   5   -231.6605677 -0.459645E-01  0.309E-01    3.43       1.0  T
   6   -231.6564632  0.410459E-02  0.343E-01    3.43       1.0  T
   7   -231.6441708  0.122924E-01  0.474E-01    3.43       1.0  T
   8   -231.5672081  0.769627E-01  0.900E-01    3.42       1.0  T
   9   -231.6615103 -0.943023E-01  0.244E-01    3.42       1.0  T
  10   -231.6634515 -0.194115E-02  0.189E-01    3.42       1.0  T
  11   -231.6659777 -0.252624E-02  0.134E-01    3.42       1.0  T
  12   -231.6654145  0.563219E-03  0.148E-01    3.42       1.0  T
  13   -231.6654154 -0.854667E-06  0.134E-01    3.42       1.0  T
  14   -231.6659153 -0.499956E-03  0.119E-01    3.42       1.0  T
  15   -231.6668555 -0.940145E-03  0.884E-02    3.42       1.0  T
  16   -231.6671454 -0.289935E-03  0.752E-02    3.42       1.0  T
  17   -231.6672231 -0.777433E-04  0.677E-02    3.42       1.0  T
  18   -231.6673078 -0.846064E-04  0.630E-02    3.42       1.0  T
  19   -231.6674693 -0.161574E-03  0.518E-02    3.42       1.0  T
  20   -231.6675538 -0.844725E-04  0.446E-02    3.42       1.0  T
  21   -231.6677453 -0.191462E-03  0.218E-02    3.42       1.0  T
  22   -231.6677937 -0.484605E-04  0.111E-02    3.42       1.0  T
  23   -231.6678006 -0.684110E-05  0.803E-03    3.42       1.1  T
  24   -231.6678087 -0.817319E-05  0.383E-04    3.42      23.0  T
  25   -231.6678087 -0.972847E-08  0.223E-04    3.42      39.4  T
  26   -231.6678087 -0.306866E-08  0.167E-04    3.42      52.6  T
     SCC iter.                  ...        0 min,  0.326 sec
     gradient                   ...        0 min,  0.056 sec
 * total energy  :  -230.2539641 Eh     change        0.2966828E-01 Eh
   gradient norm :     0.2604884 Eh/α   predicted    -0.3979941E-01 (-234.15%)
   displ. norm   :     0.4651964 α      lambda       -0.8144594E-01
   maximum displ.:     0.1376448 α      in ANC's #103, #99, #243, ...

........................................................................
.............................. CYCLE   17 ..............................
........................................................................

 iter      E             dE          RMSdq      gap      omega  full diag
   1   -231.7314047 -0.231731E+03  0.280E-01    3.56       0.0  T
   2   -231.6848977  0.465070E-01  0.602E-01    3.56       1.0  T
   3   -231.7278817 -0.429840E-01  0.274E-01    3.56       1.0  T
   4   -231.7221458  0.573595E-02  0.318E-01    3.56       1.0  T
   5   -231.7232511 -0.110525E-02  0.306E-01    3.56       1.0  T
   6   -231.7312313 -0.798024E-02  0.157E-01    3.56       1.0  T
   7   -231.7289656  0.226573E-02  0.217E-01    3.56       1.0  T
   8   -231.7307667 -0.180115E-02  0.160E-01    3.56       1.0  T
   9   -231.7311223 -0.355574E-03  0.151E-01    3.56       1.0  T
  10   -231.7318490 -0.726720E-03  0.126E-01    3.56       1.0  T
  11   -231.7330031 -0.115408E-02  0.812E-02    3.56       1.0  T
  12   -231.7330007  0.239164E-05  0.762E-02    3.56       1.0  T
  13   -231.7329174  0.832854E-04  0.791E-02    3.56       1.0  T
  14   -231.7332986 -0.381197E-03  0.598E-02    3.56       1.0  T
  15   -231.7336239 -0.325319E-03  0.390E-02    3.56       1.0  T
  16   -231.7337420 -0.118075E-03  0.227E-02    3.56       1.0  T
  17   -231.7337886 -0.465817E-04  0.997E-03    3.56       1.0  T
  18   -231.7337961 -0.756608E-05  0.652E-03    3.56       1.3  T
  19   -231.7338006 -0.444841E-05  0.154E-03    3.56       5.7  T
  20   -231.7338007 -0.775642E-07  0.131E-03    3.56       6.7  T
  21   -231.7338008 -0.857573E-07  0.940E-04    3.56       9.4  T
  22   -231.7338008 -0.910806E-07  0.350E-04    3.56      25.2  T
     SCC iter.                  ...        0 min,  0.267 sec
     gradient                   ...        0 min,  0.057 sec
 * total energy  :  -230.2996787 Eh     change       -0.4571459E-01 Eh
   gradient norm :     0.0855632 Eh/α   predicted    -0.4953575E-01 (   8.36%)
   displ. norm   :     0.6953682 α      lambda       -0.2980374E-01
   maximum displ.:     0.2595029 α      in ANC's #103, #170, #99, ...

........................................................................
.............................. CYCLE   18 ..............................
........................................................................

 iter      E             dE          RMSdq      gap      omega  full diag
   1   -231.5965291 -0.231597E+03  0.109E+00    3.48       0.0  T
   2   -231.6470239 -0.504949E-01  0.887E-01    3.50       1.0  T
   3   -231.6463825  0.641414E-03  0.868E-01    3.47       1.0  T
   4   -231.6831676 -0.367851E-01  0.623E-01    3.48       1.0  T
   5   -231.7035281 -0.203605E-01  0.406E-01    3.48       1.0  T
   6   -231.7107230 -0.719492E-02  0.311E-01    3.48       1.0  T
   7   -231.7112635 -0.540452E-03  0.271E-01    3.48       1.0  T
   8   -231.7146884 -0.342490E-02  0.192E-01    3.48       1.0  T
   9   -231.7168663 -0.217796E-02  0.149E-01    3.48       1.0  T
  10   -231.7020717  0.147946E-01  0.364E-01    3.48       1.0  T
  11   -231.7155323 -0.134606E-01  0.174E-01    3.48       1.0  T
  12   -231.7164289 -0.896554E-03  0.154E-01    3.48       1.0  T
  13   -231.7170344 -0.605522E-03  0.129E-01    3.48       1.0  T
  14   -231.7180408 -0.100638E-02  0.843E-02    3.48       1.0  T
  15   -231.7184133 -0.372508E-03  0.634E-02    3.48       1.0  T
  16   -231.7187696 -0.356286E-03  0.342E-02    3.48       1.0  T
  17   -231.7186691  0.100495E-03  0.433E-02    3.48       1.0  T
  18   -231.7188910 -0.221932E-03  0.148E-02    3.48       1.0  T
  19   -231.7189145 -0.234277E-04  0.548E-03    3.48       1.6  T
  20   -231.7189172 -0.273036E-05  0.325E-03    3.48       2.7  T
  21   -231.7189164  0.777812E-06  0.374E-03    3.48       2.4  T
  22   -231.7189179 -0.153190E-05  0.200E-03    3.48       4.4  T
  23   -231.7189184 -0.489539E-06  0.384E-04    3.48      22.9  T
  24   -231.7189184 -0.382263E-08  0.303E-04    3.48      29.1  T
     SCC iter.                  ...        0 min,  0.304 sec
     gradient                   ...        0 min,  0.058 sec
 * total energy  :  -230.2602217 Eh     change        0.3945698E-01 Eh
   gradient norm :     0.2774879 Eh/α   predicted    -0.2210749E-01 (-156.03%)
   displ. norm   :     0.4376163 α      lambda       -0.8380681E-01
   maximum displ.:     0.1956426 α      in ANC's #103, #170, #99, ...

........................................................................
.............................. CYCLE   19 ..............................
........................................................................

 iter      E             dE          RMSdq      gap      omega  full diag
   1   -231.7383544 -0.231738E+03  0.276E-01    3.66       0.0  T
   2   -231.7047323  0.336221E-01  0.522E-01    3.65       1.0  T
   3   -231.7369273 -0.321950E-01  0.233E-01    3.66       1.0  T
   4   -231.7260494  0.108779E-01  0.383E-01    3.66       1.0  T
   5   -231.7319964 -0.594696E-02  0.268E-01    3.66       1.0  T
   6   -231.7301388  0.185754E-02  0.315E-01    3.65       1.0  T
   7   -231.7379512 -0.781240E-02  0.176E-01    3.65       1.0  T
   8   -231.7402484 -0.229723E-02  0.976E-02    3.65       1.0  T
   9   -231.7406362 -0.387736E-03  0.719E-02    3.65       1.0  T
  10   -231.7410148 -0.378600E-03  0.473E-02    3.65       1.0  T
  11   -231.7411944 -0.179653E-03  0.246E-02    3.65       1.0  T
  12   -231.7409017  0.292710E-03  0.514E-02    3.65       1.0  T
  13   -231.7411016 -0.199881E-03  0.339E-02    3.65       1.0  T
  14   -231.7412259 -0.124338E-03  0.166E-02    3.65       1.0  T
  15   -231.7411857  0.402655E-04  0.218E-02    3.65       1.0  T
  16   -231.7412526 -0.669287E-04  0.482E-03    3.65       1.8  T
  17   -231.7412536 -0.103618E-05  0.367E-03    3.65       2.4  T
  18   -231.7412546 -0.974310E-06  0.207E-03    3.65       4.2  T
  19   -231.7412550 -0.437334E-06  0.106E-03    3.65       8.3  T
  20   -231.7412552 -0.140895E-06  0.380E-04    3.65      23.2  T
  21   -231.7412552  0.768301E-08  0.420E-04    3.65      21.0  T
     SCC iter.                  ...        0 min,  0.264 sec
     gradient                   ...        0 min,  0.059 sec
 * total energy  :  -230.3075833 Eh     change       -0.4736161E-01 Eh
   gradient norm :     0.0914789 Eh/α   predicted    -0.4992828E-01 (   5.42%)
   displ. norm   :     0.6779256 α      lambda       -0.3266329E-01
   maximum displ.:     0.3157911 α      in ANC's #160, #182, #221, ...

........................................................................
.............................. CYCLE   20 ..............................
........................................................................

 iter      E             dE          RMSdq      gap      omega  full diag
   1   -231.7012660 -0.231701E+03  0.288E-01    3.83       0.0  T
   2   -231.6624677  0.387983E-01  0.593E-01    3.83       1.0  T
   3   -231.6970577 -0.345900E-01  0.264E-01    3.83       1.0  T
   4   -231.6801726  0.168851E-01  0.466E-01    3.83       1.0  T
   5   -231.6929467 -0.127741E-01  0.298E-01    3.83       1.0  T
   6   -231.6984176 -0.547090E-02  0.203E-01    3.83       1.0  T
   7   -231.6991492 -0.731585E-03  0.177E-01    3.83       1.0  T
   8   -231.7022532 -0.310404E-02  0.867E-02    3.83       1.0  T
   9   -231.7028076 -0.554398E-03  0.529E-02    3.83       1.0  T
  10   -231.7030299 -0.222283E-03  0.280E-02    3.83       1.0  T
  11   -231.7030167  0.132559E-04  0.306E-02    3.83       1.0  T
  12   -231.7030675 -0.507788E-04  0.195E-02    3.83       1.0  T
  13   -231.7030528  0.146740E-04  0.219E-02    3.83       1.0  T
  14   -231.7030704 -0.176669E-04  0.180E-02    3.83       1.0  T
  15   -231.7031009 -0.304978E-04  0.103E-02    3.83       1.0  T
  16   -231.7031014 -0.412088E-06  0.958E-03    3.83       1.0  T
  17   -231.7031127 -0.113069E-04  0.250E-03    3.83       3.5  T
  18   -231.7031132 -0.566772E-06  0.119E-03    3.83       7.4  T
  19   -231.7031133 -0.951387E-07  0.880E-04    3.83      10.0  T
  20   -231.7031134 -0.464912E-07  0.563E-04    3.83      15.7  T
     SCC iter.                  ...        0 min,  0.255 sec
     gradient                   ...        0 min,  0.055 sec
 * total energy  :  -230.2879012 Eh     change        0.1968207E-01 Eh
   gradient norm :     0.2010292 Eh/α   predicted    -0.2383737E-01 (-221.11%)
   displ. norm   :     0.4194724 α      lambda       -0.5440013E-01
   maximum displ.:     0.1870367 α      in ANC's #160, #90, #243, ...
 * RMSD in coord.:     0.6337662 α      energy gain  -0.8431049E+00 Eh

generating ANC from model Hessian ...
Using Lindh-Hessian (1995)
 Shifting diagonal of input Hessian by    1.0279225640824275E-002
 Lowest  eigenvalues of input Hessian
    0.010000    0.010051    0.010059    0.010091    0.010099    0.010111
    0.010139    0.010142    0.010156    0.010164    0.010184    0.010191
    0.010204    0.010206    0.010210    0.010211    0.010214    0.010219
 Highest eigenvalues
    1.486808    1.525997    2.095296    3.087144    3.448721    3.619919


........................................................................
.............................. CYCLE   21 ..............................
........................................................................

 iter      E             dE          RMSdq      gap      omega  full diag
   1   -231.7552529 -0.231755E+03  0.221E-01    3.95       0.0  T
   2   -231.7283496  0.269033E-01  0.468E-01    3.94       1.0  T
   3   -231.7465433 -0.181938E-01  0.284E-01    3.95       1.0  T
   4   -231.7483561 -0.181276E-02  0.273E-01    3.94       1.0  T
   5   -231.7547080 -0.635192E-02  0.138E-01    3.94       1.0  T
   6   -231.7551664 -0.458371E-03  0.112E-01    3.94       1.0  T
   7   -231.7547913  0.375140E-03  0.121E-01    3.94       1.0  T
   8   -231.7562822 -0.149097E-02  0.520E-02    3.94       1.0  T
   9   -231.7564933 -0.211024E-03  0.294E-02    3.94       1.0  T
  10   -231.7565647 -0.713970E-04  0.149E-02    3.94       1.0  T
  11   -231.7565647 -0.828742E-07  0.149E-02    3.94       1.0  T
  12   -231.7565750 -0.102452E-04  0.109E-02    3.94       1.0  T
  13   -231.7565814 -0.641060E-05  0.732E-03    3.94       1.2  T
  14   -231.7565802  0.115983E-05  0.855E-03    3.94       1.0  T
  15   -231.7565862 -0.592964E-05  0.477E-03    3.94       1.8  T
  16   -231.7565876 -0.140012E-05  0.277E-03    3.94       3.2  T
  17   -231.7565878 -0.198964E-06  0.248E-03    3.94       3.6  T
  18   -231.7565883 -0.565351E-06  0.132E-03    3.94       6.7  T
  19   -231.7565885 -0.163330E-06  0.740E-04    3.94      11.9  T
  20   -231.7565886 -0.595270E-07  0.315E-04    3.94      27.9  T
     SCC iter.                  ...        0 min,  0.260 sec
     gradient                   ...        0 min,  0.057 sec
 * total energy  :  -230.3167836 Eh     change       -0.2888236E-01 Eh
   gradient norm :     0.0849180 Eh/α   predicted     0.0000000E+00 (-100.00%)
   displ. norm   :     0.6396006 α      lambda       -0.1871214E-01
   maximum displ.:     0.1859823 α      in ANC's #166, #126, #159, ...

........................................................................
.............................. CYCLE   22 ..............................
........................................................................

 iter      E             dE          RMSdq      gap      omega  full diag
   1   -231.7530075 -0.231753E+03  0.316E-01    3.91       0.0  T
   2   -231.7427770  0.102304E-01  0.413E-01    3.91       1.0  T
   3   -231.7071701  0.356069E-01  0.690E-01    3.90       1.0  T
   4   -231.7465319 -0.393618E-01  0.395E-01    3.90       1.0  T
   5   -231.7590085 -0.124766E-01  0.196E-01    3.91       1.0  T
   6   -231.7592624 -0.253906E-03  0.177E-01    3.90       1.0  T
   7   -231.7592506  0.118312E-04  0.179E-01    3.90       1.0  T
   8   -231.6856068  0.736438E-01  0.777E-01    3.90       1.0  T
   9   -231.7474793 -0.618725E-01  0.338E-01    3.90       1.0  T
  10   -231.7614140 -0.139347E-01  0.103E-01    3.90       1.0  T
  11   -231.7612064  0.207624E-03  0.111E-01    3.90       1.0  T
  12   -231.7614880 -0.281640E-03  0.100E-01    3.90       1.0  T
  13   -231.7615873 -0.992694E-04  0.947E-02    3.90       1.0  T
  14   -231.7616746 -0.873276E-04  0.881E-02    3.90       1.0  T
  15   -231.7617629 -0.883207E-04  0.820E-02    3.90       1.0  T
  16   -231.7618907 -0.127779E-03  0.733E-02    3.90       1.0  T
  17   -231.7621105 -0.219800E-03  0.580E-02    3.90       1.0  T
  18   -231.7624794 -0.368846E-03  0.178E-02    3.90       1.0  T
  19   -231.7619317  0.547666E-03  0.682E-02    3.90       1.0  T
  20   -231.7624048 -0.473052E-03  0.307E-02    3.90       1.0  T
  21   -231.7625145 -0.109710E-03  0.757E-03    3.90       1.2  T
  22   -231.7625163 -0.179570E-05  0.642E-03    3.90       1.4  T
  23   -231.7625198 -0.358951E-05  0.369E-03    3.90       2.4  T
  24   -231.7625215 -0.161346E-05  0.522E-04    3.90      16.9  T
  25   -231.7625215 -0.313372E-07  0.126E-04    3.90      69.8  T
  26   -231.7625215  0.407624E-08  0.221E-04    3.90      39.9  T
     SCC iter.                  ...        0 min,  0.330 sec
     gradient                   ...        0 min,  0.061 sec
 * total energy  :  -230.3320267 Eh     change       -0.1524315E-01 Eh
   gradient norm :     0.0563700 Eh/α   predicted    -0.1319019E-01 ( -13.47%)
   displ. norm   :     0.7445530 α      lambda       -0.1618982E-01
   maximum displ.:     0.1585827 α      in ANC's #157, #218, #152, ...

........................................................................
.............................. CYCLE   23 ..............................
........................................................................

 iter      E             dE          RMSdq      gap      omega  full diag
   1   -231.7671270 -0.231767E+03  0.175E-01    3.81       0.0  T
   2   -231.7565709  0.105560E-01  0.317E-01    3.81       1.0  T
   3   -231.7589103 -0.233932E-02  0.304E-01    3.81       1.0  T
   4   -231.7657109 -0.680059E-02  0.159E-01    3.81       1.0  T
   5   -231.7373016  0.284093E-01  0.485E-01    3.81       1.0  T
   6   -231.7605219 -0.232203E-01  0.258E-01    3.81       1.0  T
   7   -231.7638110 -0.328912E-02  0.176E-01    3.81       1.0  T
   8   -231.7653205 -0.150955E-02  0.152E-01    3.81       1.0  T
   9   -231.7658244 -0.503803E-03  0.135E-01    3.81       1.0  T
  10   -231.7666839 -0.859556E-03  0.112E-01    3.81       1.0  T
  11   -231.7673800 -0.696093E-03  0.804E-02    3.81       1.0  T
  12   -231.7678429 -0.462859E-03  0.496E-02    3.81       1.0  T
  13   -231.7681061 -0.263245E-03  0.163E-02    3.81       1.0  T
  14   -231.7680956  0.104712E-04  0.177E-02    3.81       1.0  T
  15   -231.7681287 -0.330475E-04  0.717E-03    3.81       1.2  T
  16   -231.7681267  0.197514E-05  0.850E-03    3.81       1.0  T
  17   -231.7681335 -0.683554E-05  0.397E-03    3.81       2.2  T
  18   -231.7681339 -0.344659E-06  0.376E-03    3.81       2.3  T
  19   -231.7681355 -0.158586E-05  0.120E-03    3.81       7.4  T
  20   -231.7681356 -0.133358E-06  0.502E-04    3.81      17.5  T
  21   -231.7681356 -0.144223E-07  0.368E-04    3.81      23.9  T
     SCC iter.                  ...        0 min,  0.269 sec
     gradient                   ...        0 min,  0.059 sec
 * total energy  :  -230.3435638 Eh     change       -0.1153705E-01 Eh
   gradient norm :     0.0619571 Eh/α   predicted    -0.1258270E-01 (   9.06%)
   displ. norm   :     0.7547548 α      lambda       -0.1293342E-01
   maximum displ.:     0.1755041 α      in ANC's #159, #166, #196, ...

........................................................................
.............................. CYCLE   24 ..............................
........................................................................

 iter      E             dE          RMSdq      gap      omega  full diag
   1   -231.7299869 -0.231730E+03  0.543E-01    3.72       0.0  T
   2   -231.7357000 -0.571314E-02  0.516E-01    3.73       1.0  T
   3   -231.6879251  0.477749E-01  0.797E-01    3.72       1.0  T
   4   -231.7373010 -0.493759E-01  0.497E-01    3.72       1.0  T
   5   -231.7590392 -0.217382E-01  0.229E-01    3.72       1.0  T
   6   -231.7586067  0.432567E-03  0.222E-01    3.72       1.0  T
   7   -231.7595449 -0.938225E-03  0.187E-01    3.72       1.0  T
   8   -231.7617051 -0.216025E-02  0.112E-01    3.72       1.0  T
   9   -231.7613026  0.402507E-03  0.121E-01    3.72       1.0  T
  10   -231.7501964  0.111062E-01  0.314E-01    3.72       1.0  T
  11   -231.7616357 -0.114392E-01  0.111E-01    3.72       1.0  T
  12   -231.7618282 -0.192500E-03  0.105E-01    3.72       1.0  T
  13   -231.7619406 -0.112400E-03  0.963E-02    3.72       1.0  T
  14   -231.7620283 -0.877508E-04  0.898E-02    3.72       1.0  T
  15   -231.7622950 -0.266654E-03  0.733E-02    3.72       1.0  T
  16   -231.7626520 -0.357036E-03  0.477E-02    3.72       1.0  T
  17   -231.7629183 -0.266326E-03  0.797E-03    3.72       1.1  T
  18   -231.7628694  0.489739E-04  0.212E-02    3.72       1.0  T
  19   -231.7628988 -0.294799E-04  0.151E-02    3.72       1.0  T
  20   -231.7629257 -0.269047E-04  0.200E-03    3.72       4.4  T
  21   -231.7629260 -0.221035E-06  0.173E-03    3.72       5.1  T
  22   -231.7629261 -0.171342E-06  0.129E-03    3.72       6.8  T
  23   -231.7629263 -0.197024E-06  0.128E-04    3.72      69.0  T
  24   -231.7629263 -0.125655E-08  0.670E-05    3.72     131.5  T
     SCC iter.                  ...        0 min,  0.294 sec
     gradient                   ...        0 min,  0.058 sec
 * total energy  :  -230.3529850 Eh     change       -0.9421238E-02 Eh
   gradient norm :     0.0796993 Eh/α   predicted    -0.1015057E-01 (   7.74%)
   displ. norm   :     0.6991401 α      lambda       -0.1526561E-01
   maximum displ.:     0.1514076 α      in ANC's #196, #197, #94, ...

........................................................................
.............................. CYCLE   25 ..............................
........................................................................

 iter      E             dE          RMSdq      gap      omega  full diag
   1   -231.7865936 -0.231787E+03  0.177E-01    3.63       0.0  T
   2   -231.7185701  0.680235E-01  0.720E-01    3.62       1.0  T
   3   -231.7862247 -0.676546E-01  0.155E-01    3.63       1.0  T
   4   -231.7825637  0.366100E-02  0.215E-01    3.62       1.0  T
   5   -231.7831534 -0.589643E-03  0.199E-01    3.62       1.0  T
   6   -231.7835175 -0.364155E-03  0.180E-01    3.63       1.0  T
   7   -231.7869503 -0.343275E-02  0.104E-01    3.62       1.0  T
   8   -231.7872109 -0.260656E-03  0.871E-02    3.62       1.0  T
   9   -231.7877123 -0.501360E-03  0.578E-02    3.62       1.0  T
  10   -231.7878756 -0.163311E-03  0.433E-02    3.62       1.0  T
  11   -231.7880361 -0.160473E-03  0.220E-02    3.62       1.0  T
  12   -231.7880788 -0.427645E-04  0.952E-03    3.62       1.0  T
  13   -231.7880833 -0.445965E-05  0.790E-03    3.62       1.1  T
  14   -231.7880831  0.170826E-06  0.751E-03    3.62       1.2  T
  15   -231.7880902 -0.708227E-05  0.335E-03    3.62       2.6  T
  16   -231.7880904 -0.230141E-06  0.294E-03    3.62       3.0  T
  17   -231.7880913 -0.887689E-06  0.115E-03    3.62       7.6  T
  18   -231.7880913  0.466360E-07  0.139E-03    3.62       6.3  T
  19   -231.7880915 -0.226924E-06  0.248E-04    3.62      35.6  T
  20   -231.7880915 -0.529499E-08  0.141E-04    3.62      62.3  T
     SCC iter.                  ...        0 min,  0.251 sec
     gradient                   ...        0 min,  0.057 sec
 * total energy  :  -230.3632883 Eh     change       -0.1030330E-01 Eh
   gradient norm :     0.0565608 Eh/α   predicted    -0.1136370E-01 (  10.29%)
   displ. norm   :     0.7508442 α      lambda       -0.1617486E-01
   maximum displ.:     0.1543416 α      in ANC's #159, #152, #196, ...

........................................................................
.............................. CYCLE   26 ..............................
........................................................................

 iter      E             dE          RMSdq      gap      omega  full diag
   1   -231.8473720 -0.231847E+03  0.201E-01    3.56       0.0  T
   2   -231.8198360  0.275361E-01  0.472E-01    3.56       1.0  T
   3   -231.8411631 -0.213272E-01  0.239E-01    3.56       1.0  T
   4   -231.7784813  0.626819E-01  0.736E-01    3.56       1.0  T
   5   -231.8187785 -0.402972E-01  0.485E-01    3.56       1.0  T
   6   -231.8461940 -0.274156E-01  0.137E-01    3.56       1.0  T
   7   -231.8463791 -0.185047E-03  0.122E-01    3.56       1.0  T
   8   -231.8470112 -0.632063E-03  0.965E-02    3.56       1.0  T
   9   -231.8476865 -0.675357E-03  0.651E-02    3.56       1.0  T
  10   -231.8478821 -0.195582E-03  0.474E-02    3.56       1.0  T
  11   -231.8481013 -0.219246E-03  0.200E-02    3.56       1.0  T
  12   -231.8481197 -0.183562E-04  0.142E-02    3.56       1.0  T
  13   -231.8481312 -0.115195E-04  0.933E-03    3.56       1.0  T
  14   -231.8481396 -0.833476E-05  0.368E-03    3.56       2.4  T
  15   -231.8481400 -0.475916E-06  0.293E-03    3.56       3.0  T
  16   -231.8481410 -0.963345E-06  0.838E-04    3.56      10.5  T
  17   -231.8481411 -0.651166E-07  0.372E-04    3.56      23.6  T
     SCC iter.                  ...        0 min,  0.214 sec
     gradient                   ...        0 min,  0.056 sec
 * total energy  :  -230.3643600 Eh     change       -0.1071634E-02 Eh
   gradient norm :     0.1257427 Eh/α   predicted    -0.1264686E-01 (1080.15%)
   displ. norm   :     0.5587867 α      lambda       -0.2269945E-01
   maximum displ.:     0.2302925 α      in ANC's #166, #186, #179, ...

........................................................................
.............................. CYCLE   27 ..............................
........................................................................

 iter      E             dE          RMSdq      gap      omega  full diag
   1   -231.7411612 -0.231741E+03  0.822E-01    3.56       0.0  T
   2   -231.7834803 -0.423191E-01  0.597E-01    3.60       1.0  T
   3   -231.7194339  0.640465E-01  0.903E-01    3.57       1.0  T
   4   -231.7797202 -0.602863E-01  0.594E-01    3.57       1.0  T
   5   -231.8035984 -0.238783E-01  0.354E-01    3.58       1.0  T
   6   -231.8123890 -0.879051E-02  0.231E-01    3.57       1.0  T
   7   -231.8134900 -0.110108E-02  0.182E-01    3.57       1.0  T
   8   -231.8148761 -0.138604E-02  0.139E-01    3.57       1.0  T
   9   -231.8152104 -0.334319E-03  0.117E-01    3.57       1.0  T
  10   -231.8146127  0.597651E-03  0.115E-01    3.56       1.0  T
  11   -231.8157904 -0.117767E-02  0.660E-02    3.56       1.0  T
  12   -231.8160042 -0.213768E-03  0.431E-02    3.56       1.0  T
  13   -231.8154266  0.577568E-03  0.761E-02    3.56       1.0  T
  14   -231.8161309 -0.704314E-03  0.226E-02    3.56       1.0  T
  15   -231.8161765 -0.455970E-04  0.137E-02    3.56       1.0  T
  16   -231.8161957 -0.191964E-04  0.415E-03    3.56       2.1  T
  17   -231.8161944  0.133301E-05  0.483E-03    3.56       1.8  T
  18   -231.8161966 -0.227057E-05  0.284E-03    3.56       3.1  T
  19   -231.8161975 -0.839486E-06  0.946E-04    3.56       9.3  T
  20   -231.8161974  0.125585E-06  0.141E-03    3.56       6.2  T
  21   -231.8161975 -0.179619E-06  0.725E-04    3.56      12.1  T
     SCC iter.                  ...        0 min,  0.267 sec
     gradient                   ...        0 min,  0.056 sec
 * total energy  :  -230.3756750 Eh     change       -0.1131502E-01 Eh
   gradient norm :     0.0842019 Eh/α   predicted    -0.1489360E-01 (  31.63%)
   displ. norm   :     0.6871971 α      lambda       -0.1981641E-01
   maximum displ.:     0.1669533 α      in ANC's #100, #103, #148, ...

........................................................................
[...]

 Bond Distances (Angstroems)
 ---------------------------
Fe1-O2=2.0800        Fe1-O7=2.0800        Fe1-H8=1.7232        Fe1-H9=1.6065        Fe1-O10=2.0800       Fe1-H11=1.7448       
Fe1-H12=1.6929       Fe1-O13=2.0800       Fe1-H15=1.6370       Fe1-O16=2.0800       Fe1-H18=1.7590       Fe1-O19=2.0800       
O2-Fe1=2.0800        O2-S3=1.4743         S3-O2=1.4743         S3-O4=1.4615         S3-O5=1.4671         S3-O6=1.4592         
O4-S3=1.4615         O5-S3=1.4671         O6-S3=1.4592         O7-Fe1=2.0800        O7-H8=0.9772         O7-H9=0.9715         
H8-Fe1=1.7232        H8-O7=0.9772         H9-Fe1=1.6065        H9-O7=0.9715         O10-Fe1=2.0800       O10-H11=0.9781       
O10-H12=0.9761       H11-Fe1=1.7448       H11-O10=0.9781       H12-Fe1=1.6929       H12-O10=0.9761       O13-Fe1=2.0800       
O13-H14=0.9768       O13-H15=0.9787       H14-O13=0.9768       H15-Fe1=1.6370       H15-O13=0.9787       O16-Fe1=2.0800       
O16-H17=0.9734       O16-H18=0.9824       H17-O16=0.9734       H18-Fe1=1.7590       H18-O16=0.9824       O19-Fe1=2.0800       
O19-H20=0.9749       O19-H21=0.9741       H20-O19=0.9749       H21-O19=0.9741       O22-H23=0.9000       O22-H24=0.9000       
H23-O22=0.9000       H24-O22=0.9000       H24-O67=1.2340       O25-H26=0.9000       O25-H27=0.9000       H26-O25=0.9000       
H27-O25=0.9000       O28-H29=0.9000       O28-H30=0.9000       H29-O28=0.9000       H30-O28=0.9000       O31-H32=0.9000       
O31-H33=0.9000       H32-O31=0.9000       H33-O31=0.9000       O34-H35=0.9000       O34-H36=0.9000       H35-O34=0.9000       
H36-O34=0.9000       O37-H38=0.9000       O37-H39=0.9000       H38-O37=0.9000       H39-O37=0.9000       O40-H41=0.9000       
O40-H42=0.9000       H41-O40=0.9000       H42-O40=0.9000       O43-H44=0.9000       O43-H45=0.9000       H44-O43=0.9000       
H45-O43=0.9000       O46-H47=0.9000       O46-H48=0.9000       H47-O46=0.9000       H48-O46=0.9000       O49-H50=0.9000       
O49-H51=0.9000       H50-O49=0.9000       H51-O49=0.9000       O52-H53=0.9000       O52-H54=0.9000       H53-O52=0.9000       
H54-O52=0.9000       O55-H56=0.9000       O55-H57=0.9000       H56-O55=0.9000       H57-O55=0.9000       O58-H59=0.9000       
O58-H60=0.9000       H59-O58=0.9000       H60-O58=0.9000       O61-H62=0.9000       O61-H63=0.9000       H62-O61=0.9000       
H63-O61=0.9000       O64-H65=0.9000       O64-H66=0.9000       H65-O64=0.9000       H66-O64=0.9000       O67-H24=1.2340       
O67-H68=0.9000       O67-H69=0.9000       H68-O67=0.9000       H69-O67=0.9000       O70-H71=0.9000       O70-H72=0.9000       
H71-O70=0.9000       H72-O70=0.9000       O73-H74=0.9000       O73-H75=0.9000       H74-O73=0.9000       H75-O73=0.9000       
O76-H77=0.9000       O76-H78=0.9000       H77-O76=0.9000       H78-O76=0.9000       O79-H80=0.9000       O79-H81=0.9000       
H80-O79=0.9000       H81-O79=0.9000       O82-H83=0.9000       O82-H84=0.9000       H83-O82=0.9000       H84-O82=0.9000       
O85-H86=0.9000       O85-H87=0.9000       H86-O85=0.9000       H87-O85=0.9000       O88-H89=0.9000       O88-H90=0.9000       
H89-O88=0.9000       H90-O88=0.9000       O91-H92=0.9000       O91-H93=0.9000       H92-O91=0.9000       H93-O91=0.9000       
O94-H95=0.9000       O94-H96=0.9000       H95-O94=0.9000       H96-O94=0.9000       O97-H98=0.9000       O97-H99=0.9000       
H98-O97=0.9000       H99-O97=0.9000       O100-H101=0.9000     O100-H102=0.9000     H101-O100=0.9000     H102-O100=0.9000     
O103-H104=0.9000     O103-H105=0.9000     H104-O103=0.9000     H105-O103=0.9000     O106-H107=0.9000     O106-H108=0.9000     
H107-O106=0.9000     H108-O106=0.9000     O109-H110=0.9000     O109-H111=0.9000     H110-O109=0.9000     H111-O109=0.9000     
O112-H113=0.9000     O112-H114=0.9000     H113-O112=0.9000     H114-O112=0.9000     O115-H116=0.9000     O115-H117=0.9000     
H116-O115=0.9000     H117-O115=0.9000     O118-H119=0.9000     O118-H120=0.9000     H119-O118=0.9000     H120-O118=0.9000     
O121-H122=0.9000     O121-H123=0.9000     H122-O121=0.9000     H123-O121=0.9000     O124-H125=0.9000     O124-H126=0.9000     
H125-O124=0.9000     H126-O124=0.9000     O127-H128=0.9000     O127-H129=0.9000     H128-O127=0.9000     H129-O127=0.9000     
 O  H  Rav=0.9132 sigma=0.0433  Rmin=0.9000  Rmax=1.2340    83
 S  O  Rav=1.4655 sigma=0.0058  Rmin=1.4592  Rmax=1.4743     4
 Fe H  Rav=1.6939 sigma=0.0556  Rmin=1.6065  Rmax=1.7590     6
 Fe O  Rav=2.0800 sigma=0.0000  Rmin=2.0800  Rmax=2.0800     6

 selected bond angles (degree)
 --------------------
O7-Fe1-O2= 90.00               H8-Fe1-O2= 90.75               H8-Fe1-O7= 27.80               H9-Fe1-O2= 81.80               
H9-Fe1-O7= 26.84               H9-Fe1-H8= 54.00               O10-Fe1-O2=180.00              O10-Fe1-O7= 90.00              
O10-Fe1-H8= 89.25              O10-Fe1-H9= 98.20              H11-Fe1-O2=152.09              H11-Fe1-O7= 83.35              
H11-Fe1-H8= 71.01              H11-Fe1-H9=102.53              H11-Fe1-O10= 27.91             H12-Fe1-O2=152.37              
H12-Fe1-O7= 78.76              H12-Fe1-H8= 90.69              H12-Fe1-H9= 76.83              H12-Fe1-O10= 27.63             
H12-Fe1-H11= 52.07             O13-Fe1-O2= 90.00              O13-Fe1-O7=180.00              O13-Fe1-H8=152.20              
O13-Fe1-H9=153.16              O13-Fe1-O10= 90.00             O13-Fe1-H11= 96.65             O13-Fe1-H12=101.24             
H15-Fe1-O2= 93.56              H15-Fe1-O7=152.64              H15-Fe1-H8=175.64              H15-Fe1-H9=127.33              
H15-Fe1-O10= 86.44             H15-Fe1-H11=104.75             H15-Fe1-H12= 85.79             H15-Fe1-O13= 27.36             
O16-Fe1-O2= 90.00              O16-Fe1-O7= 90.00              O16-Fe1-H8= 62.21              O16-Fe1-H9=115.36              
O16-Fe1-O10= 90.00             O16-Fe1-H11= 63.03             O16-Fe1-H12=114.88             O16-Fe1-O13= 90.00             
O16-Fe1-H15=117.09             H18-Fe1-O2= 81.12              H18-Fe1-O7=116.41              H18-Fe1-H8= 89.09              
H18-Fe1-H9=138.83              H18-Fe1-O10= 98.88             H18-Fe1-H11= 77.75             H18-Fe1-H12=126.49             
H18-Fe1-O13= 63.59             H18-Fe1-H15= 90.93             H18-Fe1-O16= 28.09             O19-Fe1-O2= 90.00              
O19-Fe1-O7= 90.00              O19-Fe1-H8=117.79              O19-Fe1-H9= 64.64              O19-Fe1-O10= 90.00             
O19-Fe1-H11=116.97             O19-Fe1-H12= 65.12             O19-Fe1-O13= 90.00             O19-Fe1-H15= 62.91             
O19-Fe1-O16=180.00             O19-Fe1-H18=151.91             S3-O2-Fe1=180.00               O4-S3-O2=104.78                
O5-S3-O2=104.03                O5-S3-O4=113.91                O6-S3-O2=104.33                O6-S3-O4=113.74                
O6-S3-O5=114.48                H8-O7-Fe1= 55.34               H9-O7-Fe1= 48.29               H9-O7-H8=102.08                
O7-H8-Fe1= 96.86               O7-H9-Fe1=104.88               H11-O10-Fe1= 56.62             H12-O10-Fe1= 53.54             
H12-O10-H11=101.16             

 selected dihedral angles (degree)
 ---------------------------------
S3-O2-Fe1-O7=  0.00           S3-O2-Fe1-H8=  0.00           S3-O2-Fe1-H9=  0.00           S3-O2-Fe1-O10=  0.00          
S3-O2-Fe1-H11=  0.00          S3-O2-Fe1-H12=  0.00          S3-O2-Fe1-O13=  0.00          S3-O2-Fe1-H15=  0.00          
S3-O2-Fe1-O16=  0.00          S3-O2-Fe1-H18=  0.00          S3-O2-Fe1-O19=  0.00          O4-S3-O2-Fe1=  0.00           
O5-S3-O2-Fe1=  0.00           O6-S3-O2-Fe1=  0.00           H8-O7-Fe1-O2= 91.61           H8-O7-Fe1-H9=163.18           
H8-O7-Fe1-O10=271.61          H8-O7-Fe1-H11=298.78          H8-O7-Fe1-H12=246.21          H8-O7-Fe1-O13=  0.00          
H8-O7-Fe1-H15=189.37          H8-O7-Fe1-O16=  1.61          H8-O7-Fe1-H18= 11.54          H8-O7-Fe1-O19=181.61          
H9-O7-Fe1-O2=288.43           H9-O7-Fe1-H8=196.82           H9-O7-Fe1-O10=108.43          H9-O7-Fe1-H11=135.60          
H9-O7-Fe1-H12= 83.02          H9-O7-Fe1-O13=  0.00          H9-O7-Fe1-H15= 26.18          H9-O7-Fe1-O16=198.43          
H9-O7-Fe1-H18=208.35          H9-O7-Fe1-O19= 18.43          O7-H8-Fe1-O2=271.42           O7-H8-Fe1-H9=350.71           
O7-H8-Fe1-O10= 91.42          O7-H8-Fe1-H11=112.97          O7-H8-Fe1-H12= 63.83          O7-H8-Fe1-O13=180.00          
O7-H8-Fe1-H15=100.02          O7-H8-Fe1-O16=181.82          O7-H8-Fe1-H18=190.32          O7-H8-Fe1-O19=  1.82          
Fe1-H8-O7-H9= 12.76           O7-H9-Fe1-O2=106.56           O7-H9-Fe1-H8=  9.60           O7-H9-Fe1-O10=286.56          
O7-H9-Fe1-H11=314.61          O7-H9-Fe1-H12=268.92          O7-H9-Fe1-O13=180.00          O7-H9-Fe1-H15=194.77          
O7-H9-Fe1-O16= 20.47          O7-H9-Fe1-H18= 40.25          O7-H9-Fe1-O19=200.47          Fe1-H9-O7-H8=345.92           
H11-O10-Fe1-O2=  0.00         H11-O10-Fe1-O7= 75.68         H11-O10-Fe1-H8= 47.89         H11-O10-Fe1-H9=101.32         
H11-O10-Fe1-H12=140.82        H11-O10-Fe1-O13=255.68        H11-O10-Fe1-H15=228.54        H11-O10-Fe1-O16=345.68        
H11-O10-Fe1-H18=318.92        H11-O10-Fe1-O19=165.68        H12-O10-Fe1-O2=  0.00         H12-O10-Fe1-O7=294.86         
H12-O10-Fe1-H8=267.07         H12-O10-Fe1-H9=320.50         H12-O10-Fe1-H11=219.18        H12-O10-Fe1-O13=114.86        
H12-O10-Fe1-H15= 87.72        H12-O10-Fe1-O16=204.86        H12-O10-Fe1-H18=178.10        H12-O10-Fe1-O19= 24.86        

 CMA Distance (Angstroems)
 ---------------------------
R(CMA):  1.2361
           -------------------------------------------------
          |                Final Singlepoint                |
           -------------------------------------------------

          ...................................................
          :                      SETUP                      :
          :.................................................:
          :  # basis functions                 282          :
          :  # atomic orbitals                 280          :
          :  # shells                          178          :
          :  # electrons                       363          :
          :  max. iterations                   250          :
          :  Hamiltonian                  GFN2-xTB          :
          :  restarted?                      false          :
          :  GBSA solvation                   true          :
          :  PC potential                    false          :
          :  electronic temp.          300.0000000     K    :
          :  accuracy                    1.0000000          :
          :  -> integral cutoff          0.2500000E+02      :
          :  -> integral neglect         0.1000000E-07      :
          :  -> SCF convergence          0.1000000E-05 Eh   :
          :  -> wf. convergence          0.1000000E-03 e    :
          :  Broyden damping             0.4000000          :
          ...................................................

 iter      E             dE          RMSdq      gap      omega  full diag
   1   -167.0515864 -0.167052E+03  0.322E+01    0.11       0.0  T
   2   -222.0960860 -0.550445E+02  0.162E+01    2.48       1.0  T
   3   -228.5516704 -0.645558E+01  0.889E+00    0.93       1.0  T
   4   -229.5603717 -0.100870E+01  0.836E+00    0.52       1.0  T
   5   -229.3933791  0.166993E+00  0.763E+00    0.45       1.0  T
   6   -228.1010701  0.129231E+01  0.726E+00    0.22       1.0  T
   7   -229.9159618 -0.181489E+01  0.574E+00    0.45       1.0  T
   8   -230.3058004 -0.389839E+00  0.482E+00    1.18       1.0  T
   9   -231.1648028 -0.859002E+00  0.350E+00    0.11       1.0  T
  10   -231.2273799 -0.625771E-01  0.316E+00    0.08       1.0  T
  11   -231.2602561 -0.328761E-01  0.260E+00    0.09       1.0  T
  12   -231.2817725 -0.215165E-01  0.245E+00    0.10       1.0  T
  13   -231.3988801 -0.117108E+00  0.211E+00    0.12       1.0  T
  14   -229.3199642  0.207892E+01  0.480E+00    0.03       1.0  T
  15   -229.7759291 -0.455965E+00  0.433E+00    0.03       1.0  T
  16   -229.7416667  0.342624E-01  0.441E+00    0.01       1.0  T
  17   -229.7815281 -0.398614E-01  0.434E+00    0.05       1.0  T
  18   -229.7764304  0.509773E-02  0.426E+00    0.01       1.0  T
  19   -230.4358338 -0.659403E+00  0.358E+00    0.14       1.0  T
  20   -230.7538069 -0.317973E+00  0.315E+00    0.29       1.0  T
  21   -231.3648906 -0.611084E+00  0.219E+00    0.36       1.0  T
  22   -231.4023592 -0.374686E-01  0.198E+00    0.27       1.0  T
  23   -231.7240375 -0.321678E+00  0.106E+00    0.22       1.0  T
  24   -231.7401778 -0.161403E-01  0.106E+00    0.21       1.0  T
  25   -231.7820563 -0.418785E-01  0.772E-01    0.21       1.0  T
  26   -231.7688541  0.132022E-01  0.833E-01    0.21       1.0  T
  27   -231.6826875  0.861666E-01  0.117E+00    0.19       1.0  T
  28   -231.6484832  0.342042E-01  0.133E+00    0.18       1.0  T
  29   -231.5330584  0.115425E+00  0.181E+00    0.30       1.0  T
  30   -231.5659538 -0.328954E-01  0.155E+00    0.22       1.0  T
  31   -231.7537553 -0.187802E+00  0.800E-01    0.20       1.0  T
  32   -231.5864463  0.167309E+00  0.157E+00    0.19       1.0  T
  33   -231.5535489  0.328973E-01  0.166E+00    0.20       1.0  T
  34   -231.5320521  0.214968E-01  0.175E+00    0.19       1.0  T
  35   -231.5361377 -0.408558E-02  0.166E+00    0.22       1.0  T
  36   -231.5862865 -0.501488E-01  0.149E+00    0.26       1.0  T
  37   -231.7576286 -0.171342E+00  0.108E+00    0.28       1.0  T
  38   -231.7698298 -0.122012E-01  0.900E-01    0.27       1.0  T
  39   -231.7936835 -0.238537E-01  0.750E-01    0.26       1.0  T
  40   -231.7957813 -0.209778E-02  0.709E-01    0.25       1.0  T
  41   -231.7965616 -0.780281E-03  0.609E-01    0.24       1.0  T
  42   -231.7945694  0.199219E-02  0.486E-01    0.21       1.0  T
  43   -231.8073254 -0.127561E-01  0.326E-01    0.21       1.0  T
  44   -231.7782502  0.290752E-01  0.579E-01    0.22       1.0  T
  45   -231.7867363 -0.848613E-02  0.515E-01    0.22       1.0  T
  46   -231.8132482 -0.265118E-01  0.268E-01    0.21       1.0  T
  47   -231.8134486 -0.200455E-03  0.269E-01    0.21       1.0  T
  48   -231.8158061 -0.235744E-02  0.153E-01    0.21       1.0  T
  49   -231.8139717  0.183435E-02  0.210E-01    0.21       1.0  T
  50   -231.8162148 -0.224306E-02  0.139E-01    0.20       1.0  T
  51   -231.8154180  0.796774E-03  0.156E-01    0.20       1.0  T
  52   -231.8161215 -0.703538E-03  0.123E-01    0.20       1.0  T
  53   -231.8156376  0.483919E-03  0.139E-01    0.20       1.0  T
  54   -231.8164239 -0.786321E-03  0.111E-01    0.20       1.0  T
  55   -231.8174655 -0.104152E-02  0.615E-02    0.20       1.0  T
  56   -231.8176234 -0.157959E-03  0.428E-02    0.20       1.0  T
  57   -231.8175702  0.531819E-04  0.470E-02    0.20       1.0  T
  58   -231.8176780 -0.107795E-03  0.282E-02    0.20       1.0  T
  59   -231.8177097 -0.316358E-04  0.216E-02    0.20       1.0  T
  60   -231.8177377 -0.280051E-04  0.143E-02    0.20       1.0  T
  61   -231.8177205  0.171847E-04  0.211E-02    0.20       1.0  T
  62   -231.8177211 -0.630142E-06  0.207E-02    0.20       1.0  T
  63   -231.8177518 -0.307233E-04  0.834E-03    0.20       1.1  T
  64   -231.8177515  0.391800E-06  0.801E-03    0.20       1.1  T
  65   -231.8177556 -0.413507E-05  0.634E-03    0.20       1.4  T
  66   -231.8177569 -0.134646E-05  0.401E-03    0.20       2.2  T
  67   -231.8177567  0.193455E-06  0.383E-03    0.20       2.3  T
  68   -231.8177576 -0.902683E-06  0.260E-03    0.20       3.4  T
  69   -231.8177577 -0.789882E-07  0.218E-03    0.20       4.0  T
  70   -231.8177578 -0.125297E-06  0.184E-03    0.20       4.8  T
  71   -231.8177578  0.260804E-07  0.184E-03    0.20       4.8  T
  72   -231.8177580 -0.211872E-06  0.126E-03    0.20       7.0  T
  73   -231.8177581 -0.754480E-07  0.976E-04    0.20       9.0  T
  74   -231.8177582 -0.913916E-07  0.378E-04    0.20      23.3  T

   *** convergence criteria satisfied after 74 iterations ***

         #    Occupation            Energy/Eh            Energy/eV
      -------------------------------------------------------------
         1        2.0000           -0.8011883             -21.8014
       ...           ...                  ...                  ...
       178        1.8735           -0.4384920             -11.9320
       179        1.7863           -0.4378941             -11.9157
       180        1.6854           -0.4373961             -11.9022
       181        1.4848           -0.4365989             -11.8805
       182        1.2312           -0.4355148             -11.8510
       183        1.1150           -0.4347182             -11.8293
       184        0.9798           -0.3897631             -10.6060 (HOMO)
       185        0.0202           -0.3823853             -10.4052 (LUMO)
       186                         -0.1314222              -3.5762
       187                         -0.0586408              -1.5957
       188                         -0.0515975              -1.4040
       189                         -0.0065872              -0.1792
       ...                                ...                  ...
       280                          2.9806517              81.1077
      -------------------------------------------------------------
                  HL-Gap            0.0073778 Eh            0.2008 eV
             Fermi-level           -0.4113654 Eh          -11.1938 eV

 SCC (total)                   0 d,  0 h,  0 min,  0.918 sec
 SCC setup                      ...        0 min,  0.002 sec (  0.243%)
 Dispersion                     ...        0 min,  0.001 sec (  0.115%)
 classical contributions        ...        0 min,  0.000 sec (  0.035%)
 integral evaluation            ...        0 min,  0.006 sec (  0.683%)
 iterations                     ...        0 min,  0.848 sec ( 92.315%)
 molecular gradient             ...        0 min,  0.059 sec (  6.477%)
 printout                       ...        0 min,  0.001 sec (  0.128%)

         :::::::::::::::::::::::::::::::::::::::::::::::::::::
         ::                     SUMMARY                     ::
         :::::::::::::::::::::::::::::::::::::::::::::::::::::
         :: total energy            -229.444796299228 Eh    ::
         :: total w/o Gsasa/hb      -229.185211983775 Eh    ::
         :: gradient norm              0.779426785087 Eh/a0 ::
         :: HOMO-LUMO gap              0.200758975116 eV    ::
         ::.................................................::
         :: SCC energy              -231.817758199258 Eh    ::
         :: -> isotropic ES            1.768436316969 Eh    ::
         :: -> anisotropic ES         -0.084070985609 Eh    ::
         :: -> anisotropic XC         -0.045752803903 Eh    ::
         :: -> dispersion             -0.056445656964 Eh    ::
         :: -> Gsolv                  -0.907503717054 Eh    ::
         ::    -> Gelec               -0.647919401600 Eh    ::
         ::    -> Gsasa                0.042675654809 Eh    ::
         ::    -> Ghb                 -0.303340729961 Eh    ::
         ::    -> Gshift               0.001080759698 Eh    ::
         :: repulsion energy           2.370184844545 Eh    ::
         :: add. restraining           0.000000000000 Eh    ::
         :: total charge               3.000000000325 e     ::
         :::::::::::::::::::::::::::::::::::::::::::::::::::::


last geometry written to: xtblast.xyz

########################################################################
[ERROR] Program stopped due to fatal error
-7- Geometry optimization failed
-6- xtb_geoopt: Trying to recover from failed geometry optimization
-5- xtb_geoopt: Geometry optimization did not converge
-4- optimizer_ancopt: Could not relax structure
-3- optimizer_relax: SCF not converged, aborting...
-2- xtb_calculator_singlepoint: Electronic structure method terminated
-1- scf: Self consistent charge iterator did not converge
########################################################################
