      -----------------------------------------------------------      
     |                   =====================                   |     
     |                           x T B                           |     
     |                   =====================                   |     
     |                         S. Grimme                         |     
     |          Mulliken Center for Theoretical Chemistry        |     
     |                    University of Bonn                     |     
      -----------------------------------------------------------      

   * xtb version 6.6.0 (conda-forge) compiled by 'runner@Mac-1676020848589.local' on 2023-02-10

   xtb is free software: you can redistribute it and/or modify it under
   the terms of the GNU Lesser General Public License as published by
   the Free Software Foundation, either version 3 of the License, or
   (at your option) any later version.
   
   xtb is distributed in the hope that it will be useful,
   but WITHOUT ANY WARRANTY; without even the implied warranty of
   MERCHANTABILITY or FITNESS FOR A PARTICULAR PURPOSE.  See the
   GNU Lesser General Public License for more details.
   
   Cite this work as:
   * C. Bannwarth, E. Caldeweyher, S. Ehlert, A. Hansen, P. Pracht,
     J. Seibert, S. Spicher, S. Grimme, WIREs Comput. Mol. Sci., 2020, 11,
     e01493. DOI: 10.1002/wcms.1493
   
   for GFN2-xTB:
   * C. Bannwarth, S. Ehlert and S. Grimme., J. Chem. Theory Comput., 2019,
     15, 1652-1671. DOI: 10.1021/acs.jctc.8b01176
   for GFN1-xTB:
   * S. Grimme, C. Bannwarth, P. Shushkov, J. Chem. Theory Comput., 2017,
     13, 1989-2009. DOI: 10.1021/acs.jctc.7b00118
   for GFN0-xTB:
   * P. Pracht, E. Caldeweyher, S. Ehlert, S. Grimme, ChemRxiv, 2019, preprint.
     DOI: 10.26434/chemrxiv.8326202.v1
   for GFN-FF:
   * S. Spicher and S. Grimme, Angew. Chem. Int. Ed., 2020, 59, 15665-15673.
     DOI: 10.1002/anie.202004239
   
   for ALPB and GBSA implicit solvation:
   * S. Ehlert, M. Stahn, S. Spicher, S. Grimme, J. Chem. Theory Comput.,
     2021, 17, 4250-4261. DOI: 10.1021/acs.jctc.1c00471
   
   for DFT-D4:
   * E. Caldeweyher, C. Bannwarth and S. Grimme, J. Chem. Phys., 2017,
     147, 034112. DOI: 10.1063/1.4993215
   * E. Caldeweyher, S. Ehlert, A. Hansen, H. Neugebauer, S. Spicher,
     C. Bannwarth and S. Grimme, J. Chem. Phys., 2019, 150, 154122.
     DOI: 10.1063/1.5090222
   * E. Caldeweyher, J.-M. Mewes, S. Ehlert and S. Grimme, Phys. Chem. Chem. Phys.
     2020, 22, 8499-8512. DOI: 10.1039/D0CP00502A
   
   for sTDA-xTB:
   * S. Grimme and C. Bannwarth, J. Chem. Phys., 2016, 145, 054103.
     DOI: 10.1063/1.4959605
   
   in the mass-spec context:
   * V. Asgeirsson, C. Bauer and S. Grimme, Chem. Sci., 2017, 8, 4879.
     DOI: 10.1039/c7sc00601b
   * J. Koopman and S. Grimme, ACS Omega 2019, 4, 12, 15120-15133.
     DOI: 10.1021/acsomega.9b02011
   
   for metadynamics refer to:
   * S. Grimme, J. Chem. Theory Comput., 2019, 155, 2847-2862
     DOI: 10.1021/acs.jctc.9b00143
   
   for SPH calculations refer to:
   * S. Spicher and S. Grimme, J. Chem. Theory Comput., 2021, 17, 1701-1714
     DOI: 10.1021/acs.jctc.0c01306
   
   with help from (in alphabetical order)
   P. Atkinson, C. Bannwarth, F. Bohle, G. Brandenburg, E. Caldeweyher
   M. Checinski, S. Dohm, S. Ehlert, S. Ehrlich, I. Gerasimov, C. Hölzer
   A. Katbashev, J. Koopman, C. Lavigne, S. Lehtola, F. März, M. Müller,
   F. Musil, H. Neugebauer, J. Pisarek, C. Plett, P. Pracht, F. Pultar,
   J. Seibert, P. Shushkov, S. Spicher, M. Stahn, M. Steiner, T. Strunk,
   J. Stückrath, T. Rose, and J. Unsleber
   
 * started run on 2024/05/29 at 10:51:17.410     

           -------------------------------------------------
          |                Calculation Setup                |
           -------------------------------------------------

          program call               : xtb monosubstituted_Sulfate_solvated_radius_5_solvated_radius_7.xyz --opt extreme --gfn2 --chrg 2 --uhf 5 --alpb water
          coordinate file            : monosubstituted_Sulfate_solvated_radius_5_solvated_radius_7.xyz
          omp threads                :                     8

   ID    Z sym.   atoms
    1   26 Fe     1
    2    8 O      2, 4-7, 10, 13, 16, 19, 22, 25, 28, 31, 34, 37, 40, 43, 46,
                  49, 52, 55, 58, 61, 64, 67, 70, 73, 76, 79, 82, 85, 88, 91,
                  94, 97, 100, 103, 106, 109, 112, 115, 118, 121, 124, 127
    3   16 S      3
    4    1 H      8, 9, 11, 12, 14, 15, 17, 18, 20, 21, 23, 24, 26, 27, 29,
                  30, 32, 33, 35, 36, 38, 39, 41, 42, 44, 45, 47, 48, 50, 51,
                  53, 54, 56, 57, 59, 60, 62, 63, 65, 66, 68, 69, 71, 72, 74,
                  75, 77, 78, 80, 81, 83, 84, 86, 87, 89, 90, 92, 93, 95, 96,
                  98, 99, 101, 102, 104, 105, 107, 108, 110, 111, 113, 114,
                  116, 117, 119, 120, 122, 123, 125, 126, 128, 129

molecular fragmentation (1/2 indicates fragments):
111111111111111222222222222222222222222222222222222222222222222222222222
222222222222222222222222222222222222222222222222222222222
# atoms in fragment 1/2:    15   114
 fragment masses (1/2) :      205.95      684.58
CMA distance (Bohr)    :   2.336
constraining FC (au)   :  0.0500

           -------------------------------------------------
          |                 G F N 2 - x T B                 |
           -------------------------------------------------

        Reference                      10.1021/acs.jctc.8b01176
      * Hamiltonian:
        H0-scaling (s, p, d)           1.850000    2.230000    2.230000
        zeta-weighting                 0.500000
      * Dispersion:
        s8                             2.700000
        a1                             0.520000
        a2                             5.000000
        s9                             5.000000
      * Repulsion:
        kExp                           1.500000    1.000000
        rExp                           1.000000
      * Coulomb:
        alpha                          2.000000
        third order                    shell-resolved
        anisotropic                    true
        a3                             3.000000
        a5                             4.000000
        cn-shift                       1.200000
        cn-exp                         4.000000
        max-rad                        5.000000

      * Solvation model:               ALPB
        Solvent                        water
        Parameter file                 internal GFN2-xTB/ALPB
        Dielectric constant                8.0200E+01
        Reference state                gsolv [1 M gas/solution]
        Free energy shift                  1.0808E-03 Eh       6.7819E-01 kcal/mol
        Temperature                        2.9815E+02 K
        Density                            1.0000E+00 kg/L
        Solvent mass                       1.8000E+01 g/mol
        Interaction kernel             P16
        Born radius scaling (c1)           1.4744E+00
        Born radii integrator          GBOBC
        Born offset                        0.0000E+00 a0       0.0000E+00 AA
        H-bond correction              true
        Ion screening                  false
        Surface tension                    1.0000E-05 Eh       1.5569E+01 dyn/cm
        Grid points                               230 per atom
q/qsh data taken from xtbrestart
CAMM data taken from xtbrestart

          ...................................................
          :                      SETUP                      :
          :.................................................:
          :  # basis functions                 282          :
          :  # atomic orbitals                 280          :
          :  # shells                          178          :
          :  # electrons                       364          :
          :  max. iterations                   250          :
          :  Hamiltonian                  GFN2-xTB          :
          :  restarted?                       true          :
          :  GBSA solvation                   true          :
          :  PC potential                    false          :
          :  electronic temp.          300.0000000     K    :
          :  accuracy                    1.0000000          :
          :  -> integral cutoff          0.2500000E+02      :
          :  -> integral neglect         0.1000000E-07      :
          :  -> SCF convergence          0.1000000E-05 Eh   :
          :  -> wf. convergence          0.1000000E-03 e    :
          :  Broyden damping             0.4000000          :
          ...................................................

 iter      E             dE          RMSdq      gap      omega  full diag
   1   -231.3512257 -0.231351E+03  0.392E+00    0.20       0.0  T
   2   -231.6341243 -0.282899E+00  0.332E+00    0.06       1.0  T
   3   -231.8677449 -0.233621E+00  0.233E+00    0.15       1.0  T
   4   -231.9375640 -0.698192E-01  0.200E+00    0.18       1.0  T
   5   -229.8384778  0.209909E+01  0.454E+00    0.41       1.0  T
   6   -231.8473932 -0.200892E+01  0.204E+00    0.39       1.0  T
   7   -232.0462015 -0.198808E+00  0.146E+00    0.33       1.0  T
   8   -232.1407109 -0.945094E-01  0.107E+00    0.30       1.0  T
   9   -232.1043756  0.363354E-01  0.135E+00    0.21       1.0  T
  10   -232.0999244  0.445120E-02  0.131E+00    0.21       1.0  T
  11   -232.1263910 -0.264667E-01  0.114E+00    0.21       1.0  T
  12   -232.0308386  0.955524E-01  0.147E+00    0.18       1.0  T
  13   -231.9828540  0.479846E-01  0.163E+00    0.18       1.0  T
  14   -232.1959175 -0.213063E+00  0.773E-01    0.21       1.0  T
  15   -232.2031947 -0.727717E-02  0.718E-01    0.21       1.0  T
  16   -232.2059838 -0.278917E-02  0.683E-01    0.21       1.0  T
  17   -232.2139826 -0.799875E-02  0.613E-01    0.21       1.0  T
  18   -232.2248716 -0.108890E-01  0.516E-01    0.21       1.0  T
  19   -232.2214742  0.339739E-02  0.527E-01    0.21       1.0  T
  20   -232.2361575 -0.146833E-01  0.391E-01    0.21       1.0  T
  21   -232.2360079  0.149677E-03  0.436E-01    0.21       1.0  T
  22   -232.2384007 -0.239279E-02  0.414E-01    0.20       1.0  T
  23   -232.2436509 -0.525027E-02  0.294E-01    0.20       1.0  T
  24   -232.2402484  0.340258E-02  0.327E-01    0.19       1.0  T
  25   -232.2471263 -0.687796E-02  0.251E-01    0.20       1.0  T
  26   -232.2468509  0.275445E-03  0.254E-01    0.20       1.0  T
  27   -232.2456776  0.117324E-02  0.262E-01    0.20       1.0  T
  28   -232.2447046  0.972998E-03  0.259E-01    0.21       1.0  T
  29   -232.2485152 -0.381053E-02  0.161E-01    0.21       1.0  T
  30   -232.2499139 -0.139873E-02  0.111E-01    0.21       1.0  T
  31   -232.2503240 -0.410160E-03  0.831E-02    0.21       1.0  T
  32   -232.2504777 -0.153607E-03  0.712E-02    0.21       1.0  T
  33   -232.2508724 -0.394734E-03  0.301E-02    0.21       1.0  T
  34   -232.2508903 -0.179415E-04  0.268E-02    0.21       1.0  T
  35   -232.2509450 -0.547122E-04  0.144E-02    0.21       1.0  T
  36   -232.2509437  0.129245E-05  0.131E-02    0.21       1.0  T
  37   -232.2509542 -0.104148E-04  0.840E-03    0.21       1.0  T
  38   -232.2509606 -0.647025E-05  0.291E-03    0.21       3.0  T
  39   -232.2509611 -0.494506E-06  0.182E-03    0.21       4.8  T
  40   -232.2509613 -0.122930E-06  0.149E-03    0.21       5.9  T
  41   -232.2509614 -0.138696E-06  0.860E-04    0.21      10.2  T
  42   -232.2509615 -0.707039E-07  0.304E-04    0.21      28.9  T

   *** convergence criteria satisfied after 42 iterations ***

         #    Occupation            Energy/Eh            Energy/eV
      -------------------------------------------------------------
         1        2.0000           -0.7948154             -21.6280
       ...           ...                  ...                  ...
       178        1.9202           -0.4316817             -11.7467
       179        1.8409           -0.4309402             -11.7265
       180        1.7658           -0.4304842             -11.7141
       181        1.5675           -0.4296167             -11.6905
       182        1.2898           -0.4285074             -11.6603
       183        1.1406           -0.4276387             -11.6366
       184        0.9837           -0.3832645             -10.4292 (HOMO)
       185        0.0163           -0.3754710             -10.2171 (LUMO)
       186                         -0.1258555              -3.4247
       187                         -0.0532687              -1.4495
       188                         -0.0479570              -1.3050
       189                         -0.0010380              -0.0282
       ...                                ...                  ...
       280                          2.9757852              80.9752
      -------------------------------------------------------------
                  HL-Gap            0.0077935 Eh            0.2121 eV
             Fermi-level           -0.4043633 Eh          -11.0033 eV

 SCC (total)                   0 d,  0 h,  0 min,  0.741 sec
 SCC setup                      ...        0 min,  0.004 sec (  0.513%)
 Dispersion                     ...        0 min,  0.002 sec (  0.253%)
 classical contributions        ...        0 min,  0.001 sec (  0.068%)
 integral evaluation            ...        0 min,  0.007 sec (  0.965%)
 iterations                     ...        0 min,  0.662 sec ( 89.341%)
 molecular gradient             ...        0 min,  0.064 sec (  8.654%)
 printout                       ...        0 min,  0.001 sec (  0.201%)

         :::::::::::::::::::::::::::::::::::::::::::::::::::::
         ::                     SUMMARY                     ::
         :::::::::::::::::::::::::::::::::::::::::::::::::::::
         :: total energy            -229.877999560270 Eh    ::
         :: total w/o Gsasa/hb      -229.623529566204 Eh    ::
         :: gradient norm              0.774616726687 Eh/a0 ::
         :: HOMO-LUMO gap              0.212071675955 eV    ::
         ::.................................................::
         :: SCC energy              -232.250961460299 Eh    ::
         :: -> isotropic ES            1.667563130273 Eh    ::
         :: -> anisotropic ES         -0.079248518068 Eh    ::
         :: -> anisotropic XC         -0.047334621253 Eh    ::
         :: -> dispersion             -0.057051330952 Eh    ::
         :: -> Gsolv                  -0.710768768649 Eh    ::
         ::    -> Gelec               -0.456298774583 Eh    ::
         ::    -> Gsasa                0.042675654809 Eh    ::
         ::    -> Ghb                 -0.298226408573 Eh    ::
         ::    -> Gshift               0.001080759698 Eh    ::
         :: repulsion energy           2.370184844545 Eh    ::
         :: add. restraining           0.000000000000 Eh    ::
         :: total charge               2.000000106272 e     ::
         :::::::::::::::::::::::::::::::::::::::::::::::::::::

      ----------------------------------------------------------- 
     |                   =====================                   |
     |                        A N C O P T                        |
     |                   =====================                   |
     |               Approximate Normal Coordinate               |
     |                Rational Function Optimizer                |
      ----------------------------------------------------------- 

          ...................................................
          :                      SETUP                      :
          :.................................................:
          :   optimization level           extreme          :
          :   max. optcycles                  2580          :
          :   ANC micro-cycles                  20          :
          :   degrees of freedom               381          :
          :.................................................:
          :   RF solver                   davidson          :
          :   write xtbopt.log                true          :
          :   linear?                        false          :
          :   energy convergence         0.5000000E-07 Eh   :
          :   grad. convergence          0.5000000E-04 Eh/α :
          :   maxmium RF displ.          1.0000000          :
          :   Hlow (freq-cutoff)         0.1000000E-01      :
          :   Hmax (freq-cutoff)         5.0000000          :
          :   S6 in model hess.         20.0000000          :
          ...................................................

generating ANC from model Hessian ...
Using Lindh-Hessian (1995)
 Shifting diagonal of input Hessian by    1.0554383068606074E-002
 Lowest  eigenvalues of input Hessian
    0.010000    0.010145    0.010279    0.010282    0.010288    0.010302
    0.010305    0.010311    0.010327    0.010366    0.010372    0.010381
    0.010393    0.010410    0.010412    0.010416    0.010426    0.010438
 Highest eigenvalues
    1.811155    1.890109    1.962208    3.080770    3.541869    3.569957


........................................................................
.............................. CYCLE    1 ..............................
........................................................................

 iter      E             dE          RMSdq      gap      omega  full diag
   1   -232.2509615 -0.232251E+03  0.359E-04    0.21       0.0  T
   2   -232.2509598  0.167328E-05  0.400E-03    0.21       2.2  T
   3   -232.2509614 -0.162919E-05  0.704E-04    0.21      12.5  T
   4   -232.2509615 -0.476597E-07  0.283E-04    0.21      31.1  T
   5   -232.2509615 -0.338969E-08  0.227E-04    0.21      38.8  T
     SCC iter.                  ...        0 min,  0.086 sec
     gradient                   ...        0 min,  0.067 sec
 * total energy  :  -229.8779996 Eh     change       -0.4658716E-08 Eh
   gradient norm :     0.7745577 Eh/α   predicted     0.0000000E+00 (-100.00%)
   displ. norm   :     0.6185453 α      lambda       -0.4251171E+00
   maximum displ.:     0.1148195 α      in ANC's #246, #289, #287, ...

........................................................................
.............................. CYCLE    2 ..............................
........................................................................

 iter      E             dE          RMSdq      gap      omega  full diag
   1   -231.7878461 -0.231788E+03  0.125E+00    0.32       0.0  T
   2   -229.6001522  0.218769E+01  0.449E+00    0.24       1.0  T
   3   -231.6557918 -0.205564E+01  0.160E+00    0.45       1.0  T
   4   -231.7081934 -0.524016E-01  0.146E+00    0.37       1.0  T
   5   -231.8156911 -0.107498E+00  0.112E+00    0.38       1.0  T
   6   -231.8857905 -0.700994E-01  0.849E-01    0.37       1.0  T
   7   -231.9397997 -0.540092E-01  0.421E-01    0.35       1.0  T
   8   -231.9197414  0.200583E-01  0.564E-01    0.35       1.0  T
   9   -231.9145845  0.515690E-02  0.575E-01    0.35       1.0  T
  10   -231.9201708 -0.558631E-02  0.553E-01    0.33       1.0  T
  11   -231.9349546 -0.147839E-01  0.434E-01    0.31       1.0  T
  12   -231.9390676 -0.411295E-02  0.364E-01    0.31       1.0  T
  13   -231.9398411 -0.773525E-03  0.336E-01    0.31       1.0  T
  14   -231.9373950  0.244614E-02  0.354E-01    0.31       1.0  T
  15   -231.9491228 -0.117278E-01  0.128E-01    0.31       1.0  T
  16   -231.9503236 -0.120079E-02  0.772E-02    0.31       1.0  T
  17   -231.9506219 -0.298312E-03  0.570E-02    0.31       1.0  T
  18   -231.9504624  0.159499E-03  0.638E-02    0.31       1.0  T
  19   -231.9506622 -0.199819E-03  0.375E-02    0.32       1.0  T
  20   -231.9507098 -0.476179E-04  0.305E-02    0.32       1.0  T
  21   -231.9507033  0.649437E-05  0.324E-02    0.32       1.0  T
  22   -231.9507572 -0.538819E-04  0.211E-02    0.32       1.0  T
  23   -231.9507817 -0.244827E-04  0.146E-02    0.32       1.0  T
  24   -231.9507966 -0.148716E-04  0.782E-03    0.32       1.1  T
  25   -231.9508006 -0.403062E-05  0.449E-03    0.32       2.0  T
  26   -231.9508011 -0.555105E-06  0.337E-03    0.32       2.6  T
  27   -231.9508017 -0.563353E-06  0.202E-03    0.32       4.4  T
  28   -231.9508012  0.537468E-06  0.292E-03    0.32       3.0  T
  29   -231.9508020 -0.879094E-06  0.797E-04    0.32      11.0  T
  30   -231.9508021 -0.178238E-07  0.669E-04    0.32      13.2  T
     SCC iter.                  ...        0 min,  0.446 sec
     gradient                   ...        0 min,  0.065 sec
 * total energy  :  -230.1687587 Eh     change       -0.2907591E+00 Eh
   gradient norm :     0.3558356 Eh/α   predicted    -0.2938985E+00 (   1.08%)
   displ. norm   :     0.6518524 α      lambda       -0.1844132E+00
   maximum displ.:     0.1706842 α      in ANC's #246, #238, #245, ...

........................................................................
.............................. CYCLE    3 ..............................
........................................................................

 iter      E             dE          RMSdq      gap      omega  full diag
   1   -231.5185747 -0.231519E+03  0.161E+00    0.55       0.0  T
   2   -229.2035214  0.231505E+01  0.472E+00    0.29       1.0  T
   3   -231.4637480 -0.226023E+01  0.169E+00    0.69       1.0  T
   4   -231.6868571 -0.223109E+00  0.102E+00    0.63       1.0  T
   5   -231.7254990 -0.386419E-01  0.690E-01    0.62       1.0  T
   6   -231.7107131  0.147860E-01  0.785E-01    0.61       1.0  T
   7   -231.7338256 -0.231125E-01  0.594E-01    0.60       1.0  T
   8   -231.7427649 -0.893931E-02  0.501E-01    0.60       1.0  T
   9   -231.7465737 -0.380877E-02  0.433E-01    0.59       1.0  T
  10   -231.7557276 -0.915392E-02  0.239E-01    0.57       1.0  T
  11   -231.7567187 -0.991153E-03  0.185E-01    0.56       1.0  T
  12   -231.7379628  0.187559E-01  0.452E-01    0.55       1.0  T
  13   -231.7545137 -0.165509E-01  0.226E-01    0.55       1.0  T
  14   -231.7580330 -0.351928E-02  0.134E-01    0.54       1.0  T
  15   -231.7590360 -0.100298E-02  0.892E-02    0.54       1.0  T
  16   -231.7585800  0.455991E-03  0.108E-01    0.55       1.0  T
  17   -231.7586650 -0.849900E-04  0.103E-01    0.55       1.0  T
  18   -231.7594927 -0.827682E-03  0.429E-02    0.55       1.0  T
  19   -231.7596356 -0.142914E-03  0.293E-02    0.55       1.0  T
  20   -231.7595860  0.495991E-04  0.372E-02    0.55       1.0  T
  21   -231.7596197 -0.336878E-04  0.290E-02    0.55       1.0  T
  22   -231.7596577 -0.380373E-04  0.188E-02    0.55       1.0  T
  23   -231.7596861 -0.283844E-04  0.770E-03    0.55       1.1  T
  24   -231.7596877 -0.161135E-05  0.589E-03    0.55       1.5  T
  25   -231.7596889 -0.124549E-05  0.438E-03    0.55       2.0  T
  26   -231.7596903 -0.137831E-05  0.249E-03    0.55       3.5  T
  27   -231.7596909 -0.560522E-06  0.667E-04    0.55      13.2  T
  28   -231.7596908  0.114097E-06  0.127E-03    0.55       6.9  T
  29   -231.7596909 -0.102141E-06  0.766E-04    0.55      11.5  T
     SCC iter.                  ...        0 min,  0.552 sec
     gradient                   ...        0 min,  0.062 sec
 * total energy  :  -230.3001752 Eh     change       -0.1314166E+00 Eh
   gradient norm :     0.1590984 Eh/α   predicted    -0.1313885E+00 (  -0.02%)
   displ. norm   :     0.7084993 α      lambda       -0.9418143E-01
   maximum displ.:     0.2316233 α      in ANC's #233, #238, #225, ...

........................................................................
.............................. CYCLE    4 ..............................
........................................................................

 iter      E             dE          RMSdq      gap      omega  full diag
   1   -231.5348456 -0.231535E+03  0.153E+00    0.93       0.0  T
   2   -229.6956767  0.183917E+01  0.429E+00    0.22       1.0  T
   3   -231.6588497 -0.196317E+01  0.979E-01    1.02       1.0  T
   4   -231.6828054 -0.239557E-01  0.802E-01    0.99       1.0  T
   5   -231.7091862 -0.263807E-01  0.561E-01    0.98       1.0  T
   6   -231.7190424 -0.985622E-02  0.427E-01    0.98       1.0  T
   7   -231.7063219  0.127205E-01  0.512E-01    0.97       1.0  T
   8   -231.6967659  0.955594E-02  0.557E-01    0.95       1.0  T
   9   -231.7034338 -0.666791E-02  0.482E-01    0.95       1.0  T
  10   -231.7070960 -0.366220E-02  0.433E-01    0.95       1.0  T
  11   -231.7077735 -0.677431E-03  0.411E-01    0.95       1.0  T
  12   -231.7240675 -0.162941E-01  0.134E-01    0.94       1.0  T
  13   -231.7223990  0.166856E-02  0.182E-01    0.94       1.0  T
  14   -231.7243448 -0.194580E-02  0.119E-01    0.94       1.0  T
  15   -231.7254291 -0.108435E-02  0.597E-02    0.94       1.0  T
  16   -231.7255301 -0.100984E-03  0.478E-02    0.94       1.0  T
  17   -231.7256827 -0.152625E-03  0.266E-02    0.94       1.0  T
  18   -231.7255850  0.977286E-04  0.405E-02    0.94       1.0  T
  19   -231.7256158 -0.307492E-04  0.363E-02    0.94       1.0  T
  20   -231.7257086 -0.928088E-04  0.195E-02    0.94       1.0  T
  21   -231.7257418 -0.332166E-04  0.760E-03    0.94       1.2  T
  22   -231.7257355  0.628014E-05  0.112E-02    0.94       1.0  T
  23   -231.7257445 -0.901056E-05  0.575E-03    0.94       1.5  T
  24   -231.7257461 -0.163263E-05  0.404E-03    0.94       2.2  T
  25   -231.7257468 -0.697046E-06  0.299E-03    0.94       2.9  T
  26   -231.7257469 -0.373993E-08  0.296E-03    0.94       3.0  T
  27   -231.7257466  0.285053E-06  0.335E-03    0.94       2.6  T
  28   -231.7257476 -0.103263E-05  0.139E-03    0.94       6.3  T
  29   -231.7257478 -0.185546E-06  0.443E-04    0.94      19.9  T
  30   -231.7257478 -0.137828E-07  0.243E-04    0.94      36.2  T
     SCC iter.                  ...        0 min,  0.459 sec
     gradient                   ...        0 min,  0.064 sec
 * total energy  :  -230.3762479 Eh     change       -0.7607272E-01 Eh
   gradient norm :     0.1549973 Eh/α   predicted    -0.7072906E-01 (  -7.02%)
   displ. norm   :     0.7619238 α      lambda       -0.8184471E-01
   maximum displ.:     0.2628210 α      in ANC's #238, #225, #240, ...

........................................................................
.............................. CYCLE    5 ..............................
........................................................................

 iter      E             dE          RMSdq      gap      omega  full diag
   1   -231.6370971 -0.231637E+03  0.138E+00    1.36       0.0  T
   2   -230.6539870  0.983110E+00  0.329E+00    0.66       1.0  T
   3   -231.7267034 -0.107272E+01  0.799E-01    1.40       1.0  T
   4   -231.7453353 -0.186319E-01  0.552E-01    1.38       1.0  T
   5   -231.7280590  0.172764E-01  0.664E-01    1.38       1.0  T
   6   -231.7313114 -0.325240E-02  0.549E-01    1.38       1.0  T
   7   -231.7395072 -0.819579E-02  0.503E-01    1.38       1.0  T
   8   -231.7264231  0.130840E-01  0.621E-01    1.37       1.0  T
   9   -231.7454884 -0.190652E-01  0.396E-01    1.37       1.0  T
  10   -231.7519865 -0.649813E-02  0.311E-01    1.37       1.0  T
  11   -231.7448012  0.718528E-02  0.447E-01    1.37       1.0  T
  12   -231.7472619 -0.246064E-02  0.405E-01    1.37       1.0  T
  13   -231.7554294 -0.816759E-02  0.291E-01    1.37       1.0  T
  14   -231.7603382 -0.490876E-02  0.194E-01    1.37       1.0  T
  15   -231.7632790 -0.294081E-02  0.108E-01    1.37       1.0  T
  16   -231.7640334 -0.754407E-03  0.612E-02    1.37       1.0  T
  17   -231.7642135 -0.180114E-03  0.447E-02    1.37       1.0  T
  18   -231.7643093 -0.957866E-04  0.311E-02    1.37       1.0  T
  19   -231.7643900 -0.806560E-04  0.157E-02    1.37       1.0  T
  20   -231.7643957 -0.574814E-05  0.137E-02    1.37       1.0  T
  21   -231.7644120 -0.162670E-04  0.484E-03    1.37       1.8  T
  22   -231.7644104  0.155159E-05  0.593E-03    1.37       1.5  T
  23   -231.7644115 -0.109627E-05  0.479E-03    1.37       1.8  T
  24   -231.7644134 -0.184262E-05  0.274E-03    1.37       3.2  T
  25   -231.7644134 -0.522409E-07  0.249E-03    1.37       3.5  T
  26   -231.7644141 -0.664015E-06  0.489E-04    1.37      18.0  T
  27   -231.7644141 -0.199498E-07  0.245E-04    1.37      35.9  T
     SCC iter.                  ...        0 min,  0.388 sec
     gradient                   ...        0 min,  0.065 sec
 * total energy  :  -230.4437695 Eh     change       -0.6752155E-01 Eh
   gradient norm :     0.1602357 Eh/α   predicted    -0.6467892E-01 (  -4.21%)
   displ. norm   :     0.7283565 α      lambda       -0.6449649E-01
   maximum displ.:     0.3076960 α      in ANC's #238, #235, #232, ...

........................................................................
.............................. CYCLE    6 ..............................
........................................................................

 iter      E             dE          RMSdq      gap      omega  full diag
   1   -231.7685829 -0.231769E+03  0.137E+00    1.36       0.0  T
   2   -231.0354319  0.733151E+00  0.304E+00    1.07       1.0  T
   3   -231.8161856 -0.780754E+00  0.835E-01    1.38       1.0  T
   4   -231.8101923  0.599328E-02  0.747E-01    1.37       1.0  T
   5   -231.8433067 -0.331144E-01  0.418E-01    1.37       1.0  T
   6   -231.8417352  0.157147E-02  0.430E-01    1.36       1.0  T
   7   -231.8452781 -0.354295E-02  0.406E-01    1.37       1.0  T
   8   -231.8473464 -0.206827E-02  0.344E-01    1.36       1.0  T
   9   -231.8502994 -0.295303E-02  0.176E-01    1.36       1.0  T
  10   -231.8480855  0.221400E-02  0.367E-01    1.36       1.0  T
  11   -231.8535427 -0.545729E-02  0.625E-02    1.36       1.0  T
  12   -231.8529268  0.615952E-03  0.145E-01    1.36       1.0  T
  13   -231.8537151 -0.788305E-03  0.460E-02    1.36       1.0  T
  14   -231.8536633  0.517714E-04  0.636E-02    1.36       1.0  T
  15   -231.8538192 -0.155844E-03  0.328E-02    1.36       1.0  T
  16   -231.8538062  0.129472E-04  0.383E-02    1.36       1.0  T
  17   -231.8538653 -0.590386E-04  0.102E-02    1.36       1.0  T
  18   -231.8538671 -0.180536E-05  0.131E-02    1.36       1.0  T
  19   -231.8538741 -0.704440E-05  0.314E-03    1.36       2.8  T
  20   -231.8538744 -0.247603E-06  0.196E-03    1.36       4.5  T
  21   -231.8538746 -0.254035E-06  0.103E-03    1.36       8.6  T
  22   -231.8538746 -0.347545E-07  0.382E-04    1.36      23.0  T
  23   -231.8538746 -0.609691E-08  0.140E-04    1.36      62.8  T
     SCC iter.                  ...        0 min,  0.354 sec
     gradient                   ...        0 min,  0.066 sec
 * total energy  :  -230.5003876 Eh     change       -0.5661813E-01 Eh
   gradient norm :     0.1453558 Eh/α   predicted    -0.4935605E-01 ( -12.83%)
   displ. norm   :     0.7493077 α      lambda       -0.6717187E-01
   maximum displ.:     0.3282201 α      in ANC's #238, #232, #225, ...

........................................................................
.............................. CYCLE    7 ..............................
........................................................................

 iter      E             dE          RMSdq      gap      omega  full diag
   1   -231.9258453 -0.231926E+03  0.131E+00    1.35       0.0  T
   2   -231.3393642  0.586481E+00  0.282E+00    1.30       1.0  T
   3   -231.9529365 -0.613572E+00  0.591E-01    1.38       1.0  T
   4   -231.9543263 -0.138978E-02  0.840E-01    1.37       1.0  T
   5   -231.9672661 -0.129398E-01  0.730E-01    1.37       1.0  T
   6   -231.9658539  0.141218E-02  0.748E-01    1.37       1.0  T
   7   -231.9566907  0.916320E-02  0.774E-01    1.37       1.0  T
   8   -231.9506956  0.599512E-02  0.770E-01    1.37       1.0  T
   9   -231.9774973 -0.268017E-01  0.273E-01    1.36       1.0  T
  10   -231.9776178 -0.120543E-03  0.327E-01    1.36       1.0  T
  11   -231.9762941  0.132370E-02  0.361E-01    1.36       1.0  T
  12   -231.9777050 -0.141082E-02  0.319E-01    1.36       1.0  T
  13   -231.9822683 -0.456335E-02  0.218E-01    1.35       1.0  T
  14   -231.9791557  0.311261E-02  0.328E-01    1.35       1.0  T
  15   -231.9839186 -0.476295E-02  0.598E-02    1.36       1.0  T
  16   -231.9839656 -0.469424E-04  0.602E-02    1.36       1.0  T
  17   -231.9840933 -0.127709E-03  0.239E-02    1.36       1.0  T
  18   -231.9841243 -0.310598E-04  0.159E-02    1.36       1.0  T
  19   -231.9841415 -0.171206E-04  0.344E-03    1.36       2.6  T
  20   -231.9841408  0.691273E-06  0.467E-03    1.36       1.9  T
  21   -231.9841407  0.562690E-07  0.644E-03    1.36       1.4  T
  22   -231.9841424 -0.169688E-05  0.130E-03    1.36       6.8  T
  23   -231.9841426 -0.138185E-06  0.581E-04    1.36      15.2  T
  24   -231.9841426 -0.349436E-08  0.489E-04    1.36      18.0  T
     SCC iter.                  ...        0 min,  0.660 sec
     gradient                   ...        0 min,  0.069 sec
 * total energy  :  -230.5551024 Eh     change       -0.5471476E-01 Eh
   gradient norm :     0.0925002 Eh/α   predicted    -0.5244316E-01 (  -4.15%)
   displ. norm   :     0.8091068 α      lambda       -0.5381541E-01
   maximum displ.:     0.3438238 α      in ANC's #238, #240, #300, ...

........................................................................
.............................. CYCLE    8 ..............................
........................................................................

 iter      E             dE          RMSdq      gap      omega  full diag
   1   -232.0217140 -0.232022E+03  0.108E+00    1.46       0.0  T
   2   -231.8715668  0.150147E+00  0.181E+00    1.45       1.0  T
   3   -231.9751599 -0.103593E+00  0.115E+00    1.48       1.0  T
   4   -232.0594730 -0.843131E-01  0.269E-01    1.47       1.0  T
   5   -232.0589793  0.493695E-03  0.233E-01    1.47       1.0  T
   6   -232.0623487 -0.336938E-02  0.155E-01    1.47       1.0  T
   7   -232.0228266  0.395221E-01  0.767E-01    1.47       1.0  T
   8   -232.0506788 -0.278522E-01  0.437E-01    1.47       1.0  T
   9   -232.0551058 -0.442705E-02  0.462E-01    1.46       1.0  T
  10   -232.0596652 -0.455936E-02  0.267E-01    1.47       1.0  T
  11   -232.0600368 -0.371623E-03  0.286E-01    1.47       1.0  T
  12   -232.0636515 -0.361469E-02  0.795E-02    1.47       1.0  T
  13   -232.0639673 -0.315794E-03  0.192E-02    1.47       1.0  T
  14   -232.0639877 -0.203657E-04  0.131E-02    1.47       1.0  T
  15   -232.0639867  0.947346E-06  0.171E-02    1.47       1.0  T
  16   -232.0639943 -0.761717E-05  0.769E-03    1.47       1.1  T
  17   -232.0640004 -0.612868E-05  0.206E-03    1.47       4.3  T
  18   -232.0640002  0.248019E-06  0.313E-03    1.47       2.8  T
  19   -232.0640007 -0.536372E-06  0.520E-04    1.47      16.9  T
  20   -232.0640008 -0.230116E-07  0.350E-04    1.47      25.2  T
     SCC iter.                  ...        0 min,  0.302 sec
     gradient                   ...        0 min,  0.090 sec
 * total energy  :  -230.5875274 Eh     change       -0.3242506E-01 Eh
   gradient norm :     0.1394461 Eh/α   predicted    -0.4452295E-01 (  37.31%)
   displ. norm   :     0.7436758 α      lambda       -0.5806018E-01
   maximum displ.:     0.3544242 α      in ANC's #225, #238, #240, ...

........................................................................
.............................. CYCLE    9 ..............................
........................................................................

 iter      E             dE          RMSdq      gap      omega  full diag
   1   -232.0330681 -0.232033E+03  0.766E-01    1.56       0.0  T
   2   -231.9469958  0.860723E-01  0.150E+00    1.54       1.0  T
   3   -231.9956991 -0.487033E-01  0.959E-01    1.56       1.0  T
   4   -232.0570625 -0.613634E-01  0.174E-01    1.55       1.0  T
   5   -232.0191573  0.379051E-01  0.679E-01    1.56       1.0  T
   6   -232.0528929 -0.337356E-01  0.370E-01    1.55       1.0  T
   7   -232.0574111 -0.451820E-02  0.144E-01    1.56       1.0  T
   8   -232.0573099  0.101209E-03  0.177E-01    1.56       1.0  T
   9   -232.0587693 -0.145943E-02  0.541E-02    1.56       1.0  T
  10   -232.0588252 -0.558933E-04  0.476E-02    1.56       1.0  T
  11   -232.0587720  0.531830E-04  0.732E-02    1.56       1.0  T
  12   -232.0588101 -0.380928E-04  0.699E-02    1.56       1.0  T
  13   -232.0590474 -0.237261E-03  0.449E-03    1.56       2.0  T
  14   -232.0590405  0.687439E-05  0.136E-02    1.56       1.0  T
  15   -232.0590488 -0.829998E-05  0.312E-03    1.56       2.8  T
  16   -232.0590491 -0.309169E-06  0.161E-03    1.56       5.5  T
  17   -232.0590493 -0.181454E-06  0.702E-04    1.56      12.5  T
  18   -232.0590493 -0.265921E-07  0.185E-04    1.56      47.7  T
     SCC iter.                  ...        0 min,  0.265 sec
     gradient                   ...        0 min,  0.065 sec
 * total energy  :  -230.6188812 Eh     change       -0.3135373E-01 Eh
   gradient norm :     0.1248560 Eh/α   predicted    -0.4508530E-01 (  43.80%)
   displ. norm   :     0.6351728 α      lambda       -0.3500678E-01
   maximum displ.:     0.1944710 α      in ANC's #238, #233, #205, ...

........................................................................
.............................. CYCLE   10 ..............................
........................................................................

 iter      E             dE          RMSdq      gap      omega  full diag
   1   -232.0876560 -0.232088E+03  0.491E-01    1.61       0.0  T
   2   -231.9971926  0.904634E-01  0.147E+00    1.60       1.0  T
   3   -232.0362356 -0.390431E-01  0.109E+00    1.61       1.0  T
   4   -232.0657751 -0.295395E-01  0.805E-01    1.61       1.0  T
   5   -232.0874356 -0.216605E-01  0.506E-01    1.61       1.0  T
   6   -232.0868022  0.633425E-03  0.583E-01    1.60       1.0  T
   7   -232.0881184 -0.131620E-02  0.517E-01    1.61       1.0  T
   8   -232.0998209 -0.117025E-01  0.471E-02    1.61       1.0  T
   9   -232.0993661  0.454829E-03  0.109E-01    1.61       1.0  T
  10   -232.0998737 -0.507573E-03  0.316E-02    1.61       1.0  T
  11   -232.0996140  0.259714E-03  0.831E-02    1.61       1.0  T
  12   -232.0996990 -0.850333E-04  0.680E-02    1.61       1.0  T
  13   -232.0998774 -0.178430E-03  0.377E-02    1.61       1.0  T
  14   -232.0999382 -0.607734E-04  0.955E-03    1.61       1.0  T
  15   -232.0999425 -0.430419E-05  0.420E-03    1.61       2.1  T
  16   -232.0999433 -0.779271E-06  0.543E-04    1.61      16.2  T
  17   -232.0999433 -0.120673E-07  0.358E-04    1.61      24.6  T
     SCC iter.                  ...        0 min,  0.229 sec
     gradient                   ...        0 min,  0.063 sec
 * total energy  :  -230.6333603 Eh     change       -0.1447907E-01 Eh
   gradient norm :     0.1484356 Eh/α   predicted    -0.2456503E-01 (  69.66%)
   displ. norm   :     0.6055824 α      lambda       -0.4369974E-01
   maximum displ.:     0.2268838 α      in ANC's #238, #233, #300, ...

........................................................................
.............................. CYCLE   11 ..............................
........................................................................

 iter      E             dE          RMSdq      gap      omega  full diag
   1   -232.0790651 -0.232079E+03  0.586E-01    1.97       0.0  T
   2   -231.9881637  0.909013E-01  0.149E+00    1.95       1.0  T
   3   -232.0878137 -0.996499E-01  0.218E-01    1.97       1.0  T
   4   -232.0909676 -0.315394E-02  0.204E-01    1.96       1.0  T
   5   -232.0852899  0.567766E-02  0.370E-01    1.96       1.0  T
   6   -232.0880860 -0.279603E-02  0.332E-01    1.96       1.0  T
   7   -232.0894862 -0.140021E-02  0.263E-01    1.96       1.0  T
   8   -232.0918490 -0.236283E-02  0.131E-01    1.96       1.0  T
   9   -232.0925607 -0.711674E-03  0.298E-02    1.96       1.0  T
  10   -232.0926168 -0.560749E-04  0.313E-02    1.96       1.0  T
  11   -232.0926517 -0.349289E-04  0.113E-02    1.96       1.0  T
  12   -232.0926636 -0.118983E-04  0.631E-03    1.96       1.4  T
  13   -232.0926663 -0.270418E-05  0.403E-03    1.96       2.2  T
  14   -232.0926668 -0.476839E-06  0.304E-03    1.96       2.9  T
  15   -232.0926672 -0.433639E-06  0.631E-04    1.96      14.0  T
  16   -232.0926672 -0.528610E-08  0.496E-04    1.96      17.7  T
     SCC iter.                  ...        0 min,  0.221 sec
     gradient                   ...        0 min,  0.065 sec
 * total energy  :  -230.6568802 Eh     change       -0.2351995E-01 Eh
   gradient norm :     0.0948491 Eh/α   predicted    -0.2986289E-01 (  26.97%)
   displ. norm   :     0.6611368 α      lambda       -0.3132938E-01
   maximum displ.:     0.1968300 α      in ANC's #240, #238, #206, ...

........................................................................
.............................. CYCLE   12 ..............................
........................................................................

 iter      E             dE          RMSdq      gap      omega  full diag
   1   -232.0547021 -0.232055E+03  0.459E-01    2.14       0.0  T
   2   -231.9516197  0.103082E+00  0.147E+00    2.13       1.0  T
   3   -232.0607550 -0.109135E+00  0.224E-01    2.14       1.0  T
   4   -232.0628502 -0.209521E-02  0.898E-02    2.13       1.0  T
   5   -232.0619236  0.926579E-03  0.123E-01    2.13       1.0  T
   6   -232.0631891 -0.126556E-02  0.513E-02    2.13       1.0  T
   7   -232.0630803  0.108799E-03  0.521E-02    2.13       1.0  T
   8   -232.0633512 -0.270861E-03  0.266E-02    2.13       1.0  T
   9   -232.0633919 -0.407195E-04  0.132E-02    2.13       1.0  T
  10   -232.0634025 -0.106007E-04  0.224E-03    2.13       3.9  T
  11   -232.0633991  0.338025E-05  0.790E-03    2.13       1.1  T
  12   -232.0634019 -0.271955E-05  0.452E-03    2.13       1.9  T
  13   -232.0634027 -0.875284E-06  0.740E-04    2.13      11.9  T
  14   -232.0634027  0.552649E-07  0.133E-03    2.13       6.6  T
  15   -232.0634028 -0.890916E-07  0.147E-04    2.13      60.1  T
     SCC iter.                  ...        0 min,  0.206 sec
     gradient                   ...        0 min,  0.064 sec
 * total energy  :  -230.6607577 Eh     change       -0.3877506E-02 Eh
   gradient norm :     0.1518510 Eh/α   predicted    -0.2251176E-01 ( 480.57%)
   displ. norm   :     0.5029147 α      lambda       -0.3394911E-01
   maximum displ.:     0.1426040 α      in ANC's #225, #238, #194, ...

........................................................................
.............................. CYCLE   13 ..............................
........................................................................

 iter      E             dE          RMSdq      gap      omega  full diag
   1   -232.1141255 -0.232114E+03  0.316E-01    2.48       0.0  T
   2   -232.0059282  0.108197E+00  0.144E+00    2.47       1.0  T
   3   -232.1112104 -0.105282E+00  0.359E-01    2.47       1.0  T
   4   -232.1115757 -0.365255E-03  0.321E-01    2.47       1.0  T
   5   -232.1159798 -0.440414E-02  0.287E-01    2.47       1.0  T
   6   -232.1187671 -0.278725E-02  0.122E-01    2.47       1.0  T
   7   -232.1189570 -0.189882E-03  0.914E-02    2.47       1.0  T
   8   -232.1193560 -0.399004E-03  0.485E-02    2.47       1.0  T
   9   -232.1194572 -0.101273E-03  0.151E-02    2.47       1.0  T
  10   -232.1194663 -0.906992E-05  0.724E-03    2.47       1.2  T
  11   -232.1194684 -0.212580E-05  0.232E-03    2.47       3.8  T
  12   -232.1194685 -0.909617E-07  0.129E-03    2.47       6.8  T
  13   -232.1194685  0.247643E-07  0.173E-03    2.47       5.1  T
  14   -232.1194686 -0.542616E-07  0.152E-03    2.47       5.8  T
  15   -232.1194687 -0.105640E-06  0.341E-04    2.47      25.8  T
  16   -232.1194687 -0.582938E-08  0.122E-04    2.47      72.0  T
     SCC iter.                  ...        0 min,  0.218 sec
     gradient                   ...        0 min,  0.065 sec
 * total energy  :  -230.6767923 Eh     change       -0.1603459E-01 Eh
   gradient norm :     0.1152670 Eh/α   predicted    -0.2126783E-01 (  32.64%)
   displ. norm   :     0.7338356 α      lambda       -0.5233052E-01
   maximum displ.:     0.2648027 α      in ANC's #242, #240, #170, ...

........................................................................
.............................. CYCLE   14 ..............................
........................................................................

 iter      E             dE          RMSdq      gap      omega  full diag
   1   -232.0307480 -0.232031E+03  0.129E+00    2.86       0.0  T
   2   -232.0633675 -0.326195E-01  0.146E+00    2.84       1.0  T
   3   -232.0828370 -0.194695E-01  0.781E-01    2.85       1.0  T
   4   -232.0965369 -0.136999E-01  0.214E-01    2.85       1.0  T
   5   -232.0924296  0.410731E-02  0.425E-01    2.85       1.0  T
   6   -231.9626091  0.129820E+00  0.146E+00    2.85       1.0  T
   7   -232.0079744 -0.453653E-01  0.126E+00    2.85       1.0  T
   8   -232.0738134 -0.658390E-01  0.729E-01    2.85       1.0  T
   9   -232.0962548 -0.224414E-01  0.290E-01    2.85       1.0  T
  10   -232.0967994 -0.544607E-03  0.269E-01    2.85       1.0  T
  11   -232.0986058 -0.180635E-02  0.172E-01    2.85       1.0  T
  12   -232.0989176 -0.311804E-03  0.145E-01    2.85       1.0  T
  13   -232.0991466 -0.228996E-03  0.126E-01    2.85       1.0  T
  14   -232.0996248 -0.478266E-03  0.561E-02    2.85       1.0  T
  15   -232.0997147 -0.899002E-04  0.495E-02    2.85       1.0  T
  16   -232.0997906 -0.759092E-04  0.412E-02    2.85       1.0  T
  17   -232.0998798 -0.892094E-04  0.278E-02    2.85       1.0  T
  18   -232.0999476 -0.677627E-04  0.130E-02    2.85       1.0  T
  19   -232.0999517 -0.407227E-05  0.113E-02    2.85       1.0  T
  20   -232.0999561 -0.444762E-05  0.959E-03    2.85       1.0  T
  21   -232.0999598 -0.362771E-05  0.647E-03    2.85       1.4  T
  22   -232.0999623 -0.256081E-05  0.373E-03    2.85       2.4  T
  23   -232.0999636 -0.132492E-05  0.587E-04    2.85      15.0  T
  24   -232.0999637 -0.137543E-07  0.562E-04    2.85      15.7  T
  25   -232.0999637 -0.236651E-07  0.171E-04    2.85      51.4  T
     SCC iter.                  ...        0 min,  0.374 sec
     gradient                   ...        0 min,  0.063 sec
 * total energy  :  -230.6050851 Eh     change        0.7170716E-01 Eh
   gradient norm :     0.5909437 Eh/α   predicted    -0.4025564E-01 (-156.14%)
   displ. norm   :     0.3768983 α      lambda       -0.1931511E+00
   maximum displ.:     0.2063848 α      in ANC's #242, #240, #248, ...

........................................................................
.............................. CYCLE   15 ..............................
........................................................................

 iter      E             dE          RMSdq      gap      omega  full diag
   1   -232.0858302 -0.232086E+03  0.391E-01    2.79       0.0  T
   2   -231.9796437  0.106187E+00  0.149E+00    2.79       1.0  T
   3   -232.0880496 -0.108406E+00  0.213E-01    2.80       1.0  T
   4   -232.0908959 -0.284624E-02  0.133E-01    2.80       1.0  T
   5   -232.0906989  0.196950E-03  0.172E-01    2.80       1.0  T
   6   -232.0914573 -0.758385E-03  0.759E-02    2.80       1.0  T
   7   -232.0918724 -0.415094E-03  0.324E-02    2.80       1.0  T
   8   -232.0919294 -0.569981E-04  0.210E-02    2.80       1.0  T
   9   -232.0919698 -0.403973E-04  0.137E-02    2.80       1.0  T
  10   -232.0919775 -0.770221E-05  0.651E-03    2.80       1.4  T
  11   -232.0919807 -0.318727E-05  0.460E-03    2.80       1.9  T
  12   -232.0919819 -0.118832E-05  0.157E-03    2.80       5.6  T
  13   -232.0919820 -0.140443E-06  0.371E-04    2.80      23.7  T
  14   -232.0919820 -0.141320E-07  0.165E-04    2.80      53.3  T
     SCC iter.                  ...        0 min,  0.190 sec
     gradient                   ...        0 min,  0.064 sec
 * total energy  :  -230.6892258 Eh     change       -0.8414062E-01 Eh
   gradient norm :     0.0974437 Eh/α   predicted    -0.1102943E+00 (  31.08%)
   displ. norm   :     0.6392915 α      lambda       -0.3547098E-01
   maximum displ.:     0.2179026 α      in ANC's #210, #240, #172, ...

........................................................................
.............................. CYCLE   16 ..............................
........................................................................

 iter      E             dE          RMSdq      gap      omega  full diag
   1   -232.1464466 -0.232146E+03  0.349E-01    3.04       0.0  T
   2   -232.0403950  0.106052E+00  0.144E+00    3.03       1.0  T
   3   -232.1476632 -0.107268E+00  0.260E-01    3.04       1.0  T
   4   -232.1472750  0.388204E-03  0.218E-01    3.04       1.0  T
   5   -232.1467606  0.514435E-03  0.304E-01    3.04       1.0  T
   6   -232.1507301 -0.396956E-02  0.304E-02    3.04       1.0  T
   7   -232.1507228  0.728928E-05  0.314E-02    3.04       1.0  T
   8   -232.1507766 -0.537260E-04  0.127E-02    3.04       1.0  T
   9   -232.1507834 -0.688600E-05  0.301E-03    3.04       2.9  T
  10   -232.1507821  0.131014E-05  0.615E-03    3.04       1.4  T
  11   -232.1507830 -0.843729E-06  0.410E-03    3.04       2.1  T
  12   -232.1507836 -0.645981E-06  0.195E-03    3.04       4.5  T
  13   -232.1507838 -0.229267E-06  0.662E-04    3.04      13.3  T
  14   -232.1507838  0.295813E-07  0.107E-03    3.04       8.2  T
  15   -232.1507839 -0.629970E-07  0.104E-04    3.04      84.3  T
     SCC iter.                  ...        0 min,  0.200 sec
     gradient                   ...        0 min,  0.063 sec
 * total energy  :  -230.6674471 Eh     change        0.2177865E-01 Eh
   gradient norm :     0.2836468 Eh/α   predicted    -0.2498386E-01 (-214.72%)
   displ. norm   :     0.3806801 α      lambda       -0.6415956E-01
   maximum displ.:     0.0899181 α      in ANC's #240, #238, #160, ...

........................................................................
.............................. CYCLE   17 ..............................
........................................................................

 iter      E             dE          RMSdq      gap      omega  full diag
   1   -232.1413146 -0.232141E+03  0.251E-01    3.07       0.0  T
   2   -232.0364334  0.104881E+00  0.141E+00    3.07       1.0  T
   3   -232.1436525 -0.107219E+00  0.106E-01    3.07       1.0  T
   4   -232.1427734  0.879176E-03  0.123E-01    3.07       1.0  T
   5   -232.1429431 -0.169697E-03  0.146E-01    3.07       1.0  T
   6   -232.1439014 -0.958311E-03  0.305E-02    3.07       1.0  T
   7   -232.1439328 -0.314547E-04  0.100E-02    3.07       1.0  T
   8   -232.1439397 -0.685090E-05  0.377E-03    3.07       2.3  T
   9   -232.1439399 -0.188749E-06  0.261E-03    3.07       3.4  T
  10   -232.1439401 -0.285311E-06  0.119E-03    3.07       7.4  T
  11   -232.1439402 -0.455625E-07  0.663E-04    3.07      13.3  T
  12   -232.1439402 -0.203085E-07  0.185E-04    3.07      47.5  T
     SCC iter.                  ...        0 min,  0.169 sec
     gradient                   ...        0 min,  0.064 sec
 * total energy  :  -230.7007764 Eh     change       -0.3332925E-01 Eh
   gradient norm :     0.0652042 Eh/α   predicted    -0.3672868E-01 (  10.20%)
   displ. norm   :     0.6719643 α      lambda       -0.1872840E-01
   maximum displ.:     0.1523363 α      in ANC's #194, #180, #198, ...

........................................................................
.............................. CYCLE   18 ..............................
........................................................................

 iter      E             dE          RMSdq      gap      omega  full diag
   1   -232.0646852 -0.232065E+03  0.270E-01    3.15       0.0  T
   2   -231.9579593  0.106726E+00  0.141E+00    3.14       1.0  T
   3   -232.0669423 -0.108983E+00  0.116E-01    3.15       1.0  T
   4   -232.0667056  0.236643E-03  0.894E-02    3.15       1.0  T
   5   -232.0665729  0.132765E-03  0.848E-02    3.15       1.0  T
   6   -232.0670122 -0.439353E-03  0.136E-02    3.15       1.0  T
   7   -232.0670165 -0.422140E-05  0.983E-03    3.15       1.0  T
   8   -232.0670195 -0.303087E-05  0.437E-03    3.15       2.0  T
   9   -232.0670199 -0.373304E-06  0.377E-03    3.15       2.3  T
  10   -232.0670205 -0.660181E-06  0.135E-03    3.15       6.5  T
  11   -232.0670206 -0.988530E-07  0.384E-04    3.15      23.0  T
  12   -232.0670206 -0.858475E-08  0.115E-04    3.15      76.3  T
     SCC iter.                  ...        0 min,  0.168 sec
     gradient                   ...        0 min,  0.063 sec
 * total energy  :  -230.6905436 Eh     change        0.1023278E-01 Eh
   gradient norm :     0.1752654 Eh/α   predicted    -0.1359249E-01 (-232.83%)
   displ. norm   :     0.4602076 α      lambda       -0.4162702E-01
   maximum displ.:     0.1079383 α      in ANC's #90, #184, #160, ...

........................................................................
.............................. CYCLE   19 ..............................
........................................................................

 iter      E             dE          RMSdq      gap      omega  full diag
   1   -232.1176391 -0.232118E+03  0.213E-01    3.23       0.0  T
   2   -232.0342193  0.834199E-01  0.123E+00    3.23       1.0  T
   3   -232.1182209 -0.840016E-01  0.135E-01    3.23       1.0  T
   4   -232.1180509  0.169973E-03  0.116E-01    3.23       1.0  T
   5   -232.1183271 -0.276198E-03  0.792E-02    3.23       1.0  T
   6   -232.1186818 -0.354679E-03  0.194E-02    3.23       1.0  T
   7   -232.1186978 -0.160462E-04  0.793E-03    3.23       1.1  T
   8   -232.1186962  0.157466E-05  0.845E-03    3.23       1.0  T
   9   -232.1187005 -0.424546E-05  0.189E-03    3.23       4.7  T
  10   -232.1187006 -0.979985E-07  0.119E-03    3.23       7.4  T
  11   -232.1187007 -0.794055E-07  0.126E-04    3.23      69.8  T
  12   -232.1187007 -0.849695E-09  0.498E-05    3.23     176.8  T
     SCC iter.                  ...        0 min,  0.164 sec
     gradient                   ...        0 min,  0.063 sec
 * total energy  :  -230.7066061 Eh     change       -0.1606256E-01 Eh
   gradient norm :     0.1110761 Eh/α   predicted    -0.2522162E-01 (  57.02%)
   displ. norm   :     0.6914607 α      lambda       -0.4048021E-01
   maximum displ.:     0.1947132 α      in ANC's #206, #214, #237, ...

........................................................................
.............................. CYCLE   20 ..............................
........................................................................

 iter      E             dE          RMSdq      gap      omega  full diag
   1   -232.1713759 -0.232171E+03  0.323E-01    3.34       0.0  T
   2   -232.0602661  0.111110E+00  0.144E+00    3.34       1.0  T
   3   -232.1737573 -0.113491E+00  0.169E-01    3.34       1.0  T
   4   -232.1738133 -0.560503E-04  0.101E-01    3.34       1.0  T
   5   -232.1743122 -0.498916E-03  0.142E-02    3.34       1.0  T
   6   -232.1742947  0.175084E-04  0.213E-02    3.34       1.0  T
   7   -232.1743181 -0.233657E-04  0.348E-03    3.34       2.5  T
   8   -232.1743161  0.200858E-05  0.619E-03    3.34       1.4  T
   9   -232.1743183 -0.220866E-05  0.552E-04    3.34      16.0  T
  10   -232.1743183  0.557254E-07  0.105E-03    3.34       8.3  T
  11   -232.1743183 -0.583909E-07  0.399E-04    3.34      22.1  T
  12   -232.1743183 -0.855798E-08  0.657E-05    3.34     134.0  T
     SCC iter.                  ...        0 min,  0.175 sec
     gradient                   ...        0 min,  0.064 sec
 * total energy  :  -230.6895346 Eh     change        0.1707151E-01 Eh
   gradient norm :     0.2202820 Eh/α   predicted    -0.2991728E-01 (-275.25%)
   displ. norm   :     0.4374185 α      lambda       -0.5044068E-01
   maximum displ.:     0.1242686 α      in ANC's #184, #160, #194, ...
 * RMSD in coord.:     0.6709988 α      energy gain  -0.8115351E+00 Eh

generating ANC from model Hessian ...
Using Lindh-Hessian (1995)
 Shifting diagonal of input Hessian by    1.0272384815125693E-002
 Lowest  eigenvalues of input Hessian
    0.010000    0.010044    0.010058    0.010080    0.010095    0.010105
    0.010140    0.010148    0.010152    0.010158    0.010179    0.010184
    0.010187    0.010198    0.010201    0.010207    0.010210    0.010211
 Highest eigenvalues
    1.540602    1.592795    1.936249    2.802885    3.458346    3.615465


........................................................................
.............................. CYCLE   21 ..............................
........................................................................

 iter      E             dE          RMSdq      gap      omega  full diag
   1   -232.1456522 -0.232146E+03  0.244E-01    3.27       0.0  T
   2   -232.1415380  0.411419E-02  0.405E-01    3.27       1.0  T
   3   -232.1456284 -0.409044E-02  0.202E-01    3.27       1.0  T
   4   -232.0408903  0.104738E+00  0.135E+00    3.27       1.0  T
   5   -232.1463358 -0.105446E+00  0.148E-01    3.27       1.0  T
   6   -232.1465303 -0.194488E-03  0.138E-01    3.27       1.0  T
   7   -232.1473679 -0.837678E-03  0.623E-02    3.27       1.0  T
   8   -232.1475758 -0.207888E-03  0.167E-02    3.27       1.0  T
   9   -232.1475919 -0.160595E-04  0.782E-04    3.27      11.3  T
  10   -232.1475909  0.101855E-05  0.424E-03    3.27       2.1  T
  11   -232.1475918 -0.918789E-06  0.141E-03    3.27       6.3  T
  12   -232.1475919 -0.102956E-06  0.202E-04    3.27      43.5  T
  13   -232.1475919 -0.130612E-08  0.129E-04    3.27      68.1  T
     SCC iter.                  ...        0 min,  0.179 sec
     gradient                   ...        0 min,  0.062 sec
 * total energy  :  -230.7117502 Eh     change       -0.2221556E-01 Eh
   gradient norm :     0.1217140 Eh/α   predicted     0.0000000E+00 (-100.00%)
   displ. norm   :     0.5492738 α      lambda       -0.2208073E-01
   maximum displ.:     0.1490610 α      in ANC's #168, #167, #162, ...

........................................................................
.............................. CYCLE   22 ..............................
........................................................................

 iter      E             dE          RMSdq      gap      omega  full diag
   1   -232.1544188 -0.232154E+03  0.250E-01    3.22       0.0  T
   2   -232.0474709  0.106948E+00  0.139E+00    3.23       1.0  T
   3   -232.1547037 -0.107233E+00  0.185E-01    3.22       1.0  T
   4   -232.1562078 -0.150413E-02  0.328E-02    3.22       1.0  T
   5   -232.1560541  0.153743E-03  0.527E-02    3.22       1.0  T
   6   -232.1562160 -0.161942E-03  0.416E-03    3.22       2.1  T
   7   -232.1562078  0.823962E-05  0.125E-02    3.22       1.0  T
   8   -232.1562165 -0.872995E-05  0.181E-03    3.22       4.9  T
   9   -232.1562165 -0.342233E-07  0.142E-03    3.22       6.2  T
  10   -232.1562167 -0.112906E-06  0.212E-04    3.22      41.6  T
  11   -232.1562167 -0.203562E-08  0.784E-05    3.22     112.2  T
     SCC iter.                  ...        0 min,  0.151 sec
     gradient                   ...        0 min,  0.062 sec
 * total energy  :  -230.7285733 Eh     change       -0.1682307E-01 Eh
   gradient norm :     0.0512094 Eh/α   predicted    -0.1438249E-01 ( -14.51%)
   displ. norm   :     0.6817450 α      lambda       -0.1420596E-01
   maximum displ.:     0.1517091 α      in ANC's #195, #218, #111, ...

........................................................................
.............................. CYCLE   23 ..............................
........................................................................

 iter      E             dE          RMSdq      gap      omega  full diag
   1   -232.1542642 -0.232154E+03  0.232E-01    3.16       0.0  T
   2   -232.0574758  0.967884E-01  0.131E+00    3.16       1.0  T
   3   -232.1541888 -0.967130E-01  0.180E-01    3.15       1.0  T
   4   -232.1554987 -0.130992E-02  0.566E-02    3.16       1.0  T
   5   -232.1555303 -0.315573E-04  0.411E-02    3.16       1.0  T
   6   -232.1556234 -0.931185E-04  0.426E-03    3.16       2.1  T
   7   -232.1556215  0.185307E-05  0.709E-03    3.16       1.2  T
   8   -232.1556243 -0.272018E-05  0.894E-04    3.16       9.8  T
   9   -232.1556242  0.387355E-07  0.108E-03    3.16       8.2  T
  10   -232.1556243 -0.679849E-07  0.142E-04    3.16      62.1  T
  11   -232.1556243 -0.304112E-09  0.912E-05    3.16      96.5  T
     SCC iter.                  ...        0 min,  0.156 sec
     gradient                   ...        0 min,  0.064 sec
 * total energy  :  -230.7385780 Eh     change       -0.1000475E-01 Eh
   gradient norm :     0.0551307 Eh/α   predicted    -0.1040450E-01 (   4.00%)
   displ. norm   :     0.7848324 α      lambda       -0.1313245E-01
   maximum displ.:     0.2337908 α      in ANC's #168, #167, #159, ...

........................................................................
.............................. CYCLE   24 ..............................
........................................................................

 iter      E             dE          RMSdq      gap      omega  full diag
   1   -232.1489111 -0.232149E+03  0.225E-01    3.07       0.0  T
   2   -232.0781889  0.707222E-01  0.111E+00    3.08       1.0  T
   3   -232.1488407 -0.706518E-01  0.166E-01    3.07       1.0  T
   4   -232.1497475 -0.906789E-03  0.613E-02    3.07       1.0  T
   5   -232.1499003 -0.152793E-03  0.821E-03    3.07       1.1  T
   6   -232.1498972  0.312351E-05  0.832E-03    3.07       1.1  T
   7   -232.1499012 -0.400553E-05  0.161E-03    3.07       5.5  T
   8   -232.1499011  0.946388E-07  0.167E-03    3.07       5.3  T
   9   -232.1499013 -0.164674E-06  0.179E-04    3.07      49.1  T
  10   -232.1499013 -0.864588E-10  0.119E-04    3.07      74.3  T
     SCC iter.                  ...        0 min,  0.141 sec
     gradient                   ...        0 min,  0.065 sec
 * total energy  :  -230.7456693 Eh     change       -0.7091296E-02 Eh
   gradient norm :     0.0881453 Eh/α   predicted    -0.1061077E-01 (  49.63%)
   displ. norm   :     0.6160444 α      lambda       -0.1578215E-01
   maximum displ.:     0.1575826 α      in ANC's #168, #195, #99, ...

........................................................................
.............................. CYCLE   25 ..............................
........................................................................

 iter      E             dE          RMSdq      gap      omega  full diag
   1   -232.1766670 -0.232177E+03  0.156E-01    3.02       0.0  T
   2   -232.1548113  0.218557E-01  0.622E-01    3.02       1.0  T
   3   -232.1766643 -0.218530E-01  0.110E-01    3.02       1.0  T
   4   -232.1770080 -0.343629E-03  0.378E-02    3.02       1.0  T
   5   -232.1770512 -0.432768E-04  0.146E-02    3.02       1.0  T
   6   -232.1770622 -0.109625E-04  0.363E-03    3.02       2.4  T
   7   -232.1770627 -0.534980E-06  0.114E-03    3.02       7.7  T
   8   -232.1770627 -0.946500E-08  0.678E-04    3.02      13.0  T
   9   -232.1770628 -0.211475E-07  0.243E-04    3.02      36.3  T
     SCC iter.                  ...        0 min,  0.118 sec
     gradient                   ...        0 min,  0.063 sec
 * total energy  :  -230.7541118 Eh     change       -0.8442495E-02 Eh
   gradient norm :     0.0645674 Eh/α   predicted    -0.1088583E-01 (  28.94%)
   displ. norm   :     0.6906429 α      lambda       -0.1515167E-01
   maximum displ.:     0.2600118 α      in ANC's #162, #212, #108, ...

........................................................................
.............................. CYCLE   26 ..............................
........................................................................

 iter      E             dE          RMSdq      gap      omega  full diag
   1   -232.1796067 -0.232180E+03  0.171E-01    3.02       0.0  T
   2   -232.1796510 -0.443019E-04  0.104E-01    3.02       1.0  T
   3   -232.1787894  0.861591E-03  0.151E-01    3.01       1.0  T
   4   -232.1797178 -0.928347E-03  0.225E-02    3.02       1.0  T
   5   -232.1797078  0.100090E-04  0.230E-02    3.02       1.0  T
   6   -232.1797083 -0.523913E-06  0.225E-02    3.02       1.0  T
   7   -232.1797296 -0.212948E-04  0.118E-02    3.02       1.0  T
   8   -232.1797372 -0.763369E-05  0.217E-03    3.02       4.1  T
   9   -232.1797375 -0.235663E-06  0.664E-04    3.02      13.3  T
  10   -232.1797375 -0.231400E-07  0.170E-04    3.02      51.9  T
     SCC iter.                  ...        0 min,  0.130 sec
     gradient                   ...        0 min,  0.061 sec
 * total energy  :  -230.7564533 Eh     change       -0.2341459E-02 Eh
   gradient norm :     0.1019413 Eh/α   predicted    -0.1118944E-01 ( 377.88%)
   displ. norm   :     0.5479765 α      lambda       -0.2239485E-01
   maximum displ.:     0.1624786 α      in ANC's #162, #126, #195, ...

........................................................................
.............................. CYCLE   27 ..............................
........................................................................

 iter      E             dE          RMSdq      gap      omega  full diag
   1   -232.2049386 -0.232205E+03  0.150E-01    3.01       0.0  T
   2   -232.2046441  0.294428E-03  0.121E-01    3.01       1.0  T
   3   -232.2040635  0.580632E-03  0.157E-01    3.00       1.0  T
   4   -232.2048053 -0.741832E-03  0.687E-02    3.01       1.0  T
   5   -232.2049467 -0.141406E-03  0.450E-02    3.01       1.0  T
   6   -232.2050291 -0.823971E-04  0.241E-02    3.01       1.0  T
   7   -232.2050624 -0.332441E-04  0.168E-03    3.01       5.2  T
   8   -232.2050624 -0.793483E-07  0.422E-04    3.01      20.8  T
   9   -232.2050625 -0.205998E-08  0.136E-04    3.01      65.0  T
     SCC iter.                  ...        0 min,  0.118 sec
     gradient                   ...        0 min,  0.063 sec
 * total energy  :  -230.7650084 Eh     change       -0.8555092E-02 Eh
   gradient norm :     0.0801999 Eh/α   predicted    -0.1455977E-01 (  70.19%)
   displ. norm   :     0.7253220 α      lambda       -0.2417180E-01
   maximum displ.:     0.2441166 α      in ANC's #212, #207, #86, ...

........................................................................
.............................. CYCLE   28 ..............................
........................................................................

 iter      E             dE          RMSdq      gap      omega  full diag
   1   -232.1853051 -0.232185E+03  0.229E-01    2.97       0.0  T
   2   -232.1714849  0.138202E-01  0.506E-01    2.97       1.0  T
   3   -232.1856169 -0.141320E-01  0.147E-01    2.97       1.0  T
   4   -232.1855396  0.773227E-04  0.932E-02    2.96       1.0  T
   5   -232.1858406 -0.300949E-03  0.570E-02    2.96       1.0  T
   6   -232.1860036 -0.163089E-03  0.168E-02    2.97       1.0  T
   7   -232.1860180 -0.143395E-04  0.471E-03    2.97       1.9  T
   8   -232.1860191 -0.110922E-05  0.146E-03    2.97       6.0  T
   9   -232.1860192 -0.937011E-07  0.495E-04    2.97      17.8  T
  10   -232.1860192 -0.108759E-07  0.304E-04    2.97      28.9  T
     SCC iter.                  ...        0 min,  0.134 sec
     gradient                   ...        0 min,  0.063 sec
 * total energy  :  -230.7627918 Eh     change        0.2216546E-02 Eh
   gradient norm :     0.1382039 Eh/α   predicted    -0.1844419E-01 (-932.11%)
   displ. norm   :     0.4667966 α      lambda       -0.2200478E-01
   maximum displ.:     0.1859214 α      in ANC's #212, #162, #161, ...

........................................................................
.............................. CYCLE   29 ..............................
........................................................................

 iter      E             dE          RMSdq      gap      omega  full diag
   1   -232.1967393 -0.232197E+03  0.134E-01    2.99       0.0  T
   2   -232.1962328  0.506516E-03  0.154E-01    2.98       1.0  T
   3   -232.1970953 -0.862463E-03  0.564E-02    2.98       1.0  T
   4   -232.1965495  0.545801E-03  0.946E-02    2.99       1.0  T
   5   -232.1968532 -0.303712E-03  0.681E-02    2.98       1.0  T
   6   -232.1970979 -0.244755E-03  0.121E-02    2.98       1.0  T
   7   -232.1971054 -0.749511E-05  0.268E-03    2.98       3.3  T
   8   -232.1971057 -0.300803E-06  0.103E-03    2.98       8.6  T
   9   -232.1971058 -0.444838E-07  0.320E-04    2.98      27.5  T
  10   -232.1971058 -0.238884E-09  0.253E-04    2.98      34.8  T
     SCC iter.                  ...        0 min,  0.131 sec
     gradient                   ...        0 min,  0.063 sec
 * total energy  :  -230.7756118 Eh     change       -0.1282004E-01 Eh
   gradient norm :     0.0601399 Eh/α   predicted    -0.1339980E-01 (   4.52%)
   displ. norm   :     0.6973349 α      lambda       -0.1536088E-01
   maximum displ.:     0.1730559 α      in ANC's #210, #195, #188, ...

........................................................................
.............................. CYCLE   30 ..............................
........................................................................

 iter      E             dE          RMSdq      gap      omega  full diag
   1   -232.2040539 -0.232204E+03  0.167E-01    2.99       0.0  T
   2   -232.2023531  0.170081E-02  0.205E-01    2.99       1.0  T
   3   -232.2041421 -0.178903E-02  0.111E-01    2.99       1.0  T
   4   -232.2042008 -0.587194E-04  0.650E-02    2.99       1.0  T
   5   -232.2043941 -0.193289E-03  0.239E-02    2.99       1.0  T
   6   -232.2044222 -0.280247E-04  0.575E-03    2.99       1.5  T
   7   -232.2044233 -0.110533E-05  0.128E-03    2.99       6.9  T
   8   -232.2044233  0.822661E-08  0.816E-04    2.99      10.8  T
   9   -232.2044233 -0.170867E-07  0.301E-04    2.99      29.3  T
     SCC iter.                  ...        0 min,  0.122 sec
     gradient                   ...        0 min,  0.066 sec
 * total energy  :  -230.7784392 Eh     change       -0.2827373E-02 Eh
   gradient norm :     0.1048827 Eh/α   predicted    -0.1141526E-01 ( 303.74%)
   displ. norm   :     0.5306633 α      lambda       -0.1875779E-01
   maximum displ.:     0.1030978 α      in ANC's #159, #213, #99, ...

........................................................................
.............................. CYCLE   31 ..............................
........................................................................

 iter      E             dE          RMSdq      gap      omega  full diag
   1   -232.2268215 -0.232227E+03  0.128E-01    3.01       0.0  T
   2   -232.2268792 -0.577097E-04  0.712E-02    3.01       1.0  T
   3   -232.2268720  0.718799E-05  0.397E-02    3.01       1.0  T
   4   -232.2268429  0.291240E-04  0.350E-02    3.01       1.0  T
   5   -232.2268953 -0.523472E-04  0.914E-03    3.01       1.0  T
   6   -232.2268981 -0.281362E-05  0.411E-03    3.01       2.1  T
   7   -232.2268988 -0.725324E-06  0.941E-04    3.01       9.4  T
   8   -232.2268988 -0.165911E-07  0.410E-04    3.01      21.5  T
     SCC iter.                  ...        0 min,  0.113 sec
     gradient                   ...        0 min,  0.065 sec
 * total energy  :  -230.7873059 Eh     change       -0.8866712E-02 Eh
   gradient norm :     0.0762342 Eh/α   predicted    -0.1202003E-01 (  35.56%)
   displ. norm   :     0.6962258 α      lambda       -0.1934601E-01
   maximum displ.:     0.1855299 α      in ANC's #150, #159, #167, ...

........................................................................
.............................. CYCLE   32 ..............................
........................................................................

 iter      E             dE          RMSdq      gap      omega  full diag
   1   -232.1826574 -0.232183E+03  0.189E-01    3.00       0.0  T
   2   -232.1827086 -0.512707E-04  0.115E-01    3.00       1.0  T
   3   -232.1826588  0.498203E-04  0.861E-02    3.00       1.0  T
   4   -232.1828215 -0.162643E-03  0.228E-02    3.00       1.0  T
   5   -232.1828284 -0.689115E-05  0.101E-02    3.00       1.0  T
   6   -232.1828304 -0.201772E-05  0.674E-03    3.00       1.3  T
   7   -232.1828324 -0.200874E-05  0.130E-03    3.00       6.8  T
   8   -232.1828324 -0.419982E-07  0.382E-04    3.00      23.1  T
   9   -232.1828324 -0.611311E-08  0.110E-04    3.00      79.7  T
     SCC iter.                  ...        0 min,  0.126 sec
     gradient                   ...        0 min,  0.067 sec
 * total energy  :  -230.7889017 Eh     change       -0.1595739E-02 Eh
   gradient norm :     0.1094223 Eh/α   predicted    -0.1436180E-01 ( 800.01%)
   displ. norm   :     0.5058122 α      lambda       -0.1847387E-01
   maximum displ.:     0.1344041 α      in ANC's #96, #108, #188, ...

........................................................................
.............................. CYCLE   33 ..............................
........................................................................

 iter      E             dE          RMSdq      gap      omega  full diag
   1   -232.2293396 -0.232229E+03  0.111E-01    3.02       0.0  T
   2   -232.2293919 -0.522710E-04  0.615E-02    3.02       1.0  T
   3   -232.2293963 -0.446757E-05  0.325E-02    3.02       1.0  T
   4   -232.2294124 -0.160605E-04  0.120E-02    3.02       1.0  T
   5   -232.2294137 -0.127887E-05  0.399E-03    3.02       2.2  T
   6   -232.2294138 -0.170038E-06  0.176E-03    3.02       5.0  T
   7   -232.2294139 -0.418762E-07  0.531E-04    3.02      16.6  T
   8   -232.2294139 -0.476760E-08  0.201E-04    3.02      43.7  T
     SCC iter.                  ...        0 min,  0.123 sec
     gradient                   ...        0 min,  0.065 sec
 * total energy  :  -230.8005494 Eh     change       -0.1164776E-01 Eh
   gradient norm :     0.0507927 Eh/α   predicted    -0.1160016E-01 (  -0.41%)
   displ. norm   :     0.7581777 α      lambda       -0.1699742E-01
   maximum displ.:     0.2175120 α      in ANC's #160, #96, #162, ...

........................................................................
.............................. CYCLE   34 ..............................
........................................................................

 iter      E             dE          RMSdq      gap      omega  full diag
   1   -232.2333877 -0.232233E+03  0.185E-01    3.07       0.0  T
   2   -232.2335355 -0.147753E-03  0.105E-01    3.07       1.0  T
   3   -232.2335695 -0.339962E-04  0.362E-02    3.07       1.0  T
   4   -232.2335748 -0.531728E-05  0.932E-03    3.07       1.0  T
   5   -232.2335754 -0.662378E-06  0.429E-03    3.07       2.1  T
   6   -232.2335755 -0.966218E-07  0.143E-03    3.07       6.2  T
   7   -232.2335756 -0.164894E-07  0.400E-04    3.07      22.0  T
   8   -232.2335756 -0.229343E-08  0.129E-04    3.07      68.4  T
     SCC iter.                  ...        0 min,  0.112 sec
     gradient                   ...        0 min,  0.066 sec
 * total energy  :  -230.7996864 Eh     change        0.8630816E-03 Eh
   gradient norm :     0.1273849 Eh/α   predicted    -0.1338407E-01 (*******%)
   displ. norm   :     0.4983288 α      lambda       -0.2474899E-01
   maximum displ.:     0.1035677 α      in ANC's #108, #159, #192, ...

........................................................................
.............................. CYCLE   35 ..............................
........................................................................

 iter      E             dE          RMSdq      gap      omega  full diag
   1   -232.2232523 -0.232223E+03  0.140E-01    3.08       0.0  T
   2   -232.2233161 -0.638078E-04  0.752E-02    3.08       1.0  T
   3   -232.2233342 -0.181334E-04  0.349E-02    3.08       1.0  T
   4   -232.2233394 -0.514311E-05  0.705E-03    3.08       1.2  T
   5   -232.2233398 -0.434933E-06  0.301E-03    3.08       2.9  T
   6   -232.2233399 -0.646906E-07  0.113E-03    3.08       7.8  T
   7   -232.2233399 -0.165430E-07  0.365E-04    3.08      24.1  T
   8   -232.2233399 -0.316939E-08  0.167E-04    3.08      52.8  T
     SCC iter.                  ...        0 min,  0.105 sec
     gradient                   ...        0 min,  0.064 sec
 * total energy  :  -230.8122895 Eh     change       -0.1260312E-01 Eh
   gradient norm :     0.0709121 Eh/α   predicted    -0.1544748E-01 (  22.57%)
   displ. norm   :     0.7073304 α      lambda       -0.2220033E-01
   maximum displ.:     0.1375552 α      in ANC's #96, #134, #86, ...

........................................................................
.............................. CYCLE   36 ..............................
........................................................................

 iter      E             dE          RMSdq      gap      omega  full diag
   1   -232.2672917 -0.232267E+03  0.223E-01    3.12       0.0  T
   2   -232.2674344 -0.142770E-03  0.127E-01    3.12       1.0  T
   3   -232.2674867 -0.522981E-04  0.462E-02    3.12       1.0  T
   4   -232.2674952 -0.850931E-05  0.111E-02    3.12       1.0  T
   5   -232.2674963 -0.103015E-05  0.404E-03    3.12       2.2  T
   6   -232.2674964 -0.964313E-07  0.160E-03    3.12       5.5  T
   7   -232.2674964 -0.267319E-07  0.490E-04    3.12      18.0  T
   8   -232.2674964 -0.301853E-08  0.153E-04    3.12      57.4  T
     SCC iter.                  ...        0 min,  0.115 sec
     gradient                   ...        0 min,  0.060 sec
 * total energy  :  -230.7988942 Eh     change        0.1339530E-01 Eh
   gradient norm :     0.1915158 Eh/α   predicted    -0.1665378E-01 (-224.33%)
   displ. norm   :     0.4216787 α      lambda       -0.4088730E-01
   maximum displ.:     0.1072841 α      in ANC's #134, #192, #123, ...

........................................................................
.............................. CYCLE   37 ..............................
........................................................................

 iter      E             dE          RMSdq      gap      omega  full diag
   1   -232.2612968 -0.232261E+03  0.145E-01    3.15       0.0  T
   2   -232.2613687 -0.719165E-04  0.864E-02    3.15       1.0  T
   3   -232.2614002 -0.314729E-04  0.184E-02    3.15       1.0  T
   4   -232.2614025 -0.225069E-05  0.842E-03    3.15       1.0  T
   5   -232.2614031 -0.585952E-06  0.343E-03    3.15       2.6  T
   6   -232.2614032 -0.101057E-06  0.111E-03    3.15       7.9  T
   7   -232.2614032 -0.189989E-07  0.364E-04    3.15      24.2  T
   8   -232.2614032 -0.306463E-08  0.196E-04    3.15      44.9  T
     SCC iter.                  ...        0 min,  0.115 sec
     gradient                   ...        0 min,  0.064 sec
 * total energy  :  -230.8195360 Eh     change       -0.2064183E-01 Eh
   gradient norm :     0.0759137 Eh/α   predicted    -0.2407880E-01 (  16.65%)
   displ. norm   :     0.7559401 α      lambda       -0.2993002E-01
   maximum displ.:     0.1843422 α      in ANC's #100, #188, #154, ...

........................................................................
.............................. CYCLE   38 ..............................
........................................................................

 iter      E             dE          RMSdq      gap      omega  full diag
   1   -232.1807519 -0.232181E+03  0.243E-01    3.17       0.0  T
   2   -232.1809935 -0.241676E-03  0.142E-01    3.17       1.0  T
   3   -232.1810787 -0.851302E-04  0.329E-02    3.17       1.0  T
   4   -232.1810869 -0.826557E-05  0.130E-02    3.17       1.0  T
   5   -232.1810888 -0.189591E-05  0.539E-03    3.17       1.6  T
   6   -232.1810891 -0.250871E-06  0.201E-03    3.17       4.4  T
   7   -232.1810891 -0.546295E-07  0.460E-04    3.17      19.1  T
   8   -232.1810891 -0.315043E-08  0.196E-04    3.17      44.9  T
     SCC iter.                  ...        0 min,  0.106 sec
     gradient                   ...        0 min,  0.062 sec
 * total energy  :  -230.7966335 Eh     change        0.2290252E-01 Eh
   gradient norm :     0.2083646 Eh/α   predicted    -0.2351672E-01 (-202.68%)
   displ. norm   :     0.3932709 α      lambda       -0.5183213E-01
   maximum displ.:     0.0989849 α      in ANC's #99, #195, #181, ...

[...]
H           -4.20107193779246       -2.14050337939630        5.55302781160983
O           -0.83762651864016       -3.76749630103559       -6.40822208783871
H            0.06237348135984       -3.76749630103559       -6.40822208783871
H           -1.13063785765160       -2.91652958299621       -6.40822208783871
O            4.53547710034863       -4.48666036881190        3.83051883145264
H            5.43547710034863       -4.48666036881190        3.83051883145264
H            4.24246576133719       -3.63569365077251        3.83051883145264
O           -5.18896244880000       -5.10679093260828        0.21615452244338
H           -4.28896244880000       -5.10679093260828        0.21615452244338
H           -5.48197378781144       -4.25582421456889        0.21615452244338
O            3.11908578610616       -5.90269652956836       -3.10670579720031
H            4.01908578610616       -5.90269652956836       -3.10670579720031
H            2.82607444709472       -5.05172981152897       -3.10670579720031
O           -0.14856107434437       -6.51350829473600        3.14471923300534
H            0.75143892565563       -6.51350829473600        3.14471923300534
H           -0.44157241335581       -5.66254157669662        3.14471923300534
O           -0.00280888278905       -7.20581567834865        0.00124612415534
H            0.89719111721095       -7.20581567834865        0.00124612415534
H           -0.29582022180049       -6.35484896030927        0.00124612415534

 Bond Distances (Angstroems)
 ---------------------------
Fe1-O2=2.0800        Fe1-O7=2.0800        Fe1-H8=1.7232        Fe1-H9=1.6065        Fe1-O10=2.0800       Fe1-H11=1.7448       
Fe1-H12=1.6929       Fe1-O13=2.0800       Fe1-H15=1.6370       Fe1-O16=2.0800       Fe1-H18=1.7590       Fe1-O19=2.0800       
O2-Fe1=2.0800        O2-S3=1.4743         S3-O2=1.4743         S3-O4=1.4615         S3-O5=1.4671         S3-O6=1.4592         
O4-S3=1.4615         O5-S3=1.4671         O6-S3=1.4592         O7-Fe1=2.0800        O7-H8=0.9772         O7-H9=0.9715         
H8-Fe1=1.7232        H8-O7=0.9772         H9-Fe1=1.6065        H9-O7=0.9715         O10-Fe1=2.0800       O10-H11=0.9781       
O10-H12=0.9761       H11-Fe1=1.7448       H11-O10=0.9781       H12-Fe1=1.6929       H12-O10=0.9761       O13-Fe1=2.0800       
O13-H14=0.9768       O13-H15=0.9787       H14-O13=0.9768       H15-Fe1=1.6370       H15-O13=0.9787       O16-Fe1=2.0800       
O16-H17=0.9734       O16-H18=0.9824       H17-O16=0.9734       H18-Fe1=1.7590       H18-O16=0.9824       O19-Fe1=2.0800       
O19-H20=0.9749       O19-H21=0.9741       H20-O19=0.9749       H21-O19=0.9741       O22-H23=0.9000       O22-H24=0.9000       
H23-O22=0.9000       H24-O22=0.9000       H24-O67=1.2340       O25-H26=0.9000       O25-H27=0.9000       H26-O25=0.9000       
H27-O25=0.9000       O28-H29=0.9000       O28-H30=0.9000       H29-O28=0.9000       H30-O28=0.9000       O31-H32=0.9000       
O31-H33=0.9000       H32-O31=0.9000       H33-O31=0.9000       O34-H35=0.9000       O34-H36=0.9000       H35-O34=0.9000       
H36-O34=0.9000       O37-H38=0.9000       O37-H39=0.9000       H38-O37=0.9000       H39-O37=0.9000       O40-H41=0.9000       
O40-H42=0.9000       H41-O40=0.9000       H42-O40=0.9000       O43-H44=0.9000       O43-H45=0.9000       H44-O43=0.9000       
H45-O43=0.9000       O46-H47=0.9000       O46-H48=0.9000       H47-O46=0.9000       H48-O46=0.9000       O49-H50=0.9000       
O49-H51=0.9000       H50-O49=0.9000       H51-O49=0.9000       O52-H53=0.9000       O52-H54=0.9000       H53-O52=0.9000       
H54-O52=0.9000       O55-H56=0.9000       O55-H57=0.9000       H56-O55=0.9000       H57-O55=0.9000       O58-H59=0.9000       
O58-H60=0.9000       H59-O58=0.9000       H60-O58=0.9000       O61-H62=0.9000       O61-H63=0.9000       H62-O61=0.9000       
H63-O61=0.9000       O64-H65=0.9000       O64-H66=0.9000       H65-O64=0.9000       H66-O64=0.9000       O67-H24=1.2340       
O67-H68=0.9000       O67-H69=0.9000       H68-O67=0.9000       H69-O67=0.9000       O70-H71=0.9000       O70-H72=0.9000       
H71-O70=0.9000       H72-O70=0.9000       O73-H74=0.9000       O73-H75=0.9000       H74-O73=0.9000       H75-O73=0.9000       
O76-H77=0.9000       O76-H78=0.9000       H77-O76=0.9000       H78-O76=0.9000       O79-H80=0.9000       O79-H81=0.9000       
H80-O79=0.9000       H81-O79=0.9000       O82-H83=0.9000       O82-H84=0.9000       H83-O82=0.9000       H84-O82=0.9000       
O85-H86=0.9000       O85-H87=0.9000       H86-O85=0.9000       H87-O85=0.9000       O88-H89=0.9000       O88-H90=0.9000       
H89-O88=0.9000       H90-O88=0.9000       O91-H92=0.9000       O91-H93=0.9000       H92-O91=0.9000       H93-O91=0.9000       
O94-H95=0.9000       O94-H96=0.9000       H95-O94=0.9000       H96-O94=0.9000       O97-H98=0.9000       O97-H99=0.9000       
H98-O97=0.9000       H99-O97=0.9000       O100-H101=0.9000     O100-H102=0.9000     H101-O100=0.9000     H102-O100=0.9000     
O103-H104=0.9000     O103-H105=0.9000     H104-O103=0.9000     H105-O103=0.9000     O106-H107=0.9000     O106-H108=0.9000     
H107-O106=0.9000     H108-O106=0.9000     O109-H110=0.9000     O109-H111=0.9000     H110-O109=0.9000     H111-O109=0.9000     
O112-H113=0.9000     O112-H114=0.9000     H113-O112=0.9000     H114-O112=0.9000     O115-H116=0.9000     O115-H117=0.9000     
H116-O115=0.9000     H117-O115=0.9000     O118-H119=0.9000     O118-H120=0.9000     H119-O118=0.9000     H120-O118=0.9000     
O121-H122=0.9000     O121-H123=0.9000     H122-O121=0.9000     H123-O121=0.9000     O124-H125=0.9000     O124-H126=0.9000     
H125-O124=0.9000     H126-O124=0.9000     O127-H128=0.9000     O127-H129=0.9000     H128-O127=0.9000     H129-O127=0.9000     
 O  H  Rav=0.9132 sigma=0.0433  Rmin=0.9000  Rmax=1.2340    83
 S  O  Rav=1.4655 sigma=0.0058  Rmin=1.4592  Rmax=1.4743     4
 Fe H  Rav=1.6939 sigma=0.0556  Rmin=1.6065  Rmax=1.7590     6
 Fe O  Rav=2.0800 sigma=0.0000  Rmin=2.0800  Rmax=2.0800     6

 selected bond angles (degree)
 --------------------
O7-Fe1-O2= 90.00               H8-Fe1-O2= 90.75               H8-Fe1-O7= 27.80               H9-Fe1-O2= 81.80               
H9-Fe1-O7= 26.84               H9-Fe1-H8= 54.00               O10-Fe1-O2=180.00              O10-Fe1-O7= 90.00              
O10-Fe1-H8= 89.25              O10-Fe1-H9= 98.20              H11-Fe1-O2=152.09              H11-Fe1-O7= 83.35              
H11-Fe1-H8= 71.01              H11-Fe1-H9=102.53              H11-Fe1-O10= 27.91             H12-Fe1-O2=152.37              
H12-Fe1-O7= 78.76              H12-Fe1-H8= 90.69              H12-Fe1-H9= 76.83              H12-Fe1-O10= 27.63             
H12-Fe1-H11= 52.07             O13-Fe1-O2= 90.00              O13-Fe1-O7=180.00              O13-Fe1-H8=152.20              
O13-Fe1-H9=153.16              O13-Fe1-O10= 90.00             O13-Fe1-H11= 96.65             O13-Fe1-H12=101.24             
H15-Fe1-O2= 93.56              H15-Fe1-O7=152.64              H15-Fe1-H8=175.64              H15-Fe1-H9=127.33              
H15-Fe1-O10= 86.44             H15-Fe1-H11=104.75             H15-Fe1-H12= 85.79             H15-Fe1-O13= 27.36             
O16-Fe1-O2= 90.00              O16-Fe1-O7= 90.00              O16-Fe1-H8= 62.21              O16-Fe1-H9=115.36              
O16-Fe1-O10= 90.00             O16-Fe1-H11= 63.03             O16-Fe1-H12=114.88             O16-Fe1-O13= 90.00             
O16-Fe1-H15=117.09             H18-Fe1-O2= 81.12              H18-Fe1-O7=116.41              H18-Fe1-H8= 89.09              
H18-Fe1-H9=138.83              H18-Fe1-O10= 98.88             H18-Fe1-H11= 77.75             H18-Fe1-H12=126.49             
H18-Fe1-O13= 63.59             H18-Fe1-H15= 90.93             H18-Fe1-O16= 28.09             O19-Fe1-O2= 90.00              
O19-Fe1-O7= 90.00              O19-Fe1-H8=117.79              O19-Fe1-H9= 64.64              O19-Fe1-O10= 90.00             
O19-Fe1-H11=116.97             O19-Fe1-H12= 65.12             O19-Fe1-O13= 90.00             O19-Fe1-H15= 62.91             
O19-Fe1-O16=180.00             O19-Fe1-H18=151.91             S3-O2-Fe1=180.00               O4-S3-O2=104.78                
O5-S3-O2=104.03                O5-S3-O4=113.91                O6-S3-O2=104.33                O6-S3-O4=113.74                
O6-S3-O5=114.48                H8-O7-Fe1= 55.34               H9-O7-Fe1= 48.29               H9-O7-H8=102.08                
O7-H8-Fe1= 96.86               O7-H9-Fe1=104.88               H11-O10-Fe1= 56.62             H12-O10-Fe1= 53.54             
H12-O10-H11=101.16             

 selected dihedral angles (degree)
 ---------------------------------
S3-O2-Fe1-O7=  0.00           S3-O2-Fe1-H8=  0.00           S3-O2-Fe1-H9=  0.00           S3-O2-Fe1-O10=  0.00          
S3-O2-Fe1-H11=  0.00          S3-O2-Fe1-H12=  0.00          S3-O2-Fe1-O13=  0.00          S3-O2-Fe1-H15=  0.00          
S3-O2-Fe1-O16=  0.00          S3-O2-Fe1-H18=  0.00          S3-O2-Fe1-O19=  0.00          O4-S3-O2-Fe1=  0.00           
O5-S3-O2-Fe1=  0.00           O6-S3-O2-Fe1=  0.00           H8-O7-Fe1-O2= 91.61           H8-O7-Fe1-H9=163.18           
H8-O7-Fe1-O10=271.61          H8-O7-Fe1-H11=298.78          H8-O7-Fe1-H12=246.21          H8-O7-Fe1-O13=  0.00          
H8-O7-Fe1-H15=189.37          H8-O7-Fe1-O16=  1.61          H8-O7-Fe1-H18= 11.54          H8-O7-Fe1-O19=181.61          
H9-O7-Fe1-O2=288.43           H9-O7-Fe1-H8=196.82           H9-O7-Fe1-O10=108.43          H9-O7-Fe1-H11=135.60          
H9-O7-Fe1-H12= 83.02          H9-O7-Fe1-O13=  0.00          H9-O7-Fe1-H15= 26.18          H9-O7-Fe1-O16=198.43          
H9-O7-Fe1-H18=208.35          H9-O7-Fe1-O19= 18.43          O7-H8-Fe1-O2=271.42           O7-H8-Fe1-H9=350.71           
O7-H8-Fe1-O10= 91.42          O7-H8-Fe1-H11=112.97          O7-H8-Fe1-H12= 63.83          O7-H8-Fe1-O13=180.00          
O7-H8-Fe1-H15=100.02          O7-H8-Fe1-O16=181.82          O7-H8-Fe1-H18=190.32          O7-H8-Fe1-O19=  1.82          
Fe1-H8-O7-H9= 12.76           O7-H9-Fe1-O2=106.56           O7-H9-Fe1-H8=  9.60           O7-H9-Fe1-O10=286.56          
O7-H9-Fe1-H11=314.61          O7-H9-Fe1-H12=268.92          O7-H9-Fe1-O13=180.00          O7-H9-Fe1-H15=194.77          
O7-H9-Fe1-O16= 20.47          O7-H9-Fe1-H18= 40.25          O7-H9-Fe1-O19=200.47          Fe1-H9-O7-H8=345.92           
H11-O10-Fe1-O2=  0.00         H11-O10-Fe1-O7= 75.68         H11-O10-Fe1-H8= 47.89         H11-O10-Fe1-H9=101.32         
H11-O10-Fe1-H12=140.82        H11-O10-Fe1-O13=255.68        H11-O10-Fe1-H15=228.54        H11-O10-Fe1-O16=345.68        
H11-O10-Fe1-H18=318.92        H11-O10-Fe1-O19=165.68        H12-O10-Fe1-O2=  0.00         H12-O10-Fe1-O7=294.86         
H12-O10-Fe1-H8=267.07         H12-O10-Fe1-H9=320.50         H12-O10-Fe1-H11=219.18        H12-O10-Fe1-O13=114.86        
H12-O10-Fe1-H15= 87.72        H12-O10-Fe1-O16=204.86        H12-O10-Fe1-H18=178.10        H12-O10-Fe1-O19= 24.86        

 CMA Distance (Angstroems)
 ---------------------------
R(CMA):  1.2361
           -------------------------------------------------
          |                Final Singlepoint                |
           -------------------------------------------------

          ...................................................
          :                      SETUP                      :
          :.................................................:
          :  # basis functions                 282          :
          :  # atomic orbitals                 280          :
          :  # shells                          178          :
          :  # electrons                       364          :
          :  max. iterations                   250          :
          :  Hamiltonian                  GFN2-xTB          :
          :  restarted?                      false          :
          :  GBSA solvation                   true          :
          :  PC potential                    false          :
          :  electronic temp.          300.0000000     K    :
          :  accuracy                    1.0000000          :
          :  -> integral cutoff          0.2500000E+02      :
          :  -> integral neglect         0.1000000E-07      :
          :  -> SCF convergence          0.1000000E-05 Eh   :
          :  -> wf. convergence          0.1000000E-03 e    :
          :  Broyden damping             0.4000000          :
          ...................................................

 iter      E             dE          RMSdq      gap      omega  full diag
   1   -209.4275140 -0.209428E+03  0.187E+01    0.35       0.0  T
   2   -227.3108291 -0.178833E+02  0.105E+01    1.99       1.0  T
   3   -230.4825456 -0.317172E+01  0.547E+00    0.26       1.0  T
   4   -231.6351400 -0.115259E+01  0.360E+00    0.23       1.0  T
   5   -230.5988311  0.103631E+01  0.429E+00    0.26       1.0  T
   6   -231.9160720 -0.131724E+01  0.205E+00    0.16       1.0  T
   7   -229.2785413  0.263753E+01  0.496E+00    0.76       1.0  T
   8   -231.8413252 -0.256278E+01  0.219E+00    0.15       1.0  T
   9   -231.9494168 -0.108092E+00  0.180E+00    0.16       1.0  T
  10   -231.8721313  0.772855E-01  0.195E+00    0.18       1.0  T
  11   -231.8556334  0.164979E-01  0.196E+00    0.19       1.0  T
  12   -231.8862021 -0.305687E-01  0.189E+00    0.19       1.0  T
  13   -232.1543245 -0.268122E+00  0.959E-01    0.20       1.0  T
  14   -232.0461622  0.108162E+00  0.136E+00    0.20       1.0  T
  15   -232.2034783 -0.157316E+00  0.719E-01    0.21       1.0  T
  16   -232.1132717  0.902066E-01  0.120E+00    0.22       1.0  T
  17   -232.1618729 -0.486012E-01  0.870E-01    0.25       1.0  T
  18   -232.1715260 -0.965310E-02  0.810E-01    0.24       1.0  T
  19   -232.1931957 -0.216697E-01  0.762E-01    0.23       1.0  T
  20   -232.2094970 -0.163013E-01  0.665E-01    0.23       1.0  T
  21   -232.2389147 -0.294177E-01  0.444E-01    0.23       1.0  T
  22   -232.2358841  0.303068E-02  0.456E-01    0.24       1.0  T
  23   -232.1895446  0.463394E-01  0.763E-01    0.24       1.0  T
  24   -232.1692200  0.203246E-01  0.862E-01    0.23       1.0  T
  25   -232.1525728  0.166472E-01  0.935E-01    0.22       1.0  T
  26   -232.1668514 -0.142786E-01  0.838E-01    0.23       1.0  T
  27   -232.2174177 -0.505663E-01  0.549E-01    0.22       1.0  T
  28   -232.2464441 -0.290264E-01  0.222E-01    0.22       1.0  T
  29   -232.2471983 -0.754185E-03  0.196E-01    0.22       1.0  T
  30   -232.2295063  0.176920E-01  0.427E-01    0.22       1.0  T
  31   -232.2483864 -0.188801E-01  0.157E-01    0.21       1.0  T
  32   -232.2501445 -0.175818E-02  0.878E-02    0.21       1.0  T
  33   -232.2493897  0.754881E-03  0.122E-01    0.21       1.0  T
  34   -232.2486955  0.694191E-03  0.147E-01    0.21       1.0  T
  35   -232.2476863  0.100915E-02  0.174E-01    0.21       1.0  T
  36   -232.2467749  0.911373E-03  0.187E-01    0.21       1.0  T
  37   -232.2473474 -0.572421E-03  0.172E-01    0.21       1.0  T
  38   -232.2497119 -0.236449E-02  0.991E-02    0.21       1.0  T
  39   -232.2508835 -0.117166E-02  0.305E-02    0.21       1.0  T
  40   -232.2508646  0.189593E-04  0.327E-02    0.21       1.0  T
  41   -232.2509159 -0.513360E-04  0.221E-02    0.21       1.0  T
  42   -232.2509496 -0.337182E-04  0.116E-02    0.21       1.0  T
  43   -232.2509192  0.304216E-04  0.199E-02    0.21       1.0  T
  44   -232.2509304 -0.112099E-04  0.167E-02    0.21       1.0  T
  45   -232.2509450 -0.145491E-04  0.118E-02    0.21       1.0  T
  46   -232.2509570 -0.120652E-04  0.607E-03    0.21       1.4  T
  47   -232.2509610 -0.394935E-05  0.202E-03    0.21       4.4  T
  48   -232.2509613 -0.316025E-06  0.128E-03    0.21       6.9  T
  49   -232.2509615 -0.165999E-06  0.464E-04    0.21      19.0  T
  50   -232.2509615 -0.131451E-07  0.279E-04    0.21      31.5  T

   *** convergence criteria satisfied after 50 iterations ***

         #    Occupation            Energy/Eh            Energy/eV
      -------------------------------------------------------------
         1        2.0000           -0.7948151             -21.6280
       ...           ...                  ...                  ...
       178        1.9201           -0.4316801             -11.7466
       179        1.8409           -0.4309407             -11.7265
       180        1.7659           -0.4304850             -11.7141
       181        1.5675           -0.4296170             -11.6905
       182        1.2898           -0.4285072             -11.6603
       183        1.1406           -0.4276388             -11.6366
       184        0.9837           -0.3832640             -10.4291 (HOMO)
       185        0.0163           -0.3754704             -10.2171 (LUMO)
       186                         -0.1258549              -3.4247
       187                         -0.0532695              -1.4495
       188                         -0.0479563              -1.3050
       189                         -0.0010376              -0.0282
       ...                                ...                  ...
       280                          2.9757882              80.9753
      -------------------------------------------------------------
                  HL-Gap            0.0077935 Eh            0.2121 eV
             Fermi-level           -0.4043630 Eh          -11.0033 eV

 SCC (total)                   0 d,  0 h,  0 min,  0.836 sec
 SCC setup                      ...        0 min,  0.003 sec (  0.357%)
 Dispersion                     ...        0 min,  0.002 sec (  0.191%)
 classical contributions        ...        0 min,  0.000 sec (  0.053%)
 integral evaluation            ...        0 min,  0.007 sec (  0.802%)
 iterations                     ...        0 min,  0.747 sec ( 89.294%)
 molecular gradient             ...        0 min,  0.076 sec (  9.109%)
 printout                       ...        0 min,  0.002 sec (  0.189%)

         :::::::::::::::::::::::::::::::::::::::::::::::::::::
         ::                     SUMMARY                     ::
         :::::::::::::::::::::::::::::::::::::::::::::::::::::
         :: total energy            -229.877999563396 Eh    ::
         :: total w/o Gsasa/hb      -229.623529805873 Eh    ::
         :: gradient norm              0.774617318132 Eh/a0 ::
         :: HOMO-LUMO gap              0.212072644737 eV    ::
         ::.................................................::
         :: SCC energy              -232.250961463426 Eh    ::
         :: -> isotropic ES            1.667622196020 Eh    ::
         :: -> anisotropic ES         -0.079254708076 Eh    ::
         :: -> anisotropic XC         -0.047334709043 Eh    ::
         :: -> dispersion             -0.057051666138 Eh    ::
         :: -> Gsolv                  -0.710769713799 Eh    ::
         ::    -> Gelec               -0.456299956276 Eh    ::
         ::    -> Gsasa                0.042675654809 Eh    ::
         ::    -> Ghb                 -0.298226172030 Eh    ::
         ::    -> Gshift               0.001080759698 Eh    ::
         :: repulsion energy           2.370184844545 Eh    ::
         :: add. restraining           0.000000000000 Eh    ::
         :: total charge               2.000000000000 e     ::
         :::::::::::::::::::::::::::::::::::::::::::::::::::::


last geometry written to: xtblast.xyz

########################################################################
[ERROR] Program stopped due to fatal error
-8- Geometry optimization failed
-7- xtb_geoopt: Trying to recover from failed geometry optimization
-6- xtb_geoopt: Geometry optimization did not converge
-5- optimizer_ancopt: Could not relax structure
-4- optimizer_relax: SCF not converged, aborting...
-3- xtb_calculator_singlepoint: Electronic structure method terminated
-2- scf: Self consistent charge iterator did not converge
-1- restart_readRestart: Number of electron missmatch in restart file.
########################################################################
