      -----------------------------------------------------------      
     |                   =====================                   |     
     |                           x T B                           |     
     |                   =====================                   |     
     |                         S. Grimme                         |     
     |          Mulliken Center for Theoretical Chemistry        |     
     |                    University of Bonn                     |     
      -----------------------------------------------------------      

   * xtb version 6.6.0 (conda-forge) compiled by 'runner@Mac-1676020848589.local' on 2023-02-10

   xtb is free software: you can redistribute it and/or modify it under
   the terms of the GNU Lesser General Public License as published by
   the Free Software Foundation, either version 3 of the License, or
   (at your option) any later version.
   
   xtb is distributed in the hope that it will be useful,
   but WITHOUT ANY WARRANTY; without even the implied warranty of
   MERCHANTABILITY or FITNESS FOR A PARTICULAR PURPOSE.  See the
   GNU Lesser General Public License for more details.
   
   Cite this work as:
   * C. Bannwarth, E. Caldeweyher, S. Ehlert, A. Hansen, P. Pracht,
     J. Seibert, S. Spicher, S. Grimme, WIREs Comput. Mol. Sci., 2020, 11,
     e01493. DOI: 10.1002/wcms.1493
   
   for GFN2-xTB:
   * C. Bannwarth, S. Ehlert and S. Grimme., J. Chem. Theory Comput., 2019,
     15, 1652-1671. DOI: 10.1021/acs.jctc.8b01176
   for GFN1-xTB:
   * S. Grimme, C. Bannwarth, P. Shushkov, J. Chem. Theory Comput., 2017,
     13, 1989-2009. DOI: 10.1021/acs.jctc.7b00118
   for GFN0-xTB:
   * P. Pracht, E. Caldeweyher, S. Ehlert, S. Grimme, ChemRxiv, 2019, preprint.
     DOI: 10.26434/chemrxiv.8326202.v1
   for GFN-FF:
   * S. Spicher and S. Grimme, Angew. Chem. Int. Ed., 2020, 59, 15665-15673.
     DOI: 10.1002/anie.202004239
   
   for ALPB and GBSA implicit solvation:
   * S. Ehlert, M. Stahn, S. Spicher, S. Grimme, J. Chem. Theory Comput.,
     2021, 17, 4250-4261. DOI: 10.1021/acs.jctc.1c00471
   
   for DFT-D4:
   * E. Caldeweyher, C. Bannwarth and S. Grimme, J. Chem. Phys., 2017,
     147, 034112. DOI: 10.1063/1.4993215
   * E. Caldeweyher, S. Ehlert, A. Hansen, H. Neugebauer, S. Spicher,
     C. Bannwarth and S. Grimme, J. Chem. Phys., 2019, 150, 154122.
     DOI: 10.1063/1.5090222
   * E. Caldeweyher, J.-M. Mewes, S. Ehlert and S. Grimme, Phys. Chem. Chem. Phys.
     2020, 22, 8499-8512. DOI: 10.1039/D0CP00502A
   
   for sTDA-xTB:
   * S. Grimme and C. Bannwarth, J. Chem. Phys., 2016, 145, 054103.
     DOI: 10.1063/1.4959605
   
   in the mass-spec context:
   * V. Asgeirsson, C. Bauer and S. Grimme, Chem. Sci., 2017, 8, 4879.
     DOI: 10.1039/c7sc00601b
   * J. Koopman and S. Grimme, ACS Omega 2019, 4, 12, 15120-15133.
     DOI: 10.1021/acsomega.9b02011
   
   for metadynamics refer to:
   * S. Grimme, J. Chem. Theory Comput., 2019, 155, 2847-2862
     DOI: 10.1021/acs.jctc.9b00143
   
   for SPH calculations refer to:
   * S. Spicher and S. Grimme, J. Chem. Theory Comput., 2021, 17, 1701-1714
     DOI: 10.1021/acs.jctc.0c01306
   
   with help from (in alphabetical order)
   P. Atkinson, C. Bannwarth, F. Bohle, G. Brandenburg, E. Caldeweyher
   M. Checinski, S. Dohm, S. Ehlert, S. Ehrlich, I. Gerasimov, C. Hölzer
   A. Katbashev, J. Koopman, C. Lavigne, S. Lehtola, F. März, M. Müller,
   F. Musil, H. Neugebauer, J. Pisarek, C. Plett, P. Pracht, F. Pultar,
   J. Seibert, P. Shushkov, S. Spicher, M. Stahn, M. Steiner, T. Strunk,
   J. Stückrath, T. Rose, and J. Unsleber
   
 * started run on 2024/05/17 at 16:33:43.517     

           -------------------------------------------------
          |                Calculation Setup                |
           -------------------------------------------------

          program call               : xtb monosubstituted_Sulfate_solvated_radius_5_solvated_radius_7.xyz --opt extreme --gfn2 --chrg 0 --uhf 5 --alpb water
          coordinate file            : monosubstituted_Sulfate_solvated_radius_5_solvated_radius_7.xyz
          omp threads                :                     8

   ID    Z sym.   atoms
    1   26 Fe     1
    2    8 O      2, 4-7, 10, 13, 16, 19, 22, 25, 28, 31, 34, 37, 40, 43, 46,
                  49, 52, 55, 58, 61, 64, 67, 70, 73, 76, 79, 82, 85, 88, 91,
                  94, 97, 100, 103, 106, 109, 112, 115, 118, 121, 124, 127
    3   16 S      3
    4    1 H      8, 9, 11, 12, 14, 15, 17, 18, 20, 21, 23, 24, 26, 27, 29,
                  30, 32, 33, 35, 36, 38, 39, 41, 42, 44, 45, 47, 48, 50, 51,
                  53, 54, 56, 57, 59, 60, 62, 63, 65, 66, 68, 69, 71, 72, 74,
                  75, 77, 78, 80, 81, 83, 84, 86, 87, 89, 90, 92, 93, 95, 96,
                  98, 99, 101, 102, 104, 105, 107, 108, 110, 111, 113, 114,
                  116, 117, 119, 120, 122, 123, 125, 126, 128, 129

molecular fragmentation (1/2 indicates fragments):
111111111111111222222222222222222222222222222222222222222222222222222222
222222222222222222222222222222222222222222222222222222222
# atoms in fragment 1/2:    15   114
 fragment masses (1/2) :      205.95      684.58
CMA distance (Bohr)    :   2.336
constraining FC (au)   :  0.0500

           -------------------------------------------------
          |                 G F N 2 - x T B                 |
           -------------------------------------------------

        Reference                      10.1021/acs.jctc.8b01176
      * Hamiltonian:
        H0-scaling (s, p, d)           1.850000    2.230000    2.230000
        zeta-weighting                 0.500000
      * Dispersion:
        s8                             2.700000
        a1                             0.520000
        a2                             5.000000
        s9                             5.000000
      * Repulsion:
        kExp                           1.500000    1.000000
        rExp                           1.000000
      * Coulomb:
        alpha                          2.000000
        third order                    shell-resolved
        anisotropic                    true
        a3                             3.000000
        a5                             4.000000
        cn-shift                       1.200000
        cn-exp                         4.000000
        max-rad                        5.000000

      * Solvation model:               ALPB
        Solvent                        water
        Parameter file                 internal GFN2-xTB/ALPB
        Dielectric constant                8.0200E+01
        Reference state                gsolv [1 M gas/solution]
        Free energy shift                  1.0808E-03 Eh       6.7819E-01 kcal/mol
        Temperature                        2.9815E+02 K
        Density                            1.0000E+00 kg/L
        Solvent mass                       1.8000E+01 g/mol
        Interaction kernel             P16
        Born radius scaling (c1)           1.4744E+00
        Born radii integrator          GBOBC
        Born offset                        0.0000E+00 a0       0.0000E+00 AA
        H-bond correction              true
        Ion screening                  false
        Surface tension                    1.0000E-05 Eh       1.5569E+01 dyn/cm
        Grid points                               230 per atom

          ...................................................
          :                      SETUP                      :
          :.................................................:
          :  # basis functions                 282          :
          :  # atomic orbitals                 280          :
          :  # shells                          178          :
          :  # electrons                       366          :
          :  max. iterations                   250          :
          :  Hamiltonian                  GFN2-xTB          :
          :  restarted?                      false          :
          :  GBSA solvation                   true          :
          :  PC potential                    false          :
          :  electronic temp.          300.0000000     K    :
          :  accuracy                    1.0000000          :
          :  -> integral cutoff          0.2500000E+02      :
          :  -> integral neglect         0.1000000E-07      :
          :  -> SCF convergence          0.1000000E-05 Eh   :
          :  -> wf. convergence          0.1000000E-03 e    :
          :  Broyden damping             0.4000000          :
          ...................................................

 iter      E             dE          RMSdq      gap      omega  full diag
   1   -232.8403307 -0.232840E+03  0.538E+00    6.62       0.0  T
   2   -232.5806336  0.259697E+00  0.371E+00    6.90       1.0  T
   3   -232.8914963 -0.310863E+00  0.239E+00    4.67       1.0  T
   4   -232.9429012 -0.514049E-01  0.125E+00    4.83       1.0  T
   5   -232.9793718 -0.364706E-01  0.922E-01    5.40       1.0  T
   6   -232.9948583 -0.154866E-01  0.589E-01    6.12       1.0  T
   7   -233.0196810 -0.248227E-01  0.361E-01    6.08       1.0  T
   8   -232.8698967  0.149784E+00  0.131E+00    6.23       1.0  T
   9   -232.9872970 -0.117400E+00  0.693E-01    6.21       1.0  T
  10   -232.9325895  0.547075E-01  0.997E-01    6.23       1.0  T
  11   -232.8708307  0.617588E-01  0.124E+00    6.38       1.0  T
  12   -232.9586842 -0.878535E-01  0.832E-01    6.37       1.0  T
  13   -233.0250630 -0.663788E-01  0.191E-01    6.32       1.0  T
  14   -233.0238224  0.124059E-02  0.225E-01    6.30       1.0  T
  15   -233.0238016  0.208101E-04  0.222E-01    6.31       1.0  T
  16   -233.0246488 -0.847153E-03  0.193E-01    6.32       1.0  T
  17   -233.0252072 -0.558481E-03  0.172E-01    6.33       1.0  T
  18   -233.0253500 -0.142778E-03  0.167E-01    6.33       1.0  T
  19   -233.0255669 -0.216897E-03  0.157E-01    6.34       1.0  T
  20   -233.0255494  0.174808E-04  0.152E-01    6.34       1.0  T
  21   -233.0259882 -0.438796E-03  0.131E-01    6.35       1.0  T
  22   -233.0275471 -0.155891E-02  0.280E-02    6.36       1.0  T
  23   -233.0275581 -0.110087E-04  0.209E-02    6.36       1.0  T
  24   -233.0275575  0.637440E-06  0.103E-02    6.36       1.0  T
  25   -233.0275325  0.249558E-04  0.175E-02    6.36       1.0  T
  26   -233.0275607 -0.281975E-04  0.449E-03    6.36       2.0  T
  27   -233.0275600  0.767242E-06  0.581E-03    6.36       1.5  T
  28   -233.0275629 -0.287756E-05  0.404E-04    6.36      21.8  T
  29   -233.0275628  0.800171E-07  0.107E-03    6.36       8.2  T
  30   -233.0275628 -0.378473E-07  0.802E-04    6.36      11.0  T
  31   -233.0275628  0.473104E-07  0.105E-03    6.36       8.4  T
  32   -233.0275629 -0.105495E-06  0.516E-05    6.36     170.8  T

   *** convergence criteria satisfied after 32 iterations ***

         #    Occupation            Energy/Eh            Energy/eV
      -------------------------------------------------------------
         1        2.0000           -0.7696272             -20.9426
       ...           ...                  ...                  ...
       179        1.9937           -0.3977102             -10.8222
       180        1.9878           -0.3970825             -10.8052
       181        1.9167           -0.3951871             -10.7536
       182        1.0950           -0.3907676             -10.6333
       183        1.0069           -0.3881941             -10.5633
       184        1.0000           -0.3463942              -9.4259
       185        1.0000           -0.3362800              -9.1506 (HOMO)
       186                         -0.1024993              -2.7891 (LUMO)
       187                         -0.0327463              -0.8911
       188                         -0.0241331              -0.6567
       189                          0.0218657               0.5950
       190                          0.0658810               1.7927
       ...                                ...                  ...
       280                          2.9652597              80.6888
      -------------------------------------------------------------
                  HL-Gap            0.2337807 Eh            6.3615 eV
             Fermi-level           -0.3061494 Eh           -8.3307 eV

 SCC (total)                   0 d,  0 h,  0 min,  0.619 sec
 SCC setup                      ...        0 min,  0.005 sec (  0.795%)
 Dispersion                     ...        0 min,  0.003 sec (  0.483%)
 classical contributions        ...        0 min,  0.001 sec (  0.125%)
 integral evaluation            ...        0 min,  0.009 sec (  1.395%)
 iterations                     ...        0 min,  0.519 sec ( 83.973%)
 molecular gradient             ...        0 min,  0.081 sec ( 13.048%)
 printout                       ...        0 min,  0.001 sec (  0.177%)

         :::::::::::::::::::::::::::::::::::::::::::::::::::::
         ::                     SUMMARY                     ::
         :::::::::::::::::::::::::::::::::::::::::::::::::::::
         :: total energy            -230.654600972721 Eh    ::
         :: total w/o Gsasa/hb      -230.406046122557 Eh    ::
         :: gradient norm              0.761113125186 Eh/a0 ::
         :: HOMO-LUMO gap              6.361495911280 eV    ::
         ::.................................................::
         :: SCC energy              -233.027562872751 Eh    ::
         :: -> isotropic ES            1.733663405173 Eh    ::
         :: -> anisotropic ES         -0.076996902775 Eh    ::
         :: -> anisotropic XC         -0.051465619199 Eh    ::
         :: -> dispersion             -0.058514593761 Eh    ::
         :: -> Gsolv                  -0.571291163279 Eh    ::
         ::    -> Gelec               -0.322736313114 Eh    ::
         ::    -> Gsasa                0.042675654809 Eh    ::
         ::    -> Ghb                 -0.292311264672 Eh    ::
         ::    -> Gshift               0.001080759698 Eh    ::
         :: repulsion energy           2.370184844545 Eh    ::
         :: add. restraining           0.000000000000 Eh    ::
         :: total charge               0.000000000053 e     ::
         :::::::::::::::::::::::::::::::::::::::::::::::::::::

      ----------------------------------------------------------- 
     |                   =====================                   |
     |                        A N C O P T                        |
     |                   =====================                   |
     |               Approximate Normal Coordinate               |
     |                Rational Function Optimizer                |
      ----------------------------------------------------------- 

          ...................................................
          :                      SETUP                      :
          :.................................................:
          :   optimization level           extreme          :
          :   max. optcycles                  2580          :
          :   ANC micro-cycles                  20          :
          :   degrees of freedom               381          :
          :.................................................:
          :   RF solver                   davidson          :
          :   write xtbopt.log                true          :
          :   linear?                        false          :
          :   energy convergence         0.5000000E-07 Eh   :
          :   grad. convergence          0.5000000E-04 Eh/α :
          :   maxmium RF displ.          1.0000000          :
          :   Hlow (freq-cutoff)         0.1000000E-01      :
          :   Hmax (freq-cutoff)         5.0000000          :
          :   S6 in model hess.         20.0000000          :
          ...................................................

generating ANC from model Hessian ...
Using Lindh-Hessian (1995)
 Shifting diagonal of input Hessian by    1.0554383068606074E-002
 Lowest  eigenvalues of input Hessian
    0.010000    0.010145    0.010279    0.010282    0.010288    0.010302
    0.010305    0.010311    0.010327    0.010366    0.010372    0.010381
    0.010393    0.010410    0.010412    0.010416    0.010426    0.010438
 Highest eigenvalues
    1.811155    1.890109    1.962208    3.080770    3.541869    3.569957


........................................................................
.............................. CYCLE    1 ..............................
........................................................................

 iter      E             dE          RMSdq      gap      omega  full diag
   1   -233.0275629 -0.233028E+03  0.107E-04    6.36       0.0  T
   2   -233.0275628  0.454829E-07  0.706E-04    6.36      12.5  T
   3   -233.0275629 -0.459230E-07  0.649E-05    6.36     135.6  T
     SCC iter.                  ...        0 min,  0.045 sec
     gradient                   ...        0 min,  0.080 sec
 * total energy  :  -230.6546010 Eh     change        0.3504681E-09 Eh
   gradient norm :     0.7610512 Eh/α   predicted     0.0000000E+00 (-100.00%)
   displ. norm   :     0.6191931 α      lambda       -0.4169449E+00
   maximum displ.:     0.1177564 α      in ANC's #289, #246, #287, ...

........................................................................
.............................. CYCLE    2 ..............................
........................................................................

 iter      E             dE          RMSdq      gap      omega  full diag
   1   -232.7162424 -0.232716E+03  0.335E-01    6.43       0.0  T
   2   -232.5231715  0.193071E+00  0.145E+00    6.54       1.0  T
   3   -232.7170494 -0.193878E+00  0.193E-01    6.44       1.0  T
   4   -232.7175008 -0.451377E-03  0.147E-01    6.44       1.0  T
   5   -232.7182680 -0.767173E-03  0.531E-02    6.45       1.0  T
   6   -232.7184542 -0.186258E-03  0.267E-02    6.44       1.0  T
   7   -232.7184929 -0.386630E-04  0.689E-03    6.45       1.3  T
   8   -232.7184925  0.391417E-06  0.507E-03    6.45       1.7  T
   9   -232.7184940 -0.143331E-05  0.136E-03    6.45       6.5  T
  10   -232.7184940 -0.769130E-07  0.633E-04    6.45      13.9  T
  11   -232.7184940  0.131049E-07  0.571E-04    6.45      15.4  T
     SCC iter.                  ...        0 min,  0.149 sec
     gradient                   ...        0 min,  0.085 sec
 * total energy  :  -230.9354219 Eh     change       -0.2808209E+00 Eh
   gradient norm :     0.3382563 Eh/α   predicted    -0.2884155E+00 (   2.70%)
   displ. norm   :     0.6428447 α      lambda       -0.1693827E+00
   maximum displ.:     0.1740767 α      in ANC's #246, #245, #238, ...

........................................................................
.............................. CYCLE    3 ..............................
........................................................................

 iter      E             dE          RMSdq      gap      omega  full diag
   1   -232.5118109 -0.232512E+03  0.394E-01    6.44       0.0  T
   2   -232.4651355  0.466755E-01  0.785E-01    6.58       1.0  T
   3   -232.5126100 -0.474746E-01  0.208E-01    6.44       1.0  T
   4   -232.5134757 -0.865638E-03  0.134E-01    6.47       1.0  T
   5   -232.5138185 -0.342829E-03  0.947E-02    6.48       1.0  T
   6   -232.5142720 -0.453477E-03  0.352E-02    6.50       1.0  T
   7   -232.5143132 -0.412343E-04  0.197E-02    6.50       1.0  T
   8   -232.5142829  0.303507E-04  0.285E-02    6.50       1.0  T
   9   -232.5143413 -0.584281E-04  0.876E-03    6.50       1.0  T
  10   -232.5143443 -0.301858E-05  0.618E-03    6.50       1.4  T
  11   -232.5143476 -0.323745E-05  0.518E-04    6.50      17.0  T
  12   -232.5143476 -0.611152E-09  0.421E-04    6.50      20.9  T
  13   -232.5143476 -0.965426E-08  0.154E-04    6.50      57.2  T
     SCC iter.                  ...        0 min,  0.182 sec
     gradient                   ...        0 min,  0.089 sec
 * total energy  :  -231.0515723 Eh     change       -0.1161505E+00 Eh
   gradient norm :     0.1251335 Eh/α   predicted    -0.1196922E+00 (   3.05%)
   displ. norm   :     0.6823419 α      lambda       -0.7256491E-01
   maximum displ.:     0.2209414 α      in ANC's #238, #235, #225, ...

........................................................................
.............................. CYCLE    4 ..............................
........................................................................

 iter      E             dE          RMSdq      gap      omega  full diag
   1   -232.4843977 -0.232484E+03  0.364E-01    6.38       0.0  T
   2   -232.4850615 -0.663758E-03  0.192E-01    6.50       1.0  T
   3   -232.4857283 -0.666861E-03  0.995E-02    6.45       1.0  T
   4   -232.4857764 -0.480947E-04  0.471E-02    6.47       1.0  T
   5   -232.4858620 -0.855645E-04  0.118E-02    6.45       1.0  T
   6   -232.4858640 -0.197593E-05  0.573E-03    6.45       1.5  T
   7   -232.4858644 -0.456363E-06  0.207E-03    6.45       4.2  T
   8   -232.4858645 -0.735349E-07  0.693E-04    6.45      12.7  T
   9   -232.4858645 -0.986236E-08  0.283E-04    6.45      31.2  T
     SCC iter.                  ...        0 min,  0.124 sec
     gradient                   ...        0 min,  0.089 sec
 * total energy  :  -231.1082751 Eh     change       -0.5670276E-01 Eh
   gradient norm :     0.1056184 Eh/α   predicted    -0.5317544E-01 (  -6.22%)
   displ. norm   :     0.7381116 α      lambda       -0.5696591E-01
   maximum displ.:     0.2484356 α      in ANC's #238, #235, #232, ...

........................................................................
.............................. CYCLE    5 ..............................
........................................................................

 iter      E             dE          RMSdq      gap      omega  full diag
   1   -232.5184858 -0.232518E+03  0.321E-01    6.26       0.0  T
   2   -232.5190685 -0.582661E-03  0.139E-01    6.33       1.0  T
   3   -232.5192240 -0.155509E-03  0.761E-02    6.30       1.0  T
   4   -232.5192496 -0.256156E-04  0.203E-02    6.30       1.0  T
   5   -232.5192558 -0.622586E-05  0.738E-03    6.29       1.2  T
   6   -232.5192565 -0.692740E-06  0.300E-03    6.29       2.9  T
   7   -232.5192567 -0.134574E-06  0.118E-03    6.29       7.5  T
   8   -232.5192567 -0.290199E-07  0.344E-04    6.29      25.6  T
   9   -232.5192567 -0.220155E-08  0.159E-04    6.29      55.3  T
     SCC iter.                  ...        0 min,  0.159 sec
     gradient                   ...        0 min,  0.087 sec
 * total energy  :  -231.1616681 Eh     change       -0.5339303E-01 Eh
   gradient norm :     0.1055700 Eh/α   predicted    -0.4400072E-01 ( -17.59%)
   displ. norm   :     0.8436451 α      lambda       -0.5995377E-01
   maximum displ.:     0.3666478 α      in ANC's #238, #235, #232, ...

........................................................................
.............................. CYCLE    6 ..............................
........................................................................

 iter      E             dE          RMSdq      gap      omega  full diag
   1   -232.5914027 -0.232591E+03  0.300E-01    6.22       0.0  T
   2   -232.5917296 -0.326855E-03  0.116E-01    6.25       1.0  T
   3   -232.5917819 -0.522761E-04  0.678E-02    6.24       1.0  T
   4   -232.5917994 -0.175295E-04  0.161E-02    6.24       1.0  T
   5   -232.5918017 -0.226534E-05  0.624E-03    6.23       1.4  T
   6   -232.5918021 -0.477835E-06  0.219E-03    6.23       4.0  T
   7   -232.5918022 -0.661588E-07  0.856E-04    6.23      10.3  T
   8   -232.5918022 -0.127532E-07  0.266E-04    6.23      33.0  T
     SCC iter.                  ...        0 min,  0.122 sec
     gradient                   ...        0 min,  0.091 sec
 * total energy  :  -231.2117522 Eh     change       -0.5008410E-01 Eh
   gradient norm :     0.0836406 Eh/α   predicted    -0.5131258E-01 (   2.45%)
   displ. norm   :     0.7843302 α      lambda       -0.4118456E-01
   maximum displ.:     0.3067850 α      in ANC's #238, #232, #235, ...

........................................................................
.............................. CYCLE    7 ..............................
........................................................................

 iter      E             dE          RMSdq      gap      omega  full diag
   1   -232.6506247 -0.232651E+03  0.187E-01    6.27       0.0  T
   2   -232.6507531 -0.128311E-03  0.832E-02    6.28       1.0  T
   3   -232.6507732 -0.201910E-04  0.486E-02    6.27       1.0  T
   4   -232.6507813 -0.805515E-05  0.147E-02    6.27       1.0  T
   5   -232.6507824 -0.109748E-05  0.419E-03    6.27       2.1  T
   6   -232.6507826 -0.157214E-06  0.126E-03    6.26       7.0  T
   7   -232.6507826 -0.220593E-07  0.523E-04    6.26      16.8  T
   8   -232.6507826 -0.529971E-08  0.218E-04    6.26      40.4  T
     SCC iter.                  ...        0 min,  0.115 sec
     gradient                   ...        0 min,  0.092 sec
 * total energy  :  -231.2465869 Eh     change       -0.3483470E-01 Eh
   gradient norm :     0.0771360 Eh/α   predicted    -0.3326015E-01 (  -4.52%)
   displ. norm   :     0.8229189 α      lambda       -0.3657975E-01
   maximum displ.:     0.3249988 α      in ANC's #238, #232, #235, ...

........................................................................
.............................. CYCLE    8 ..............................
........................................................................

 iter      E             dE          RMSdq      gap      omega  full diag
   1   -232.7248634 -0.232725E+03  0.156E-01    6.54       0.0  T
   2   -232.7250058 -0.142424E-03  0.847E-02    6.56       1.0  T
   3   -232.7250294 -0.236257E-04  0.334E-02    6.55       1.0  T
   4   -232.7250340 -0.459170E-05  0.120E-02    6.55       1.0  T
   5   -232.7250348 -0.721394E-06  0.446E-03    6.55       2.0  T
   6   -232.7250349 -0.166513E-06  0.167E-03    6.55       5.3  T
   7   -232.7250349 -0.156057E-07  0.625E-04    6.55      14.1  T
   8   -232.7250349 -0.400678E-08  0.206E-04    6.55      42.8  T
     SCC iter.                  ...        0 min,  0.113 sec
     gradient                   ...        0 min,  0.092 sec
 * total energy  :  -231.2695422 Eh     change       -0.2295526E-01 Eh
   gradient norm :     0.1050723 Eh/α   predicted    -0.3067569E-01 (  33.63%)
   displ. norm   :     0.7369150 α      lambda       -0.3742038E-01
   maximum displ.:     0.2488217 α      in ANC's #225, #238, #232, ...

........................................................................
.............................. CYCLE    9 ..............................
........................................................................

 iter      E             dE          RMSdq      gap      omega  full diag
   1   -232.7353330 -0.232735E+03  0.231E-01    6.53       0.0  T
   2   -232.7356518 -0.318778E-03  0.103E-01    6.56       1.0  T
   3   -232.7356838 -0.319943E-04  0.572E-02    6.55       1.0  T
   4   -232.7356938 -0.100660E-04  0.209E-02    6.55       1.0  T
   5   -232.7356956 -0.178434E-05  0.575E-03    6.55       1.5  T
   6   -232.7356959 -0.251976E-06  0.197E-03    6.55       4.5  T
   7   -232.7356959 -0.283087E-07  0.946E-04    6.55       9.3  T
   8   -232.7356959 -0.124055E-07  0.325E-04    6.55      27.1  T
     SCC iter.                  ...        0 min,  0.111 sec
     gradient                   ...        0 min,  0.091 sec
 * total energy  :  -231.2942782 Eh     change       -0.2473598E-01 Eh
   gradient norm :     0.0799306 Eh/α   predicted    -0.2887064E-01 (  16.72%)
   displ. norm   :     0.7834183 α      lambda       -0.2458434E-01
   maximum displ.:     0.2195864 α      in ANC's #194, #238, #232, ...

........................................................................
.............................. CYCLE   10 ..............................
........................................................................

 iter      E             dE          RMSdq      gap      omega  full diag
   1   -232.6836176 -0.232684E+03  0.185E-01    6.47       0.0  T
   2   -232.6838109 -0.193344E-03  0.103E-01    6.51       1.0  T
   3   -232.6838373 -0.263911E-04  0.457E-02    6.51       1.0  T
   4   -232.6838440 -0.666491E-05  0.133E-02    6.51       1.0  T
   5   -232.6838449 -0.922617E-06  0.415E-03    6.51       2.1  T
   6   -232.6838450 -0.124203E-06  0.182E-03    6.51       4.8  T
   7   -232.6838450 -0.251789E-07  0.768E-04    6.51      11.5  T
   8   -232.6838450 -0.727337E-08  0.285E-04    6.51      30.9  T
     SCC iter.                  ...        0 min,  0.116 sec
     gradient                   ...        0 min,  0.089 sec
 * total energy  :  -231.3067286 Eh     change       -0.1245042E-01 Eh
   gradient norm :     0.1199525 Eh/α   predicted    -0.1983641E-01 (  59.32%)
   displ. norm   :     0.6619239 α      lambda       -0.3085810E-01
   maximum displ.:     0.1987016 α      in ANC's #238, #184, #232, ...

........................................................................
.............................. CYCLE   11 ..............................
........................................................................

 iter      E             dE          RMSdq      gap      omega  full diag
   1   -232.7258247 -0.232726E+03  0.152E-01    6.73       0.0  T
   2   -232.7259823 -0.157554E-03  0.850E-02    6.78       1.0  T
   3   -232.7260087 -0.264285E-04  0.365E-02    6.79       1.0  T
   4   -232.7260142 -0.551509E-05  0.131E-02    6.79       1.0  T
   5   -232.7260155 -0.123066E-05  0.487E-03    6.79       1.8  T
   6   -232.7260156 -0.111584E-06  0.266E-03    6.79       3.3  T
   7   -232.7260156 -0.468129E-07  0.989E-04    6.79       8.9  T
   8   -232.7260156 -0.852523E-08  0.256E-04    6.79      34.4  T
     SCC iter.                  ...        0 min,  0.115 sec
     gradient                   ...        0 min,  0.091 sec
 * total energy  :  -231.3256720 Eh     change       -0.1894340E-01 Eh
   gradient norm :     0.0778085 Eh/α   predicted    -0.2218919E-01 (  17.13%)
   displ. norm   :     0.7014967 α      lambda       -0.2920230E-01
   maximum displ.:     0.2429989 α      in ANC's #233, #203, #238, ...

........................................................................
.............................. CYCLE   12 ..............................
........................................................................

 iter      E             dE          RMSdq      gap      omega  full diag
   1   -232.8054448 -0.232805E+03  0.228E-01    7.27       0.0  T
   2   -232.8057977 -0.352954E-03  0.126E-01    7.33       1.0  T
   3   -232.8058620 -0.643029E-04  0.563E-02    7.34       1.0  T
   4   -232.8058733 -0.112748E-04  0.235E-02    7.34       1.0  T
   5   -232.8058766 -0.334745E-05  0.911E-03    7.33       1.0  T
   6   -232.8058772 -0.571969E-06  0.367E-03    7.33       2.4  T
   7   -232.8058773 -0.928858E-07  0.126E-03    7.34       7.0  T
   8   -232.8058773 -0.155578E-07  0.551E-04    7.34      16.0  T
   9   -232.8058773 -0.614924E-08  0.263E-04    7.34      33.5  T
     SCC iter.                  ...        0 min,  0.129 sec
     gradient                   ...        0 min,  0.091 sec
 * total energy  :  -231.3181366 Eh     change        0.7535416E-02 Eh
   gradient norm :     0.2063685 Eh/α   predicted    -0.2178636E-01 (-389.12%)
   displ. norm   :     0.4219271 α      lambda       -0.4801642E-01
   maximum displ.:     0.1996346 α      in ANC's #233, #232, #194, ...

........................................................................
.............................. CYCLE   13 ..............................
........................................................................

 iter      E             dE          RMSdq      gap      omega  full diag
   1   -232.7737805 -0.232774E+03  0.173E-01    6.92       0.0  T
   2   -232.7740422 -0.261696E-03  0.979E-02    6.94       1.0  T
   3   -232.7740720 -0.298594E-04  0.623E-02    6.94       1.0  T
   4   -232.7740856 -0.136122E-04  0.177E-02    6.94       1.0  T
   5   -232.7740877 -0.204121E-05  0.594E-03    6.94       1.5  T
   6   -232.7740880 -0.294708E-06  0.229E-03    6.94       3.8  T
   7   -232.7740880 -0.242527E-07  0.104E-03    6.93       8.5  T
   8   -232.7740880 -0.816044E-08  0.275E-04    6.93      32.0  T
   9   -232.7740880 -0.138499E-08  0.139E-04    6.93      63.2  T
     SCC iter.                  ...        0 min,  0.131 sec
     gradient                   ...        0 min,  0.091 sec
 * total energy  :  -231.3431794 Eh     change       -0.2504278E-01 Eh
   gradient norm :     0.0782832 Eh/α   predicted    -0.2828224E-01 (  12.94%)
   displ. norm   :     0.6817758 α      lambda       -0.2561210E-01
   maximum displ.:     0.2101334 α      in ANC's #194, #210, #202, ...

........................................................................
.............................. CYCLE   14 ..............................
........................................................................

 iter      E             dE          RMSdq      gap      omega  full diag
   1   -232.7207512 -0.232721E+03  0.221E-01    7.08       0.0  T
   2   -232.7209205 -0.169364E-03  0.126E-01    7.10       1.0  T
   3   -232.7209629 -0.423452E-04  0.761E-02    7.11       1.0  T
   4   -232.7209865 -0.236197E-04  0.232E-02    7.12       1.0  T
   5   -232.7209895 -0.301038E-05  0.102E-02    7.12       1.0  T
   6   -232.7209903 -0.837440E-06  0.452E-03    7.12       1.9  T
   7   -232.7209905 -0.135015E-06  0.200E-03    7.12       4.4  T
   8   -232.7209905 -0.364301E-07  0.553E-04    7.12      15.9  T
   9   -232.7209905 -0.262915E-08  0.226E-04    7.12      38.9  T
     SCC iter.                  ...        0 min,  0.133 sec
     gradient                   ...        0 min,  0.089 sec
 * total energy  :  -231.3388080 Eh     change        0.4371376E-02 Eh
   gradient norm :     0.1544592 Eh/α   predicted    -0.1875856E-01 (-529.12%)
   displ. norm   :     0.4532925 α      lambda       -0.3287165E-01
   maximum displ.:     0.1337284 α      in ANC's #194, #179, #243, ...

........................................................................
.............................. CYCLE   15 ..............................
........................................................................

 iter      E             dE          RMSdq      gap      omega  full diag
   1   -232.7439882 -0.232744E+03  0.160E-01    7.08       0.0  T
   2   -232.7441097 -0.121435E-03  0.101E-01    7.09       1.0  T
   3   -232.7441366 -0.268846E-04  0.607E-02    7.10       1.0  T
   4   -232.7441513 -0.147918E-04  0.215E-02    7.09       1.0  T
   5   -232.7441539 -0.254433E-05  0.895E-03    7.09       1.0  T
   6   -232.7441546 -0.700606E-06  0.325E-03    7.09       2.7  T
   7   -232.7441547 -0.614773E-07  0.151E-03    7.09       5.8  T
   8   -232.7441547 -0.160697E-07  0.520E-04    7.09      16.9  T
   9   -232.7441547 -0.237154E-08  0.209E-04    7.09      42.2  T
     SCC iter.                  ...        0 min,  0.130 sec
     gradient                   ...        0 min,  0.090 sec
 * total energy  :  -231.3572287 Eh     change       -0.1842075E-01 Eh
   gradient norm :     0.0754464 Eh/α   predicted    -0.1981298E-01 (   7.56%)
   displ. norm   :     0.6933151 α      lambda       -0.2529325E-01
   maximum displ.:     0.2331529 α      in ANC's #210, #203, #194, ...

........................................................................
.............................. CYCLE   16 ..............................
........................................................................

 iter      E             dE          RMSdq      gap      omega  full diag
   1   -232.8100295 -0.232810E+03  0.273E-01    7.08       0.0  T
   2   -232.8102904 -0.260863E-03  0.182E-01    7.10       1.0  T
   3   -232.8103715 -0.811797E-04  0.102E-01    7.11       1.0  T
   4   -232.8104143 -0.427967E-04  0.372E-02    7.12       1.0  T
   5   -232.8104213 -0.697348E-05  0.163E-02    7.12       1.0  T
   6   -232.8104233 -0.201769E-05  0.676E-03    7.11       1.3  T
   7   -232.8104236 -0.288756E-06  0.309E-03    7.11       2.8  T
   8   -232.8104237 -0.709018E-07  0.109E-03    7.11       8.1  T
   9   -232.8104237 -0.919832E-08  0.413E-04    7.11      21.3  T
  10   -232.8104237 -0.286488E-08  0.189E-04    7.11      46.7  T
     SCC iter.                  ...        0 min,  0.149 sec
     gradient                   ...        0 min,  0.089 sec
 * total energy  :  -231.3340833 Eh     change        0.2314543E-01 Eh
   gradient norm :     0.2690613 Eh/α   predicted    -0.1872569E-01 (-180.90%)
   displ. norm   :     0.3781664 α      lambda       -0.5973478E-01
   maximum displ.:     0.0858876 α      in ANC's #210, #238, #240, ...

........................................................................
.............................. CYCLE   17 ..............................
........................................................................

 iter      E             dE          RMSdq      gap      omega  full diag
   1   -232.8028881 -0.232803E+03  0.150E-01    7.25       0.0  T
   2   -232.8029935 -0.105462E-03  0.892E-02    7.25       1.0  T
   3   -232.8030223 -0.287717E-04  0.592E-02    7.25       1.0  T
   4   -232.8030373 -0.150131E-04  0.192E-02    7.25       1.0  T
   5   -232.8030395 -0.215253E-05  0.883E-03    7.25       1.0  T
   6   -232.8030401 -0.666958E-06  0.427E-03    7.25       2.1  T
   7   -232.8030402 -0.104981E-06  0.194E-03    7.25       4.5  T
   8   -232.8030403 -0.282790E-07  0.682E-04    7.25      12.9  T
   9   -232.8030403 -0.308393E-08  0.179E-04    7.25      49.1  T
     SCC iter.                  ...        0 min,  0.129 sec
     gradient                   ...        0 min,  0.091 sec
 * total energy  :  -231.3651377 Eh     change       -0.3105442E-01 Eh
   gradient norm :     0.0601874 Eh/α   predicted    -0.3413874E-01 (   9.93%)
   displ. norm   :     0.7156109 α      lambda       -0.2123745E-01
   maximum displ.:     0.2160443 α      in ANC's #205, #103, #204, ...

........................................................................
.............................. CYCLE   18 ..............................
........................................................................

 iter      E             dE          RMSdq      gap      omega  full diag
   1   -232.6772639 -0.232677E+03  0.260E-01    7.11       0.0  T
   2   -232.6774888 -0.224918E-03  0.172E-01    7.11       1.0  T
   3   -232.6775423 -0.534974E-04  0.121E-01    7.12       1.0  T
   4   -232.6775898 -0.475149E-04  0.329E-02    7.12       1.0  T
   5   -232.6775955 -0.570002E-05  0.131E-02    7.12       1.0  T
   6   -232.6775968 -0.128342E-05  0.673E-03    7.12       1.3  T
   7   -232.6775970 -0.241541E-06  0.280E-03    7.12       3.1  T
   8   -232.6775971 -0.505140E-07  0.913E-04    7.12       9.6  T
   9   -232.6775971 -0.678546E-08  0.358E-04    7.12      24.6  T
     SCC iter.                  ...        0 min,  0.131 sec
     gradient                   ...        0 min,  0.090 sec
 * total energy  :  -231.3513784 Eh     change        0.1375931E-01 Eh
   gradient norm :     0.1798047 Eh/α   predicted    -0.1605655E-01 (-216.70%)
   displ. norm   :     0.4354949 α      lambda       -0.4504652E-01
   maximum displ.:     0.2040531 α      in ANC's #103, #170, #99, ...

........................................................................
.............................. CYCLE   19 ..............................
........................................................................

 iter      E             dE          RMSdq      gap      omega  full diag
   1   -232.7587337 -0.232759E+03  0.210E-01    7.34       0.0  T
   2   -232.7588952 -0.161512E-03  0.137E-01    7.34       1.0  T
   3   -232.7589425 -0.472609E-04  0.873E-02    7.35       1.0  T
   4   -232.7589695 -0.270761E-04  0.205E-02    7.35       1.0  T
   5   -232.7589715 -0.194207E-05  0.130E-02    7.35       1.0  T
   6   -232.7589725 -0.103634E-05  0.544E-03    7.35       1.6  T
   7   -232.7589726 -0.126260E-06  0.193E-03    7.35       4.6  T
   8   -232.7589727 -0.144165E-07  0.491E-04    7.35      17.9  T
   9   -232.7589727 -0.129339E-08  0.180E-04    7.35      48.9  T
     SCC iter.                  ...        0 min,  0.135 sec
     gradient                   ...        0 min,  0.091 sec
 * total energy  :  -231.3701756 Eh     change       -0.1879720E-01 Eh
   gradient norm :     0.1052748 Eh/α   predicted    -0.2679491E-01 (  42.55%)
   displ. norm   :     0.7269482 α      lambda       -0.4306427E-01
   maximum displ.:     0.2391143 α      in ANC's #205, #204, #194, ...

........................................................................
.............................. CYCLE   20 ..............................
........................................................................

 iter      E             dE          RMSdq      gap      omega  full diag
   1   -232.9003833 -0.232900E+03  0.325E-01    7.41       0.0  T
   2   -232.9008005 -0.417162E-03  0.200E-01    7.42       1.0  T
   3   -232.9008905 -0.900019E-04  0.138E-01    7.42       1.0  T
   4   -232.9009599 -0.694385E-04  0.299E-02    7.41       1.0  T
   5   -232.9009653 -0.540988E-05  0.184E-02    7.41       1.0  T
   6   -232.9009671 -0.179908E-05  0.999E-03    7.41       1.0  T
   7   -232.9009675 -0.386659E-06  0.385E-03    7.41       2.3  T
   8   -232.9009676 -0.908149E-07  0.125E-03    7.41       7.0  T
   9   -232.9009676 -0.150657E-07  0.575E-04    7.41      15.3  T
  10   -232.9009676 -0.444280E-08  0.261E-04    7.41      33.7  T
     SCC iter.                  ...        0 min,  0.147 sec
     gradient                   ...        0 min,  0.089 sec
 * total energy  :  -231.3329600 Eh     change        0.3721558E-01 Eh
   gradient norm :     0.3220322 Eh/α   predicted    -0.3291088E-01 (-188.43%)
   displ. norm   :     0.3675917 α      lambda       -0.9068131E-01
   maximum displ.:     0.1848235 α      in ANC's #243, #194, #213, ...
 * RMSD in coord.:     0.7459698 α      energy gain  -0.6783591E+00 Eh

generating ANC from model Hessian ...
Using Lindh-Hessian (1995)
 Shifting diagonal of input Hessian by    1.0577520294788732E-002
 Lowest  eigenvalues of input Hessian
    0.010000    0.010316    0.010336    0.010341    0.010350    0.010420
    0.010432    0.010440    0.010445    0.010456    0.010470    0.010473
    0.010487    0.010492    0.010497    0.010499    0.010503    0.010506
 Highest eigenvalues
    1.490640    1.515525    1.626880    3.002011    3.165212    3.346194


........................................................................
.............................. CYCLE   21 ..............................
........................................................................

 iter      E             dE          RMSdq      gap      omega  full diag
   1   -232.8144588 -0.232814E+03  0.197E-01    7.23       0.0  T
   2   -232.8147096 -0.250794E-03  0.112E-01    7.23       1.0  T
   3   -232.8147479 -0.383569E-04  0.706E-02    7.23       1.0  T
   4   -232.8147662 -0.182222E-04  0.374E-02    7.23       1.0  T
   5   -232.8147731 -0.697385E-05  0.119E-02    7.23       1.0  T
   6   -232.8147741 -0.951539E-06  0.756E-03    7.23       1.2  T
   7   -232.8147743 -0.234198E-06  0.303E-03    7.23       2.9  T
   8   -232.8147744 -0.484607E-07  0.966E-04    7.23       9.1  T
   9   -232.8147744 -0.706211E-08  0.335E-04    7.23      26.3  T
     SCC iter.                  ...        0 min,  0.138 sec
     gradient                   ...        0 min,  0.091 sec
 * total energy  :  -231.3693133 Eh     change       -0.3635331E-01 Eh
   gradient norm :     0.1187416 Eh/α   predicted     0.0000000E+00 (-100.00%)
   displ. norm   :     0.4874620 α      lambda       -0.2047036E-01
   maximum displ.:     0.1658874 α      in ANC's #241, #233, #240, ...

........................................................................
.............................. CYCLE   22 ..............................
........................................................................

 iter      E             dE          RMSdq      gap      omega  full diag
   1   -232.8109375 -0.232811E+03  0.124E-01    7.38       0.0  T
   2   -232.8109745 -0.370108E-04  0.766E-02    7.38       1.0  T
   3   -232.8109815 -0.699516E-05  0.542E-02    7.38       1.0  T
   4   -232.8109896 -0.810052E-05  0.175E-02    7.39       1.0  T
   5   -232.8109908 -0.120510E-05  0.515E-03    7.39       1.7  T
   6   -232.8109909 -0.153280E-06  0.272E-03    7.39       3.2  T
   7   -232.8109910 -0.312334E-07  0.125E-03    7.39       7.0  T
   8   -232.8109910 -0.830087E-08  0.561E-04    7.39      15.7  T
   9   -232.8109910 -0.239314E-08  0.181E-04    7.39      48.7  T
     SCC iter.                  ...        0 min,  0.135 sec
     gradient                   ...        0 min,  0.091 sec
 * total energy  :  -231.3853092 Eh     change       -0.1599587E-01 Eh
   gradient norm :     0.0465727 Eh/α   predicted    -0.1267457E-01 ( -20.76%)
   displ. norm   :     0.6871995 α      lambda       -0.1477473E-01
   maximum displ.:     0.2461519 α      in ANC's #241, #240, #233, ...

........................................................................
.............................. CYCLE   23 ..............................
........................................................................

 iter      E             dE          RMSdq      gap      omega  full diag
   1   -232.7923785 -0.232792E+03  0.171E-01    7.48       0.0  T
   2   -232.7924416 -0.631436E-04  0.112E-01    7.48       1.0  T
   3   -232.7924569 -0.153271E-04  0.791E-02    7.48       1.0  T
   4   -232.7924716 -0.146437E-04  0.178E-02    7.48       1.0  T
   5   -232.7924729 -0.130270E-05  0.917E-03    7.48       1.0  T
   6   -232.7924734 -0.482236E-06  0.364E-03    7.48       2.4  T
   7   -232.7924734 -0.745071E-07  0.163E-03    7.48       5.4  T
   8   -232.7924734 -0.213698E-07  0.577E-04    7.48      15.3  T
   9   -232.7924735 -0.454310E-08  0.302E-04    7.48      29.2  T
     SCC iter.                  ...        0 min,  0.131 sec
     gradient                   ...        0 min,  0.091 sec
 * total energy  :  -231.3929607 Eh     change       -0.7651515E-02 Eh
   gradient norm :     0.0651853 Eh/α   predicted    -0.1087603E-01 (  42.14%)
   displ. norm   :     0.5665002 α      lambda       -0.9673620E-02
   maximum displ.:     0.1340891 α      in ANC's #218, #236, #189, ...

........................................................................
.............................. CYCLE   24 ..............................
........................................................................

 iter      E             dE          RMSdq      gap      omega  full diag
   1   -232.7858226 -0.232786E+03  0.127E-01    7.47       0.0  T
   2   -232.7858480 -0.254086E-04  0.895E-02    7.47       1.0  T
   3   -232.7858576 -0.961083E-05  0.599E-02    7.47       1.0  T
   4   -232.7858649 -0.733059E-05  0.150E-02    7.47       1.0  T
   5   -232.7858660 -0.108380E-05  0.506E-03    7.47       1.7  T
   6   -232.7858662 -0.157069E-06  0.207E-03    7.47       4.3  T
   7   -232.7858662 -0.210273E-07  0.110E-03    7.47       8.0  T
   8   -232.7858662 -0.761321E-08  0.317E-04    7.47      27.7  T
   9   -232.7858662 -0.156393E-08  0.117E-04    7.47      75.0  T
     SCC iter.                  ...        0 min,  0.131 sec
     gradient                   ...        0 min,  0.090 sec
 * total energy  :  -231.3998058 Eh     change       -0.6845034E-02 Eh
   gradient norm :     0.0538408 Eh/α   predicted    -0.6389103E-02 (  -6.66%)
   displ. norm   :     0.6985366 α      lambda       -0.1003916E-01
   maximum displ.:     0.1897565 α      in ANC's #188, #218, #164, ...

........................................................................
.............................. CYCLE   25 ..............................
........................................................................

 iter      E             dE          RMSdq      gap      omega  full diag
   1   -232.8123268 -0.232812E+03  0.159E-01    7.44       0.0  T
   2   -232.8123624 -0.355564E-04  0.132E-01    7.45       1.0  T
   3   -232.8123983 -0.359269E-04  0.599E-02    7.45       1.0  T
   4   -232.8124029 -0.460409E-05  0.266E-02    7.45       1.0  T
   5   -232.8124063 -0.337187E-05  0.628E-03    7.45       1.4  T
   6   -232.8124066 -0.268745E-06  0.292E-03    7.45       3.0  T
   7   -232.8124066 -0.582376E-07  0.134E-03    7.45       6.6  T
   8   -232.8124066 -0.102116E-07  0.529E-04    7.45      16.6  T
   9   -232.8124066 -0.248642E-08  0.226E-04    7.45      38.9  T
     SCC iter.                  ...        0 min,  0.131 sec
     gradient                   ...        0 min,  0.091 sec
 * total energy  :  -231.4049755 Eh     change       -0.5169771E-02 Eh
   gradient norm :     0.0600086 Eh/α   predicted    -0.7468899E-02 (  44.47%)
   displ. norm   :     0.6388489 α      lambda       -0.1008251E-01
   maximum displ.:     0.1197463 α      in ANC's #164, #169, #194, ...

........................................................................
.............................. CYCLE   26 ..............................
........................................................................

 iter      E             dE          RMSdq      gap      omega  full diag
   1   -232.8293600 -0.232829E+03  0.142E-01    7.55       0.0  T
   2   -232.8293777 -0.177422E-04  0.121E-01    7.54       1.0  T
   3   -232.8294079 -0.301891E-04  0.538E-02    7.55       1.0  T
   4   -232.8294106 -0.273153E-05  0.227E-02    7.55       1.0  T
   5   -232.8294132 -0.256301E-05  0.509E-03    7.55       1.7  T
   6   -232.8294133 -0.153939E-06  0.215E-03    7.55       4.1  T
   7   -232.8294134 -0.217568E-07  0.995E-04    7.55       8.8  T
   8   -232.8294134 -0.509510E-08  0.345E-04    7.55      25.5  T
     SCC iter.                  ...        0 min,  0.122 sec
     gradient                   ...        0 min,  0.090 sec
 * total energy  :  -231.4129010 Eh     change       -0.7925518E-02 Eh
   gradient norm :     0.0332278 Eh/α   predicted    -0.7098747E-02 ( -10.43%)
   displ. norm   :     0.8150970 α      lambda       -0.1006677E-01
   maximum displ.:     0.1519957 α      in ANC's #164, #96, #188, ...

........................................................................
.............................. CYCLE   27 ..............................
........................................................................

 iter      E             dE          RMSdq      gap      omega  full diag
   1   -232.8030419 -0.232803E+03  0.191E-01    7.54       0.0  T
   2   -232.8030777 -0.358711E-04  0.162E-01    7.54       1.0  T
   3   -232.8031290 -0.512796E-04  0.814E-02    7.54       1.0  T
   4   -232.8031395 -0.105219E-04  0.267E-02    7.54       1.0  T
   5   -232.8031430 -0.345963E-05  0.786E-03    7.54       1.1  T
   6   -232.8031434 -0.417966E-06  0.363E-03    7.54       2.4  T
   7   -232.8031435 -0.810857E-07  0.153E-03    7.54       5.8  T
   8   -232.8031435 -0.998077E-08  0.625E-04    7.54      14.1  T
   9   -232.8031435 -0.338230E-08  0.214E-04    7.54      41.1  T
     SCC iter.                  ...        0 min,  0.133 sec
     gradient                   ...        0 min,  0.091 sec
 * total energy  :  -231.4177316 Eh     change       -0.4830513E-02 Eh
   gradient norm :     0.0746299 Eh/α   predicted    -0.8377484E-02 (  73.43%)
   displ. norm   :     0.5820688 α      lambda       -0.1101398E-01
   maximum displ.:     0.1027460 α      in ANC's #111, #149, #166, ...

........................................................................
.............................. CYCLE   28 ..............................
........................................................................

 iter      E             dE          RMSdq      gap      omega  full diag
   1   -232.8267283 -0.232827E+03  0.126E-01    7.59       0.0  T
   2   -232.8267525 -0.242061E-04  0.105E-01    7.59       1.0  T
   3   -232.8267798 -0.273359E-04  0.499E-02    7.59       1.0  T
   4   -232.8267863 -0.652310E-05  0.132E-02    7.59       1.0  T
   5   -232.8267871 -0.792155E-06  0.657E-03    7.59       1.3  T
   6   -232.8267874 -0.302939E-06  0.236E-03    7.59       3.7  T
   7   -232.8267874 -0.327433E-07  0.100E-03    7.59       8.8  T
   8   -232.8267875 -0.598419E-08  0.487E-04    7.59      18.1  T
   9   -232.8267875 -0.224011E-08  0.128E-04    7.59      68.7  T
     SCC iter.                  ...        0 min,  0.135 sec
     gradient                   ...        0 min,  0.090 sec
 * total energy  :  -231.4244480 Eh     change       -0.6716492E-02 Eh
   gradient norm :     0.0503526 Eh/α   predicted    -0.7372795E-02 (   9.77%)
   displ. norm   :     0.7061056 α      lambda       -0.1173941E-01
   maximum displ.:     0.1435734 α      in ANC's #74, #149, #96, ...

........................................................................
.............................. CYCLE   29 ..............................
........................................................................

 iter      E             dE          RMSdq      gap      omega  full diag
   1   -232.8807897 -0.232881E+03  0.160E-01    7.62       0.0  T
   2   -232.8808437 -0.539637E-04  0.116E-01    7.63       1.0  T
   3   -232.8808636 -0.198737E-04  0.843E-02    7.63       1.0  T
   4   -232.8808835 -0.198823E-04  0.175E-02    7.63       1.0  T
   5   -232.8808850 -0.149593E-05  0.829E-03    7.63       1.1  T
   6   -232.8808854 -0.437226E-06  0.501E-03    7.63       1.8  T
   7   -232.8808855 -0.142430E-06  0.139E-03    7.63       6.3  T
   8   -232.8808856 -0.153999E-07  0.461E-04    7.63      19.1  T
   9   -232.8808856 -0.229704E-08  0.123E-04    7.63      71.6  T
     SCC iter.                  ...        0 min,  0.135 sec
     gradient                   ...        0 min,  0.090 sec
 * total energy  :  -231.4249444 Eh     change       -0.4963051E-03 Eh
   gradient norm :     0.1052791 Eh/α   predicted    -0.8796270E-02 (1672.35%)
   displ. norm   :     0.5391134 α      lambda       -0.1471478E-01
   maximum displ.:     0.1765230 α      in ANC's #121, #148, #111, ...

........................................................................
.............................. CYCLE   30 ..............................
........................................................................

 iter      E             dE          RMSdq      gap      omega  full diag
   1   -232.8505387 -0.232851E+03  0.137E-01    7.56       0.0  T
   2   -232.8505802 -0.415061E-04  0.921E-02    7.56       1.0  T
   3   -232.8505896 -0.941161E-05  0.740E-02    7.56       1.0  T
   4   -232.8506049 -0.152526E-04  0.169E-02    7.56       1.0  T
   5   -232.8506063 -0.139127E-05  0.648E-03    7.56       1.4  T
   6   -232.8506066 -0.342197E-06  0.398E-03    7.56       2.2  T
   7   -232.8506067 -0.862716E-07  0.152E-03    7.56       5.8  T
   8   -232.8506067 -0.184250E-07  0.616E-04    7.56      14.3  T
   9   -232.8506067 -0.472883E-08  0.149E-04    7.56      59.0  T
     SCC iter.                  ...        0 min,  0.133 sec
     gradient                   ...        0 min,  0.092 sec
 * total energy  :  -231.4303660 Eh     change       -0.5421621E-02 Eh
   gradient norm :     0.0857569 Eh/α   predicted    -0.9495779E-02 (  75.15%)
   displ. norm   :     0.6617291 α      lambda       -0.2148676E-01
   maximum displ.:     0.1990416 α      in ANC's #121, #116, #172, ...

........................................................................
.............................. CYCLE   31 ..............................
........................................................................

 iter      E             dE          RMSdq      gap      omega  full diag
   1   -232.7863778 -0.232786E+03  0.215E-01    7.49       0.0  T
   2   -232.7865107 -0.132915E-03  0.132E-01    7.48       1.0  T
   3   -232.7865299 -0.191972E-04  0.107E-01    7.48       1.0  T
   4   -232.7865748 -0.449299E-04  0.215E-02    7.48       1.0  T
   5   -232.7865777 -0.282884E-05  0.102E-02    7.48       1.0  T
   6   -232.7865786 -0.897787E-06  0.498E-03    7.48       1.8  T
   7   -232.7865787 -0.115646E-06  0.269E-03    7.48       3.3  T
   8   -232.7865787 -0.566341E-07  0.976E-04    7.48       9.0  T
   9   -232.7865788 -0.110265E-07  0.321E-04    7.48      27.4  T
     SCC iter.                  ...        0 min,  0.136 sec
     gradient                   ...        0 min,  0.089 sec
 * total energy  :  -231.4196495 Eh     change        0.1071650E-01 Eh
   gradient norm :     0.1640423 Eh/α   predicted    -0.1544776E-01 (-244.15%)
   displ. norm   :     0.4500984 α      lambda       -0.3582067E-01
   maximum displ.:     0.1162081 α      in ANC's #78, #85, #93, ...

........................................................................
.............................. CYCLE   32 ..............................
........................................................................

 iter      E             dE          RMSdq      gap      omega  full diag
   1   -232.8380932 -0.232838E+03  0.165E-01    7.60       0.0  T
   2   -232.8381767 -0.834463E-04  0.105E-01    7.60       1.0  T
   3   -232.8381856 -0.889048E-05  0.953E-02    7.60       1.0  T
   4   -232.8382200 -0.344412E-04  0.184E-02    7.60       1.0  T
   5   -232.8382217 -0.172359E-05  0.871E-03    7.60       1.0  T
   6   -232.8382223 -0.556010E-06  0.484E-03    7.60       1.8  T
   7   -232.8382224 -0.101837E-06  0.178E-03    7.60       4.9  T
   8   -232.8382224 -0.216025E-07  0.719E-04    7.60      12.2  T
   9   -232.8382224 -0.366796E-08  0.169E-04    7.60      52.0  T
     SCC iter.                  ...        0 min,  0.130 sec
     gradient                   ...        0 min,  0.089 sec
 * total energy  :  -231.4357407 Eh     change       -0.1609124E-01 Eh
   gradient norm :     0.0746977 Eh/α   predicted    -0.2153877E-01 (  33.85%)
   displ. norm   :     0.7139036 α      lambda       -0.2375137E-01
   maximum displ.:     0.1749407 α      in ANC's #179, #193, #27, ...

........................................................................
.............................. CYCLE   33 ..............................
........................................................................

 iter      E             dE          RMSdq      gap      omega  full diag
   1   -232.9052276 -0.232905E+03  0.234E-01    7.57       0.0  T
   2   -232.9053576 -0.129996E-03  0.154E-01    7.57       1.0  T
   3   -232.9053800 -0.223844E-04  0.135E-01    7.58       1.0  T
   4   -232.9054344 -0.543457E-04  0.216E-02    7.57       1.0  T
   5   -232.9054367 -0.232312E-05  0.123E-02    7.57       1.0  T
   6   -232.9054377 -0.101990E-05  0.666E-03    7.57       1.3  T
   7   -232.9054379 -0.221255E-06  0.247E-03    7.57       3.6  T
   8   -232.9054380 -0.475029E-07  0.103E-03    7.57       8.5  T
   9   -232.9054380 -0.102061E-07  0.310E-04    7.57      28.4  T
  10   -232.9054380 -0.103290E-08  0.157E-04    7.57      56.0  T
     SCC iter.                  ...        0 min,  0.149 sec
     gradient                   ...        0 min,  0.092 sec
 * total energy  :  -231.4211469 Eh     change        0.1459385E-01 Eh
   gradient norm :     0.2038869 Eh/α   predicted    -0.1792823E-01 (-222.85%)
   displ. norm   :     0.3619380 α      lambda       -0.3784298E-01
   maximum displ.:     0.0828722 α      in ANC's #96, #85, #149, ...

........................................................................
.............................. CYCLE   34 ..............................
........................................................................

 iter      E             dE          RMSdq      gap      omega  full diag
   1   -232.8540949 -0.232854E+03  0.138E-01    7.57       0.0  T
   2   -232.8541527 -0.577587E-04  0.907E-02    7.58       1.0  T
   3   -232.8541645 -0.118260E-04  0.769E-02    7.57       1.0  T
   4   -232.8541859 -0.213492E-04  0.184E-02    7.57       1.0  T
   5   -232.8541875 -0.165639E-05  0.710E-03    7.57       1.2  T
   6   -232.8541880 -0.454321E-06  0.364E-03    7.57       2.4  T
   7   -232.8541881 -0.779603E-07  0.169E-03    7.57       5.2  T
   8   -232.8541881 -0.169574E-07  0.102E-03    7.57       8.6  T
   9   -232.8541881 -0.910120E-08  0.321E-04    7.57      27.4  T
  10   -232.8541881 -0.919329E-09  0.132E-04    7.57      66.8  T
     SCC iter.                  ...        0 min,  0.150 sec
     gradient                   ...        0 min,  0.091 sec
 * total energy  :  -231.4408115 Eh     change       -0.1966464E-01 Eh
   gradient norm :     0.0627279 Eh/α   predicted    -0.2140022E-01 (   8.83%)
   displ. norm   :     0.6658963 α      lambda       -0.1847138E-01
   maximum displ.:     0.1591912 α      in ANC's #234, #189, #172, ...

........................................................................
.............................. CYCLE   35 ..............................
........................................................................

 iter      E             dE          RMSdq      gap      omega  full diag
   1   -232.8384292 -0.232838E+03  0.207E-01    7.57       0.0  T
   2   -232.8385462 -0.117047E-03  0.143E-01    7.56       1.0  T
   3   -232.8385807 -0.344486E-04  0.112E-01    7.56       1.0  T
   4   -232.8386278 -0.471516E-04  0.364E-02    7.56       1.0  T
   5   -232.8386336 -0.580112E-05  0.105E-02    7.56       1.0  T
   6   -232.8386345 -0.835924E-06  0.788E-03    7.56       1.1  T
   7   -232.8386348 -0.331450E-06  0.259E-03    7.56       3.4  T
   8   -232.8386349 -0.504317E-07  0.134E-03    7.56       6.6  T
   9   -232.8386349 -0.151787E-07  0.324E-04    7.56      27.2  T
  10   -232.8386349 -0.104083E-08  0.150E-04    7.56      58.5  T
     SCC iter.                  ...        0 min,  0.145 sec
     gradient                   ...        0 min,  0.090 sec
 * total energy  :  -231.4276189 Eh     change        0.1319262E-01 Eh
   gradient norm :     0.1773517 Eh/α   predicted    -0.1333096E-01 (-201.05%)
   displ. norm   :     0.3808632 α      lambda       -0.3316670E-01
   maximum displ.:     0.0985602 α      in ANC's #234, #189, #244, ...

........................................................................
.............................. CYCLE   36 ..............................
........................................................................

 iter      E             dE          RMSdq      gap      omega  full diag
   1   -232.8608942 -0.232861E+03  0.137E-01    7.58       0.0  T
   2   -232.8609558 -0.615730E-04  0.857E-02    7.59       1.0  T
   3   -232.8609703 -0.145737E-04  0.641E-02    7.59       1.0  T
   4   -232.8609875 -0.171909E-04  0.283E-02    7.59       1.0  T
   5   -232.8609913 -0.376066E-05  0.828E-03    7.59       1.1  T
   6   -232.8609917 -0.402657E-06  0.593E-03    7.59       1.5  T
   7   -232.8609919 -0.176710E-06  0.210E-03    7.59       4.2  T
   8   -232.8609919 -0.231127E-07  0.983E-04    7.59       9.0  T
   9   -232.8609919 -0.895844E-08  0.364E-04    7.59      24.2  T
     SCC iter.                  ...        0 min,  0.143 sec
     gradient                   ...        0 min,  0.090 sec
 * total energy  :  -231.4463157 Eh     change       -0.1869684E-01 Eh
   gradient norm :     0.0473090 Eh/α   predicted    -0.1898887E-01 (   1.56%)
   displ. norm   :     0.7597859 α      lambda       -0.1690639E-01
   maximum displ.:     0.1879708 α      in ANC's #182, #96, #225, ...

........................................................................
.............................. CYCLE   37 ..............................
........................................................................

 iter      E             dE          RMSdq      gap      omega  full diag
   1   -232.8368960 -0.232837E+03  0.241E-01    7.44       0.0  T
   2   -232.8370724 -0.176389E-03  0.147E-01    7.44       1.0  T
   3   -232.8371099 -0.374882E-04  0.102E-01    7.44       1.0  T
   4   -232.8371559 -0.460414E-04  0.297E-02    7.44       1.0  T
   5   -232.8371601 -0.419861E-05  0.133E-02    7.44       1.0  T
   6   -232.8371615 -0.132062E-05  0.713E-03    7.44       1.2  T
   7   -232.8371617 -0.192561E-06  0.294E-03    7.44       3.0  T
   8   -232.8371617 -0.568131E-07  0.148E-03    7.44       5.9  T
   9   -232.8371617 -0.182169E-07  0.409E-04    7.44      21.5  T
  10   -232.8371617 -0.199671E-08  0.201E-04    7.44      43.8  T
     SCC iter.                  ...        0 min,  0.145 sec
     gradient                   ...        0 min,  0.089 sec
 * total energy  :  -231.4227394 Eh     change        0.2357633E-01 Eh
   gradient norm :     0.2227848 Eh/α   predicted    -0.1333303E-01 (-156.55%)
   displ. norm   :     0.3908755 α      lambda       -0.4566876E-01
   maximum displ.:     0.1044388 α      in ANC's #149, #182, #199, ...

........................................................................
.............................. CYCLE   38 ..............................
........................................................................

 iter      E             dE          RMSdq      gap      omega  full diag
   1   -232.8482520 -0.232848E+03  0.159E-01    7.55       0.0  T
   2   -232.8483347 -0.827436E-04  0.102E-01    7.55       1.0  T
   3   -232.8483550 -0.203140E-04  0.785E-02    7.55       1.0  T
   4   -232.8483775 -0.224748E-04  0.245E-02    7.54       1.0  T
   5   -232.8483798 -0.233215E-05  0.891E-03    7.55       1.0  T
   6   -232.8483804 -0.577692E-06  0.562E-03    7.55       1.6  T
   7   -232.8483806 -0.159859E-06  0.242E-03    7.55       3.6  T
   8   -232.8483806 -0.287985E-07  0.114E-03    7.55       7.7  T
   9   -232.8483806 -0.120032E-07  0.336E-04    7.55      26.2  T
  10   -232.8483806 -0.856005E-09  0.121E-04    7.55      72.8  T
     SCC iter.                  ...        0 min,  0.149 sec
     gradient                   ...        0 min,  0.097 sec
 * total energy  :  -231.4502350 Eh     change       -0.2749563E-01 Eh
   gradient norm :     0.0541867 Eh/α   predicted    -0.2632310E-01 (  -4.26%)
   displ. norm   :     0.6321267 α      lambda       -0.1471647E-01
   maximum displ.:     0.2078121 α      in ANC's #225, #182, #48, ...

........................................................................
.............................. CYCLE   39 ..............................
........................................................................

 iter      E             dE          RMSdq      gap      omega  full diag
   1   -232.8943138 -0.232894E+03  0.169E-01    7.58       0.0  T
   2   -232.8944011 -0.873416E-04  0.986E-02    7.58       1.0  T
   3   -232.8944244 -0.233071E-04  0.598E-02    7.58       1.0  T
   4   -232.8944364 -0.119774E-04  0.211E-02    7.58       1.0  T
   5   -232.8944382 -0.180485E-05  0.870E-03    7.58       1.0  T
   6   -232.8944387 -0.475917E-06  0.447E-03    7.58       2.0  T
   7   -232.8944388 -0.863368E-07  0.218E-03    7.58       4.0  T
   8   -232.8944388 -0.207908E-07  0.130E-03    7.58       6.8  T
   9   -232.8944388 -0.142051E-07  0.373E-04    7.58      23.6  T
  10   -232.8944388 -0.156001E-08  0.174E-04    7.58      50.6  T
     SCC iter.                  ...        0 min,  0.161 sec
     gradient                   ...        0 min,  0.100 sec
 * total energy  :  -231.4438786 Eh     change        0.6356401E-02 Eh
   gradient norm :     0.1430813 Eh/α   predicted    -0.1029847E-01 (-262.02%)
   displ. norm   :     0.4127236 α      lambda       -0.2311962E-01
   maximum displ.:     0.1727837 α      in ANC's #48, #47, #225, ...

........................................................................
.............................. CYCLE   40 ..............................
........................................................................

 iter      E             dE          RMSdq      gap      omega  full diag
   1   -232.8618358 -0.232862E+03  0.137E-01    7.60       0.0  T
   2   -232.8618917 -0.558322E-04  0.887E-02    7.59       1.0  T
   3   -232.8619031 -0.114006E-04  0.730E-02    7.59       1.0  T
   4   -232.8619199 -0.168449E-04  0.169E-02    7.59       1.0  T
   5   -232.8619211 -0.119095E-05  0.800E-03    7.59       1.1  T
   6   -232.8619215 -0.390695E-06  0.507E-03    7.59       1.7  T
   7   -232.8619216 -0.136320E-06  0.185E-03    7.59       4.8  T
   8   -232.8619216 -0.165370E-07  0.891E-04    7.59       9.9  T
   9   -232.8619216 -0.770763E-08  0.283E-04    7.59      31.1  T
     SCC iter.                  ...        0 min,  0.136 sec
     gradient                   ...        0 min,  0.099 sec
 * total energy  :  -231.4558330 Eh     change       -0.1195433E-01 Eh
   gradient norm :     0.0545927 Eh/α   predicted    -0.1352890E-01 (  13.17%)
   displ. norm   :     0.6873590 α      lambda       -0.1611454E-01
   maximum displ.:     0.3099380 α      in ANC's #48, #225, #164, ...

........................................................................
.............................. CYCLE   41 ..............................
........................................................................

 iter      E             dE          RMSdq      gap      omega  full diag
   1   -232.8231655 -0.232823E+03  0.219E-01    7.30       0.0  T
   2   -232.8232786 -0.113038E-03  0.136E-01    7.30       1.0  T
   3   -232.8232949 -0.163444E-04  0.118E-01    7.30       1.0  T
   4   -232.8233380 -0.430714E-04  0.291E-02    7.30       1.0  T
   5   -232.8233410 -0.303938E-05  0.112E-02    7.30       1.0  T
   6   -232.8233419 -0.829439E-06  0.643E-03    7.30       1.4  T
   7   -232.8233421 -0.218690E-06  0.280E-03    7.30       3.1  T
   8   -232.8233421 -0.415266E-07  0.162E-03    7.30       5.4  T
   9   -232.8233421 -0.241906E-07  0.475E-04    7.29      18.5  T
  10   -232.8233421 -0.287531E-08  0.252E-04    7.29      34.9  T
     SCC iter.                  ...        0 min,  0.154 sec
     gradient                   ...        0 min,  0.103 sec
 * total energy  :  -231.4399258 Eh     change        0.1590717E-01 Eh
   gradient norm :     0.1639386 Eh/α   predicted    -0.1186403E-01 (-174.58%)
   displ. norm   :     0.3772107 α      lambda       -0.3029765E-01
   maximum displ.:     0.1395233 α      in ANC's #225, #69, #48, ...

........................................................................
.............................. CYCLE   42 ..............................
........................................................................

 iter      E             dE          RMSdq      gap      omega  full diag
   1   -232.8822396 -0.232882E+03  0.135E-01    7.51       0.0  T
   2   -232.8822847 -0.451362E-04  0.820E-02    7.51       1.0  T
   3   -232.8822961 -0.113173E-04  0.628E-02    7.51       1.0  T
   4   -232.8823088 -0.127071E-04  0.227E-02    7.52       1.0  T
   5   -232.8823105 -0.170442E-05  0.756E-03    7.52       1.2  T
   6   -232.8823108 -0.313964E-06  0.456E-03    7.52       1.9  T
   7   -232.8823109 -0.122804E-06  0.225E-03    7.52       3.9  T
   8   -232.8823109 -0.283344E-07  0.107E-03    7.52       8.2  T
   9   -232.8823109 -0.108572E-07  0.370E-04    7.52      23.8  T
  10   -232.8823109 -0.172290E-08  0.179E-04    7.52      49.1  T
     SCC iter.                  ...        0 min,  0.155 sec
     gradient                   ...        0 min,  0.101 sec
 * total energy  :  -231.4578600 Eh     change       -0.1793424E-01 Eh
   gradient norm :     0.0647141 Eh/α   predicted    -0.1730431E-01 (  -3.51%)
   displ. norm   :     0.7653281 α      lambda       -0.2358262E-01
   maximum displ.:     0.3447639 α      in ANC's #69, #48, #225, ...
 * RMSD in coord.:     0.6767330 α      energy gain  -0.1249000E+00 Eh

generating ANC from model Hessian ...
Using Lindh-Hessian (1995)
 Shifting diagonal of input Hessian by    1.2240980372762658E-002
 Lowest  eigenvalues of input Hessian
    0.010000    0.012003    0.012007    0.012013    0.012068    0.012080
    0.012095    0.012106    0.012118    0.012129    0.012136    0.012143
    0.012154    0.012155    0.012160    0.012163    0.012171    0.012183
 Highest eigenvalues
    1.505050    1.533698    1.589045    3.120225    3.209424    3.372552


........................................................................
.............................. CYCLE   43 ..............................
........................................................................

 iter      E             dE          RMSdq      gap      omega  full diag
   1   -232.8203159 -0.232820E+03  0.279E-01    7.62       0.0  T
   2   -232.8206146 -0.298682E-03  0.162E-01    7.63       1.0  T
   3   -232.8207267 -0.112152E-03  0.467E-02    7.63       1.0  T
   4   -232.8207375 -0.107676E-04  0.248E-02    7.63       1.0  T
   5   -232.8207415 -0.404964E-05  0.155E-02    7.63       1.0  T
   6   -232.8207433 -0.170687E-05  0.594E-03    7.63       1.5  T
   7   -232.8207434 -0.149349E-06  0.365E-03    7.63       2.4  T
   8   -232.8207435 -0.807212E-07  0.180E-03    7.63       4.9  T
   9   -232.8207435 -0.184129E-07  0.268E-04    7.63      32.9  T
  10   -232.8207435 -0.493031E-09  0.164E-04    7.63      53.8  T
     SCC iter.                  ...        0 min,  0.154 sec
     gradient                   ...        0 min,  0.101 sec
 * total energy  :  -231.4274682 Eh     change        0.3039187E-01 Eh
   gradient norm :     0.2158142 Eh/α   predicted     0.0000000E+00 (-100.00%)
   displ. norm   :     0.2727990 α      lambda       -0.4536802E-01
   maximum displ.:     0.1224095 α      in ANC's #296, #290, #297, ...

........................................................................
.............................. CYCLE   44 ..............................
........................................................................

 iter      E             dE          RMSdq      gap      omega  full diag
   1   -232.8573684 -0.232857E+03  0.117E-01    7.58       0.0  T
   2   -232.8574186 -0.501663E-04  0.710E-02    7.58       1.0  T
   3   -232.8574343 -0.157623E-04  0.538E-02    7.57       1.0  T
   4   -232.8574453 -0.109860E-04  0.146E-02    7.57       1.0  T
   5   -232.8574463 -0.988700E-06  0.780E-03    7.57       1.1  T
   6   -232.8574468 -0.514265E-06  0.309E-03    7.57       2.9  T
   7   -232.8574469 -0.395244E-07  0.171E-03    7.57       5.1  T
   8   -232.8574469 -0.171269E-07  0.920E-04    7.57       9.6  T
   9   -232.8574469 -0.705023E-08  0.135E-04    7.57      65.1  T
     SCC iter.                  ...        0 min,  0.140 sec
     gradient                   ...        0 min,  0.101 sec
 * total energy  :  -231.4596321 Eh     change       -0.3216390E-01 Eh
   gradient norm :     0.0863307 Eh/α   predicted    -0.2437317E-01 ( -24.22%)
   displ. norm   :     0.3794151 α      lambda       -0.1652084E-01
   maximum displ.:     0.1152375 α      in ANC's #296, #176, #169, ...

........................................................................
.............................. CYCLE   45 ..............................
........................................................................

 iter      E             dE          RMSdq      gap      omega  full diag
   1   -232.8861089 -0.232886E+03  0.107E-01    7.54       0.0  T
   2   -232.8861473 -0.383978E-04  0.652E-02    7.53       1.0  T
   3   -232.8861575 -0.101821E-04  0.461E-02    7.53       1.0  T
   4   -232.8861675 -0.995523E-05  0.102E-02    7.53       1.0  T
   5   -232.8861681 -0.573508E-06  0.684E-03    7.53       1.3  T
   6   -232.8861684 -0.348842E-06  0.254E-03    7.53       3.5  T
   7   -232.8861684 -0.232449E-07  0.142E-03    7.53       6.2  T
   8   -232.8861684 -0.151916E-07  0.449E-04    7.53      19.6  T
   9   -232.8861684 -0.164772E-08  0.155E-04    7.53      56.7  T
     SCC iter.                  ...        0 min,  0.140 sec
     gradient                   ...        0 min,  0.101 sec
 * total energy  :  -231.4677745 Eh     change       -0.8142414E-02 Eh
   gradient norm :     0.0369058 Eh/α   predicted    -0.9449567E-02 (  16.05%)
   displ. norm   :     0.4684492 α      lambda       -0.5330724E-02
   maximum displ.:     0.1121839 α      in ANC's #143, #169, #112, ...

........................................................................
.............................. CYCLE   46 ..............................
........................................................................

 iter      E             dE          RMSdq      gap      omega  full diag
   1   -232.8737198 -0.232874E+03  0.815E-02    7.51       0.0  T
   2   -232.8737260 -0.617063E-05  0.519E-02    7.51       1.0  T
   3   -232.8737236  0.236400E-05  0.435E-02    7.51       1.0  T
   4   -232.8737303 -0.671824E-05  0.936E-03    7.51       1.0  T
   5   -232.8737307 -0.331271E-06  0.242E-03    7.51       3.6  T
   6   -232.8737307 -0.346020E-07  0.135E-03    7.51       6.5  T
   7   -232.8737307 -0.132721E-07  0.650E-04    7.51      13.5  T
   8   -232.8737307 -0.275637E-08  0.329E-04    7.51      26.7  T
     SCC iter.                  ...        0 min,  0.125 sec
     gradient                   ...        0 min,  0.105 sec
 * total energy  :  -231.4720968 Eh     change       -0.4322335E-02 Eh
   gradient norm :     0.0281814 Eh/α   predicted    -0.3250279E-02 ( -24.80%)
   displ. norm   :     0.7648243 α      lambda       -0.6604419E-02
   maximum displ.:     0.1730615 α      in ANC's #112, #169, #143, ...

........................................................................
.............................. CYCLE   47 ..............................
........................................................................

 iter      E             dE          RMSdq      gap      omega  full diag
   1   -232.8613317 -0.232861E+03  0.111E-01    7.47       0.0  T
   2   -232.8613460 -0.142913E-04  0.693E-02    7.47       1.0  T
   3   -232.8613475 -0.147771E-05  0.449E-02    7.47       1.0  T
   4   -232.8613540 -0.648342E-05  0.691E-03    7.47       1.3  T
   5   -232.8613542 -0.235794E-06  0.293E-03    7.47       3.0  T
   6   -232.8613543 -0.582226E-07  0.201E-03    7.47       4.4  T
   7   -232.8613543 -0.227973E-07  0.691E-04    7.47      12.7  T
   8   -232.8613543 -0.509141E-08  0.434E-04    7.47      20.3  T
     SCC iter.                  ...        0 min,  0.120 sec
     gradient                   ...        0 min,  0.103 sec
 * total energy  :  -231.4774542 Eh     change       -0.5357355E-02 Eh
   gradient norm :     0.0392597 Eh/α   predicted    -0.5233864E-02 (  -2.31%)
   displ. norm   :     0.7857837 α      lambda       -0.6480152E-02
   maximum displ.:     0.1958250 α      in ANC's #112, #143, #169, ...

........................................................................
.............................. CYCLE   48 ..............................
........................................................................

 iter      E             dE          RMSdq      gap      omega  full diag
   1   -232.8599973 -0.232860E+03  0.982E-02    7.44       0.0  T
   2   -232.8600123 -0.150121E-04  0.635E-02    7.44       1.0  T
   3   -232.8600158 -0.348608E-05  0.450E-02    7.44       1.0  T
   4   -232.8600207 -0.496906E-05  0.150E-02    7.44       1.0  T
   5   -232.8600215 -0.761533E-06  0.388E-03    7.44       2.3  T
   6   -232.8600216 -0.115390E-06  0.189E-03    7.44       4.7  T
   7   -232.8600216 -0.250607E-07  0.776E-04    7.44      11.3  T
   8   -232.8600216 -0.454912E-08  0.514E-04    7.44      17.1  T
     SCC iter.                  ...        0 min,  0.125 sec
     gradient                   ...        0 min,  0.102 sec
 * total energy  :  -231.4829222 Eh     change       -0.5468003E-02 Eh
   gradient norm :     0.0433196 Eh/α   predicted    -0.5240684E-02 (  -4.16%)
   displ. norm   :     0.7670123 α      lambda       -0.8033699E-02
   maximum displ.:     0.2167201 α      in ANC's #112, #95, #104, ...

........................................................................
[...]
    59   1 H        0.803     0.344     0.604     1.220
    60   1 H        0.803     0.368     0.547     1.162
    61   8 O        1.608    -0.673    27.008     7.014
    62   1 H        0.804     0.343     0.604     1.221
    63   1 H        0.804     0.361     0.563     1.179
    64   8 O        1.604    -0.707    27.887     7.127
    65   1 H        0.804     0.347     0.594     1.211
    66   1 H        0.801     0.376     0.531     1.145
    67   8 O        1.610    -0.710    27.988     7.140
    68   1 H        0.805     0.369     0.545     1.159
    69   1 H        0.805     0.370     0.543     1.158
    70   8 O        1.607    -0.679    27.159     7.034
    71   1 H        0.804     0.329     0.640     1.257
    72   1 H        0.803     0.309     0.695     1.309
    73   8 O        1.610    -0.703    27.779     7.114
    74   1 H        0.805     0.356     0.574     1.190
    75   1 H        0.805     0.373     0.537     1.151
    76   8 O        1.609    -0.700    27.723     7.106
    77   1 H        0.805     0.379     0.524     1.137
    78   1 H        0.804     0.308     0.699     1.313
    79   8 O        1.608    -0.662    26.714     6.976
    80   1 H        0.805     0.277     0.794     1.399
    81   1 H        0.803     0.360     0.565     1.181
    82   8 O        1.610    -0.702    27.759     7.111
    83   1 H        0.805     0.363     0.558     1.173
    84   1 H        0.805     0.357     0.571     1.187
    85   8 O        1.609    -0.682    27.231     7.043
    86   1 H        0.805     0.350     0.588     1.205
    87   1 H        0.804     0.335     0.625     1.242
    88   8 O        1.608    -0.690    27.444     7.070
    89   1 H        0.806     0.351     0.586     1.203
    90   1 H        0.803     0.364     0.556     1.172
    91   8 O        1.611    -0.698    27.655     7.098
    92   1 H        0.805     0.351     0.585     1.201
    93   1 H        0.805     0.364     0.557     1.172
    94   8 O        1.608    -0.702    27.756     7.111
    95   1 H        0.806     0.322     0.658     1.274
    96   1 H        0.802     0.349     0.591     1.208
    97   8 O        1.608    -0.691    27.463     7.073
    98   1 H        0.804     0.357     0.571     1.187
    99   1 H        0.805     0.306     0.704     1.318
   100   8 O        1.610    -0.730    28.508     7.206
   101   1 H        0.805     0.365     0.554     1.169
   102   1 H        0.805     0.365     0.555     1.170
   103   8 O        1.610    -0.734    28.638     7.223
   104   1 H        0.805     0.372     0.540     1.154
   105   1 H        0.805     0.363     0.560     1.175
   106   8 O        1.610    -0.728    28.478     7.202
   107   1 H        0.805     0.365     0.553     1.168
   108   1 H        0.805     0.363     0.558     1.174
   109   8 O        1.610    -0.736    28.681     7.228
   110   1 H        0.805     0.369     0.545     1.160
   111   1 H        0.805     0.367     0.551     1.166
   112   8 O        1.610    -0.734    28.639     7.223
   113   1 H        0.805     0.366     0.553     1.168
   114   1 H        0.805     0.369     0.547     1.161
   115   8 O        1.608    -0.709    27.946     7.135
   116   1 H        0.805     0.350     0.588     1.205
   117   1 H        0.802     0.349     0.591     1.208
   118   8 O        1.608    -0.706    27.865     7.124
   119   1 H        0.804     0.356     0.573     1.189
   120   1 H        0.804     0.355     0.578     1.194
   121   8 O        1.609    -0.683    27.258     7.046
   122   1 H        0.806     0.347     0.594     1.210
   123   1 H        0.803     0.363     0.560     1.175
   124   8 O        1.608    -0.704    27.805     7.117
   125   1 H        0.805     0.320     0.664     1.280
   126   1 H        0.803     0.347     0.595     1.212
   127   8 O        1.609    -0.716    28.140     7.160
   128   1 H        0.805     0.349     0.591     1.208
   129   1 H        0.804     0.345     0.599     1.216

 Mol. C6AA /au·bohr⁶  :     106447.473488
 Mol. C8AA /au·bohr⁸  :    2293885.198678
 Mol. α(0) /au        :        494.291692


Wiberg/Mayer (AO) data.
largest (>0.10) Wiberg bond orders for each atom

 ---------------------------------------------------------------------------
     #   Z sym  total        # sym  WBO       # sym  WBO       # sym  WBO
 ---------------------------------------------------------------------------
     1  26 Fe   1.298 --    19 O    0.188    10 O    0.187    13 O    0.184
                            52 O    0.155     7 O    0.144    16 O    0.131
                            34 O    0.130     2 O    0.115
     2   8 O    1.679 --     3 S    1.242     1 Fe   0.115
     3  16 S    4.506 --     2 O    1.242     6 O    1.095     5 O    1.088
                             4 O    1.069
     4   8 O    1.531 --     3 S    1.069
     5   8 O    1.546 --     3 S    1.088
     6   8 O    1.514 --     3 S    1.095
     7   8 O    1.974 --     9 H    0.855     8 H    0.798     1 Fe   0.144
     8   1 H    0.863 --     7 O    0.798
     9   1 H    0.899 --     7 O    0.855
    10   8 O    1.974 --    11 H    0.818    12 H    0.799     1 Fe   0.187
    11   1 H    0.867 --    10 O    0.818
    12   1 H    0.865 --    10 O    0.799
    13   8 O    1.986 --    15 H    0.860    14 H    0.782     1 Fe   0.184
    14   1 H    0.854 --    13 O    0.782
    15   1 H    0.877 --    13 O    0.860
    16   8 O    1.923 --    17 H    0.874    18 H    0.788     1 Fe   0.131
    17   1 H    0.914 --    16 O    0.874
    18   1 H    0.861 --    16 O    0.788
    19   8 O    1.967 --    20 H    0.840    21 H    0.809     1 Fe   0.188
    20   1 H    0.875 --    19 O    0.840
    21   1 H    0.861 --    19 O    0.809
    22   8 O    1.786 --    23 H    0.854    24 H    0.840
    23   1 H    0.920 --    22 O    0.854
    24   1 H    0.885 --    22 O    0.840
    25   8 O    1.798 --    27 H    0.861    26 H    0.848
    26   1 H    0.907 --    25 O    0.848
    27   1 H    0.895 --    25 O    0.861
    28   8 O    1.830 --    29 H    0.870    30 H    0.834
    29   1 H    0.924 --    28 O    0.870
    30   1 H    0.877 --    28 O    0.834
    31   8 O    1.823 --    33 H    0.874    32 H    0.847
    32   1 H    0.881 --    31 O    0.847
    33   1 H    0.925 --    31 O    0.874
    34   8 O    1.930 --    35 H    0.858    36 H    0.815     1 Fe   0.130
    35   1 H    0.894 --    34 O    0.858
    36   1 H    0.877 --    34 O    0.815
    37   8 O    1.751 --    38 H    0.871    39 H    0.866
    38   1 H    0.871 --    37 O    0.871
    39   1 H    0.892 --    37 O    0.866
    40   8 O    1.836 --    42 H    0.855    41 H    0.799
    41   1 H    0.872 --    40 O    0.799
    42   1 H    0.897 --    40 O    0.855
    43   8 O    1.812 --    44 H    0.867    45 H    0.814
    44   1 H    0.873 --    43 O    0.867
    45   1 H    0.875 --    43 O    0.814
    46   8 O    1.838 --    47 H    0.872    48 H    0.784
    47   1 H    0.902 --    46 O    0.872
    48   1 H    0.866 --    46 O    0.784
    49   8 O    1.842 --    51 H    0.883    50 H    0.783
    50   1 H    0.858 --    49 O    0.783
    51   1 H    0.895 --    49 O    0.883
    52   8 O    1.938 --    54 H    0.874    53 H    0.812     1 Fe   0.155
    53   1 H    0.867 --    52 O    0.812
    54   1 H    0.894 --    52 O    0.874
    55   8 O    1.873 --    57 H    0.851    56 H    0.837
    56   1 H    0.885 --    55 O    0.837
    57   1 H    0.885 --    55 O    0.851
    58   8 O    1.820 --    59 H    0.829    60 H    0.801
    59   1 H    0.882 --    58 O    0.829
    60   1 H    0.864 --    58 O    0.801
    61   8 O    1.863 --    62 H    0.835    63 H    0.825
    62   1 H    0.882 --    61 O    0.835
    63   1 H    0.869 --    61 O    0.825
    64   8 O    1.854 --    65 H    0.838    66 H    0.774
    65   1 H    0.879 --    64 O    0.838
    66   1 H    0.858 --    64 O    0.774
    67   8 O    1.781 --    68 H    0.862    69 H    0.861
    68   1 H    0.863 --    67 O    0.862
    69   1 H    0.863 --    67 O    0.861
    70   8 O    1.794 --    71 H    0.862    72 H    0.847
    71   1 H    0.892 --    70 O    0.862
    72   1 H    0.904 --    70 O    0.847
    73   8 O    1.782 --    74 H    0.871    75 H    0.859
    74   1 H    0.873 --    73 O    0.871
    75   1 H    0.861 --    73 O    0.859
    76   8 O    1.779 --    78 H    0.856    77 H    0.853
    77   1 H    0.856 --    76 O    0.853
    78   1 H    0.905 --    76 O    0.856
    79   8 O    1.834 --    80 H    0.880    81 H    0.816
    80   1 H    0.923 --    79 O    0.880
    81   1 H    0.870 --    79 O    0.816
    82   8 O    1.774 --    84 H    0.870    83 H    0.866
    83   1 H    0.868 --    82 O    0.866
    84   1 H    0.872 --    82 O    0.870
    85   8 O    1.796 --    86 H    0.874    87 H    0.853
    86   1 H    0.878 --    85 O    0.874
    87   1 H    0.888 --    85 O    0.853
    88   8 O    1.829 --    89 H    0.868    90 H    0.810
    89   1 H    0.877 --    88 O    0.868
    90   1 H    0.867 --    88 O    0.810
    91   8 O    1.773 --    92 H    0.874    93 H    0.865
    92   1 H    0.877 --    91 O    0.874
    93   1 H    0.868 --    91 O    0.865
    94   8 O    1.765 --    95 H    0.892    96 H    0.817
    95   1 H    0.896 --    94 O    0.892
    96   1 H    0.878 --    94 O    0.817
    97   8 O    1.775 --    99 H    0.878    98 H    0.845
    98   1 H    0.872 --    97 O    0.845
    99   1 H    0.906 --    97 O    0.878
   100   8 O    1.733 --   102 H    0.867   101 H    0.867
   101   1 H    0.867 --   100 O    0.867
   102   1 H    0.867 --   100 O    0.867
   103   8 O    1.730 --   105 H    0.868   104 H    0.862
   104   1 H    0.862 --   103 O    0.862
   105   1 H    0.869 --   103 O    0.868
   106   8 O    1.734 --   108 H    0.868   107 H    0.866
   107   1 H    0.866 --   106 O    0.866
   108   1 H    0.868 --   106 O    0.868
   109   8 O    1.729 --   111 H    0.865   110 H    0.863
   110   1 H    0.864 --   109 O    0.863
   111   1 H    0.866 --   109 O    0.865
   112   8 O    1.730 --   113 H    0.866   114 H    0.864
   113   1 H    0.866 --   112 O    0.866
   114   1 H    0.864 --   112 O    0.864
   115   8 O    1.786 --   116 H    0.875   117 H    0.821
   116   1 H    0.878 --   115 O    0.875
   117   1 H    0.878 --   115 O    0.821
   118   8 O    1.805 --   120 H    0.849   119 H    0.837
   119   1 H    0.873 --   118 O    0.837
   120   1 H    0.874 --   118 O    0.849
   121   8 O    1.832 --   122 H    0.869   123 H    0.819
   122   1 H    0.879 --   121 O    0.869
   123   1 H    0.868 --   121 O    0.819
   124   8 O    1.751 --   125 H    0.893   126 H    0.830
   125   1 H    0.898 --   124 O    0.893
   126   1 H    0.879 --   124 O    0.830
   127   8 O    1.747 --   128 H    0.878   129 H    0.843
   128   1 H    0.878 --   127 O    0.878
   129   1 H    0.881 --   127 O    0.843
 ---------------------------------------------------------------------------

Topologies differ in total number of bonds
Writing topology from bond orders to xtbtopo.mol

molecular dipole:
                 x           y           z       tot (Debye)
 q only:       -1.067      -6.851      -2.284
   full:       -0.931      -3.499      -2.207      10.778
molecular quadrupole (traceless):
                xx          xy          yy          xz          yz          zz
 q only:       31.010      -6.200     -58.870      34.689      -1.051      27.860
  q+dip:       23.301      -7.263     -36.855      42.383      -3.676      13.554
   full:       22.790      -7.525     -36.188      42.534      -3.148      13.398

           -------------------------------------------------
          |                Geometry Summary                 |
           -------------------------------------------------

      molecular mass/u    :      890.5342947
   center of mass at/Å    :        0.1215864       0.6385440      -0.0270616
  moments of inertia/u·Å² :        0.1376940E+05   0.1796072E+05   0.1883401E+05
rotational constants/cm⁻¹ :        0.1224282E-02   0.9385834E-03   0.8950633E-03

 * 86 selected distances

     #   Z          #   Z                                           value/Å
     2   8 O        3  16 S                                       1.4376657
     3  16 S        4   8 O                                       1.4842916 (max)
     3  16 S        5   8 O                                       1.4789395
     3  16 S        6   8 O                                       1.4764569
     7   8 O        8   1 H                                       0.9805756
     7   8 O        9   1 H                                       0.9659537
    10   8 O       11   1 H                                       0.9712896
    10   8 O       12   1 H                                       0.9802368
    13   8 O       14   1 H                                       0.9809288
    13   8 O       15   1 H                                       0.9620093
    16   8 O       17   1 H                                       0.9611736
    16   8 O       18   1 H                                       0.9824895
    19   8 O       20   1 H                                       0.9653684
    19   8 O       21   1 H                                       0.9755583
    22   8 O       23   1 H                                       0.9773266
    22   8 O       24   1 H                                       0.9772448
    25   8 O       26   1 H                                       0.9764810
    25   8 O       27   1 H                                       0.9680453
    28   8 O       29   1 H                                       0.9684633
    28   8 O       30   1 H                                       0.9762892
    31   8 O       32   1 H                                       0.9719236
    31   8 O       33   1 H                                       0.9679999
    34   8 O       35   1 H                                       0.9669209
    34   8 O       36   1 H                                       0.9751841
    37   8 O       38   1 H                                       0.9627048
    37   8 O       39   1 H                                       0.9707350
    40   8 O       41   1 H                                       0.9893585
    40   8 O       42   1 H                                       0.9697569
    43   8 O       44   1 H                                       0.9599122
    43   8 O       45   1 H                                       0.9816740
    46   8 O       47   1 H                                       0.9654558
    46   8 O       48   1 H                                       0.9947082
    49   8 O       50   1 H                                       0.9941246
    49   8 O       51   1 H                                       0.9632677
    52   8 O       53   1 H                                       0.9751095
    52   8 O       54   1 H                                       0.9609528
    55   8 O       56   1 H                                       0.9725437
    55   8 O       57   1 H                                       0.9649284
    58   8 O       59   1 H                                       0.9778468
    58   8 O       60   1 H                                       0.9824956
    61   8 O       62   1 H                                       0.9692961
    61   8 O       63   1 H                                       0.9748704
    64   8 O       65   1 H                                       0.9742124
    64   8 O       66   1 H                                       0.9946769
    67   8 O       68   1 H                                       0.9633438
    67   8 O       69   1 H                                       0.9635633
    70   8 O       71   1 H                                       0.9712973
    70   8 O       72   1 H                                       0.9786906
    73   8 O       74   1 H                                       0.9608590
    73   8 O       75   1 H                                       0.9634458
    76   8 O       77   1 H                                       0.9642649
    76   8 O       78   1 H                                       0.9750647
    79   8 O       80   1 H                                       0.9661751
    79   8 O       81   1 H                                       0.9789330
    82   8 O       83   1 H                                       0.9623663
    82   8 O       84   1 H                                       0.9619594
    85   8 O       86   1 H                                       0.9603548
    85   8 O       87   1 H                                       0.9733233
    88   8 O       89   1 H                                       0.9583431
    88   8 O       90   1 H                                       0.9826714
    91   8 O       92   1 H                                       0.9600891
    91   8 O       93   1 H                                       0.9618713
    94   8 O       95   1 H                                       0.9561143 (min)
    94   8 O       96   1 H                                       0.9849471
    97   8 O       98   1 H                                       0.9735505
    97   8 O       99   1 H                                       0.9661779
   100   8 O      101   1 H                                       0.9628296
   100   8 O      102   1 H                                       0.9627844
   103   8 O      104   1 H                                       0.9636213
   103   8 O      105   1 H                                       0.9623719
   106   8 O      107   1 H                                       0.9625823
   106   8 O      108   1 H                                       0.9624691
   109   8 O      110   1 H                                       0.9631901
   109   8 O      111   1 H                                       0.9628495
   112   8 O      113   1 H                                       0.9629743
   112   8 O      114   1 H                                       0.9630197
   115   8 O      116   1 H                                       0.9606216
   115   8 O      117   1 H                                       0.9840648
   118   8 O      119   1 H                                       0.9744947
   118   8 O      120   1 H                                       0.9722847
   121   8 O      122   1 H                                       0.9577183
   121   8 O      123   1 H                                       0.9788484
   124   8 O      125   1 H                                       0.9612202
   124   8 O      126   1 H                                       0.9797549
   127   8 O      128   1 H                                       0.9606365
   127   8 O      129   1 H                                       0.9756468

 * 2 distinct bonds (by element types)

   Z      Z             #   av. dist./Å        max./Å        min./Å
   1 H    8 O          82     0.9703839     0.9947082     0.9561143
   8 O   16 S           4     1.4693384     1.4842916     1.4376657


optimized geometry written to: xtbopt.xyz


           -------------------------------------------------
          | TOTAL ENERGY             -231.752173869038 Eh   |
          | GRADIENT NORM               0.000046787310 Eh/α |
          | HOMO-LUMO GAP               6.913244342536 eV   |
           -------------------------------------------------

------------------------------------------------------------------------
 * finished run on 2024/05/17 at 16:37:03.414     
------------------------------------------------------------------------
 total:
 * wall-time:     0 d,  0 h,  3 min, 19.896 sec
 *  cpu-time:     0 d,  0 h, 21 min, 47.556 sec
 * ratio c/w:     6.541 speedup
 SCF:
 * wall-time:     0 d,  0 h,  0 min,  0.619 sec
 *  cpu-time:     0 d,  0 h,  0 min,  4.019 sec
 * ratio c/w:     6.493 speedup
 ANC optimizer:
 * wall-time:     0 d,  0 h,  3 min, 18.989 sec
 *  cpu-time:     0 d,  0 h, 21 min, 41.993 sec
 * ratio c/w:     6.543 speedup

