      -----------------------------------------------------------      
     |                   =====================                   |     
     |                           x T B                           |     
     |                   =====================                   |     
     |                         S. Grimme                         |     
     |          Mulliken Center for Theoretical Chemistry        |     
     |                    University of Bonn                     |     
      -----------------------------------------------------------      

   * xtb version 6.6.0 (conda-forge) compiled by 'runner@Mac-1676020848589.local' on 2023-02-10

   xtb is free software: you can redistribute it and/or modify it under
   the terms of the GNU Lesser General Public License as published by
   the Free Software Foundation, either version 3 of the License, or
   (at your option) any later version.
   
   xtb is distributed in the hope that it will be useful,
   but WITHOUT ANY WARRANTY; without even the implied warranty of
   MERCHANTABILITY or FITNESS FOR A PARTICULAR PURPOSE.  See the
   GNU Lesser General Public License for more details.
   
   Cite this work as:
   * C. Bannwarth, E. Caldeweyher, S. Ehlert, A. Hansen, P. Pracht,
     J. Seibert, S. Spicher, S. Grimme, WIREs Comput. Mol. Sci., 2020, 11,
     e01493. DOI: 10.1002/wcms.1493
   
   for GFN2-xTB:
   * C. Bannwarth, S. Ehlert and S. Grimme., J. Chem. Theory Comput., 2019,
     15, 1652-1671. DOI: 10.1021/acs.jctc.8b01176
   for GFN1-xTB:
   * S. Grimme, C. Bannwarth, P. Shushkov, J. Chem. Theory Comput., 2017,
     13, 1989-2009. DOI: 10.1021/acs.jctc.7b00118
   for GFN0-xTB:
   * P. Pracht, E. Caldeweyher, S. Ehlert, S. Grimme, ChemRxiv, 2019, preprint.
     DOI: 10.26434/chemrxiv.8326202.v1
   for GFN-FF:
   * S. Spicher and S. Grimme, Angew. Chem. Int. Ed., 2020, 59, 15665-15673.
     DOI: 10.1002/anie.202004239
   
   for ALPB and GBSA implicit solvation:
   * S. Ehlert, M. Stahn, S. Spicher, S. Grimme, J. Chem. Theory Comput.,
     2021, 17, 4250-4261. DOI: 10.1021/acs.jctc.1c00471
   
   for DFT-D4:
   * E. Caldeweyher, C. Bannwarth and S. Grimme, J. Chem. Phys., 2017,
     147, 034112. DOI: 10.1063/1.4993215
   * E. Caldeweyher, S. Ehlert, A. Hansen, H. Neugebauer, S. Spicher,
     C. Bannwarth and S. Grimme, J. Chem. Phys., 2019, 150, 154122.
     DOI: 10.1063/1.5090222
   * E. Caldeweyher, J.-M. Mewes, S. Ehlert and S. Grimme, Phys. Chem. Chem. Phys.
     2020, 22, 8499-8512. DOI: 10.1039/D0CP00502A
   
   for sTDA-xTB:
   * S. Grimme and C. Bannwarth, J. Chem. Phys., 2016, 145, 054103.
     DOI: 10.1063/1.4959605
   
   in the mass-spec context:
   * V. Asgeirsson, C. Bauer and S. Grimme, Chem. Sci., 2017, 8, 4879.
     DOI: 10.1039/c7sc00601b
   * J. Koopman and S. Grimme, ACS Omega 2019, 4, 12, 15120-15133.
     DOI: 10.1021/acsomega.9b02011
   
   for metadynamics refer to:
   * S. Grimme, J. Chem. Theory Comput., 2019, 155, 2847-2862
     DOI: 10.1021/acs.jctc.9b00143
   
   for SPH calculations refer to:
   * S. Spicher and S. Grimme, J. Chem. Theory Comput., 2021, 17, 1701-1714
     DOI: 10.1021/acs.jctc.0c01306
   
   with help from (in alphabetical order)
   P. Atkinson, C. Bannwarth, F. Bohle, G. Brandenburg, E. Caldeweyher
   M. Checinski, S. Dohm, S. Ehlert, S. Ehrlich, I. Gerasimov, C. Hölzer
   A. Katbashev, J. Koopman, C. Lavigne, S. Lehtola, F. März, M. Müller,
   F. Musil, H. Neugebauer, J. Pisarek, C. Plett, P. Pracht, F. Pultar,
   J. Seibert, P. Shushkov, S. Spicher, M. Stahn, M. Steiner, T. Strunk,
   J. Stückrath, T. Rose, and J. Unsleber
   
 * started run on 2024/05/29 at 10:52:03.463     

           -------------------------------------------------
          |                Calculation Setup                |
           -------------------------------------------------

          program call               : xtb monosubstituted_Sulfate_solvated_radius_5_solvated_radius_7.xyz --opt extreme --gfn2 --chrg 0 --uhf 5 --alpb water
          coordinate file            : monosubstituted_Sulfate_solvated_radius_5_solvated_radius_7.xyz
          omp threads                :                     8

   ID    Z sym.   atoms
    1   26 Fe     1
    2    8 O      2, 4-7, 10, 13, 16, 19, 22, 25, 28, 31, 34, 37, 40, 43, 46,
                  49, 52, 55, 58, 61, 64, 67, 70, 73, 76, 79, 82, 85, 88, 91,
                  94, 97, 100, 103, 106, 109, 112, 115, 118, 121, 124, 127
    3   16 S      3
    4    1 H      8, 9, 11, 12, 14, 15, 17, 18, 20, 21, 23, 24, 26, 27, 29,
                  30, 32, 33, 35, 36, 38, 39, 41, 42, 44, 45, 47, 48, 50, 51,
                  53, 54, 56, 57, 59, 60, 62, 63, 65, 66, 68, 69, 71, 72, 74,
                  75, 77, 78, 80, 81, 83, 84, 86, 87, 89, 90, 92, 93, 95, 96,
                  98, 99, 101, 102, 104, 105, 107, 108, 110, 111, 113, 114,
                  116, 117, 119, 120, 122, 123, 125, 126, 128, 129

molecular fragmentation (1/2 indicates fragments):
111111111111111222222222222222222222222222222222222222222222222222222222
222222222222222222222222222222222222222222222222222222222
# atoms in fragment 1/2:    15   114
 fragment masses (1/2) :      205.95      684.58
CMA distance (Bohr)    :   2.336
constraining FC (au)   :  0.0500

           -------------------------------------------------
          |                 G F N 2 - x T B                 |
           -------------------------------------------------

        Reference                      10.1021/acs.jctc.8b01176
      * Hamiltonian:
        H0-scaling (s, p, d)           1.850000    2.230000    2.230000
        zeta-weighting                 0.500000
      * Dispersion:
        s8                             2.700000
        a1                             0.520000
        a2                             5.000000
        s9                             5.000000
      * Repulsion:
        kExp                           1.500000    1.000000
        rExp                           1.000000
      * Coulomb:
        alpha                          2.000000
        third order                    shell-resolved
        anisotropic                    true
        a3                             3.000000
        a5                             4.000000
        cn-shift                       1.200000
        cn-exp                         4.000000
        max-rad                        5.000000

      * Solvation model:               ALPB
        Solvent                        water
        Parameter file                 internal GFN2-xTB/ALPB
        Dielectric constant                8.0200E+01
        Reference state                gsolv [1 M gas/solution]
        Free energy shift                  1.0808E-03 Eh       6.7819E-01 kcal/mol
        Temperature                        2.9815E+02 K
        Density                            1.0000E+00 kg/L
        Solvent mass                       1.8000E+01 g/mol
        Interaction kernel             P16
        Born radius scaling (c1)           1.4744E+00
        Born radii integrator          GBOBC
        Born offset                        0.0000E+00 a0       0.0000E+00 AA
        H-bond correction              true
        Ion screening                  false
        Surface tension                    1.0000E-05 Eh       1.5569E+01 dyn/cm
        Grid points                               230 per atom
q/qsh data taken from xtbrestart
CAMM data taken from xtbrestart

          ...................................................
          :                      SETUP                      :
          :.................................................:
          :  # basis functions                 282          :
          :  # atomic orbitals                 280          :
          :  # shells                          178          :
          :  # electrons                       366          :
          :  max. iterations                   250          :
          :  Hamiltonian                  GFN2-xTB          :
          :  restarted?                       true          :
          :  GBSA solvation                   true          :
          :  PC potential                    false          :
          :  electronic temp.          300.0000000     K    :
          :  accuracy                    1.0000000          :
          :  -> integral cutoff          0.2500000E+02      :
          :  -> integral neglect         0.1000000E-07      :
          :  -> SCF convergence          0.1000000E-05 Eh   :
          :  -> wf. convergence          0.1000000E-03 e    :
          :  Broyden damping             0.4000000          :
          ...................................................

 iter      E             dE          RMSdq      gap      omega  full diag
   1   -231.7589796 -0.231759E+03  0.428E+00    6.91       0.0  T
   2   -232.8532275 -0.109425E+01  0.242E+00    2.67       1.0  T
   3   -232.9571601 -0.103933E+00  0.152E+00    5.41       1.0  T
   4   -232.7024931  0.254667E+00  0.183E+00    6.60       1.0  T
   5   -232.9997670 -0.297274E+00  0.947E-01    5.96       1.0  T
   6   -233.0200895 -0.203225E-01  0.459E-01    6.18       1.0  T
   7   -233.0130355  0.705397E-02  0.538E-01    6.14       1.0  T
   8   -233.0168533 -0.381773E-02  0.403E-01    6.19       1.0  T
   9   -233.0234127 -0.655948E-02  0.217E-01    6.35       1.0  T
  10   -233.0259131 -0.250038E-02  0.143E-01    6.35       1.0  T
  11   -232.9102021  0.115711E+00  0.109E+00    6.39       1.0  T
  12   -233.0032488 -0.930467E-01  0.501E-01    6.38       1.0  T
  13   -233.0254216 -0.221728E-01  0.150E-01    6.37       1.0  T
  14   -233.0258932 -0.471617E-03  0.151E-01    6.34       1.0  T
  15   -233.0250738  0.819328E-03  0.177E-01    6.33       1.0  T
  16   -233.0257501 -0.676302E-03  0.148E-01    6.34       1.0  T
  17   -233.0258514 -0.101229E-03  0.142E-01    6.34       1.0  T
  18   -233.0260848 -0.233386E-03  0.129E-01    6.35       1.0  T
  19   -233.0261231 -0.383168E-04  0.126E-01    6.35       1.0  T
  20   -233.0264451 -0.322047E-03  0.110E-01    6.35       1.0  T
  21   -233.0269897 -0.544539E-03  0.786E-02    6.36       1.0  T
  22   -233.0271977 -0.208045E-03  0.620E-02    6.36       1.0  T
  23   -233.0275201 -0.322434E-03  0.209E-02    6.36       1.0  T
  24   -233.0275600 -0.398205E-04  0.519E-03    6.36       1.7  T
  25   -233.0275611 -0.110484E-05  0.459E-03    6.36       1.9  T
  26   -233.0275624 -0.136459E-05  0.213E-03    6.36       4.1  T
  27   -233.0275629 -0.437297E-06  0.262E-04    6.36      33.6  T
  28   -233.0275629  0.165883E-08  0.283E-04    6.36      31.2  T

   *** convergence criteria satisfied after 28 iterations ***

         #    Occupation            Energy/Eh            Energy/eV
      -------------------------------------------------------------
         1        2.0000           -0.7696278             -20.9426
       ...           ...                  ...                  ...
       179        1.9937           -0.3977119             -10.8223
       180        1.9878           -0.3970822             -10.8052
       181        1.9164           -0.3951833             -10.7535
       182        1.0952           -0.3907682             -10.6333
       183        1.0070           -0.3881952             -10.5633
       184        1.0000           -0.3463940              -9.4259
       185        1.0000           -0.3362806              -9.1507 (HOMO)
       186                         -0.1024997              -2.7892 (LUMO)
       187                         -0.0327464              -0.8911
       188                         -0.0241363              -0.6568
       189                          0.0218651               0.5950
       190                          0.0658792               1.7927
       ...                                ...                  ...
       280                          2.9652585              80.6888
      -------------------------------------------------------------
                  HL-Gap            0.2337809 Eh            6.3615 eV
             Fermi-level           -0.3061490 Eh           -8.3307 eV

 SCC (total)                   0 d,  0 h,  0 min,  0.653 sec
 SCC setup                      ...        0 min,  0.005 sec (  0.780%)
 Dispersion                     ...        0 min,  0.003 sec (  0.449%)
 classical contributions        ...        0 min,  0.001 sec (  0.139%)
 integral evaluation            ...        0 min,  0.008 sec (  1.244%)
 iterations                     ...        0 min,  0.562 sec ( 86.049%)
 molecular gradient             ...        0 min,  0.073 sec ( 11.169%)
 printout                       ...        0 min,  0.001 sec (  0.165%)

         :::::::::::::::::::::::::::::::::::::::::::::::::::::
         ::                     SUMMARY                     ::
         :::::::::::::::::::::::::::::::::::::::::::::::::::::
         :: total energy            -230.654600965195 Eh    ::
         :: total w/o Gsasa/hb      -230.406046074443 Eh    ::
         :: gradient norm              0.761113008969 Eh/a0 ::
         :: HOMO-LUMO gap              6.361503174534 eV    ::
         ::.................................................::
         :: SCC energy              -233.027562865225 Eh    ::
         :: -> isotropic ES            1.733657281300 Eh    ::
         :: -> anisotropic ES         -0.077008139220 Eh    ::
         :: -> anisotropic XC         -0.051465645223 Eh    ::
         :: -> dispersion             -0.058514762618 Eh    ::
         :: -> Gsolv                  -0.571291271882 Eh    ::
         ::    -> Gelec               -0.322736381130 Eh    ::
         ::    -> Gsasa                0.042675654809 Eh    ::
         ::    -> Ghb                 -0.292311305260 Eh    ::
         ::    -> Gshift               0.001080759698 Eh    ::
         :: repulsion energy           2.370184844545 Eh    ::
         :: add. restraining           0.000000000000 Eh    ::
         :: total charge               0.000000000046 e     ::
         :::::::::::::::::::::::::::::::::::::::::::::::::::::

      ----------------------------------------------------------- 
     |                   =====================                   |
     |                        A N C O P T                        |
     |                   =====================                   |
     |               Approximate Normal Coordinate               |
     |                Rational Function Optimizer                |
      ----------------------------------------------------------- 

          ...................................................
          :                      SETUP                      :
          :.................................................:
          :   optimization level           extreme          :
          :   max. optcycles                  2580          :
          :   ANC micro-cycles                  20          :
          :   degrees of freedom               381          :
          :.................................................:
          :   RF solver                   davidson          :
          :   write xtbopt.log                true          :
          :   linear?                        false          :
          :   energy convergence         0.5000000E-07 Eh   :
          :   grad. convergence          0.5000000E-04 Eh/α :
          :   maxmium RF displ.          1.0000000          :
          :   Hlow (freq-cutoff)         0.1000000E-01      :
          :   Hmax (freq-cutoff)         5.0000000          :
          :   S6 in model hess.         20.0000000          :
          ...................................................

generating ANC from model Hessian ...
Using Lindh-Hessian (1995)
 Shifting diagonal of input Hessian by    1.0554383068606074E-002
 Lowest  eigenvalues of input Hessian
    0.010000    0.010145    0.010279    0.010282    0.010288    0.010302
    0.010305    0.010311    0.010327    0.010366    0.010372    0.010381
    0.010393    0.010410    0.010412    0.010416    0.010426    0.010438
 Highest eigenvalues
    1.811155    1.890109    1.962208    3.080770    3.541869    3.569957


........................................................................
.............................. CYCLE    1 ..............................
........................................................................

 iter      E             dE          RMSdq      gap      omega  full diag
   1   -233.0275629 -0.233028E+03  0.140E-04    6.36       0.0  T
   2   -233.0275628  0.106747E-06  0.108E-03    6.36       8.1  T
   3   -233.0275629 -0.108457E-06  0.539E-05    6.36     163.2  T
   4   -233.0275629 -0.228169E-09  0.219E-05    6.36     402.0  T
     SCC iter.                  ...        0 min,  0.065 sec
     gradient                   ...        0 min,  0.077 sec
 * total energy  :  -230.6546010 Eh     change       -0.7531668E-08 Eh
   gradient norm :     0.7610512 Eh/α   predicted     0.0000000E+00 (-100.00%)
   displ. norm   :     0.6191930 α      lambda       -0.4169449E+00
   maximum displ.:     0.1177564 α      in ANC's #289, #246, #287, ...

........................................................................
.............................. CYCLE    2 ..............................
........................................................................

 iter      E             dE          RMSdq      gap      omega  full diag
   1   -232.7162424 -0.232716E+03  0.335E-01    6.43       0.0  T
   2   -232.5231717  0.193071E+00  0.145E+00    6.54       1.0  T
   3   -232.7170495 -0.193878E+00  0.193E-01    6.44       1.0  T
   4   -232.7175008 -0.451366E-03  0.147E-01    6.44       1.0  T
   5   -232.7182680 -0.767184E-03  0.531E-02    6.45       1.0  T
   6   -232.7184543 -0.186263E-03  0.267E-02    6.44       1.0  T
   7   -232.7184930 -0.386691E-04  0.689E-03    6.45       1.3  T
   8   -232.7184926  0.391149E-06  0.507E-03    6.45       1.7  T
   9   -232.7184940 -0.143337E-05  0.136E-03    6.45       6.5  T
  10   -232.7184941 -0.769058E-07  0.633E-04    6.45      13.9  T
  11   -232.7184941  0.131142E-07  0.571E-04    6.45      15.4  T
     SCC iter.                  ...        0 min,  0.171 sec
     gradient                   ...        0 min,  0.078 sec
 * total energy  :  -230.9354218 Eh     change       -0.2808208E+00 Eh
   gradient norm :     0.3382564 Eh/α   predicted    -0.2884154E+00 (   2.70%)
   displ. norm   :     0.6428448 α      lambda       -0.1693827E+00
   maximum displ.:     0.1740767 α      in ANC's #246, #245, #238, ...

........................................................................
.............................. CYCLE    3 ..............................
........................................................................

 iter      E             dE          RMSdq      gap      omega  full diag
   1   -232.5118109 -0.232512E+03  0.394E-01    6.44       0.0  T
   2   -232.4651356  0.466753E-01  0.785E-01    6.58       1.0  T
   3   -232.5126100 -0.474744E-01  0.208E-01    6.44       1.0  T
   4   -232.5134757 -0.865633E-03  0.134E-01    6.47       1.0  T
   5   -232.5138185 -0.342828E-03  0.947E-02    6.48       1.0  T
   6   -232.5142720 -0.453474E-03  0.352E-02    6.50       1.0  T
   7   -232.5143132 -0.412356E-04  0.197E-02    6.50       1.0  T
   8   -232.5142828  0.303500E-04  0.285E-02    6.50       1.0  T
   9   -232.5143413 -0.584273E-04  0.876E-03    6.50       1.0  T
  10   -232.5143443 -0.301849E-05  0.618E-03    6.50       1.4  T
  11   -232.5143475 -0.323743E-05  0.518E-04    6.50      17.0  T
  12   -232.5143475 -0.611465E-09  0.421E-04    6.50      20.9  T
  13   -232.5143475 -0.965298E-08  0.154E-04    6.50      57.2  T
     SCC iter.                  ...        0 min,  0.197 sec
     gradient                   ...        0 min,  0.077 sec
 * total energy  :  -231.0515723 Eh     change       -0.1161505E+00 Eh
   gradient norm :     0.1251334 Eh/α   predicted    -0.1196922E+00 (   3.05%)
   displ. norm   :     0.6823419 α      lambda       -0.7256489E-01
   maximum displ.:     0.2209414 α      in ANC's #238, #235, #225, ...

........................................................................
.............................. CYCLE    4 ..............................
........................................................................

 iter      E             dE          RMSdq      gap      omega  full diag
   1   -232.4843976 -0.232484E+03  0.364E-01    6.38       0.0  T
   2   -232.4850614 -0.663758E-03  0.192E-01    6.50       1.0  T
   3   -232.4857283 -0.666859E-03  0.995E-02    6.45       1.0  T
   4   -232.4857764 -0.480947E-04  0.471E-02    6.47       1.0  T
   5   -232.4858619 -0.855644E-04  0.118E-02    6.45       1.0  T
   6   -232.4858639 -0.197593E-05  0.573E-03    6.45       1.5  T
   7   -232.4858644 -0.456363E-06  0.207E-03    6.45       4.2  T
   8   -232.4858644 -0.735362E-07  0.693E-04    6.45      12.7  T
   9   -232.4858644 -0.986253E-08  0.283E-04    6.45      31.2  T
     SCC iter.                  ...        0 min,  0.145 sec
     gradient                   ...        0 min,  0.077 sec
 * total energy  :  -231.1082751 Eh     change       -0.5670276E-01 Eh
   gradient norm :     0.1056184 Eh/α   predicted    -0.5317543E-01 (  -6.22%)
   displ. norm   :     0.7381114 α      lambda       -0.5696586E-01
   maximum displ.:     0.2484352 α      in ANC's #238, #235, #232, ...

........................................................................
.............................. CYCLE    5 ..............................
........................................................................

 iter      E             dE          RMSdq      gap      omega  full diag
   1   -232.5184858 -0.232518E+03  0.321E-01    6.26       0.0  T
   2   -232.5190685 -0.582661E-03  0.139E-01    6.33       1.0  T
   3   -232.5192240 -0.155508E-03  0.761E-02    6.30       1.0  T
   4   -232.5192496 -0.256156E-04  0.203E-02    6.30       1.0  T
   5   -232.5192558 -0.622585E-05  0.738E-03    6.29       1.2  T
   6   -232.5192565 -0.692739E-06  0.300E-03    6.29       2.9  T
   7   -232.5192567 -0.134575E-06  0.118E-03    6.29       7.5  T
   8   -232.5192567 -0.290188E-07  0.344E-04    6.29      25.6  T
   9   -232.5192567 -0.220123E-08  0.159E-04    6.29      55.3  T
     SCC iter.                  ...        0 min,  0.137 sec
     gradient                   ...        0 min,  0.080 sec
 * total energy  :  -231.1616681 Eh     change       -0.5339301E-01 Eh
   gradient norm :     0.1055700 Eh/α   predicted    -0.4400067E-01 ( -17.59%)
   displ. norm   :     0.8436455 α      lambda       -0.5995381E-01
   maximum displ.:     0.3666479 α      in ANC's #238, #235, #232, ...

........................................................................
.............................. CYCLE    6 ..............................
........................................................................

 iter      E             dE          RMSdq      gap      omega  full diag
   1   -232.5914027 -0.232591E+03  0.300E-01    6.22       0.0  T
   2   -232.5917296 -0.326856E-03  0.116E-01    6.25       1.0  T
   3   -232.5917819 -0.522761E-04  0.678E-02    6.24       1.0  T
   4   -232.5917994 -0.175296E-04  0.161E-02    6.24       1.0  T
   5   -232.5918016 -0.226535E-05  0.624E-03    6.23       1.4  T
   6   -232.5918021 -0.477836E-06  0.219E-03    6.23       4.0  T
   7   -232.5918022 -0.661587E-07  0.856E-04    6.23      10.3  T
   8   -232.5918022 -0.127529E-07  0.266E-04    6.23      33.0  T
     SCC iter.                  ...        0 min,  0.124 sec
     gradient                   ...        0 min,  0.082 sec
 * total energy  :  -231.2117522 Eh     change       -0.5008412E-01 Eh
   gradient norm :     0.0836406 Eh/α   predicted    -0.5131263E-01 (   2.45%)
   displ. norm   :     0.7843305 α      lambda       -0.4118457E-01
   maximum displ.:     0.3067851 α      in ANC's #238, #232, #235, ...

........................................................................
.............................. CYCLE    7 ..............................
........................................................................

 iter      E             dE          RMSdq      gap      omega  full diag
   1   -232.6506248 -0.232651E+03  0.187E-01    6.27       0.0  T
   2   -232.6507531 -0.128310E-03  0.832E-02    6.28       1.0  T
   3   -232.6507733 -0.201910E-04  0.486E-02    6.27       1.0  T
   4   -232.6507813 -0.805514E-05  0.147E-02    6.27       1.0  T
   5   -232.6507824 -0.109748E-05  0.419E-03    6.27       2.1  T
   6   -232.6507826 -0.157215E-06  0.126E-03    6.26       7.0  T
   7   -232.6507826 -0.220603E-07  0.523E-04    6.26      16.8  T
   8   -232.6507826 -0.529937E-08  0.218E-04    6.26      40.4  T
     SCC iter.                  ...        0 min,  0.121 sec
     gradient                   ...        0 min,  0.079 sec
 * total energy  :  -231.2465869 Eh     change       -0.3483471E-01 Eh
   gradient norm :     0.0771360 Eh/α   predicted    -0.3326015E-01 (  -4.52%)
   displ. norm   :     0.8229186 α      lambda       -0.3657972E-01
   maximum displ.:     0.3249986 α      in ANC's #238, #232, #235, ...

........................................................................
.............................. CYCLE    8 ..............................
........................................................................

 iter      E             dE          RMSdq      gap      omega  full diag
   1   -232.7248633 -0.232725E+03  0.156E-01    6.54       0.0  T
   2   -232.7250058 -0.142423E-03  0.847E-02    6.56       1.0  T
   3   -232.7250294 -0.236256E-04  0.334E-02    6.55       1.0  T
   4   -232.7250340 -0.459171E-05  0.120E-02    6.55       1.0  T
   5   -232.7250347 -0.721394E-06  0.446E-03    6.55       2.0  T
   6   -232.7250349 -0.166511E-06  0.167E-03    6.55       5.3  T
   7   -232.7250349 -0.156055E-07  0.625E-04    6.55      14.1  T
   8   -232.7250349 -0.400803E-08  0.206E-04    6.55      42.8  T
     SCC iter.                  ...        0 min,  0.128 sec
     gradient                   ...        0 min,  0.077 sec
 * total energy  :  -231.2695422 Eh     change       -0.2295526E-01 Eh
   gradient norm :     0.1050722 Eh/α   predicted    -0.3067566E-01 (  33.63%)
   displ. norm   :     0.7369155 α      lambda       -0.3742038E-01
   maximum displ.:     0.2488218 α      in ANC's #225, #238, #232, ...

........................................................................
.............................. CYCLE    9 ..............................
........................................................................

 iter      E             dE          RMSdq      gap      omega  full diag
   1   -232.7353330 -0.232735E+03  0.231E-01    6.53       0.0  T
   2   -232.7356518 -0.318778E-03  0.103E-01    6.56       1.0  T
   3   -232.7356838 -0.319944E-04  0.572E-02    6.55       1.0  T
   4   -232.7356939 -0.100660E-04  0.209E-02    6.55       1.0  T
   5   -232.7356956 -0.178434E-05  0.575E-03    6.55       1.5  T
   6   -232.7356959 -0.251975E-06  0.197E-03    6.55       4.5  T
   7   -232.7356959 -0.283100E-07  0.946E-04    6.55       9.3  T
   8   -232.7356959 -0.124058E-07  0.325E-04    6.55      27.1  T
     SCC iter.                  ...        0 min,  0.124 sec
     gradient                   ...        0 min,  0.082 sec
 * total energy  :  -231.2942782 Eh     change       -0.2473597E-01 Eh
   gradient norm :     0.0799307 Eh/α   predicted    -0.2887067E-01 (  16.72%)
   displ. norm   :     0.7834183 α      lambda       -0.2458433E-01
   maximum displ.:     0.2195865 α      in ANC's #194, #238, #232, ...

........................................................................
.............................. CYCLE   10 ..............................
........................................................................

 iter      E             dE          RMSdq      gap      omega  full diag
   1   -232.6836176 -0.232684E+03  0.185E-01    6.47       0.0  T
   2   -232.6838109 -0.193344E-03  0.103E-01    6.51       1.0  T
   3   -232.6838373 -0.263911E-04  0.457E-02    6.51       1.0  T
   4   -232.6838440 -0.666490E-05  0.133E-02    6.51       1.0  T
   5   -232.6838449 -0.922618E-06  0.415E-03    6.51       2.1  T
   6   -232.6838450 -0.124201E-06  0.182E-03    6.51       4.8  T
   7   -232.6838451 -0.251785E-07  0.768E-04    6.51      11.5  T
   8   -232.6838451 -0.727468E-08  0.285E-04    6.51      30.9  T
     SCC iter.                  ...        0 min,  0.125 sec
     gradient                   ...        0 min,  0.077 sec
 * total energy  :  -231.3067286 Eh     change       -0.1245043E-01 Eh
   gradient norm :     0.1199525 Eh/α   predicted    -0.1983642E-01 (  59.32%)
   displ. norm   :     0.6619242 α      lambda       -0.3085814E-01
   maximum displ.:     0.1987017 α      in ANC's #238, #184, #232, ...

........................................................................
.............................. CYCLE   11 ..............................
........................................................................

 iter      E             dE          RMSdq      gap      omega  full diag
   1   -232.7258247 -0.232726E+03  0.152E-01    6.73       0.0  T
   2   -232.7259822 -0.157554E-03  0.851E-02    6.78       1.0  T
   3   -232.7260087 -0.264286E-04  0.365E-02    6.79       1.0  T
   4   -232.7260142 -0.551512E-05  0.131E-02    6.79       1.0  T
   5   -232.7260154 -0.123066E-05  0.487E-03    6.79       1.8  T
   6   -232.7260155 -0.111585E-06  0.266E-03    6.79       3.3  T
   7   -232.7260156 -0.468140E-07  0.989E-04    6.79       8.9  T
   8   -232.7260156 -0.852526E-08  0.256E-04    6.79      34.4  T
     SCC iter.                  ...        0 min,  0.122 sec
     gradient                   ...        0 min,  0.080 sec
 * total energy  :  -231.3256720 Eh     change       -0.1894339E-01 Eh
   gradient norm :     0.0778086 Eh/α   predicted    -0.2218922E-01 (  17.13%)
   displ. norm   :     0.7013631 α      lambda       -0.2920230E-01
   maximum displ.:     0.2429718 α      in ANC's #233, #203, #238, ...

........................................................................
.............................. CYCLE   12 ..............................
........................................................................

 iter      E             dE          RMSdq      gap      omega  full diag
   1   -232.8054285 -0.232805E+03  0.228E-01    7.27       0.0  T
   2   -232.8057814 -0.352868E-03  0.126E-01    7.33       1.0  T
   3   -232.8058456 -0.642851E-04  0.563E-02    7.34       1.0  T
   4   -232.8058569 -0.112757E-04  0.234E-02    7.34       1.0  T
   5   -232.8058603 -0.334689E-05  0.911E-03    7.33       1.0  T
   6   -232.8058608 -0.571793E-06  0.367E-03    7.33       2.4  T
   7   -232.8058609 -0.928623E-07  0.126E-03    7.34       7.0  T
   8   -232.8058609 -0.155477E-07  0.551E-04    7.34      16.0  T
   9   -232.8058610 -0.614568E-08  0.263E-04    7.34      33.5  T
     SCC iter.                  ...        0 min,  0.140 sec
     gradient                   ...        0 min,  0.081 sec
 * total energy  :  -231.3181403 Eh     change        0.7531727E-02 Eh
   gradient norm :     0.2063418 Eh/α   predicted    -0.2178358E-01 (-389.22%)
   displ. norm   :     0.4219604 α      lambda       -0.4800849E-01
   maximum displ.:     0.1996144 α      in ANC's #233, #232, #194, ...

........................................................................
.............................. CYCLE   13 ..............................
........................................................................

 iter      E             dE          RMSdq      gap      omega  full diag
   1   -232.7737506 -0.232774E+03  0.173E-01    6.92       0.0  T
   2   -232.7740123 -0.261649E-03  0.979E-02    6.94       1.0  T
   3   -232.7740421 -0.298547E-04  0.622E-02    6.94       1.0  T
   4   -232.7740557 -0.136104E-04  0.177E-02    6.94       1.0  T
   5   -232.7740578 -0.204088E-05  0.594E-03    6.94       1.5  T
   6   -232.7740581 -0.294551E-06  0.229E-03    6.94       3.8  T
   7   -232.7740581 -0.242475E-07  0.104E-03    6.93       8.5  T
   8   -232.7740581 -0.815243E-08  0.275E-04    6.93      32.0  T
   9   -232.7740581 -0.138564E-08  0.139E-04    6.93      63.2  T
     SCC iter.                  ...        0 min,  0.143 sec
     gradient                   ...        0 min,  0.085 sec
 * total energy  :  -231.3431792 Eh     change       -0.2503898E-01 Eh
   gradient norm :     0.0782760 Eh/α   predicted    -0.2827825E-01 (  12.94%)
   displ. norm   :     0.6817570 α      lambda       -0.2560913E-01
   maximum displ.:     0.2101258 α      in ANC's #194, #210, #202, ...

........................................................................
.............................. CYCLE   14 ..............................
........................................................................

 iter      E             dE          RMSdq      gap      omega  full diag
   1   -232.7207660 -0.232721E+03  0.221E-01    7.08       0.0  T
   2   -232.7209354 -0.169334E-03  0.125E-01    7.10       1.0  T
   3   -232.7209777 -0.423362E-04  0.761E-02    7.11       1.0  T
   4   -232.7210013 -0.236174E-04  0.232E-02    7.12       1.0  T
   5   -232.7210043 -0.301087E-05  0.102E-02    7.12       1.0  T
   6   -232.7210052 -0.837381E-06  0.452E-03    7.12       1.9  T
   7   -232.7210053 -0.134995E-06  0.200E-03    7.12       4.4  T
   8   -232.7210053 -0.364320E-07  0.553E-04    7.12      15.9  T
   9   -232.7210053 -0.262960E-08  0.226E-04    7.12      38.9  T
     SCC iter.                  ...        0 min,  0.139 sec
     gradient                   ...        0 min,  0.080 sec
 * total energy  :  -231.3388101 Eh     change        0.4369095E-02 Eh
   gradient norm :     0.1544468 Eh/α   predicted    -0.1875606E-01 (-529.29%)
   displ. norm   :     0.4532891 α      lambda       -0.3286752E-01
   maximum displ.:     0.1337426 α      in ANC's #194, #179, #243, ...

........................................................................
.............................. CYCLE   15 ..............................
........................................................................

 iter      E             dE          RMSdq      gap      omega  full diag
   1   -232.7439987 -0.232744E+03  0.160E-01    7.08       0.0  T
   2   -232.7441201 -0.121418E-03  0.101E-01    7.09       1.0  T
   3   -232.7441470 -0.268819E-04  0.607E-02    7.10       1.0  T
   4   -232.7441618 -0.147888E-04  0.215E-02    7.09       1.0  T
   5   -232.7441643 -0.254453E-05  0.895E-03    7.09       1.0  T
   6   -232.7441650 -0.700533E-06  0.325E-03    7.09       2.7  T
   7   -232.7441651 -0.614830E-07  0.151E-03    7.09       5.8  T
   8   -232.7441651 -0.160716E-07  0.520E-04    7.09      16.9  T
   9   -232.7441651 -0.237301E-08  0.209E-04    7.09      42.2  T
     SCC iter.                  ...        0 min,  0.137 sec
     gradient                   ...        0 min,  0.084 sec
 * total energy  :  -231.3572295 Eh     change       -0.1841940E-01 Eh
   gradient norm :     0.0754414 Eh/α   predicted    -0.1981042E-01 (   7.55%)
   displ. norm   :     0.6932711 α      lambda       -0.2528943E-01
   maximum displ.:     0.2331508 α      in ANC's #210, #203, #194, ...

........................................................................
.............................. CYCLE   16 ..............................
........................................................................

 iter      E             dE          RMSdq      gap      omega  full diag
   1   -232.8100158 -0.232810E+03  0.273E-01    7.08       0.0  T
   2   -232.8102766 -0.260814E-03  0.182E-01    7.10       1.0  T
   3   -232.8103578 -0.812003E-04  0.102E-01    7.11       1.0  T
   4   -232.8104006 -0.427863E-04  0.372E-02    7.12       1.0  T
   5   -232.8104075 -0.697749E-05  0.163E-02    7.12       1.0  T
   6   -232.8104096 -0.201732E-05  0.676E-03    7.11       1.3  T
   7   -232.8104099 -0.288827E-06  0.309E-03    7.11       2.8  T
   8   -232.8104099 -0.708959E-07  0.109E-03    7.11       8.1  T
   9   -232.8104099 -0.920352E-08  0.413E-04    7.11      21.3  T
  10   -232.8104099 -0.286497E-08  0.189E-04    7.11      46.7  T
     SCC iter.                  ...        0 min,  0.177 sec
     gradient                   ...        0 min,  0.081 sec
 * total energy  :  -231.3340927 Eh     change        0.2313680E-01 Eh
   gradient norm :     0.2690292 Eh/α   predicted    -0.1872209E-01 (-180.92%)
   displ. norm   :     0.3781447 α      lambda       -0.5972038E-01
   maximum displ.:     0.0858828 α      in ANC's #210, #238, #240, ...

........................................................................
.............................. CYCLE   17 ..............................
........................................................................

 iter      E             dE          RMSdq      gap      omega  full diag
   1   -232.8028792 -0.232803E+03  0.150E-01    7.25       0.0  T
   2   -232.8029846 -0.105423E-03  0.892E-02    7.25       1.0  T
   3   -232.8030133 -0.287569E-04  0.592E-02    7.25       1.0  T
   4   -232.8030284 -0.150177E-04  0.192E-02    7.25       1.0  T
   5   -232.8030305 -0.215308E-05  0.883E-03    7.25       1.0  T
   6   -232.8030312 -0.666800E-06  0.427E-03    7.25       2.1  T
   7   -232.8030313 -0.105047E-06  0.194E-03    7.25       4.5  T
   8   -232.8030313 -0.282796E-07  0.682E-04    7.25      12.9  T
   9   -232.8030313 -0.308415E-08  0.179E-04    7.25      49.1  T
     SCC iter.                  ...        0 min,  0.155 sec
     gradient                   ...        0 min,  0.078 sec
 * total energy  :  -231.3651400 Eh     change       -0.3104728E-01 Eh
   gradient norm :     0.0601719 Eh/α   predicted    -0.3413004E-01 (   9.93%)
   displ. norm   :     0.7156195 α      lambda       -0.2123314E-01
   maximum displ.:     0.2160786 α      in ANC's #205, #103, #204, ...

........................................................................
.............................. CYCLE   18 ..............................
........................................................................

 iter      E             dE          RMSdq      gap      omega  full diag
   1   -232.6772867 -0.232677E+03  0.260E-01    7.11       0.0  T
   2   -232.6775116 -0.224902E-03  0.172E-01    7.11       1.0  T
   3   -232.6775651 -0.535007E-04  0.121E-01    7.12       1.0  T
   4   -232.6776126 -0.475008E-04  0.329E-02    7.12       1.0  T
   5   -232.6776183 -0.570177E-05  0.131E-02    7.12       1.0  T
   6   -232.6776196 -0.128346E-05  0.673E-03    7.12       1.3  T
   7   -232.6776198 -0.241668E-06  0.280E-03    7.12       3.1  T
   8   -232.6776199 -0.505084E-07  0.913E-04    7.12       9.6  T
   9   -232.6776199 -0.678673E-08  0.358E-04    7.12      24.6  T
     SCC iter.                  ...        0 min,  0.141 sec
     gradient                   ...        0 min,  0.083 sec
 * total energy  :  -231.3513843 Eh     change        0.1375575E-01 Eh
   gradient norm :     0.1797871 Eh/α   predicted    -0.1605343E-01 (-216.70%)
   displ. norm   :     0.4354911 α      lambda       -0.4504091E-01
   maximum displ.:     0.2040639 α      in ANC's #103, #170, #99, ...

........................................................................
.............................. CYCLE   19 ..............................
........................................................................

 iter      E             dE          RMSdq      gap      omega  full diag
   1   -232.7587370 -0.232759E+03  0.210E-01    7.34       0.0  T
   2   -232.7588985 -0.161509E-03  0.137E-01    7.34       1.0  T
   3   -232.7589458 -0.472514E-04  0.873E-02    7.35       1.0  T
   4   -232.7589729 -0.270755E-04  0.206E-02    7.35       1.0  T
   5   -232.7589748 -0.194250E-05  0.131E-02    7.35       1.0  T
   6   -232.7589758 -0.103663E-05  0.544E-03    7.35       1.6  T
   7   -232.7589760 -0.126230E-06  0.193E-03    7.35       4.6  T
   8   -232.7589760 -0.144152E-07  0.491E-04    7.35      17.9  T
   9   -232.7589760 -0.129398E-08  0.180E-04    7.35      49.0  T
     SCC iter.                  ...        0 min,  0.143 sec
     gradient                   ...        0 min,  0.079 sec
 * total energy  :  -231.3701771 Eh     change       -0.1879279E-01 Eh
   gradient norm :     0.1052831 Eh/α   predicted    -0.2679150E-01 (  42.56%)
   displ. norm   :     0.7269709 α      lambda       -0.4306913E-01
   maximum displ.:     0.2391982 α      in ANC's #205, #204, #194, ...

........................................................................
.............................. CYCLE   20 ..............................
........................................................................

 iter      E             dE          RMSdq      gap      omega  full diag
   1   -232.9003988 -0.232900E+03  0.325E-01    7.41       0.0  T
   2   -232.9008160 -0.417203E-03  0.200E-01    7.42       1.0  T
   3   -232.9009060 -0.900153E-04  0.138E-01    7.42       1.0  T
   4   -232.9009754 -0.694354E-04  0.299E-02    7.41       1.0  T
   5   -232.9009808 -0.541094E-05  0.184E-02    7.41       1.0  T
   6   -232.9009826 -0.179842E-05  0.999E-03    7.41       1.0  T
   7   -232.9009830 -0.386864E-06  0.385E-03    7.41       2.3  T
   8   -232.9009831 -0.908186E-07  0.125E-03    7.41       7.0  T
   9   -232.9009831 -0.150715E-07  0.575E-04    7.41      15.3  T
  10   -232.9009831 -0.444419E-08  0.261E-04    7.41      33.7  T
     SCC iter.                  ...        0 min,  0.150 sec
     gradient                   ...        0 min,  0.081 sec
 * total energy  :  -231.3329494 Eh     change        0.3722772E-01 Eh
   gradient norm :     0.3221062 Eh/α   predicted    -0.3291532E-01 (-188.42%)
   displ. norm   :     0.3675937 α      lambda       -0.9070884E-01
   maximum displ.:     0.1848439 α      in ANC's #243, #194, #213, ...
 * RMSD in coord.:     0.7459760 α      energy gain  -0.6783484E+00 Eh

generating ANC from model Hessian ...
Using Lindh-Hessian (1995)
 Shifting diagonal of input Hessian by    1.0577439049214057E-002
 Lowest  eigenvalues of input Hessian
    0.010000    0.010316    0.010336    0.010341    0.010350    0.010420
    0.010432    0.010440    0.010445    0.010455    0.010470    0.010473
    0.010487    0.010492    0.010497    0.010499    0.010503    0.010506
 Highest eigenvalues
    1.490603    1.515570    1.626969    3.002019    3.165226    3.346201


........................................................................
.............................. CYCLE   21 ..............................
........................................................................

 iter      E             dE          RMSdq      gap      omega  full diag
   1   -232.8144718 -0.232814E+03  0.197E-01    7.23       0.0  T
   2   -232.8147226 -0.250837E-03  0.112E-01    7.23       1.0  T
   3   -232.8147610 -0.383698E-04  0.705E-02    7.23       1.0  T
   4   -232.8147792 -0.182161E-04  0.374E-02    7.23       1.0  T
   5   -232.8147862 -0.697105E-05  0.119E-02    7.23       1.0  T
   6   -232.8147872 -0.951664E-06  0.756E-03    7.23       1.2  T
   7   -232.8147874 -0.234222E-06  0.303E-03    7.23       2.9  T
   8   -232.8147874 -0.484640E-07  0.966E-04    7.23       9.1  T
   9   -232.8147874 -0.706606E-08  0.335E-04    7.23      26.3  T
     SCC iter.                  ...        0 min,  0.137 sec
     gradient                   ...        0 min,  0.079 sec
 * total energy  :  -231.3693128 Eh     change       -0.3636347E-01 Eh
   gradient norm :     0.1187481 Eh/α   predicted     0.0000000E+00 (-100.00%)
   displ. norm   :     0.4874550 α      lambda       -0.2047125E-01
   maximum displ.:     0.1658772 α      in ANC's #241, #233, #240, ...

........................................................................
.............................. CYCLE   22 ..............................
........................................................................

 iter      E             dE          RMSdq      gap      omega  full diag
   1   -232.8109422 -0.232811E+03  0.124E-01    7.38       0.0  T
   2   -232.8109792 -0.370139E-04  0.766E-02    7.38       1.0  T
   3   -232.8109862 -0.699469E-05  0.542E-02    7.38       1.0  T
   4   -232.8109943 -0.810205E-05  0.175E-02    7.39       1.0  T
   5   -232.8109955 -0.120529E-05  0.515E-03    7.39       1.7  T
   6   -232.8109957 -0.153290E-06  0.272E-03    7.39       3.2  T
   7   -232.8109957 -0.312160E-07  0.125E-03    7.39       7.0  T
   8   -232.8109957 -0.829809E-08  0.561E-04    7.39      15.7  T
   9   -232.8109957 -0.239223E-08  0.181E-04    7.39      48.6  T
     SCC iter.                  ...        0 min,  0.140 sec
     gradient                   ...        0 min,  0.084 sec
 * total energy  :  -231.3853094 Eh     change       -0.1599652E-01 Eh
   gradient norm :     0.0465725 Eh/α   predicted    -0.1267505E-01 ( -20.76%)
   displ. norm   :     0.6872127 α      lambda       -0.1477562E-01
   maximum displ.:     0.2461653 α      in ANC's #241, #240, #233, ...

........................................................................
.............................. CYCLE   23 ..............................
........................................................................

 iter      E             dE          RMSdq      gap      omega  full diag
   1   -232.7923732 -0.232792E+03  0.171E-01    7.48       0.0  T
   2   -232.7924364 -0.631620E-04  0.112E-01    7.48       1.0  T
   3   -232.7924517 -0.153281E-04  0.791E-02    7.48       1.0  T
   4   -232.7924664 -0.146478E-04  0.178E-02    7.48       1.0  T
   5   -232.7924677 -0.130280E-05  0.917E-03    7.48       1.0  T
   6   -232.7924681 -0.482307E-06  0.364E-03    7.48       2.4  T
   7   -232.7924682 -0.745154E-07  0.163E-03    7.48       5.4  T
   8   -232.7924682 -0.213722E-07  0.577E-04    7.48      15.2  T
   9   -232.7924682 -0.454398E-08  0.302E-04    7.48      29.2  T
     SCC iter.                  ...        0 min,  0.138 sec
     gradient                   ...        0 min,  0.085 sec
 * total energy  :  -231.3929595 Eh     change       -0.7650121E-02 Eh
   gradient norm :     0.0651974 Eh/α   predicted    -0.1087682E-01 (  42.18%)
   displ. norm   :     0.5664420 α      lambda       -0.9675712E-02
   maximum displ.:     0.1341176 α      in ANC's #218, #236, #189, ...

........................................................................
.............................. CYCLE   24 ..............................
........................................................................

 iter      E             dE          RMSdq      gap      omega  full diag
   1   -232.7858234 -0.232786E+03  0.127E-01    7.47       0.0  T
   2   -232.7858488 -0.254100E-04  0.895E-02    7.47       1.0  T
   3   -232.7858584 -0.960800E-05  0.599E-02    7.47       1.0  T
   4   -232.7858657 -0.733260E-05  0.150E-02    7.47       1.0  T
   5   -232.7858668 -0.108343E-05  0.506E-03    7.47       1.7  T
   6   -232.7858670 -0.157070E-06  0.207E-03    7.47       4.3  T
   7   -232.7858670 -0.210190E-07  0.110E-03    7.47       8.0  T
   8   -232.7858670 -0.760843E-08  0.317E-04    7.47      27.8  T
   9   -232.7858670 -0.156564E-08  0.117E-04    7.47      75.1  T
     SCC iter.                  ...        0 min,  0.141 sec
     gradient                   ...        0 min,  0.083 sec
 * total energy  :  -231.3998050 Eh     change       -0.6845562E-02 Eh
   gradient norm :     0.0538363 Eh/α   predicted    -0.6390158E-02 (  -6.65%)
   displ. norm   :     0.6984426 α      lambda       -0.1003669E-01
   maximum displ.:     0.1897250 α      in ANC's #188, #218, #164, ...

........................................................................
.............................. CYCLE   25 ..............................
........................................................................

 iter      E             dE          RMSdq      gap      omega  full diag
   1   -232.8123301 -0.232812E+03  0.159E-01    7.44       0.0  T
   2   -232.8123656 -0.355333E-04  0.132E-01    7.45       1.0  T
   3   -232.8124015 -0.359110E-04  0.599E-02    7.45       1.0  T
   4   -232.8124061 -0.460134E-05  0.266E-02    7.45       1.0  T
   5   -232.8124095 -0.337010E-05  0.628E-03    7.45       1.4  T
   6   -232.8124098 -0.268588E-06  0.291E-03    7.45       3.0  T
   7   -232.8124098 -0.582118E-07  0.134E-03    7.45       6.6  T
   8   -232.8124098 -0.102068E-07  0.529E-04    7.45      16.6  T
   9   -232.8124098 -0.248559E-08  0.226E-04    7.45      38.9  T
     SCC iter.                  ...        0 min,  0.137 sec
     gradient                   ...        0 min,  0.083 sec
 * total energy  :  -231.4049759 Eh     change       -0.5170842E-02 Eh
   gradient norm :     0.0599834 Eh/α   predicted    -0.7466405E-02 (  44.39%)
   displ. norm   :     0.6390018 α      lambda       -0.1008165E-01
   maximum displ.:     0.1197807 α      in ANC's #164, #169, #194, ...

........................................................................
.............................. CYCLE   26 ..............................
........................................................................

 iter      E             dE          RMSdq      gap      omega  full diag
   1   -232.8293512 -0.232829E+03  0.142E-01    7.55       0.0  T
   2   -232.8293689 -0.177501E-04  0.121E-01    7.54       1.0  T
   3   -232.8293991 -0.302069E-04  0.538E-02    7.55       1.0  T
   4   -232.8294019 -0.273192E-05  0.227E-02    7.55       1.0  T
   5   -232.8294044 -0.256475E-05  0.510E-03    7.55       1.7  T
   6   -232.8294046 -0.154031E-06  0.215E-03    7.55       4.1  T
   7   -232.8294046 -0.217762E-07  0.996E-04    7.55       8.8  T
   8   -232.8294046 -0.509883E-08  0.345E-04    7.55      25.5  T
     SCC iter.                  ...        0 min,  0.126 sec
     gradient                   ...        0 min,  0.083 sec
 * total energy  :  -231.4129014 Eh     change       -0.7925567E-02 Eh
   gradient norm :     0.0332259 Eh/α   predicted    -0.7099129E-02 ( -10.43%)
   displ. norm   :     0.8151262 α      lambda       -0.1006412E-01
   maximum displ.:     0.1520218 α      in ANC's #164, #188, #96, ...

........................................................................
.............................. CYCLE   27 ..............................
........................................................................

 iter      E             dE          RMSdq      gap      omega  full diag
   1   -232.8030423 -0.232803E+03  0.191E-01    7.54       0.0  T
   2   -232.8030781 -0.358066E-04  0.162E-01    7.54       1.0  T
   3   -232.8031294 -0.512776E-04  0.814E-02    7.54       1.0  T
   4   -232.8031399 -0.105052E-04  0.267E-02    7.54       1.0  T
   5   -232.8031434 -0.346273E-05  0.786E-03    7.54       1.1  T
   6   -232.8031438 -0.417342E-06  0.362E-03    7.54       2.4  T
   7   -232.8031439 -0.810187E-07  0.152E-03    7.54       5.8  T
   8   -232.8031439 -0.998011E-08  0.624E-04    7.54      14.1  T
   9   -232.8031439 -0.338105E-08  0.214E-04    7.54      41.1  T
     SCC iter.                  ...        0 min,  0.139 sec
     gradient                   ...        0 min,  0.083 sec
 * total energy  :  -231.4177380 Eh     change       -0.4836579E-02 Eh
   gradient norm :     0.0745865 Eh/α   predicted    -0.8375518E-02 (  73.17%)
   displ. norm   :     0.5824386 α      lambda       -0.1100841E-01
   maximum displ.:     0.1028108 α      in ANC's #111, #149, #166, ...

........................................................................
.............................. CYCLE   28 ..............................
........................................................................

 iter      E             dE          RMSdq      gap      omega  full diag
   1   -232.8267868 -0.232827E+03  0.126E-01    7.59       0.0  T
   2   -232.8268109 -0.241754E-04  0.105E-01    7.59       1.0  T
   3   -232.8268383 -0.273380E-04  0.499E-02    7.59       1.0  T
   4   -232.8268448 -0.651878E-05  0.132E-02    7.59       1.0  T
   5   -232.8268456 -0.795374E-06  0.657E-03    7.59       1.3  T
   6   -232.8268459 -0.302722E-06  0.237E-03    7.59       3.7  T
   7   -232.8268459 -0.328283E-07  0.100E-03    7.59       8.8  T
   8   -232.8268459 -0.598919E-08  0.487E-04    7.59      18.1  T
   9   -232.8268459 -0.224551E-08  0.128E-04    7.59      68.7  T
     SCC iter.                  ...        0 min,  0.139 sec
     gradient                   ...        0 min,  0.084 sec
 * total energy  :  -231.4244529 Eh     change       -0.6714892E-02 Eh
   gradient norm :     0.0503426 Eh/α   predicted    -0.7371433E-02 (   9.78%)
   displ. norm   :     0.7062337 α      lambda       -0.1173119E-01
   maximum displ.:     0.1433593 α      in ANC's #74, #149, #96, ...

........................................................................
.............................. CYCLE   29 ..............................
........................................................................

 iter      E             dE          RMSdq      gap      omega  full diag
   1   -232.8806826 -0.232881E+03  0.160E-01    7.62       0.0  T
   2   -232.8807363 -0.537766E-04  0.116E-01    7.63       1.0  T
   3   -232.8807562 -0.198870E-04  0.842E-02    7.63       1.0  T
   4   -232.8807760 -0.198109E-04  0.175E-02    7.63       1.0  T
   5   -232.8807775 -0.149565E-05  0.829E-03    7.63       1.1  T
   6   -232.8807780 -0.436815E-06  0.501E-03    7.63       1.8  T
   7   -232.8807781 -0.142198E-06  0.139E-03    7.63       6.3  T
   8   -232.8807781 -0.153684E-07  0.461E-04    7.63      19.1  T
   9   -232.8807781 -0.229974E-08  0.123E-04    7.63      71.7  T
     SCC iter.                  ...        0 min,  0.139 sec
     gradient                   ...        0 min,  0.087 sec
 * total energy  :  -231.4249806 Eh     change       -0.5276577E-03 Eh
   gradient norm :     0.1050167 Eh/α   predicted    -0.8791169E-02 (1566.07%)
   displ. norm   :     0.5399176 α      lambda       -0.1469135E-01
   maximum displ.:     0.1761262 α      in ANC's #121, #148, #111, ...

........................................................................
.............................. CYCLE   30 ..............................
........................................................................

 iter      E             dE          RMSdq      gap      omega  full diag
   1   -232.8505293 -0.232851E+03  0.137E-01    7.56       0.0  T
   2   -232.8505709 -0.415838E-04  0.922E-02    7.56       1.0  T
   3   -232.8505803 -0.943547E-05  0.740E-02    7.56       1.0  T
   4   -232.8505956 -0.152690E-04  0.169E-02    7.56       1.0  T
   5   -232.8505970 -0.139365E-05  0.649E-03    7.56       1.4  T
   6   -232.8505973 -0.342712E-06  0.399E-03    7.56       2.2  T
   7   -232.8505974 -0.863173E-07  0.152E-03    7.56       5.8  T
   8   -232.8505974 -0.183941E-07  0.617E-04    7.56      14.3  T
   9   -232.8505974 -0.473344E-08  0.149E-04    7.56      59.1  T
     SCC iter.                  ...        0 min,  0.149 sec
     gradient                   ...        0 min,  0.087 sec
 * total energy  :  -231.4303732 Eh     change       -0.5392673E-02 Eh
   gradient norm :     0.0858564 Eh/α   predicted    -0.9487026E-02 (  75.92%)
   displ. norm   :     0.6608475 α      lambda       -0.2144971E-01
   maximum displ.:     0.1985355 α      in ANC's #121, #116, #172, ...

........................................................................
.............................. CYCLE   31 ..............................
........................................................................

 iter      E             dE          RMSdq      gap      omega  full diag
   1   -232.7867376 -0.232787E+03  0.215E-01    7.49       0.0  T
   2   -232.7868695 -0.131859E-03  0.132E-01    7.48       1.0  T
   3   -232.7868887 -0.192356E-04  0.106E-01    7.48       1.0  T
   4   -232.7869332 -0.444789E-04  0.215E-02    7.48       1.0  T
   5   -232.7869360 -0.281330E-05  0.102E-02    7.48       1.0  T
   6   -232.7869369 -0.893317E-06  0.495E-03    7.48       1.8  T
   7   -232.7869370 -0.114181E-06  0.268E-03    7.48       3.3  T
   8   -232.7869371 -0.561163E-07  0.980E-04    7.48       9.0  T
   9   -232.7869371 -0.110971E-07  0.322E-04    7.48      27.3  T
     SCC iter.                  ...        0 min,  0.145 sec
     gradient                   ...        0 min,  0.083 sec
 * total energy  :  -231.4198087 Eh     change        0.1056454E-01 Eh
   gradient norm :     0.1635814 Eh/α   predicted    -0.1540863E-01 (-245.85%)
   displ. norm   :     0.4504086 α      lambda       -0.3562990E-01
   maximum displ.:     0.1158964 α      in ANC's #78, #85, #93, ...

........................................................................
.............................. CYCLE   32 ..............................
........................................................................

 iter      E             dE          RMSdq      gap      omega  full diag
   1   -232.8381149 -0.232838E+03  0.165E-01    7.60       0.0  T
   2   -232.8381981 -0.832646E-04  0.105E-01    7.60       1.0  T
   3   -232.8382071 -0.893400E-05  0.953E-02    7.60       1.0  T
   4   -232.8382414 -0.343469E-04  0.184E-02    7.60       1.0  T
   5   -232.8382431 -0.172793E-05  0.868E-03    7.60       1.0  T
   6   -232.8382437 -0.556058E-06  0.481E-03    7.60       1.8  T
   7   -232.8382438 -0.100504E-06  0.178E-03    7.60       4.9  T
   8   -232.8382438 -0.216015E-07  0.725E-04    7.60      12.1  T
   9   -232.8382438 -0.374092E-08  0.170E-04    7.60      51.7  T
     SCC iter.                  ...        0 min,  0.151 sec
     gradient                   ...        0 min,  0.083 sec
 * total energy  :  -231.4357403 Eh     change       -0.1593156E-01 Eh
   gradient norm :     0.0750782 Eh/α   predicted    -0.2142904E-01 (  34.51%)
   displ. norm   :     0.7131621 α      lambda       -0.2380557E-01
   maximum displ.:     0.1746286 α      in ANC's #179, #193, #27, ...

........................................................................
.............................. CYCLE   33 ..............................
........................................................................

 iter      E             dE          RMSdq      gap      omega  full diag
   1   -232.9054877 -0.232905E+03  0.234E-01    7.57       0.0  T
   2   -232.9056179 -0.130160E-03  0.153E-01    7.57       1.0  T
   3   -232.9056401 -0.222005E-04  0.135E-01    7.58       1.0  T
   4   -232.9056945 -0.543878E-04  0.215E-02    7.57       1.0  T
   5   -232.9056968 -0.232104E-05  0.123E-02    7.57       1.0  T
   6   -232.9056978 -0.101651E-05  0.666E-03    7.57       1.3  T
   7   -232.9056980 -0.220876E-06  0.247E-03    7.57       3.6  T
   8   -232.9056981 -0.475583E-07  0.103E-03    7.57       8.5  T
   9   -232.9056981 -0.102656E-07  0.310E-04    7.57      28.4  T
  10   -232.9056981 -0.103370E-08  0.157E-04    7.57      56.0  T
     SCC iter.                  ...        0 min,  0.158 sec
     gradient                   ...        0 min,  0.090 sec
 * total energy  :  -231.4211726 Eh     change        0.1456762E-01 Eh
   gradient norm :     0.2038201 Eh/α   predicted    -0.1795654E-01 (-223.26%)
   displ. norm   :     0.3620395 α      lambda       -0.3783246E-01
   maximum displ.:     0.0825273 α      in ANC's #96, #85, #149, ...

........................................................................
.............................. CYCLE   34 ..............................
........................................................................

 iter      E             dE          RMSdq      gap      omega  full diag
   1   -232.8541258 -0.232854E+03  0.138E-01    7.57       0.0  T
   2   -232.8541836 -0.578261E-04  0.908E-02    7.58       1.0  T
   3   -232.8541955 -0.118276E-04  0.770E-02    7.57       1.0  T
   4   -232.8542169 -0.214303E-04  0.184E-02    7.57       1.0  T
   5   -232.8542186 -0.166745E-05  0.710E-03    7.57       1.2  T
   6   -232.8542190 -0.456209E-06  0.362E-03    7.57       2.4  T
   7   -232.8542191 -0.776942E-07  0.165E-03    7.57       5.3  T
   8   -232.8542191 -0.165625E-07  0.101E-03    7.57       8.7  T
   9   -232.8542191 -0.883477E-08  0.325E-04    7.57      27.1  T
  10   -232.8542191 -0.925723E-09  0.132E-04    7.57      66.8  T
     SCC iter.                  ...        0 min,  0.163 sec
     gradient                   ...        0 min,  0.086 sec
 * total energy  :  -231.4408219 Eh     change       -0.1964922E-01 Eh
   gradient norm :     0.0628455 Eh/α   predicted    -0.2139565E-01 (   8.89%)
   displ. norm   :     0.6659627 α      lambda       -0.1851860E-01
   maximum displ.:     0.1591540 α      in ANC's #234, #189, #172, ...

........................................................................
.............................. CYCLE   35 ..............................
........................................................................

 iter      E             dE          RMSdq      gap      omega  full diag
   1   -232.8380568 -0.232838E+03  0.207E-01    7.57       0.0  T
   2   -232.8381742 -0.117403E-03  0.143E-01    7.56       1.0  T
   3   -232.8382085 -0.343128E-04  0.112E-01    7.56       1.0  T
   4   -232.8382558 -0.472649E-04  0.364E-02    7.56       1.0  T
   5   -232.8382616 -0.581494E-05  0.105E-02    7.56       1.0  T
   6   -232.8382624 -0.839039E-06  0.789E-03    7.56       1.1  T
   7   -232.8382628 -0.332907E-06  0.260E-03    7.56       3.4  T
   8   -232.8382628 -0.506785E-07  0.135E-03    7.56       6.5  T
   9   -232.8382628 -0.152665E-07  0.324E-04    7.56      27.2  T
  10   -232.8382628 -0.104200E-08  0.151E-04    7.56      58.5  T
     SCC iter.                  ...        0 min,  0.168 sec
     gradient                   ...        0 min,  0.085 sec
 * total energy  :  -231.4276146 Eh     change        0.1320728E-01 Eh
   gradient norm :     0.1773138 Eh/α   predicted    -0.1336587E-01 (-201.20%)
   displ. norm   :     0.3807956 α      lambda       -0.3318488E-01
   maximum displ.:     0.0984505 α      in ANC's #234, #189, #244, ...

........................................................................
.............................. CYCLE   36 ..............................
........................................................................

 iter      E             dE          RMSdq      gap      omega  full diag
   1   -232.8609484 -0.232861E+03  0.137E-01    7.58       0.0  T
   2   -232.8610100 -0.615645E-04  0.857E-02    7.59       1.0  T
   3   -232.8610246 -0.145798E-04  0.640E-02    7.59       1.0  T
   4   -232.8610417 -0.171618E-04  0.282E-02    7.59       1.0  T
   5   -232.8610455 -0.375721E-05  0.829E-03    7.59       1.1  T
   6   -232.8610459 -0.403032E-06  0.593E-03    7.59       1.5  T
   7   -232.8610461 -0.176758E-06  0.210E-03    7.59       4.2  T
   8   -232.8610461 -0.231625E-07  0.983E-04    7.59       9.0  T
   9   -232.8610461 -0.897705E-08  0.364E-04    7.59      24.2  T
     SCC iter.                  ...        0 min,  0.143 sec
     gradient                   ...        0 min,  0.086 sec
 * total energy  :  -231.4463352 Eh     change       -0.1872062E-01 Eh
   gradient norm :     0.0471342 Eh/α   predicted    -0.1899844E-01 (   1.48%)
   displ. norm   :     0.7599494 α      lambda       -0.1682111E-01
   maximum displ.:     0.1867945 α      in ANC's #182, #96, #225, ...

........................................................................
.............................. CYCLE   37 ..............................
........................................................................

 iter      E             dE          RMSdq      gap      omega  full diag
   1   -232.8365787 -0.232837E+03  0.240E-01    7.44       0.0  T
   2   -232.8367544 -0.175704E-03  0.147E-01    7.44       1.0  T
   3   -232.8367905 -0.361067E-04  0.103E-01    7.44       1.0  T
   4   -232.8368375 -0.470343E-04  0.297E-02    7.44       1.0  T
   5   -232.8368417 -0.419473E-05  0.132E-02    7.44       1.0  T
   6   -232.8368430 -0.131511E-05  0.711E-03    7.44       1.2  T
   7   -232.8368432 -0.192938E-06  0.293E-03    7.44       3.0  T
   8   -232.8368433 -0.565711E-07  0.147E-03    7.44       6.0  T
   9   -232.8368433 -0.179763E-07  0.406E-04    7.44      21.7  T
  10   -232.8368433 -0.197238E-08  0.200E-04    7.44      44.0  T
     SCC iter.                  ...        0 min,  0.159 sec
     gradient                   ...        0 min,  0.084 sec
 * total energy  :  -231.4229677 Eh     change        0.2336747E-01 Eh
   gradient norm :     0.2216252 Eh/α   predicted    -0.1326784E-01 (-156.78%)
   displ. norm   :     0.3913502 α      lambda       -0.4545853E-01
   maximum displ.:     0.1046015 α      in ANC's #149, #182, #199, ...

........................................................................
.............................. CYCLE   38 ..............................
........................................................................

 iter      E             dE          RMSdq      gap      omega  full diag
   1   -232.8482901 -0.232848E+03  0.159E-01    7.55       0.0  T
   2   -232.8483730 -0.828956E-04  0.102E-01    7.55       1.0  T
   3   -232.8483933 -0.202323E-04  0.787E-02    7.55       1.0  T
   4   -232.8484158 -0.225563E-04  0.244E-02    7.54       1.0  T
   5   -232.8484181 -0.230830E-05  0.891E-03    7.55       1.0  T
   6   -232.8484187 -0.578891E-06  0.561E-03    7.55       1.6  T
   7   -232.8484189 -0.158644E-06  0.241E-03    7.55       3.7  T
   8   -232.8484189 -0.285253E-07  0.114E-03    7.55       7.7  T
   9   -232.8484189 -0.119352E-07  0.333E-04    7.55      26.5  T
  10   -232.8484189 -0.838469E-09  0.121E-04    7.55      72.9  T
     SCC iter.                  ...        0 min,  0.163 sec
     gradient                   ...        0 min,  0.084 sec
 * total energy  :  -231.4502955 Eh     change       -0.2732773E-01 Eh
   gradient norm :     0.0541164 Eh/α   predicted    -0.2621037E-01 (  -4.09%)
   displ. norm   :     0.6328794 α      lambda       -0.1470557E-01
   maximum displ.:     0.2091139 α      in ANC's #225, #182, #48, ...

........................................................................
.............................. CYCLE   39 ..............................
........................................................................

 iter      E             dE          RMSdq      gap      omega  full diag
   1   -232.8944636 -0.232894E+03  0.169E-01    7.58       0.0  T
   2   -232.8945510 -0.873357E-04  0.988E-02    7.58       1.0  T
   3   -232.8945741 -0.231973E-04  0.607E-02    7.58       1.0  T
   4   -232.8945863 -0.121368E-04  0.214E-02    7.58       1.0  T
   5   -232.8945881 -0.180205E-05  0.876E-03    7.58       1.0  T
   6   -232.8945886 -0.472442E-06  0.463E-03    7.58       1.9  T
   7   -232.8945887 -0.924805E-07  0.228E-03    7.58       3.9  T
   8   -232.8945887 -0.236330E-07  0.127E-03    7.58       6.9  T
   9   -232.8945887 -0.142428E-07  0.371E-04    7.58      23.8  T
  10   -232.8945887 -0.156771E-08  0.174E-04    7.58      50.5  T
     SCC iter.                  ...        0 min,  0.162 sec
     gradient                   ...        0 min,  0.086 sec
 * total energy  :  -231.4438025 Eh     change        0.6492982E-02 Eh
   gradient norm :     0.1437228 Eh/α   predicted    -0.1029787E-01 (-258.60%)
   displ. norm   :     0.4114724 α      lambda       -0.2324718E-01
   maximum displ.:     0.1711743 α      in ANC's #48, #47, #225, ...

........................................................................
.............................. CYCLE   40 ..............................
........................................................................

 iter      E             dE          RMSdq      gap      omega  full diag
   1   -232.8620640 -0.232862E+03  0.137E-01    7.60       0.0  T
   2   -232.8621195 -0.554713E-04  0.884E-02    7.59       1.0  T
   3   -232.8621308 -0.113041E-04  0.728E-02    7.59       1.0  T
   4   -232.8621475 -0.167785E-04  0.168E-02    7.59       1.0  T
   5   -232.8621487 -0.117379E-05  0.797E-03    7.59       1.1  T
   6   -232.8621491 -0.387260E-06  0.505E-03    7.59       1.7  T
   7   -232.8621492 -0.135109E-06  0.185E-03    7.59       4.8  T
   8   -232.8621493 -0.165501E-07  0.889E-04    7.59       9.9  T
   9   -232.8621493 -0.770723E-08  0.283E-04    7.59      31.1  T
     SCC iter.                  ...        0 min,  0.145 sec
     gradient                   ...        0 min,  0.086 sec
 * total energy  :  -231.4558744 Eh     change       -0.1207189E-01 Eh
   gradient norm :     0.0541715 Eh/α   predicted    -0.1359155E-01 (  12.59%)
   displ. norm   :     0.6888405 α      lambda       -0.1602557E-01
   maximum displ.:     0.3085766 α      in ANC's #48, #225, #164, ...

........................................................................
.............................. CYCLE   41 ..............................
........................................................................

 iter      E             dE          RMSdq      gap      omega  full diag
   1   -232.8232668 -0.232823E+03  0.219E-01    7.30       0.0  T
   2   -232.8233796 -0.112787E-03  0.136E-01    7.30       1.0  T
   3   -232.8233955 -0.158538E-04  0.119E-01    7.30       1.0  T
   4   -232.8234394 -0.439039E-04  0.289E-02    7.29       1.0  T
   5   -232.8234424 -0.302682E-05  0.112E-02    7.30       1.0  T
   6   -232.8234432 -0.828490E-06  0.639E-03    7.30       1.4  T
   7   -232.8234435 -0.216427E-06  0.277E-03    7.29       3.2  T
   8   -232.8234435 -0.407717E-07  0.163E-03    7.29       5.4  T
   9   -232.8234435 -0.240654E-07  0.476E-04    7.29      18.5  T
  10   -232.8234435 -0.287119E-08  0.252E-04    7.29      34.9  T
     SCC iter.                  ...        0 min,  0.161 sec
     gradient                   ...        0 min,  0.086 sec
 * total energy  :  -231.4399090 Eh     change        0.1596539E-01 Eh
   gradient norm :     0.1643126 Eh/α   predicted    -0.1181486E-01 (-174.00%)
   displ. norm   :     0.3774854 α      lambda       -0.3040667E-01
   maximum displ.:     0.1390222 α      in ANC's #225, #69, #48, ...

........................................................................
.............................. CYCLE   42 ..............................
........................................................................

 iter      E             dE          RMSdq      gap      omega  full diag
   1   -232.8824738 -0.232882E+03  0.135E-01    7.51       0.0  T
   2   -232.8825193 -0.455085E-04  0.822E-02    7.51       1.0  T
   3   -232.8825306 -0.113334E-04  0.629E-02    7.51       1.0  T
   4   -232.8825434 -0.127175E-04  0.227E-02    7.52       1.0  T
   5   -232.8825451 -0.170264E-05  0.756E-03    7.52       1.2  T
   6   -232.8825454 -0.315525E-06  0.456E-03    7.52       1.9  T
   7   -232.8825455 -0.122903E-06  0.223E-03    7.52       4.0  T
   8   -232.8825455 -0.275310E-07  0.108E-03    7.52       8.2  T
   9   -232.8825455 -0.108141E-07  0.367E-04    7.52      24.0  T
  10   -232.8825455 -0.170235E-08  0.179E-04    7.52      49.3  T
     SCC iter.                  ...        0 min,  0.163 sec
     gradient                   ...        0 min,  0.085 sec
 * total energy  :  -231.4578835 Eh     change       -0.1797451E-01 Eh
   gradient norm :     0.0651125 Eh/α   predicted    -0.1736976E-01 (  -3.36%)
   displ. norm   :     0.7677990 α      lambda       -0.2381753E-01
   maximum displ.:     0.3490541 α      in ANC's #69, #48, #225, ...
 * RMSD in coord.:     0.6768428 α      energy gain  -0.1249341E+00 Eh

generating ANC from model Hessian ...
Using Lindh-Hessian (1995)
 Shifting diagonal of input Hessian by    1.2240856481095051E-002
 Lowest  eigenvalues of input Hessian
    0.010000    0.012002    0.012007    0.012013    0.012068    0.012080
    0.012095    0.012106    0.012118    0.012129    0.012136    0.012142
    0.012154    0.012155    0.012160    0.012163    0.012171    0.012183
 Highest eigenvalues
    1.502813    1.535082    1.588447    3.120173    3.209228    3.372422


........................................................................
.............................. CYCLE   43 ..............................
........................................................................

 iter      E             dE          RMSdq      gap      omega  full diag
   1   -232.8192685 -0.232819E+03  0.280E-01    7.62       0.0  T
   2   -232.8195730 -0.304553E-03  0.163E-01    7.63       1.0  T
   3   -232.8196867 -0.113673E-03  0.478E-02    7.63       1.0  T
   4   -232.8196974 -0.106427E-04  0.281E-02    7.63       1.0  T
   5   -232.8197022 -0.485507E-05  0.160E-02    7.63       1.0  T
   6   -232.8197040 -0.182527E-05  0.611E-03    7.63       1.4  T
   7   -232.8197042 -0.151414E-06  0.365E-03    7.63       2.4  T
   8   -232.8197043 -0.891394E-07  0.163E-03    7.63       5.4  T
   9   -232.8197043 -0.170809E-07  0.267E-04    7.63      33.0  T
  10   -232.8197043 -0.521936E-09  0.154E-04    7.63      57.3  T
     SCC iter.                  ...        0 min,  0.157 sec
     gradient                   ...        0 min,  0.088 sec
 * total energy  :  -231.4269392 Eh     change        0.3094430E-01 Eh
   gradient norm :     0.2163418 Eh/α   predicted     0.0000000E+00 (-100.00%)
   displ. norm   :     0.2734201 α      lambda       -0.4579838E-01
   maximum displ.:     0.1236195 α      in ANC's #296, #290, #297, ...

........................................................................
.............................. CYCLE   44 ..............................
........................................................................

 iter      E             dE          RMSdq      gap      omega  full diag
   1   -232.8569655 -0.232857E+03  0.118E-01    7.58       0.0  T
   2   -232.8570164 -0.509197E-04  0.712E-02    7.58       1.0  T
   3   -232.8570328 -0.163186E-04  0.528E-02    7.57       1.0  T
   4   -232.8570435 -0.107805E-04  0.146E-02    7.57       1.0  T
   5   -232.8570445 -0.977464E-06  0.789E-03    7.57       1.1  T
   6   -232.8570450 -0.520565E-06  0.308E-03    7.57       2.9  T
   7   -232.8570451 -0.394195E-07  0.170E-03    7.57       5.2  T
   8   -232.8570451 -0.167105E-07  0.940E-04    7.57       9.4  T
   9   -232.8570451 -0.722028E-08  0.135E-04    7.57      65.4  T
     SCC iter.                  ...        0 min,  0.146 sec
     gradient                   ...        0 min,  0.085 sec
 * total energy  :  -231.4594882 Eh     change       -0.3254904E-01 Eh
   gradient norm :     0.0871778 Eh/α   predicted    -0.2461212E-01 ( -24.38%)
   displ. norm   :     0.3780956 α      lambda       -0.1688149E-01
   maximum displ.:     0.1173509 α      in ANC's #296, #176, #169, ...

........................................................................
.............................. CYCLE   45 ..............................
........................................................................

 iter      E             dE          RMSdq      gap      omega  full diag
   1   -232.8863532 -0.232886E+03  0.109E-01    7.54       0.0  T
   2   -232.8863927 -0.395441E-04  0.660E-02    7.53       1.0  T
   3   -232.8864033 -0.105523E-04  0.463E-02    7.53       1.0  T
   4   -232.8864135 -0.102127E-04  0.104E-02    7.53       1.0  T
   5   -232.8864141 -0.594010E-06  0.701E-03    7.53       1.3  T
   6   -232.8864144 -0.363050E-06  0.271E-03    7.53       3.3  T
   7   -232.8864145 -0.257203E-07  0.143E-03    7.53       6.2  T
   8   -232.8864145 -0.153158E-07  0.481E-04    7.53      18.3  T
   9   -232.8864145 -0.189019E-08  0.157E-04    7.53      56.1  T
     SCC iter.                  ...        0 min,  0.144 sec
     gradient                   ...        0 min,  0.085 sec
 * total energy  :  -231.4676806 Eh     change       -0.8192353E-02 Eh
   gradient norm :     0.0383089 Eh/α   predicted    -0.9647412E-02 (  17.76%)
   displ. norm   :     0.4628844 α      lambda       -0.5404007E-02
   maximum displ.:     0.1096367 α      in ANC's #143, #169, #112, ...

........................................................................
.............................. CYCLE   46 ..............................
........................................................................

 iter      E             dE          RMSdq      gap      omega  full diag
   1   -232.8737300 -0.232874E+03  0.807E-02    7.51       0.0  T
   2   -232.8737361 -0.603058E-05  0.514E-02    7.51       1.0  T
   3   -232.8737337  0.235357E-05  0.433E-02    7.51       1.0  T
   4   -232.8737404 -0.667065E-05  0.913E-03    7.51       1.0  T
   5   -232.8737407 -0.314526E-06  0.242E-03    7.51       3.6  T
   6   -232.8737407 -0.343167E-07  0.136E-03    7.51       6.5  T
   7   -232.8737407 -0.137352E-07  0.649E-04    7.51      13.6  T
   8   -232.8737407 -0.279906E-08  0.328E-04    7.51      26.9  T
     SCC iter.                  ...        0 min,  0.135 sec
     gradient                   ...        0 min,  0.084 sec
 * total energy  :  -231.4720069 Eh     change       -0.4326292E-02 Eh
   gradient norm :     0.0281518 Eh/α   predicted    -0.3280946E-02 ( -24.16%)
   displ. norm   :     0.7556968 α      lambda       -0.6527062E-02
   maximum displ.:     0.1715306 α      in ANC's #112, #169, #143, ...

........................................................................
.............................. CYCLE   47 ..............................
........................................................................

 iter      E             dE          RMSdq      gap      omega  full diag
   1   -232.8615106 -0.232862E+03  0.109E-01    7.47       0.0  T
   2   -232.8615245 -0.138765E-04  0.683E-02    7.47       1.0  T
   3   -232.8615259 -0.137752E-05  0.442E-02    7.47       1.0  T
   4   -232.8615322 -0.630587E-05  0.685E-03    7.47       1.3  T
   5   -232.8615324 -0.235434E-06  0.293E-03    7.47       3.0  T
   6   -232.8615325 -0.563244E-07  0.206E-03    7.47       4.3  T
   7   -232.8615325 -0.254070E-07  0.734E-04    7.47      12.0  T
   8   -232.8615325 -0.442353E-08  0.565E-04    7.47      15.6  T
     SCC iter.                  ...        0 min,  0.134 sec
     gradient                   ...        0 min,  0.090 sec
 * total energy  :  -231.4773090 Eh     change       -0.5302116E-02 Eh
   gradient norm :     0.0391027 Eh/α   predicted    -0.5127264E-02 (  -3.30%)
   displ. norm   :     0.7868340 α      lambda       -0.6477443E-02
   maximum displ.:     0.1967421 α      in ANC's #112, #169, #143, ...

........................................................................
.............................. CYCLE   48 ..............................
........................................................................

 iter      E             dE          RMSdq      gap      omega  full diag
   1   -232.8598641 -0.232860E+03  0.983E-02    7.44       0.0  T
   2   -232.8598790 -0.149658E-04  0.634E-02    7.44       1.0  T
   3   -232.8598825 -0.344897E-05  0.449E-02    7.44       1.0  T
   4   -232.8598874 -0.496900E-05  0.147E-02    7.44       1.0  T
   5   -232.8598882 -0.726033E-06  0.389E-03    7.44       2.3  T
   6   -232.8598883 -0.114553E-06  0.189E-03    7.44       4.7  T
   7   -232.8598883 -0.251759E-07  0.780E-04    7.44      11.3  T
   8   -232.8598883 -0.456168E-08  0.518E-04    7.44      17.0  T
     SCC iter.                  ...        0 min,  0.133 sec
     gradient                   ...        0 min,  0.086 sec
 * total energy  :  -231.4827953 Eh     change       -0.5486281E-02 Eh
   gradient norm :     0.0432694 Eh/α   predicted    -0.5243840E-02 (  -4.42%)
   displ. norm   :     0.7694901 α      lambda       -0.8030565E-02
   maximum displ.:     0.2179615 α      in ANC's #112, #95, #104, ...

........................................................................
.............................. CYCLE   49 ..............................
........................................................................

[...]
 * RMSD in coord.:     0.1552466 α      energy gain  -0.1979168E-03 Eh

generating ANC from model Hessian ...
Using Lindh-Hessian (1995)
 Shifting diagonal of input Hessian by    1.0250553064231562E-002
 Lowest  eigenvalues of input Hessian
    0.010000    0.010063    0.010065    0.010140    0.010152    0.010157
    0.010175    0.010177    0.010189    0.010202    0.010209    0.010214
    0.010218    0.010223    0.010225    0.010233    0.010241    0.010242
 Highest eigenvalues
    1.436308    1.438291    1.443288    3.263609    3.323607    3.530903


........................................................................
.............................. CYCLE  499 ..............................
........................................................................

 iter      E             dE          RMSdq      gap      omega  full diag
   1   -233.0699812 -0.233070E+03  0.166E-02    7.12       0.0  T
   2   -233.0699813 -0.109317E-06  0.107E-02    7.12       1.0  T
   3   -233.0699809  0.342684E-06  0.109E-02    7.12       1.0  T
   4   -233.0699814 -0.498577E-06  0.109E-03    7.12       8.1  T
   5   -233.0699814 -0.436305E-08  0.437E-04    7.12      20.2  T
   6   -233.0699814 -0.142714E-08  0.196E-04    7.12      44.9  T
     SCC iter.                  ...        0 min,  0.109 sec
     gradient                   ...        0 min,  0.113 sec
 * total energy  :  -231.7132768 Eh     change       -0.2478788E-04 Eh
   gradient norm :     0.0047740 Eh/α   predicted     0.0000000E+00 (-100.00%)
   displ. norm   :     0.0391005 α      lambda       -0.4182312E-04
   maximum displ.:     0.0243165 α      in ANC's #65, #150, #41, ...

........................................................................
.............................. CYCLE  500 ..............................
........................................................................

 iter      E             dE          RMSdq      gap      omega  full diag
   1   -233.0707592 -0.233071E+03  0.656E-03    7.12       0.0  T
   2   -233.0707592 -0.420687E-07  0.403E-03    7.12       2.2  T
   3   -233.0707592  0.654808E-09  0.256E-03    7.12       3.4  T
   4   -233.0707592 -0.223730E-07  0.616E-04    7.12      14.3  T
   5   -233.0707592 -0.134290E-08  0.265E-04    7.12      33.3  T
     SCC iter.                  ...        0 min,  0.095 sec
     gradient                   ...        0 min,  0.108 sec
 * total energy  :  -231.7133065 Eh     change       -0.2979768E-04 Eh
   gradient norm :     0.0015038 Eh/α   predicted    -0.2128663E-04 ( -28.56%)
   displ. norm   :     0.0906291 α      lambda       -0.2659486E-04
   maximum displ.:     0.0481949 α      in ANC's #65, #51, #11, ...

........................................................................
.............................. CYCLE  501 ..............................
........................................................................

 iter      E             dE          RMSdq      gap      omega  full diag
   1   -233.0714405 -0.233071E+03  0.132E-02    7.13       0.0  T
   2   -233.0714406 -0.141346E-06  0.797E-03    7.13       1.1  T
   3   -233.0714406 -0.257480E-07  0.323E-03    7.13       2.7  T
   4   -233.0714407 -0.326716E-07  0.985E-04    7.13       8.9  T
   5   -233.0714407 -0.420471E-08  0.516E-04    7.13      17.0  T
     SCC iter.                  ...        0 min,  0.093 sec
     gradient                   ...        0 min,  0.109 sec
 * total energy  :  -231.7133249 Eh     change       -0.1831406E-04 Eh
   gradient norm :     0.0027549 Eh/α   predicted    -0.1334989E-04 ( -27.11%)
   displ. norm   :     0.0947566 α      lambda       -0.3624114E-04
   maximum displ.:     0.0472786 α      in ANC's #65, #51, #11, ...

........................................................................
.............................. CYCLE  502 ..............................
........................................................................

 iter      E             dE          RMSdq      gap      omega  full diag
   1   -233.0712669 -0.233071E+03  0.145E-02    7.11       0.0  T
   2   -233.0712671 -0.208497E-06  0.928E-03    7.12       1.0  T
   3   -233.0712671 -0.646456E-07  0.662E-03    7.12       1.3  T
   4   -233.0712672 -0.660104E-07  0.424E-03    7.12       2.1  T
   5   -233.0712672 -0.575248E-07  0.576E-04    7.12      15.3  T
   6   -233.0712673 -0.124490E-08  0.318E-04    7.12      27.7  T
     SCC iter.                  ...        0 min,  0.116 sec
     gradient                   ...        0 min,  0.108 sec
 * total energy  :  -231.7133168 Eh     change        0.8022700E-05 Eh
   gradient norm :     0.0049733 Eh/α   predicted    -0.1828603E-04 (-327.93%)
   displ. norm   :     0.0226188 α      lambda       -0.5138089E-04
   maximum displ.:     0.0059783 α      in ANC's #154, #149, #124, ...

........................................................................
.............................. CYCLE  503 ..............................
........................................................................

 iter      E             dE          RMSdq      gap      omega  full diag
   1   -233.0710262 -0.233071E+03  0.632E-03    7.13       0.0  T
   2   -233.0710263 -0.673943E-07  0.435E-03    7.13       2.0  T
   3   -233.0710263 -0.599238E-07  0.242E-03    7.12       3.6  T
   4   -233.0710263 -0.908491E-08  0.181E-03    7.12       4.9  T
   5   -233.0710263 -0.972830E-08  0.341E-04    7.12      25.8  T
   6   -233.0710263 -0.391452E-09  0.177E-04    7.12      49.7  T
     SCC iter.                  ...        0 min,  0.110 sec
     gradient                   ...        0 min,  0.108 sec
 * total energy  :  -231.7133437 Eh     change       -0.2684287E-04 Eh
   gradient norm :     0.0013811 Eh/α   predicted    -0.2570451E-04 (  -4.24%)
   displ. norm   :     0.0359860 α      lambda       -0.8143951E-05
   maximum displ.:     0.0136361 α      in ANC's #74, #13, #11, ...

........................................................................
.............................. CYCLE  504 ..............................
........................................................................

 iter      E             dE          RMSdq      gap      omega  full diag
   1   -233.0709204 -0.233071E+03  0.554E-03    7.13       0.0  T
   2   -233.0709205 -0.263148E-07  0.386E-03    7.13       2.3  T
   3   -233.0709205  0.864929E-08  0.355E-03    7.13       2.5  T
   4   -233.0709205 -0.472162E-07  0.621E-04    7.13      14.2  T
   5   -233.0709205 -0.130942E-08  0.175E-04    7.13      50.2  T
     SCC iter.                  ...        0 min,  0.092 sec
     gradient                   ...        0 min,  0.113 sec
 * total energy  :  -231.7133498 Eh     change       -0.6148565E-05 Eh
   gradient norm :     0.0008146 Eh/α   predicted    -0.4079392E-05 ( -33.65%)
   displ. norm   :     0.0724978 α      lambda       -0.7400216E-05
   maximum displ.:     0.0255297 α      in ANC's #74, #13, #11, ...

........................................................................
.............................. CYCLE  505 ..............................
........................................................................

 iter      E             dE          RMSdq      gap      omega  full diag
   1   -233.0707266 -0.233071E+03  0.856E-03    7.13       0.0  T
   2   -233.0707267 -0.532438E-07  0.528E-03    7.13       1.7  T
   3   -233.0707267  0.773778E-08  0.352E-03    7.13       2.5  T
   4   -233.0707267 -0.374775E-07  0.637E-04    7.13      13.8  T
   5   -233.0707267 -0.193543E-08  0.248E-04    7.13      35.6  T
     SCC iter.                  ...        0 min,  0.092 sec
     gradient                   ...        0 min,  0.118 sec
 * total energy  :  -231.7133577 Eh     change       -0.7839057E-05 Eh
   gradient norm :     0.0012503 Eh/α   predicted    -0.3718974E-05 ( -52.56%)
   displ. norm   :     0.1066485 α      lambda       -0.1007142E-04
   maximum displ.:     0.0404932 α      in ANC's #74, #13, #11, ...

........................................................................
.............................. CYCLE  506 ..............................
........................................................................

 iter      E             dE          RMSdq      gap      omega  full diag
   1   -233.0708160 -0.233071E+03  0.114E-02    7.13       0.0  T
   2   -233.0708161 -0.590906E-07  0.747E-03    7.13       1.2  T
   3   -233.0708159  0.151124E-06  0.745E-03    7.13       1.2  T
   4   -233.0708161 -0.238827E-06  0.998E-04    7.13       8.8  T
   5   -233.0708161 -0.351861E-08  0.264E-04    7.13      33.4  T
     SCC iter.                  ...        0 min,  0.098 sec
     gradient                   ...        0 min,  0.112 sec
 * total energy  :  -231.7133679 Eh     change       -0.1022790E-04 Eh
   gradient norm :     0.0009631 Eh/α   predicted    -0.5063651E-05 ( -50.49%)
   displ. norm   :     0.1245376 α      lambda       -0.8952291E-05
   maximum displ.:     0.0494831 α      in ANC's #13, #11, #74, ...

........................................................................
.............................. CYCLE  507 ..............................
........................................................................

 iter      E             dE          RMSdq      gap      omega  full diag
   1   -233.0707145 -0.233071E+03  0.140E-02    7.13       0.0  T
   2   -233.0707146 -0.123406E-06  0.888E-03    7.13       1.0  T
   3   -233.0707146  0.405984E-07  0.724E-03    7.13       1.2  T
   4   -233.0707147 -0.123981E-06  0.178E-03    7.13       4.9  T
   5   -233.0707147 -0.155565E-07  0.439E-04    7.13      20.1  T
   6   -233.0707147 -0.649834E-09  0.284E-04    7.13      31.0  T
     SCC iter.                  ...        0 min,  0.112 sec
     gradient                   ...        0 min,  0.109 sec
 * total energy  :  -231.7133758 Eh     change       -0.7861442E-05 Eh
   gradient norm :     0.0017538 Eh/α   predicted    -0.4509252E-05 ( -42.64%)
   displ. norm   :     0.1133662 α      lambda       -0.1050161E-04
   maximum displ.:     0.0475909 α      in ANC's #13, #11, #51, ...

........................................................................
.............................. CYCLE  508 ..............................
........................................................................

 iter      E             dE          RMSdq      gap      omega  full diag
   1   -233.0708161 -0.233071E+03  0.123E-02    7.13       0.0  T
   2   -233.0708161 -0.498643E-07  0.864E-03    7.13       1.0  T
   3   -233.0708161 -0.321700E-07  0.677E-03    7.13       1.3  T
   4   -233.0708163 -0.130811E-06  0.295E-03    7.13       3.0  T
   5   -233.0708163 -0.278312E-07  0.405E-04    7.13      21.7  T
   6   -233.0708163 -0.429964E-09  0.322E-04    7.13      27.4  T
     SCC iter.                  ...        0 min,  0.112 sec
     gradient                   ...        0 min,  0.108 sec
 * total energy  :  -231.7133835 Eh     change       -0.7699726E-05 Eh
   gradient norm :     0.0012021 Eh/α   predicted    -0.5281612E-05 ( -31.41%)
   displ. norm   :     0.0327168 α      lambda       -0.5642957E-05
   maximum displ.:     0.0106961 α      in ANC's #74, #35, #38, ...

........................................................................
.............................. CYCLE  509 ..............................
........................................................................

 iter      E             dE          RMSdq      gap      omega  full diag
   1   -233.0711505 -0.233071E+03  0.432E-03    7.13       0.0  T
   2   -233.0711506 -0.297067E-07  0.278E-03    7.13       3.2  T
   3   -233.0711506 -0.630001E-08  0.210E-03    7.13       4.2  T
   4   -233.0711506 -0.124568E-07  0.106E-03    7.13       8.3  T
   5   -233.0711506 -0.522144E-08  0.207E-04    7.13      42.5  T
   6   -233.0711506 -0.250679E-09  0.160E-04    7.13      54.9  T
     SCC iter.                  ...        0 min,  0.112 sec
     gradient                   ...        0 min,  0.111 sec
 * total energy  :  -231.7133859 Eh     change       -0.2471830E-05 Eh
   gradient norm :     0.0015776 Eh/α   predicted    -0.2823371E-05 (  14.22%)
   displ. norm   :     0.0654622 α      lambda       -0.7805364E-05
   maximum displ.:     0.0351071 α      in ANC's #51, #13, #11, ...

........................................................................
.............................. CYCLE  510 ..............................
........................................................................

 iter      E             dE          RMSdq      gap      omega  full diag
   1   -233.0704710 -0.233070E+03  0.113E-02    7.13       0.0  T
   2   -233.0704711 -0.142800E-06  0.703E-03    7.13       1.3  T
   3   -233.0704711  0.460918E-07  0.479E-03    7.13       1.8  T
   4   -233.0704712 -0.124494E-06  0.733E-04    7.13      12.0  T
   5   -233.0704712 -0.215587E-08  0.337E-04    7.13      26.1  T
     SCC iter.                  ...        0 min,  0.092 sec
     gradient                   ...        0 min,  0.111 sec
 * total energy  :  -231.7133838 Eh     change        0.2142432E-05 Eh
   gradient norm :     0.0029112 Eh/α   predicted    -0.3910446E-05 (-282.52%)
   displ. norm   :     0.0288901 α      lambda       -0.1182016E-04
   maximum displ.:     0.0122919 α      in ANC's #51, #13, #11, ...

........................................................................
.............................. CYCLE  511 ..............................
........................................................................

 iter      E             dE          RMSdq      gap      omega  full diag
   1   -233.0707008 -0.233071E+03  0.503E-03    7.13       0.0  T
   2   -233.0707009 -0.300755E-07  0.324E-03    7.13       2.7  T
   3   -233.0707008  0.194611E-07  0.317E-03    7.13       2.8  T
   4   -233.0707009 -0.396364E-07  0.309E-04    7.13      28.5  T
   5   -233.0707009 -0.498829E-09  0.168E-04    7.13      52.4  T
     SCC iter.                  ...        0 min,  0.093 sec
     gradient                   ...        0 min,  0.111 sec
 * total energy  :  -231.7133909 Eh     change       -0.7100500E-05 Eh
   gradient norm :     0.0011817 Eh/α   predicted    -0.5916315E-05 ( -16.68%)
   displ. norm   :     0.0217181 α      lambda       -0.2754056E-05
   maximum displ.:     0.0084536 α      in ANC's #9, #11, #106, ...

........................................................................
.............................. CYCLE  512 ..............................
........................................................................

 iter      E             dE          RMSdq      gap      omega  full diag
   1   -233.0708558 -0.233071E+03  0.276E-03    7.13       0.0  T
   2   -233.0708558 -0.140568E-07  0.182E-03    7.13       4.8  T
   3   -233.0708558  0.587434E-08  0.185E-03    7.13       4.8  T
   4   -233.0708558 -0.149624E-07  0.260E-04    7.13      33.9  T
   5   -233.0708558 -0.281034E-09  0.115E-04    7.13      76.6  T
     SCC iter.                  ...        0 min,  0.093 sec
     gradient                   ...        0 min,  0.109 sec
 * total energy  :  -231.7133928 Eh     change       -0.1914577E-05 Eh
   gradient norm :     0.0003986 Eh/α   predicted    -0.1382156E-05 ( -27.81%)
   displ. norm   :     0.0235896 α      lambda       -0.1287811E-05
   maximum displ.:     0.0079900 α      in ANC's #9, #18, #29, ...

........................................................................
.............................. CYCLE  513 ..............................
........................................................................

 iter      E             dE          RMSdq      gap      omega  full diag
   1   -233.0709108 -0.233071E+03  0.221E-03    7.13       0.0  T
   2   -233.0709108 -0.525665E-08  0.140E-03    7.13       6.3  T
   3   -233.0709108  0.476376E-09  0.101E-03    7.13       8.7  T
   4   -233.0709108 -0.318985E-08  0.276E-04    7.13      31.9  T
   5   -233.0709108 -0.391736E-09  0.639E-05    7.13     137.8  T
     SCC iter.                  ...        0 min,  0.091 sec
     gradient                   ...        0 min,  0.109 sec
 * total energy  :  -231.7133943 Eh     change       -0.1452334E-05 Eh
   gradient norm :     0.0003846 Eh/α   predicted    -0.6477626E-06 ( -55.40%)
   displ. norm   :     0.0706112 α      lambda       -0.2597329E-05
   maximum displ.:     0.0232472 α      in ANC's #9, #13, #51, ...

........................................................................
.............................. CYCLE  514 ..............................
........................................................................

 iter      E             dE          RMSdq      gap      omega  full diag
   1   -233.0708773 -0.233071E+03  0.623E-03    7.12       0.0  T
   2   -233.0708774 -0.269264E-07  0.391E-03    7.12       2.3  T
   3   -233.0708773  0.240410E-07  0.338E-03    7.12       2.6  T
   4   -233.0708774 -0.410091E-07  0.400E-04    7.12      22.0  T
   5   -233.0708774 -0.840231E-09  0.146E-04    7.12      60.2  T
     SCC iter.                  ...        0 min,  0.092 sec
     gradient                   ...        0 min,  0.111 sec
 * total energy  :  -231.7133966 Eh     change       -0.2332336E-05 Eh
   gradient norm :     0.0003602 Eh/α   predicted    -0.1302327E-05 ( -44.16%)
   displ. norm   :     0.0465771 α      lambda       -0.1115238E-05
   maximum displ.:     0.0169580 α      in ANC's #9, #13, #18, ...

........................................................................
.............................. CYCLE  515 ..............................
........................................................................

 iter      E             dE          RMSdq      gap      omega  full diag
   1   -233.0708882 -0.233071E+03  0.348E-03    7.12       0.0  T
   2   -233.0708882 -0.769489E-08  0.217E-03    7.12       4.1  T
   3   -233.0708882  0.357792E-08  0.167E-03    7.12       5.3  T
   4   -233.0708882 -0.838276E-08  0.350E-04    7.12      25.2  T
   5   -233.0708882 -0.497863E-09  0.943E-05    7.12      93.4  T
     SCC iter.                  ...        0 min,  0.092 sec
     gradient                   ...        0 min,  0.110 sec
 * total energy  :  -231.7133977 Eh     change       -0.1137038E-05 Eh
   gradient norm :     0.0003304 Eh/α   predicted    -0.5591841E-06 ( -50.82%)
   displ. norm   :     0.0603273 α      lambda       -0.1265806E-05
   maximum displ.:     0.0226733 α      in ANC's #13, #9, #18, ...

........................................................................
.............................. CYCLE  516 ..............................
........................................................................

 iter      E             dE          RMSdq      gap      omega  full diag
   1   -233.0708870 -0.233071E+03  0.442E-03    7.13       0.0  T
   2   -233.0708870 -0.992853E-08  0.274E-03    7.12       3.2  T
   3   -233.0708870  0.166355E-07  0.215E-03    7.12       4.1  T
   4   -233.0708870 -0.237728E-07  0.296E-04    7.12      29.8  T
   5   -233.0708870 -0.344244E-09  0.113E-04    7.12      77.6  T
     SCC iter.                  ...        0 min,  0.091 sec
     gradient                   ...        0 min,  0.112 sec
 * total energy  :  -231.7133990 Eh     change       -0.1291885E-05 Eh
   gradient norm :     0.0002304 Eh/α   predicted    -0.6375965E-06 ( -50.65%)
   displ. norm   :     0.0593833 α      lambda       -0.9586789E-06
   maximum displ.:     0.0241625 α      in ANC's #13, #9, #18, ...

........................................................................
.............................. CYCLE  517 ..............................
........................................................................

 iter      E             dE          RMSdq      gap      omega  full diag
   1   -233.0709304 -0.233071E+03  0.419E-03    7.12       0.0  T
   2   -233.0709304 -0.112278E-07  0.262E-03    7.12       3.4  T
