      -----------------------------------------------------------      
     |                   =====================                   |     
     |                           x T B                           |     
     |                   =====================                   |     
     |                         S. Grimme                         |     
     |          Mulliken Center for Theoretical Chemistry        |     
     |                    University of Bonn                     |     
      -----------------------------------------------------------      

   * xtb version 6.6.0 (conda-forge) compiled by 'runner@Mac-1676020848589.local' on 2023-02-10

   xtb is free software: you can redistribute it and/or modify it under
   the terms of the GNU Lesser General Public License as published by
   the Free Software Foundation, either version 3 of the License, or
   (at your option) any later version.
   
   xtb is distributed in the hope that it will be useful,
   but WITHOUT ANY WARRANTY; without even the implied warranty of
   MERCHANTABILITY or FITNESS FOR A PARTICULAR PURPOSE.  See the
   GNU Lesser General Public License for more details.
   
   Cite this work as:
   * C. Bannwarth, E. Caldeweyher, S. Ehlert, A. Hansen, P. Pracht,
     J. Seibert, S. Spicher, S. Grimme, WIREs Comput. Mol. Sci., 2020, 11,
     e01493. DOI: 10.1002/wcms.1493
   
   for GFN2-xTB:
   * C. Bannwarth, S. Ehlert and S. Grimme., J. Chem. Theory Comput., 2019,
     15, 1652-1671. DOI: 10.1021/acs.jctc.8b01176
   for GFN1-xTB:
   * S. Grimme, C. Bannwarth, P. Shushkov, J. Chem. Theory Comput., 2017,
     13, 1989-2009. DOI: 10.1021/acs.jctc.7b00118
   for GFN0-xTB:
   * P. Pracht, E. Caldeweyher, S. Ehlert, S. Grimme, ChemRxiv, 2019, preprint.
     DOI: 10.26434/chemrxiv.8326202.v1
   for GFN-FF:
   * S. Spicher and S. Grimme, Angew. Chem. Int. Ed., 2020, 59, 15665-15673.
     DOI: 10.1002/anie.202004239
   
   for ALPB and GBSA implicit solvation:
   * S. Ehlert, M. Stahn, S. Spicher, S. Grimme, J. Chem. Theory Comput.,
     2021, 17, 4250-4261. DOI: 10.1021/acs.jctc.1c00471
   
   for DFT-D4:
   * E. Caldeweyher, C. Bannwarth and S. Grimme, J. Chem. Phys., 2017,
     147, 034112. DOI: 10.1063/1.4993215
   * E. Caldeweyher, S. Ehlert, A. Hansen, H. Neugebauer, S. Spicher,
     C. Bannwarth and S. Grimme, J. Chem. Phys., 2019, 150, 154122.
     DOI: 10.1063/1.5090222
   * E. Caldeweyher, J.-M. Mewes, S. Ehlert and S. Grimme, Phys. Chem. Chem. Phys.
     2020, 22, 8499-8512. DOI: 10.1039/D0CP00502A
   
   for sTDA-xTB:
   * S. Grimme and C. Bannwarth, J. Chem. Phys., 2016, 145, 054103.
     DOI: 10.1063/1.4959605
   
   in the mass-spec context:
   * V. Asgeirsson, C. Bauer and S. Grimme, Chem. Sci., 2017, 8, 4879.
     DOI: 10.1039/c7sc00601b
   * J. Koopman and S. Grimme, ACS Omega 2019, 4, 12, 15120-15133.
     DOI: 10.1021/acsomega.9b02011
   
   for metadynamics refer to:
   * S. Grimme, J. Chem. Theory Comput., 2019, 155, 2847-2862
     DOI: 10.1021/acs.jctc.9b00143
   
   for SPH calculations refer to:
   * S. Spicher and S. Grimme, J. Chem. Theory Comput., 2021, 17, 1701-1714
     DOI: 10.1021/acs.jctc.0c01306
   
   with help from (in alphabetical order)
   P. Atkinson, C. Bannwarth, F. Bohle, G. Brandenburg, E. Caldeweyher
   M. Checinski, S. Dohm, S. Ehlert, S. Ehrlich, I. Gerasimov, C. Hölzer
   A. Katbashev, J. Koopman, C. Lavigne, S. Lehtola, F. März, M. Müller,
   F. Musil, H. Neugebauer, J. Pisarek, C. Plett, P. Pracht, F. Pultar,
   J. Seibert, P. Shushkov, S. Spicher, M. Stahn, M. Steiner, T. Strunk,
   J. Stückrath, T. Rose, and J. Unsleber
   
 * started run on 2024/05/17 at 16:33:03.053     

           -------------------------------------------------
          |                Calculation Setup                |
           -------------------------------------------------

          program call               : xtb monosubstituted_Sulfate_solvated_radius_5_solvated_radius_7.xyz --opt extreme --gfn2 --chrg 2 --uhf 5 --alpb water
          coordinate file            : monosubstituted_Sulfate_solvated_radius_5_solvated_radius_7.xyz
          omp threads                :                     8

   ID    Z sym.   atoms
    1   26 Fe     1
    2    8 O      2, 4-7, 10, 13, 16, 19, 22, 25, 28, 31, 34, 37, 40, 43, 46,
                  49, 52, 55, 58, 61, 64, 67, 70, 73, 76, 79, 82, 85, 88, 91,
                  94, 97, 100, 103, 106, 109, 112, 115, 118, 121, 124, 127
    3   16 S      3
    4    1 H      8, 9, 11, 12, 14, 15, 17, 18, 20, 21, 23, 24, 26, 27, 29,
                  30, 32, 33, 35, 36, 38, 39, 41, 42, 44, 45, 47, 48, 50, 51,
                  53, 54, 56, 57, 59, 60, 62, 63, 65, 66, 68, 69, 71, 72, 74,
                  75, 77, 78, 80, 81, 83, 84, 86, 87, 89, 90, 92, 93, 95, 96,
                  98, 99, 101, 102, 104, 105, 107, 108, 110, 111, 113, 114,
                  116, 117, 119, 120, 122, 123, 125, 126, 128, 129

molecular fragmentation (1/2 indicates fragments):
111111111111111222222222222222222222222222222222222222222222222222222222
222222222222222222222222222222222222222222222222222222222
# atoms in fragment 1/2:    15   114
 fragment masses (1/2) :      205.95      684.58
CMA distance (Bohr)    :   2.336
constraining FC (au)   :  0.0500

           -------------------------------------------------
          |                 G F N 2 - x T B                 |
           -------------------------------------------------

        Reference                      10.1021/acs.jctc.8b01176
      * Hamiltonian:
        H0-scaling (s, p, d)           1.850000    2.230000    2.230000
        zeta-weighting                 0.500000
      * Dispersion:
        s8                             2.700000
        a1                             0.520000
        a2                             5.000000
        s9                             5.000000
      * Repulsion:
        kExp                           1.500000    1.000000
        rExp                           1.000000
      * Coulomb:
        alpha                          2.000000
        third order                    shell-resolved
        anisotropic                    true
        a3                             3.000000
        a5                             4.000000
        cn-shift                       1.200000
        cn-exp                         4.000000
        max-rad                        5.000000

      * Solvation model:               ALPB
        Solvent                        water
        Parameter file                 internal GFN2-xTB/ALPB
        Dielectric constant                8.0200E+01
        Reference state                gsolv [1 M gas/solution]
        Free energy shift                  1.0808E-03 Eh       6.7819E-01 kcal/mol
        Temperature                        2.9815E+02 K
        Density                            1.0000E+00 kg/L
        Solvent mass                       1.8000E+01 g/mol
        Interaction kernel             P16
        Born radius scaling (c1)           1.4744E+00
        Born radii integrator          GBOBC
        Born offset                        0.0000E+00 a0       0.0000E+00 AA
        H-bond correction              true
        Ion screening                  false
        Surface tension                    1.0000E-05 Eh       1.5569E+01 dyn/cm
        Grid points                               230 per atom

          ...................................................
          :                      SETUP                      :
          :.................................................:
          :  # basis functions                 282          :
          :  # atomic orbitals                 280          :
          :  # shells                          178          :
          :  # electrons                       364          :
          :  max. iterations                   250          :
          :  Hamiltonian                  GFN2-xTB          :
          :  restarted?                      false          :
          :  GBSA solvation                   true          :
          :  PC potential                    false          :
          :  electronic temp.          300.0000000     K    :
          :  accuracy                    1.0000000          :
          :  -> integral cutoff          0.2500000E+02      :
          :  -> integral neglect         0.1000000E-07      :
          :  -> SCF convergence          0.1000000E-05 Eh   :
          :  -> wf. convergence          0.1000000E-03 e    :
          :  Broyden damping             0.4000000          :
          ...................................................

 iter      E             dE          RMSdq      gap      omega  full diag
   1   -231.5777157 -0.231578E+03  0.552E+00    0.04       0.0  T
   2   -229.7574464  0.182027E+01  0.561E+00    0.15       1.0  T
   3   -231.8035403 -0.204609E+01  0.299E+00    0.19       1.0  T
   4   -231.2720136  0.531527E+00  0.311E+00    0.12       1.0  T
   5   -231.7331392 -0.461126E+00  0.239E+00    0.29       1.0  T
   6   -231.3719214  0.361218E+00  0.297E+00    0.02       1.0  T
   7   -231.7732721 -0.401351E+00  0.232E+00    0.29       1.0  T
   8   -231.5186562  0.254616E+00  0.275E+00    0.21       1.0  T
   9   -231.3987279  0.119928E+00  0.303E+00    0.26       1.0  T
  10   -231.8544368 -0.455709E+00  0.208E+00    0.38       1.0  T
  11   -231.8870560 -0.326192E-01  0.205E+00    0.38       1.0  T
  12   -231.8514764  0.355796E-01  0.212E+00    0.43       1.0  T
  13   -231.8442780  0.719839E-02  0.209E+00    0.46       1.0  T
  14   -231.9305865 -0.863085E-01  0.181E+00    0.43       1.0  T
  15   -231.9429153 -0.123289E-01  0.179E+00    0.39       1.0  T
  16   -231.9766864 -0.337710E-01  0.167E+00    0.37       1.0  T
  17   -231.9887565 -0.120701E-01  0.160E+00    0.35       1.0  T
  18   -232.2138824 -0.225126E+00  0.728E-01    0.32       1.0  T
  19   -232.2329499 -0.190674E-01  0.620E-01    0.30       1.0  T
  20   -232.2292286  0.372128E-02  0.635E-01    0.30       1.0  T
  21   -232.2150878  0.141408E-01  0.696E-01    0.29       1.0  T
  22   -232.2298774 -0.147896E-01  0.557E-01    0.27       1.0  T
  23   -232.2111522  0.187252E-01  0.612E-01    0.26       1.0  T
  24   -232.2371504 -0.259982E-01  0.384E-01    0.25       1.0  T
  25   -232.2350540  0.209641E-02  0.460E-01    0.24       1.0  T
  26   -232.2328419  0.221208E-02  0.454E-01    0.23       1.0  T
  27   -232.2398575 -0.701563E-02  0.333E-01    0.22       1.0  T
  28   -232.2472855 -0.742804E-02  0.189E-01    0.22       1.0  T
  29   -232.2483540 -0.106846E-02  0.163E-01    0.22       1.0  T
  30   -232.2486543 -0.300334E-03  0.144E-01    0.22       1.0  T
  31   -232.2494893 -0.834998E-03  0.118E-01    0.22       1.0  T
  32   -232.2491970  0.292297E-03  0.130E-01    0.22       1.0  T
  33   -232.2499932 -0.796160E-03  0.947E-02    0.22       1.0  T
  34   -232.2504753 -0.482113E-03  0.683E-02    0.21       1.0  T
  35   -232.2507302 -0.254930E-03  0.478E-02    0.21       1.0  T
  36   -232.2508850 -0.154742E-03  0.271E-02    0.21       1.0  T
  37   -232.2509121 -0.271503E-04  0.205E-02    0.21       1.0  T
  38   -232.2509507 -0.385247E-04  0.106E-02    0.21       1.0  T
  39   -232.2509580 -0.734760E-05  0.582E-03    0.21       1.5  T
  40   -232.2509596 -0.157442E-05  0.423E-03    0.21       2.1  T
  41   -232.2509607 -0.115482E-05  0.259E-03    0.21       3.4  T
  42   -232.2509608 -0.911394E-07  0.253E-03    0.21       3.5  T
  43   -232.2509610 -0.147106E-06  0.221E-03    0.21       4.0  T
  44   -232.2509614 -0.374878E-06  0.108E-03    0.21       8.2  T
  45   -232.2509614 -0.766158E-07  0.633E-04    0.21      13.9  T
  46   -232.2509615 -0.286186E-07  0.347E-04    0.21      25.4  T

   *** convergence criteria satisfied after 46 iterations ***

         #    Occupation            Energy/Eh            Energy/eV
      -------------------------------------------------------------
         1        2.0000           -0.7948145             -21.6280
       ...           ...                  ...                  ...
       178        1.9201           -0.4316800             -11.7466
       179        1.8407           -0.4309390             -11.7264
       180        1.7659           -0.4304850             -11.7141
       181        1.5675           -0.4296167             -11.6905
       182        1.2899           -0.4285075             -11.6603
       183        1.1406           -0.4276389             -11.6366
       184        0.9837           -0.3832638             -10.4291 (HOMO)
       185        0.0163           -0.3754707             -10.2171 (LUMO)
       186                         -0.1258543              -3.4247
       187                         -0.0532700              -1.4496
       188                         -0.0479556              -1.3049
       189                         -0.0010366              -0.0282
       ...                                ...                  ...
       280                          2.9757891              80.9753
      -------------------------------------------------------------
                  HL-Gap            0.0077931 Eh            0.2121 eV
             Fermi-level           -0.4043630 Eh          -11.0033 eV

 SCC (total)                   0 d,  0 h,  0 min,  0.779 sec
 SCC setup                      ...        0 min,  0.004 sec (  0.550%)
 Dispersion                     ...        0 min,  0.003 sec (  0.341%)
 classical contributions        ...        0 min,  0.001 sec (  0.147%)
 integral evaluation            ...        0 min,  0.008 sec (  1.014%)
 iterations                     ...        0 min,  0.700 sec ( 89.902%)
 molecular gradient             ...        0 min,  0.061 sec (  7.870%)
 printout                       ...        0 min,  0.001 sec (  0.174%)

         :::::::::::::::::::::::::::::::::::::::::::::::::::::
         ::                     SUMMARY                     ::
         :::::::::::::::::::::::::::::::::::::::::::::::::::::
         :: total energy            -229.877999557826 Eh    ::
         :: total w/o Gsasa/hb      -229.623529763849 Eh    ::
         :: gradient norm              0.774617391028 Eh/a0 ::
         :: HOMO-LUMO gap              0.212061788742 eV    ::
         ::.................................................::
         :: SCC energy              -232.250961457856 Eh    ::
         :: -> isotropic ES            1.667606928991 Eh    ::
         :: -> anisotropic ES         -0.079266580197 Eh    ::
         :: -> anisotropic XC         -0.047334921836 Eh    ::
         :: -> dispersion             -0.057051841830 Eh    ::
         :: -> Gsolv                  -0.710770152950 Eh    ::
         ::    -> Gelec               -0.456300358973 Eh    ::
         ::    -> Gsasa                0.042675654809 Eh    ::
         ::    -> Ghb                 -0.298226208484 Eh    ::
         ::    -> Gshift               0.001080759698 Eh    ::
         :: repulsion energy           2.370184844545 Eh    ::
         :: add. restraining           0.000000000000 Eh    ::
         :: total charge               2.000000000001 e     ::
         :::::::::::::::::::::::::::::::::::::::::::::::::::::

      ----------------------------------------------------------- 
     |                   =====================                   |
     |                        A N C O P T                        |
     |                   =====================                   |
     |               Approximate Normal Coordinate               |
     |                Rational Function Optimizer                |
      ----------------------------------------------------------- 

          ...................................................
          :                      SETUP                      :
          :.................................................:
          :   optimization level           extreme          :
          :   max. optcycles                  2580          :
          :   ANC micro-cycles                  20          :
          :   degrees of freedom               381          :
          :.................................................:
          :   RF solver                   davidson          :
          :   write xtbopt.log                true          :
          :   linear?                        false          :
          :   energy convergence         0.5000000E-07 Eh   :
          :   grad. convergence          0.5000000E-04 Eh/α :
          :   maxmium RF displ.          1.0000000          :
          :   Hlow (freq-cutoff)         0.1000000E-01      :
          :   Hmax (freq-cutoff)         5.0000000          :
          :   S6 in model hess.         20.0000000          :
          ...................................................

generating ANC from model Hessian ...
Using Lindh-Hessian (1995)
 Shifting diagonal of input Hessian by    1.0554383068606074E-002
 Lowest  eigenvalues of input Hessian
    0.010000    0.010145    0.010279    0.010282    0.010288    0.010302
    0.010305    0.010311    0.010327    0.010366    0.010372    0.010381
    0.010393    0.010410    0.010412    0.010416    0.010426    0.010438
 Highest eigenvalues
    1.811155    1.890109    1.962208    3.080770    3.541869    3.569957


........................................................................
.............................. CYCLE    1 ..............................
........................................................................

 iter      E             dE          RMSdq      gap      omega  full diag
   1   -232.2509615 -0.232251E+03  0.257E-04    0.21       0.0  T
   2   -232.2509609  0.582636E-06  0.234E-03    0.21       3.8  T
   3   -232.2509614 -0.539709E-06  0.690E-04    0.21      12.8  T
   4   -232.2509615 -0.473870E-07  0.148E-04    0.21      59.4  T
     SCC iter.                  ...        0 min,  0.064 sec
     gradient                   ...        0 min,  0.063 sec
 * total energy  :  -229.8779996 Eh     change       -0.9960502E-08 Eh
   gradient norm :     0.7745572 Eh/α   predicted     0.0000000E+00 (-100.00%)
   displ. norm   :     0.6185450 α      lambda       -0.4251169E+00
   maximum displ.:     0.1148189 α      in ANC's #246, #289, #287, ...

........................................................................
.............................. CYCLE    2 ..............................
........................................................................

 iter      E             dE          RMSdq      gap      omega  full diag
   1   -231.7878973 -0.231788E+03  0.125E+00    0.32       0.0  T
   2   -229.6003155  0.218758E+01  0.449E+00    0.24       1.0  T
   3   -231.6558451 -0.205553E+01  0.160E+00    0.45       1.0  T
   4   -231.7082121 -0.523670E-01  0.146E+00    0.37       1.0  T
   5   -231.8157621 -0.107550E+00  0.112E+00    0.38       1.0  T
   6   -231.8858678 -0.701058E-01  0.849E-01    0.37       1.0  T
   7   -231.9397984 -0.539306E-01  0.421E-01    0.35       1.0  T
   8   -231.9197301  0.200683E-01  0.564E-01    0.35       1.0  T
   9   -231.9145756  0.515449E-02  0.575E-01    0.35       1.0  T
  10   -231.9201895 -0.561381E-02  0.553E-01    0.33       1.0  T
  11   -231.9349624 -0.147729E-01  0.434E-01    0.31       1.0  T
  12   -231.9390661 -0.410370E-02  0.364E-01    0.31       1.0  T
  13   -231.9398473 -0.781261E-03  0.336E-01    0.31       1.0  T
  14   -231.9372282  0.261917E-02  0.356E-01    0.31       1.0  T
  15   -231.9491285 -0.119004E-01  0.128E-01    0.31       1.0  T
  16   -231.9503216 -0.119303E-02  0.773E-02    0.31       1.0  T
  17   -231.9506176 -0.296084E-03  0.571E-02    0.31       1.0  T
  18   -231.9504603  0.157348E-03  0.641E-02    0.31       1.0  T
  19   -231.9506628 -0.202503E-03  0.373E-02    0.32       1.0  T
  20   -231.9507100 -0.471742E-04  0.304E-02    0.32       1.0  T
  21   -231.9507014  0.858377E-05  0.327E-02    0.32       1.0  T
  22   -231.9507564 -0.550196E-04  0.213E-02    0.32       1.0  T
  23   -231.9507817 -0.253235E-04  0.146E-02    0.32       1.0  T
  24   -231.9507965 -0.148247E-04  0.783E-03    0.32       1.1  T
  25   -231.9508004 -0.382125E-05  0.472E-03    0.32       1.9  T
  26   -231.9508011 -0.763519E-06  0.337E-03    0.32       2.6  T
  27   -231.9508017 -0.551610E-06  0.202E-03    0.32       4.4  T
  28   -231.9508011  0.570846E-06  0.298E-03    0.32       3.0  T
  29   -231.9508020 -0.911109E-06  0.812E-04    0.32      10.8  T
  30   -231.9508020 -0.206756E-07  0.669E-04    0.32      13.2  T
     SCC iter.                  ...        0 min,  0.516 sec
     gradient                   ...        0 min,  0.068 sec
 * total energy  :  -230.1687585 Eh     change       -0.2907590E+00 Eh
   gradient norm :     0.3558357 Eh/α   predicted    -0.2938981E+00 (   1.08%)
   displ. norm   :     0.6518528 α      lambda       -0.1844135E+00
   maximum displ.:     0.1706848 α      in ANC's #246, #238, #245, ...

........................................................................
.............................. CYCLE    3 ..............................
........................................................................

 iter      E             dE          RMSdq      gap      omega  full diag
   1   -231.5185745 -0.231519E+03  0.161E+00    0.55       0.0  T
   2   -229.2035210  0.231505E+01  0.472E+00    0.29       1.0  T
   3   -231.4637479 -0.226023E+01  0.169E+00    0.69       1.0  T
   4   -231.6868567 -0.223109E+00  0.102E+00    0.63       1.0  T
   5   -231.7254989 -0.386422E-01  0.690E-01    0.62       1.0  T
   6   -231.7107127  0.147863E-01  0.785E-01    0.61       1.0  T
   7   -231.7338255 -0.231128E-01  0.594E-01    0.60       1.0  T
   8   -231.7427647 -0.893913E-02  0.501E-01    0.60       1.0  T
   9   -231.7465736 -0.380893E-02  0.433E-01    0.59       1.0  T
  10   -231.7557273 -0.915369E-02  0.239E-01    0.57       1.0  T
  11   -231.7567187 -0.991450E-03  0.185E-01    0.56       1.0  T
  12   -231.7379620  0.187568E-01  0.452E-01    0.55       1.0  T
  13   -231.7545143 -0.165523E-01  0.226E-01    0.55       1.0  T
  14   -231.7580330 -0.351875E-02  0.134E-01    0.54       1.0  T
  15   -231.7590359 -0.100284E-02  0.892E-02    0.54       1.0  T
  16   -231.7585798  0.456049E-03  0.108E-01    0.55       1.0  T
  17   -231.7586648 -0.849912E-04  0.103E-01    0.55       1.0  T
  18   -231.7594925 -0.827658E-03  0.429E-02    0.55       1.0  T
  19   -231.7596354 -0.142927E-03  0.293E-02    0.55       1.0  T
  20   -231.7595858  0.495680E-04  0.372E-02    0.55       1.0  T
  21   -231.7596195 -0.336649E-04  0.290E-02    0.55       1.0  T
  22   -231.7596575 -0.380405E-04  0.187E-02    0.55       1.0  T
  23   -231.7596859 -0.283727E-04  0.770E-03    0.55       1.1  T
  24   -231.7596875 -0.160997E-05  0.589E-03    0.55       1.5  T
  25   -231.7596888 -0.124647E-05  0.438E-03    0.55       2.0  T
  26   -231.7596901 -0.137845E-05  0.249E-03    0.55       3.5  T
  27   -231.7596907 -0.559996E-06  0.669E-04    0.55      13.2  T
  28   -231.7596906  0.113744E-06  0.127E-03    0.55       6.9  T
  29   -231.7596907 -0.102026E-06  0.766E-04    0.55      11.5  T
     SCC iter.                  ...        0 min,  0.429 sec
     gradient                   ...        0 min,  0.064 sec
 * total energy  :  -230.3001752 Eh     change       -0.1314167E+00 Eh
   gradient norm :     0.1590984 Eh/α   predicted    -0.1313887E+00 (  -0.02%)
   displ. norm   :     0.7084990 α      lambda       -0.9418141E-01
   maximum displ.:     0.2316232 α      in ANC's #233, #238, #225, ...

........................................................................
.............................. CYCLE    4 ..............................
........................................................................

 iter      E             dE          RMSdq      gap      omega  full diag
   1   -231.5348455 -0.231535E+03  0.153E+00    0.93       0.0  T
   2   -229.6956762  0.183917E+01  0.429E+00    0.22       1.0  T
   3   -231.6588495 -0.196317E+01  0.979E-01    1.02       1.0  T
   4   -231.6828053 -0.239557E-01  0.802E-01    0.99       1.0  T
   5   -231.7091860 -0.263808E-01  0.561E-01    0.98       1.0  T
   6   -231.7190422 -0.985623E-02  0.427E-01    0.98       1.0  T
   7   -231.7063217  0.127205E-01  0.512E-01    0.97       1.0  T
   8   -231.6967663  0.955547E-02  0.557E-01    0.95       1.0  T
   9   -231.7034344 -0.666809E-02  0.482E-01    0.95       1.0  T
  10   -231.7070958 -0.366144E-02  0.433E-01    0.95       1.0  T
  11   -231.7077732 -0.677382E-03  0.411E-01    0.95       1.0  T
  12   -231.7240675 -0.162943E-01  0.134E-01    0.94       1.0  T
  13   -231.7223988  0.166867E-02  0.182E-01    0.94       1.0  T
  14   -231.7243446 -0.194579E-02  0.119E-01    0.94       1.0  T
  15   -231.7254290 -0.108435E-02  0.597E-02    0.94       1.0  T
  16   -231.7255300 -0.101007E-03  0.478E-02    0.94       1.0  T
  17   -231.7256827 -0.152705E-03  0.266E-02    0.94       1.0  T
  18   -231.7255847  0.980305E-04  0.405E-02    0.94       1.0  T
  19   -231.7256157 -0.310184E-04  0.363E-02    0.94       1.0  T
  20   -231.7257085 -0.927839E-04  0.195E-02    0.94       1.0  T
  21   -231.7257417 -0.331814E-04  0.760E-03    0.94       1.2  T
  22   -231.7257354  0.629107E-05  0.112E-02    0.94       1.0  T
  23   -231.7257444 -0.901923E-05  0.575E-03    0.94       1.5  T
  24   -231.7257460 -0.163332E-05  0.403E-03    0.94       2.2  T
  25   -231.7257467 -0.696244E-06  0.299E-03    0.94       2.9  T
  26   -231.7257467 -0.429009E-08  0.296E-03    0.94       3.0  T
  27   -231.7257464  0.285393E-06  0.335E-03    0.94       2.6  T
  28   -231.7257475 -0.103246E-05  0.139E-03    0.94       6.3  T
  29   -231.7257476 -0.185543E-06  0.443E-04    0.94      19.9  T
  30   -231.7257477 -0.137840E-07  0.243E-04    0.94      36.2  T
     SCC iter.                  ...        0 min,  0.366 sec
     gradient                   ...        0 min,  0.060 sec
 * total energy  :  -230.3762479 Eh     change       -0.7607268E-01 Eh
   gradient norm :     0.1549976 Eh/α   predicted    -0.7072900E-01 (  -7.02%)
   displ. norm   :     0.7619253 α      lambda       -0.8184509E-01
   maximum displ.:     0.2628234 α      in ANC's #238, #225, #240, ...

........................................................................
.............................. CYCLE    5 ..............................
........................................................................

 iter      E             dE          RMSdq      gap      omega  full diag
   1   -231.6370969 -0.231637E+03  0.138E+00    1.36       0.0  T
   2   -230.6539869  0.983110E+00  0.329E+00    0.66       1.0  T
   3   -231.7267034 -0.107272E+01  0.799E-01    1.40       1.0  T
   4   -231.7453378 -0.186344E-01  0.552E-01    1.38       1.0  T
   5   -231.7280577  0.172801E-01  0.664E-01    1.38       1.0  T
   6   -231.7313102 -0.325241E-02  0.549E-01    1.38       1.0  T
   7   -231.7395074 -0.819728E-02  0.503E-01    1.38       1.0  T
   8   -231.7264237  0.130837E-01  0.621E-01    1.37       1.0  T
   9   -231.7454886 -0.190649E-01  0.396E-01    1.37       1.0  T
  10   -231.7519864 -0.649776E-02  0.311E-01    1.37       1.0  T
  11   -231.7448058  0.718060E-02  0.447E-01    1.37       1.0  T
  12   -231.7472620 -0.245629E-02  0.405E-01    1.37       1.0  T
  13   -231.7554297 -0.816769E-02  0.291E-01    1.37       1.0  T
  14   -231.7603333 -0.490356E-02  0.194E-01    1.37       1.0  T
  15   -231.7632769 -0.294357E-02  0.108E-01    1.37       1.0  T
  16   -231.7640331 -0.756199E-03  0.613E-02    1.37       1.0  T
  17   -231.7642125 -0.179425E-03  0.448E-02    1.37       1.0  T
  18   -231.7643089 -0.964390E-04  0.311E-02    1.37       1.0  T
  19   -231.7643897 -0.807938E-04  0.157E-02    1.37       1.0  T
  20   -231.7643954 -0.569035E-05  0.137E-02    1.37       1.0  T
  21   -231.7644117 -0.162730E-04  0.490E-03    1.37       1.8  T
  22   -231.7644102  0.151094E-05  0.595E-03    1.37       1.5  T
  23   -231.7644113 -0.111770E-05  0.479E-03    1.37       1.8  T
  24   -231.7644131 -0.184062E-05  0.274E-03    1.37       3.2  T
  25   -231.7644132 -0.513469E-07  0.249E-03    1.37       3.5  T
  26   -231.7644139 -0.665233E-06  0.489E-04    1.37      18.0  T
  27   -231.7644139 -0.199533E-07  0.246E-04    1.37      35.9  T
     SCC iter.                  ...        0 min,  0.306 sec
     gradient                   ...        0 min,  0.061 sec
 * total energy  :  -230.4437695 Eh     change       -0.6752164E-01 Eh
   gradient norm :     0.1602360 Eh/α   predicted    -0.6467934E-01 (  -4.21%)
   displ. norm   :     0.7283546 α      lambda       -0.6449627E-01
   maximum displ.:     0.3076946 α      in ANC's #238, #235, #232, ...

........................................................................
.............................. CYCLE    6 ..............................
........................................................................

 iter      E             dE          RMSdq      gap      omega  full diag
   1   -231.7685825 -0.231769E+03  0.137E+00    1.36       0.0  T
   2   -231.0354255  0.733157E+00  0.304E+00    1.07       1.0  T
   3   -231.8161877 -0.780762E+00  0.835E-01    1.38       1.0  T
   4   -231.8101909  0.599677E-02  0.747E-01    1.37       1.0  T
   5   -231.8433072 -0.331163E-01  0.418E-01    1.37       1.0  T
   6   -231.8417349  0.157235E-02  0.430E-01    1.36       1.0  T
   7   -231.8452774 -0.354251E-02  0.406E-01    1.37       1.0  T
   8   -231.8473457 -0.206828E-02  0.344E-01    1.36       1.0  T
   9   -231.8502986 -0.295289E-02  0.176E-01    1.36       1.0  T
  10   -231.8480844  0.221412E-02  0.367E-01    1.36       1.0  T
  11   -231.8535423 -0.545789E-02  0.626E-02    1.36       1.0  T
  12   -231.8529260  0.616380E-03  0.145E-01    1.36       1.0  T
  13   -231.8537148 -0.788822E-03  0.460E-02    1.36       1.0  T
  14   -231.8536628  0.519364E-04  0.636E-02    1.36       1.0  T
  15   -231.8538188 -0.155920E-03  0.328E-02    1.36       1.0  T
  16   -231.8538059  0.128736E-04  0.383E-02    1.36       1.0  T
  17   -231.8538649 -0.589960E-04  0.102E-02    1.36       1.0  T
  18   -231.8538667 -0.180729E-05  0.131E-02    1.36       1.0  T
  19   -231.8538737 -0.704626E-05  0.314E-03    1.36       2.8  T
  20   -231.8538740 -0.248223E-06  0.196E-03    1.36       4.5  T
  21   -231.8538742 -0.254197E-06  0.103E-03    1.36       8.6  T
  22   -231.8538743 -0.347609E-07  0.382E-04    1.36      23.0  T
  23   -231.8538743 -0.608691E-08  0.140E-04    1.36      62.8  T
     SCC iter.                  ...        0 min,  0.272 sec
     gradient                   ...        0 min,  0.063 sec
 * total energy  :  -230.5003876 Eh     change       -0.5661801E-01 Eh
   gradient norm :     0.1453557 Eh/α   predicted    -0.4935580E-01 ( -12.83%)
   displ. norm   :     0.7493075 α      lambda       -0.6717181E-01
   maximum displ.:     0.3282206 α      in ANC's #238, #232, #225, ...

........................................................................
.............................. CYCLE    7 ..............................
........................................................................

 iter      E             dE          RMSdq      gap      omega  full diag
   1   -231.9258451 -0.231926E+03  0.131E+00    1.35       0.0  T
   2   -231.3393613  0.586484E+00  0.282E+00    1.30       1.0  T
   3   -231.9529364 -0.613575E+00  0.591E-01    1.38       1.0  T
   4   -231.9543263 -0.138992E-02  0.840E-01    1.37       1.0  T
   5   -231.9672661 -0.129398E-01  0.730E-01    1.37       1.0  T
   6   -231.9658539  0.141219E-02  0.748E-01    1.37       1.0  T
   7   -231.9566911  0.916286E-02  0.774E-01    1.37       1.0  T
   8   -231.9506974  0.599368E-02  0.770E-01    1.37       1.0  T
   9   -231.9774983 -0.268009E-01  0.273E-01    1.36       1.0  T
  10   -231.9776189 -0.120596E-03  0.327E-01    1.36       1.0  T
  11   -231.9762938  0.132515E-02  0.361E-01    1.36       1.0  T
  12   -231.9777072 -0.141343E-02  0.319E-01    1.36       1.0  T
  13   -231.9822679 -0.456070E-02  0.218E-01    1.35       1.0  T
  14   -231.9791578  0.311012E-02  0.328E-01    1.35       1.0  T
  15   -231.9839181 -0.476037E-02  0.599E-02    1.36       1.0  T
  16   -231.9839663 -0.481394E-04  0.600E-02    1.36       1.0  T
  17   -231.9840904 -0.124135E-03  0.248E-02    1.36       1.0  T
  18   -231.9841253 -0.348709E-04  0.156E-02    1.36       1.0  T
  19   -231.9841415 -0.161833E-04  0.347E-03    1.36       2.5  T
  20   -231.9841408  0.640657E-06  0.459E-03    1.36       1.9  T
  21   -231.9841407  0.801801E-07  0.641E-03    1.36       1.4  T
  22   -231.9841424 -0.167604E-05  0.132E-03    1.36       6.7  T
  23   -231.9841426 -0.141730E-06  0.577E-04    1.36      15.3  T
  24   -231.9841426 -0.337656E-08  0.488E-04    1.36      18.0  T
     SCC iter.                  ...        0 min,  0.274 sec
     gradient                   ...        0 min,  0.061 sec
 * total energy  :  -230.5551023 Eh     change       -0.5471474E-01 Eh
   gradient norm :     0.0925002 Eh/α   predicted    -0.5244312E-01 (  -4.15%)
   displ. norm   :     0.8091073 α      lambda       -0.5381544E-01
   maximum displ.:     0.3438233 α      in ANC's #238, #240, #300, ...

........................................................................
.............................. CYCLE    8 ..............................
........................................................................

 iter      E             dE          RMSdq      gap      omega  full diag
   1   -232.0217136 -0.232022E+03  0.108E+00    1.46       0.0  T
   2   -231.8715645  0.150149E+00  0.181E+00    1.45       1.0  T
   3   -231.9751597 -0.103595E+00  0.115E+00    1.48       1.0  T
   4   -232.0594727 -0.843130E-01  0.269E-01    1.47       1.0  T
   5   -232.0589790  0.493711E-03  0.233E-01    1.47       1.0  T
   6   -232.0623484 -0.336938E-02  0.155E-01    1.47       1.0  T
   7   -232.0228265  0.395219E-01  0.767E-01    1.47       1.0  T
   8   -232.0506787 -0.278522E-01  0.437E-01    1.47       1.0  T
   9   -232.0551057 -0.442707E-02  0.462E-01    1.46       1.0  T
  10   -232.0596647 -0.455897E-02  0.267E-01    1.47       1.0  T
  11   -232.0600366 -0.371894E-03  0.286E-01    1.47       1.0  T
  12   -232.0636511 -0.361451E-02  0.795E-02    1.47       1.0  T
  13   -232.0639669 -0.315818E-03  0.192E-02    1.47       1.0  T
  14   -232.0639873 -0.203783E-04  0.131E-02    1.47       1.0  T
  15   -232.0639863  0.955368E-06  0.171E-02    1.47       1.0  T
  16   -232.0639940 -0.761834E-05  0.769E-03    1.47       1.1  T
  17   -232.0640001 -0.613267E-05  0.206E-03    1.47       4.3  T
  18   -232.0639998  0.247861E-06  0.313E-03    1.47       2.8  T
  19   -232.0640004 -0.536418E-06  0.520E-04    1.47      16.9  T
  20   -232.0640004 -0.230002E-07  0.350E-04    1.47      25.2  T
     SCC iter.                  ...        0 min,  0.240 sec
     gradient                   ...        0 min,  0.061 sec
 * total energy  :  -230.5875274 Eh     change       -0.3242508E-01 Eh
   gradient norm :     0.1394462 Eh/α   predicted    -0.4452298E-01 (  37.31%)
   displ. norm   :     0.7436762 α      lambda       -0.5806011E-01
   maximum displ.:     0.3544242 α      in ANC's #225, #238, #240, ...

........................................................................
.............................. CYCLE    9 ..............................
........................................................................

 iter      E             dE          RMSdq      gap      omega  full diag
   1   -232.0330675 -0.232033E+03  0.766E-01    1.56       0.0  T
   2   -231.9469951  0.860725E-01  0.150E+00    1.54       1.0  T
   3   -231.9956985 -0.487034E-01  0.959E-01    1.56       1.0  T
   4   -232.0570619 -0.613634E-01  0.174E-01    1.55       1.0  T
   5   -232.0191571  0.379048E-01  0.679E-01    1.56       1.0  T
   6   -232.0528923 -0.337352E-01  0.370E-01    1.55       1.0  T
   7   -232.0574105 -0.451827E-02  0.144E-01    1.56       1.0  T
   8   -232.0573093  0.101223E-03  0.177E-01    1.56       1.0  T
   9   -232.0587688 -0.145944E-02  0.541E-02    1.56       1.0  T
  10   -232.0588247 -0.558901E-04  0.476E-02    1.56       1.0  T
  11   -232.0587715  0.531612E-04  0.732E-02    1.56       1.0  T
  12   -232.0588096 -0.380568E-04  0.699E-02    1.56       1.0  T
  13   -232.0590468 -0.237279E-03  0.449E-03    1.56       2.0  T
  14   -232.0590400  0.687456E-05  0.136E-02    1.56       1.0  T
  15   -232.0590483 -0.830013E-05  0.312E-03    1.56       2.8  T
  16   -232.0590486 -0.309189E-06  0.161E-03    1.56       5.5  T
  17   -232.0590487 -0.181449E-06  0.702E-04    1.56      12.5  T
  18   -232.0590488 -0.265908E-07  0.185E-04    1.56      47.7  T
     SCC iter.                  ...        0 min,  0.209 sec
     gradient                   ...        0 min,  0.061 sec
 * total energy  :  -230.6188811 Eh     change       -0.3135368E-01 Eh
   gradient norm :     0.1248565 Eh/α   predicted    -0.4508526E-01 (  43.80%)
   displ. norm   :     0.6351766 α      lambda       -0.3500706E-01
   maximum displ.:     0.1944817 α      in ANC's #238, #233, #205, ...

........................................................................
.............................. CYCLE   10 ..............................
........................................................................

 iter      E             dE          RMSdq      gap      omega  full diag
   1   -232.0876498 -0.232088E+03  0.491E-01    1.61       0.0  T
   2   -231.9971858  0.904640E-01  0.147E+00    1.60       1.0  T
   3   -232.0362291 -0.390433E-01  0.109E+00    1.61       1.0  T
   4   -232.0657671 -0.295380E-01  0.805E-01    1.61       1.0  T
   5   -232.0874282 -0.216611E-01  0.506E-01    1.61       1.0  T
   6   -232.0867962  0.631999E-03  0.583E-01    1.60       1.0  T
   7   -232.0881118 -0.131560E-02  0.517E-01    1.61       1.0  T
   8   -232.0998153 -0.117034E-01  0.471E-02    1.61       1.0  T
   9   -232.0993608  0.454456E-03  0.109E-01    1.61       1.0  T
  10   -232.0998685 -0.507700E-03  0.315E-02    1.61       1.0  T
  11   -232.0996083  0.260195E-03  0.831E-02    1.61       1.0  T
  12   -232.0996931 -0.848222E-04  0.681E-02    1.61       1.0  T
  13   -232.0998719 -0.178744E-03  0.377E-02    1.61       1.0  T
  14   -232.0999326 -0.607622E-04  0.956E-03    1.61       1.0  T
  15   -232.0999370 -0.431333E-05  0.420E-03    1.61       2.1  T
  16   -232.0999377 -0.778156E-06  0.544E-04    1.61      16.2  T
  17   -232.0999377 -0.121191E-07  0.358E-04    1.61      24.6  T
     SCC iter.                  ...        0 min,  0.198 sec
     gradient                   ...        0 min,  0.061 sec
 * total energy  :  -230.6333598 Eh     change       -0.1447875E-01 Eh
   gradient norm :     0.1484365 Eh/α   predicted    -0.2456528E-01 (  69.66%)
   displ. norm   :     0.6055788 α      lambda       -0.4369963E-01
   maximum displ.:     0.2268862 α      in ANC's #238, #233, #300, ...

........................................................................
.............................. CYCLE   11 ..............................
........................................................................

 iter      E             dE          RMSdq      gap      omega  full diag
   1   -232.0790537 -0.232079E+03  0.586E-01    1.97       0.0  T
   2   -231.9881526  0.909011E-01  0.149E+00    1.95       1.0  T
   3   -232.0878029 -0.996503E-01  0.218E-01    1.97       1.0  T
   4   -232.0909562 -0.315330E-02  0.204E-01    1.96       1.0  T
   5   -232.0852809  0.567529E-02  0.370E-01    1.96       1.0  T
   6   -232.0880718 -0.279086E-02  0.332E-01    1.96       1.0  T
   7   -232.0894762 -0.140444E-02  0.263E-01    1.96       1.0  T
   8   -232.0918219 -0.234563E-02  0.132E-01    1.96       1.0  T
   9   -232.0925481 -0.726248E-03  0.299E-02    1.96       1.0  T
  10   -232.0926053 -0.571968E-04  0.313E-02    1.96       1.0  T
  11   -232.0926400 -0.347334E-04  0.113E-02    1.96       1.0  T
  12   -232.0926519 -0.118894E-04  0.633E-03    1.96       1.4  T
  13   -232.0926546 -0.272061E-05  0.403E-03    1.96       2.2  T
  14   -232.0926551 -0.476859E-06  0.303E-03    1.96       2.9  T
  15   -232.0926556 -0.431290E-06  0.641E-04    1.96      13.7  T
  16   -232.0926556 -0.579132E-08  0.498E-04    1.96      17.7  T
     SCC iter.                  ...        0 min,  0.189 sec
     gradient                   ...        0 min,  0.061 sec
 * total energy  :  -230.6568797 Eh     change       -0.2351989E-01 Eh
   gradient norm :     0.0948478 Eh/α   predicted    -0.2986270E-01 (  26.97%)
   displ. norm   :     0.6611778 α      lambda       -0.3132883E-01
   maximum displ.:     0.1968199 α      in ANC's #240, #238, #206, ...

........................................................................
.............................. CYCLE   12 ..............................
........................................................................

 iter      E             dE          RMSdq      gap      omega  full diag
   1   -232.0546771 -0.232055E+03  0.459E-01    2.14       0.0  T
   2   -231.9515910  0.103086E+00  0.147E+00    2.13       1.0  T
   3   -232.0607305 -0.109140E+00  0.224E-01    2.14       1.0  T
   4   -232.0628252 -0.209467E-02  0.899E-02    2.13       1.0  T
   5   -232.0619028  0.922431E-03  0.123E-01    2.13       1.0  T
   6   -232.0631637 -0.126090E-02  0.513E-02    2.13       1.0  T
   7   -232.0630549  0.108724E-03  0.521E-02    2.13       1.0  T
   8   -232.0633261 -0.271157E-03  0.266E-02    2.13       1.0  T
   9   -232.0633669 -0.407547E-04  0.131E-02    2.13       1.0  T
  10   -232.0633774 -0.105252E-04  0.224E-03    2.13       3.9  T
  11   -232.0633740  0.340513E-05  0.794E-03    2.13       1.1  T
  12   -232.0633767 -0.275406E-05  0.450E-03    2.13       2.0  T
  13   -232.0633776 -0.870966E-06  0.729E-04    2.13      12.1  T
  14   -232.0633775  0.562589E-07  0.134E-03    2.13       6.6  T
  15   -232.0633776 -0.893721E-07  0.148E-04    2.13      59.6  T
     SCC iter.                  ...        0 min,  0.176 sec
     gradient                   ...        0 min,  0.061 sec
 * total energy  :  -230.6607649 Eh     change       -0.3885213E-02 Eh
   gradient norm :     0.1518282 Eh/α   predicted    -0.2251220E-01 ( 479.43%)
   displ. norm   :     0.5030219 α      lambda       -0.3394517E-01
   maximum displ.:     0.1426013 α      in ANC's #225, #238, #194, ...

........................................................................
.............................. CYCLE   13 ..............................
........................................................................

 iter      E             dE          RMSdq      gap      omega  full diag
   1   -232.1141273 -0.232114E+03  0.316E-01    2.48       0.0  T
   2   -232.0059221  0.108205E+00  0.144E+00    2.47       1.0  T
   3   -232.1112254 -0.105303E+00  0.359E-01    2.47       1.0  T
   4   -232.1115875 -0.362044E-03  0.320E-01    2.47       1.0  T
   5   -232.1159845 -0.439704E-02  0.287E-01    2.47       1.0  T
   6   -232.1187668 -0.278223E-02  0.122E-01    2.47       1.0  T
   7   -232.1189599 -0.193117E-03  0.914E-02    2.47       1.0  T
   8   -232.1193589 -0.399063E-03  0.484E-02    2.47       1.0  T
   9   -232.1194597 -0.100773E-03  0.151E-02    2.47       1.0  T
  10   -232.1194688 -0.907833E-05  0.726E-03    2.47       1.2  T
  11   -232.1194709 -0.213363E-05  0.234E-03    2.47       3.8  T
  12   -232.1194710 -0.941858E-07  0.130E-03    2.47       6.8  T
  13   -232.1194710  0.253494E-07  0.175E-03    2.47       5.0  T
  14   -232.1194710 -0.574733E-07  0.152E-03    2.47       5.8  T
  15   -232.1194711 -0.104821E-06  0.345E-04    2.47      25.5  T
  16   -232.1194712 -0.597908E-08  0.122E-04    2.47      72.2  T
     SCC iter.                  ...        0 min,  0.185 sec
     gradient                   ...        0 min,  0.063 sec
 * total energy  :  -230.6767889 Eh     change       -0.1602400E-01 Eh
   gradient norm :     0.1153070 Eh/α   predicted    -0.2126718E-01 (  32.72%)
   displ. norm   :     0.7337731 α      lambda       -0.5234252E-01
   maximum displ.:     0.2647943 α      in ANC's #242, #240, #170, ...

........................................................................
.............................. CYCLE   14 ..............................
........................................................................

 iter      E             dE          RMSdq      gap      omega  full diag
   1   -232.0308268 -0.232031E+03  0.129E+00    2.86       0.0  T
   2   -232.0634511 -0.326243E-01  0.146E+00    2.84       1.0  T
   3   -232.0829219 -0.194707E-01  0.781E-01    2.85       1.0  T
   4   -232.0966402 -0.137183E-01  0.214E-01    2.85       1.0  T
   5   -232.0925189  0.412126E-02  0.424E-01    2.85       1.0  T
   6   -231.9626850  0.129834E+00  0.146E+00    2.85       1.0  T
   7   -232.0081320 -0.454469E-01  0.126E+00    2.85       1.0  T
   8   -232.0739940 -0.658621E-01  0.727E-01    2.85       1.0  T
   9   -232.0963122 -0.223182E-01  0.291E-01    2.85       1.0  T
  10   -232.0968828 -0.570547E-03  0.269E-01    2.85       1.0  T
  11   -232.0986916 -0.180880E-02  0.172E-01    2.85       1.0  T
  12   -232.0990048 -0.313204E-03  0.145E-01    2.85       1.0  T
  13   -232.0992263 -0.221470E-03  0.127E-01    2.85       1.0  T
  14   -232.0997102 -0.483928E-03  0.562E-02    2.85       1.0  T
  15   -232.0998001 -0.899192E-04  0.497E-02    2.85       1.0  T
  16   -232.0998762 -0.761097E-04  0.412E-02    2.85       1.0  T
  17   -232.0999699 -0.936358E-04  0.272E-02    2.85       1.0  T
  18   -232.1000337 -0.638449E-04  0.130E-02    2.85       1.0  T
  19   -232.1000378 -0.405507E-05  0.113E-02    2.85       1.0  T
  20   -232.1000423 -0.455768E-05  0.947E-03    2.85       1.0  T
  21   -232.1000457 -0.339756E-05  0.655E-03    2.85       1.3  T
  22   -232.1000484 -0.268072E-05  0.369E-03    2.85       2.4  T
  23   -232.1000497 -0.129110E-05  0.592E-04    2.85      14.9  T
  24   -232.1000497 -0.168117E-07  0.559E-04    2.85      15.7  T
  25   -232.1000497 -0.234124E-07  0.170E-04    2.85      51.8  T
     SCC iter.                  ...        0 min,  0.294 sec
     gradient                   ...        0 min,  0.066 sec
 * total energy  :  -230.6051048 Eh     change        0.7168413E-01 Eh
   gradient norm :     0.5909156 Eh/α   predicted    -0.4026250E-01 (-156.17%)
   displ. norm   :     0.3768751 α      lambda       -0.1931328E+00
   maximum displ.:     0.2063797 α      in ANC's #242, #240, #248, ...

........................................................................
.............................. CYCLE   15 ..............................
........................................................................

 iter      E             dE          RMSdq      gap      omega  full diag
   1   -232.0858365 -0.232086E+03  0.391E-01    2.79       0.0  T
   2   -231.9796420  0.106194E+00  0.149E+00    2.79       1.0  T
   3   -232.0880600 -0.108418E+00  0.212E-01    2.80       1.0  T
   4   -232.0909031 -0.284316E-02  0.133E-01    2.80       1.0  T
   5   -232.0907074  0.195722E-03  0.172E-01    2.80       1.0  T
   6   -232.0914639 -0.756476E-03  0.759E-02    2.80       1.0  T
   7   -232.0918791 -0.415249E-03  0.324E-02    2.80       1.0  T
   8   -232.0919359 -0.568042E-04  0.210E-02    2.80       1.0  T
   9   -232.0919764 -0.404367E-04  0.137E-02    2.80       1.0  T
  10   -232.0919841 -0.767020E-05  0.651E-03    2.80       1.4  T
  11   -232.0919873 -0.320108E-05  0.459E-03    2.80       1.9  T
  12   -232.0919884 -0.118324E-05  0.157E-03    2.80       5.6  T
  13   -232.0919886 -0.140365E-06  0.372E-04    2.80      23.7  T
  14   -232.0919886 -0.142287E-07  0.165E-04    2.80      53.4  T
     SCC iter.                  ...        0 min,  0.159 sec
     gradient                   ...        0 min,  0.062 sec
 * total energy  :  -230.6892300 Eh     change       -0.8412519E-01 Eh
   gradient norm :     0.0974317 Eh/α   predicted    -0.1102822E+00 (  31.09%)
   displ. norm   :     0.6392798 α      lambda       -0.3546255E-01
   maximum displ.:     0.2179414 α      in ANC's #210, #240, #172, ...

........................................................................
.............................. CYCLE   16 ..............................
........................................................................

 iter      E             dE          RMSdq      gap      omega  full diag
   1   -232.1463701 -0.232146E+03  0.349E-01    3.04       0.0  T
   2   -232.0403173  0.106053E+00  0.144E+00    3.03       1.0  T
   3   -232.1475935 -0.107276E+00  0.259E-01    3.04       1.0  T
   4   -232.1472043  0.389196E-03  0.218E-01    3.04       1.0  T
   5   -232.1466871  0.517174E-03  0.304E-01    3.04       1.0  T
   6   -232.1506520 -0.396490E-02  0.304E-02    3.04       1.0  T
   7   -232.1506446  0.739670E-05  0.314E-02    3.04       1.0  T
   8   -232.1506982 -0.535816E-04  0.127E-02    3.04       1.0  T
   9   -232.1507050 -0.682574E-05  0.302E-03    3.04       2.9  T
  10   -232.1507038  0.128475E-05  0.611E-03    3.04       1.4  T
  11   -232.1507046 -0.836508E-06  0.407E-03    3.04       2.2  T
  12   -232.1507052 -0.632123E-06  0.195E-03    3.04       4.5  T
  13   -232.1507055 -0.230865E-06  0.662E-04    3.04      13.3  T
  14   -232.1507054  0.294254E-07  0.107E-03    3.04       8.2  T
  15   -232.1507055 -0.628163E-07  0.103E-04    3.04      85.2  T
     SCC iter.                  ...        0 min,  0.173 sec
     gradient                   ...        0 min,  0.066 sec
 * total energy  :  -230.6674490 Eh     change        0.2178092E-01 Eh
   gradient norm :     0.2836289 Eh/α   predicted    -0.2497767E-01 (-214.68%)
   displ. norm   :     0.3806809 α      lambda       -0.6415896E-01
   maximum displ.:     0.0899280 α      in ANC's #240, #238, #160, ...

........................................................................
.............................. CYCLE   17 ..............................
........................................................................

 iter      E             dE          RMSdq      gap      omega  full diag
   1   -232.1412876 -0.232141E+03  0.251E-01    3.07       0.0  T
   2   -232.0364197  0.104868E+00  0.141E+00    3.07       1.0  T
   3   -232.1436225 -0.107203E+00  0.106E-01    3.07       1.0  T
   4   -232.1427464  0.876161E-03  0.123E-01    3.07       1.0  T
   5   -232.1429142 -0.167863E-03  0.146E-01    3.07       1.0  T
   6   -232.1438713 -0.957084E-03  0.304E-02    3.07       1.0  T
   7   -232.1439025 -0.311953E-04  0.100E-02    3.07       1.0  T
   8   -232.1439094 -0.690698E-05  0.374E-03    3.07       2.4  T
   9   -232.1439096 -0.185142E-06  0.259E-03    3.07       3.4  T
  10   -232.1439099 -0.278110E-06  0.120E-03    3.07       7.4  T
  11   -232.1439099 -0.466404E-07  0.662E-04    3.07      13.3  T
  12   -232.1439100 -0.202752E-07  0.181E-04    3.07      48.7  T
     SCC iter.                  ...        0 min,  0.140 sec
     gradient                   ...        0 min,  0.062 sec
 * total energy  :  -230.7007781 Eh     change       -0.3332908E-01 Eh
   gradient norm :     0.0651959 Eh/α   predicted    -0.3672837E-01 (  10.20%)
   displ. norm   :     0.6720331 α      lambda       -0.1873128E-01
   maximum displ.:     0.1523097 α      in ANC's #194, #180, #198, ...

........................................................................
.............................. CYCLE   18 ..............................
........................................................................

 iter      E             dE          RMSdq      gap      omega  full diag
   1   -232.0647011 -0.232065E+03  0.270E-01    3.15       0.0  T
   2   -231.9579887  0.106712E+00  0.141E+00    3.14       1.0  T
   3   -232.0669562 -0.108967E+00  0.116E-01    3.15       1.0  T
   4   -232.0667173  0.238933E-03  0.897E-02    3.15       1.0  T
   5   -232.0665861  0.131119E-03  0.848E-02    3.15       1.0  T
   6   -232.0670264 -0.440226E-03  0.136E-02    3.15       1.0  T
   7   -232.0670305 -0.412836E-05  0.988E-03    3.15       1.0  T
   8   -232.0670335 -0.305411E-05  0.441E-03    3.15       2.0  T
   9   -232.0670339 -0.390593E-06  0.378E-03    3.15       2.3  T
  10   -232.0670346 -0.658622E-06  0.136E-03    3.15       6.5  T
  11   -232.0670347 -0.101112E-06  0.383E-04    3.15      23.0  T
  12   -232.0670347 -0.856446E-08  0.117E-04    3.15      75.6  T
     SCC iter.                  ...        0 min,  0.142 sec
     gradient                   ...        0 min,  0.067 sec
 * total energy  :  -230.6905195 Eh     change        0.1025859E-01 Eh
   gradient norm :     0.1753877 Eh/α   predicted    -0.1359544E-01 (-232.53%)
   displ. norm   :     0.4600819 α      lambda       -0.4166378E-01
   maximum displ.:     0.1077965 α      in ANC's #90, #184, #160, ...

........................................................................
.............................. CYCLE   19 ..............................
........................................................................

 iter      E             dE          RMSdq      gap      omega  full diag
   1   -232.1176648 -0.232118E+03  0.213E-01    3.23       0.0  T
   2   -232.0342806  0.833842E-01  0.123E+00    3.23       1.0  T
   3   -232.1182488 -0.839681E-01  0.135E-01    3.23       1.0  T
   4   -232.1180776  0.171165E-03  0.116E-01    3.23       1.0  T
   5   -232.1183525 -0.274934E-03  0.792E-02    3.23       1.0  T
   6   -232.1187068 -0.354254E-03  0.193E-02    3.23       1.0  T
   7   -232.1187227 -0.159331E-04  0.792E-03    3.23       1.1  T
   8   -232.1187212  0.158004E-05  0.844E-03    3.23       1.0  T
   9   -232.1187254 -0.423961E-05  0.189E-03    3.23       4.7  T
  10   -232.1187255 -0.977265E-07  0.119E-03    3.23       7.4  T
  11   -232.1187256 -0.795747E-07  0.126E-04    3.23      69.7  T
  12   -232.1187256 -0.851600E-09  0.498E-05    3.23     176.9  T
     SCC iter.                  ...        0 min,  0.140 sec
     gradient                   ...        0 min,  0.065 sec
 * total energy  :  -230.7066101 Eh     change       -0.1609059E-01 Eh
   gradient norm :     0.1110221 Eh/α   predicted    -0.2524151E-01 (  56.87%)
   displ. norm   :     0.6917200 α      lambda       -0.4048957E-01
   maximum displ.:     0.1947208 α      in ANC's #206, #214, #237, ...

........................................................................
.............................. CYCLE   20 ..............................
........................................................................

 iter      E             dE          RMSdq      gap      omega  full diag
   1   -232.1713359 -0.232171E+03  0.323E-01    3.34       0.0  T
   2   -232.0601838  0.111152E+00  0.144E+00    3.34       1.0  T
   3   -232.1737266 -0.113543E+00  0.169E-01    3.34       1.0  T
   4   -232.1737810 -0.543906E-04  0.101E-01    3.34       1.0  T
   5   -232.1742821 -0.501157E-03  0.142E-02    3.34       1.0  T
   6   -232.1742647  0.173874E-04  0.213E-02    3.34       1.0  T
   7   -232.1742880 -0.232665E-04  0.352E-03    3.34       2.5  T
   8   -232.1742861  0.195505E-05  0.613E-03    3.34       1.4  T
   9   -232.1742882 -0.216505E-05  0.555E-04    3.34      15.9  T
  10   -232.1742882  0.550848E-07  0.105E-03    3.34       8.4  T
  11   -232.1742882 -0.575181E-07  0.406E-04    3.34      21.7  T
  12   -232.1742882 -0.889341E-08  0.688E-05    3.34     128.0  T
     SCC iter.                  ...        0 min,  0.136 sec
     gradient                   ...        0 min,  0.063 sec
 * total energy  :  -230.6894744 Eh     change        0.1713570E-01 Eh
   gradient norm :     0.2204932 Eh/α   predicted    -0.2993146E-01 (-274.67%)
   displ. norm   :     0.4375614 α      lambda       -0.5053309E-01
   maximum displ.:     0.1250876 α      in ANC's #184, #160, #194, ...
 * RMSD in coord.:     0.6709821 α      energy gain  -0.8114749E+00 Eh

generating ANC from model Hessian ...
Using Lindh-Hessian (1995)
 Shifting diagonal of input Hessian by    1.0272397990066663E-002
 Lowest  eigenvalues of input Hessian
    0.010000    0.010044    0.010058    0.010080    0.010095    0.010105
    0.010140    0.010148    0.010152    0.010158    0.010179    0.010184
    0.010187    0.010198    0.010201    0.010207    0.010210    0.010211
 Highest eigenvalues
    1.540526    1.592872    1.936212    2.802841    3.458413    3.615495


........................................................................
.............................. CYCLE   21 ..............................
........................................................................

 iter      E             dE          RMSdq      gap      omega  full diag
   1   -232.1455893 -0.232146E+03  0.246E-01    3.27       0.0  T
   2   -232.1414798  0.410951E-02  0.406E-01    3.27       1.0  T
   3   -232.1455485 -0.406874E-02  0.204E-01    3.27       1.0  T
   4   -232.0405724  0.104976E+00  0.135E+00    3.27       1.0  T
   5   -232.1462834 -0.105711E+00  0.149E-01    3.27       1.0  T
   6   -232.1464857 -0.202330E-03  0.138E-01    3.27       1.0  T
   7   -232.1473324 -0.846692E-03  0.628E-02    3.27       1.0  T
   8   -232.1475441 -0.211662E-03  0.167E-02    3.27       1.0  T
   9   -232.1475600 -0.159587E-04  0.835E-04    3.27      10.5  T
  10   -232.1475590  0.104749E-05  0.431E-03    3.27       2.0  T
  11   -232.1475599 -0.952508E-06  0.142E-03    3.27       6.2  T
  12   -232.1475600 -0.104290E-06  0.215E-04    3.27      40.9  T
  13   -232.1475600 -0.162302E-08  0.129E-04    3.27      68.5  T
     SCC iter.                  ...        0 min,  0.146 sec
     gradient                   ...        0 min,  0.062 sec
 * total energy  :  -230.7117195 Eh     change       -0.2224507E-01 Eh
   gradient norm :     0.1218818 Eh/α   predicted     0.0000000E+00 (-100.00%)
   displ. norm   :     0.5489662 α      lambda       -0.2210686E-01
   maximum displ.:     0.1488739 α      in ANC's #168, #167, #162, ...

........................................................................
.............................. CYCLE   22 ..............................
........................................................................

 iter      E             dE          RMSdq      gap      omega  full diag
   1   -232.1544127 -0.232154E+03  0.250E-01    3.22       0.0  T
   2   -232.0474892  0.106923E+00  0.139E+00    3.23       1.0  T
   3   -232.1546969 -0.107208E+00  0.185E-01    3.22       1.0  T
   4   -232.1561999 -0.150301E-02  0.328E-02    3.22       1.0  T
   5   -232.1560463  0.153520E-03  0.526E-02    3.22       1.0  T
   6   -232.1562080 -0.161662E-03  0.415E-03    3.22       2.1  T
   7   -232.1561998  0.824211E-05  0.125E-02    3.22       1.0  T
   8   -232.1562085 -0.872606E-05  0.181E-03    3.22       4.9  T
   9   -232.1562085 -0.340838E-07  0.142E-03    3.22       6.2  T
  10   -232.1562086 -0.113010E-06  0.211E-04    3.22      41.7  T
  11   -232.1562086 -0.202408E-08  0.782E-05    3.22     112.6  T
     SCC iter.                  ...        0 min,  0.136 sec
     gradient                   ...        0 min,  0.063 sec
 * total energy  :  -230.7285616 Eh     change       -0.1684215E-01 Eh
   gradient norm :     0.0511993 Eh/α   predicted    -0.1439576E-01 ( -14.53%)
   displ. norm   :     0.6816111 α      lambda       -0.1420163E-01
   maximum displ.:     0.1523097 α      in ANC's #218, #195, #111, ...

........................................................................
.............................. CYCLE   23 ..............................
........................................................................

 iter      E             dE          RMSdq      gap      omega  full diag
   1   -232.1542037 -0.232154E+03  0.232E-01    3.16       0.0  T
   2   -232.0574474  0.967563E-01  0.131E+00    3.16       1.0  T
   3   -232.1541282 -0.966808E-01  0.180E-01    3.15       1.0  T
   4   -232.1554373 -0.130911E-02  0.565E-02    3.16       1.0  T
   5   -232.1554689 -0.315830E-04  0.410E-02    3.16       1.0  T
   6   -232.1555615 -0.926739E-04  0.426E-03    3.16       2.1  T
   7   -232.1555597  0.184069E-05  0.708E-03    3.16       1.2  T
   8   -232.1555624 -0.271002E-05  0.889E-04    3.16       9.9  T
   9   -232.1555624  0.389408E-07  0.108E-03    3.16       8.2  T
  10   -232.1555624 -0.678073E-07  0.141E-04    3.16      62.4  T
  11   -232.1555624 -0.292431E-09  0.914E-05    3.16      96.3  T
     SCC iter.                  ...        0 min,  0.131 sec
     gradient                   ...        0 min,  0.064 sec
 * total energy  :  -230.7385639 Eh     change       -0.1000230E-01 Eh
   gradient norm :     0.0552241 Eh/α   predicted    -0.1040004E-01 (   3.98%)
   displ. norm   :     0.7851287 α      lambda       -0.1315627E-01
   maximum displ.:     0.2326832 α      in ANC's #168, #167, #159, ...

........................................................................
.............................. CYCLE   24 ..............................
........................................................................

 iter      E             dE          RMSdq      gap      omega  full diag
   1   -232.1490303 -0.232149E+03  0.226E-01    3.07       0.0  T
   2   -232.0782775  0.707528E-01  0.111E+00    3.08       1.0  T
   3   -232.1489576 -0.706801E-01  0.166E-01    3.07       1.0  T
   4   -232.1498662 -0.908523E-03  0.614E-02    3.07       1.0  T
   5   -232.1500195 -0.153321E-03  0.825E-03    3.07       1.1  T
   6   -232.1500163  0.314023E-05  0.836E-03    3.07       1.1  T
   7   -232.1500204 -0.403947E-05  0.161E-03    3.07       5.5  T
   8   -232.1500203  0.941730E-07  0.168E-03    3.07       5.3  T
   9   -232.1500204 -0.165163E-06  0.178E-04    3.07      49.4  T
  10   -232.1500204 -0.859757E-10  0.118E-04    3.07      74.7  T
     SCC iter.                  ...        0 min,  0.122 sec
     gradient                   ...        0 min,  0.066 sec
 * total energy  :  -230.7456283 Eh     change       -0.7064336E-02 Eh
   gradient norm :     0.0883126 Eh/α   predicted    -0.1063308E-01 (  50.52%)
   displ. norm   :     0.6154554 α      lambda       -0.1576143E-01
   maximum displ.:     0.1580811 α      in ANC's #168, #195, #99, ...

........................................................................
.............................. CYCLE   25 ..............................
........................................................................

 iter      E             dE          RMSdq      gap      omega  full diag
   1   -232.1769061 -0.232177E+03  0.156E-01    3.02       0.0  T
   2   -232.1551514  0.217547E-01  0.621E-01    3.03       1.0  T
   3   -232.1769026 -0.217512E-01  0.110E-01    3.02       1.0  T
   4   -232.1772455 -0.342903E-03  0.377E-02    3.02       1.0  T
   5   -232.1772887 -0.431921E-04  0.146E-02    3.02       1.0  T
   6   -232.1772997 -0.109717E-04  0.364E-03    3.02       2.4  T
   7   -232.1773002 -0.541984E-06  0.114E-03    3.02       7.7  T
   8   -232.1773002 -0.943712E-08  0.682E-04    3.02      12.9  T
   9   -232.1773002 -0.214584E-07  0.244E-04    3.02      36.0  T
     SCC iter.                  ...        0 min,  0.103 sec
     gradient                   ...        0 min,  0.064 sec
 * total energy  :  -230.7540359 Eh     change       -0.8407649E-02 Eh
   gradient norm :     0.0649880 Eh/α   predicted    -0.1086582E-01 (  29.24%)
   displ. norm   :     0.6912047 α      lambda       -0.1536843E-01
   maximum displ.:     0.2671856 α      in ANC's #162, #212, #108, ...

........................................................................
.............................. CYCLE   26 ..............................
........................................................................

 iter      E             dE          RMSdq      gap      omega  full diag
   1   -232.1794463 -0.232179E+03  0.173E-01    3.02       0.0  T
   2   -232.1794933 -0.470158E-04  0.106E-01    3.02       1.0  T
   3   -232.1786065  0.886801E-03  0.153E-01    3.01       1.0  T
   4   -232.1795698 -0.963307E-03  0.202E-02    3.02       1.0  T
   5   -232.1795603  0.951733E-05  0.201E-02    3.02       1.0  T
   6   -232.1795566  0.366345E-05  0.213E-02    3.02       1.0  T
   7   -232.1795735 -0.168383E-04  0.128E-02    3.02       1.0  T
   8   -232.1795825 -0.903092E-05  0.210E-03    3.02       4.2  T
   9   -232.1795827 -0.217099E-06  0.647E-04    3.02      13.6  T
  10   -232.1795827 -0.218586E-07  0.170E-04    3.02      51.9  T
     SCC iter.                  ...        0 min,  0.120 sec
     gradient                   ...        0 min,  0.063 sec
 * total energy  :  -230.7560580 Eh     change       -0.2022050E-02 Eh
   gradient norm :     0.1035422 Eh/α   predicted    -0.1135547E-01 ( 461.58%)
   displ. norm   :     0.5406147 α      lambda       -0.2281577E-01
   maximum displ.:     0.1640292 α      in ANC's #162, #126, #195, ...

........................................................................
.............................. CYCLE   27 ..............................
........................................................................

 iter      E             dE          RMSdq      gap      omega  full diag
   1   -232.2037356 -0.232204E+03  0.149E-01    3.01       0.0  T
   2   -232.2034069  0.328730E-03  0.123E-01    3.01       1.0  T
   3   -232.2028782  0.528669E-03  0.156E-01    3.01       1.0  T
   4   -232.2035949 -0.716639E-03  0.697E-02    3.01       1.0  T
   5   -232.2037588 -0.163910E-03  0.422E-02    3.01       1.0  T
   6   -232.2038317 -0.729187E-04  0.222E-02    3.01       1.0  T
   7   -232.2038597 -0.279721E-04  0.236E-03    3.01       3.7  T
   8   -232.2038599 -0.249576E-06  0.499E-04    3.01      17.6  T
   9   -232.2038599 -0.851384E-08  0.128E-04    3.01      69.0  T
     SCC iter.                  ...        0 min,  0.107 sec
     gradient                   ...        0 min,  0.069 sec
 * total energy  :  -230.7650730 Eh     change       -0.9015070E-02 Eh
   gradient norm :     0.0775646 Eh/α   predicted    -0.1474201E-01 (  63.53%)
   displ. norm   :     0.7289020 α      lambda       -0.2377189E-01
   maximum displ.:     0.2469442 α      in ANC's #212, #207, #86, ...

........................................................................
.............................. CYCLE   28 ..............................
........................................................................

 iter      E             dE          RMSdq      gap      omega  full diag
   1   -232.1841695 -0.232184E+03  0.230E-01    2.97       0.0  T
   2   -232.1702162  0.139533E-01  0.509E-01    2.97       1.0  T
   3   -232.1844771 -0.142609E-01  0.147E-01    2.97       1.0  T
   4   -232.1844064  0.706545E-04  0.929E-02    2.96       1.0  T
   5   -232.1847080 -0.301632E-03  0.564E-02    2.96       1.0  T
   6   -232.1848680 -0.159959E-03  0.164E-02    2.96       1.0  T
   7   -232.1848813 -0.133294E-04  0.488E-03    2.97       1.8  T
   8   -232.1848826 -0.123276E-05  0.141E-03    2.97       6.3  T
   9   -232.1848827 -0.838680E-07  0.515E-04    2.97      17.1  T
  10   -232.1848827 -0.122641E-07  0.299E-04    2.97      29.4  T
     SCC iter.                  ...        0 min,  0.120 sec
     gradient                   ...        0 min,  0.066 sec
 * total energy  :  -230.7625040 Eh     change        0.2569093E-02 Eh
   gradient norm :     0.1391627 Eh/α   predicted    -0.1820094E-01 (-808.46%)
   displ. norm   :     0.4624356 α      lambda       -0.2196813E-01
   maximum displ.:     0.1843251 α      in ANC's #212, #162, #161, ...

........................................................................
.............................. CYCLE   29 ..............................
........................................................................

 iter      E             dE          RMSdq      gap      omega  full diag
   1   -232.1972533 -0.232197E+03  0.134E-01    2.99       0.0  T
   2   -232.1967279  0.525444E-03  0.158E-01    2.98       1.0  T
   3   -232.1976279 -0.900036E-03  0.561E-02    2.98       1.0  T
   4   -232.1966863  0.941599E-03  0.124E-01    2.99       1.0  T
   5   -232.1973305 -0.644207E-03  0.764E-02    2.98       1.0  T
   6   -232.1976187 -0.288204E-03  0.211E-02    2.98       1.0  T
   7   -232.1976440 -0.252152E-04  0.160E-03    2.98       5.5  T
   8   -232.1976440 -0.119975E-07  0.691E-04    2.98      12.7  T
   9   -232.1976440 -0.330778E-08  0.429E-04    2.98      20.5  T
     SCC iter.                  ...        0 min,  0.107 sec
     gradient                   ...        0 min,  0.063 sec
 * total energy  :  -230.7754649 Eh     change       -0.1296099E-01 Eh
   gradient norm :     0.0598172 Eh/α   predicted    -0.1333298E-01 (   2.87%)
   displ. norm   :     0.6994686 α      lambda       -0.1562318E-01
   maximum displ.:     0.1806596 α      in ANC's #210, #195, #188, ...

........................................................................
.............................. CYCLE   30 ..............................
........................................................................

 iter      E             dE          RMSdq      gap      omega  full diag
   1   -232.2022431 -0.232202E+03  0.171E-01    2.99       0.0  T
   2   -232.2005015  0.174167E-02  0.208E-01    2.99       1.0  T
   3   -232.2023331 -0.183162E-02  0.114E-01    2.99       1.0  T
   4   -232.2023913 -0.582281E-04  0.672E-02    2.99       1.0  T
   5   -232.2025930 -0.201636E-03  0.260E-02    2.99       1.0  T
   6   -232.2026269 -0.339567E-04  0.583E-03    2.99       1.5  T
   7   -232.2026280 -0.109002E-05  0.131E-03    2.99       6.7  T
   8   -232.2026280  0.722795E-08  0.814E-04    2.99      10.8  T
   9   -232.2026280 -0.156099E-07  0.293E-04    2.99      30.1  T
     SCC iter.                  ...        0 min,  0.105 sec
     gradient                   ...        0 min,  0.064 sec
 * total energy  :  -230.7777365 Eh     change       -0.2271584E-02 Eh
   gradient norm :     0.1075554 Eh/α   predicted    -0.1163346E-01 ( 412.13%)
   displ. norm   :     0.5154435 α      lambda       -0.1940962E-01
   maximum displ.:     0.0986174 α      in ANC's #159, #213, #210, ...

........................................................................
.............................. CYCLE   31 ..............................
........................................................................

 iter      E             dE          RMSdq      gap      omega  full diag
   1   -232.2250743 -0.232225E+03  0.127E-01    3.01       0.0  T
   2   -232.2251343 -0.599631E-04  0.699E-02    3.01       1.0  T
   3   -232.2251457 -0.114120E-04  0.316E-02    3.01       1.0  T
   4   -232.2251384  0.729843E-05  0.175E-02    3.01       1.0  T
   5   -232.2251483 -0.989692E-05  0.829E-03    3.01       1.1  T
   6   -232.2251506 -0.234640E-05  0.299E-03    3.01       2.9  T
   7   -232.2251509 -0.268450E-06  0.993E-04    3.01       8.9  T
   8   -232.2251510 -0.367880E-07  0.199E-04    3.01      44.2  T
     SCC iter.                  ...        0 min,  0.094 sec
     gradient                   ...        0 min,  0.065 sec
 * total energy  :  -230.7871829 Eh     change       -0.9446417E-02 Eh
   gradient norm :     0.0731201 Eh/α   predicted    -0.1228321E-01 (  30.03%)
   displ. norm   :     0.7037687 α      lambda       -0.1905871E-01
   maximum displ.:     0.1911784 α      in ANC's #150, #159, #167, ...

........................................................................
.............................. CYCLE   32 ..............................
........................................................................

 iter      E             dE          RMSdq      gap      omega  full diag
   1   -232.1834708 -0.232183E+03  0.192E-01    3.00       0.0  T
   2   -232.1835105 -0.396632E-04  0.117E-01    3.00       1.0  T
   3   -232.1834484  0.620235E-04  0.902E-02    3.00       1.0  T
   4   -232.1836309 -0.182472E-03  0.244E-02    3.00       1.0  T
   5   -232.1836395 -0.863562E-05  0.112E-02    3.00       1.0  T
   6   -232.1836422 -0.267461E-05  0.758E-03    3.00       1.2  T
   7   -232.1836448 -0.263436E-05  0.135E-03    3.00       6.5  T
   8   -232.1836449 -0.453030E-07  0.423E-04    3.00      20.8  T
   9   -232.1836449 -0.789092E-08  0.114E-04    3.00      77.5  T
     SCC iter.                  ...        0 min,  0.108 sec
     gradient                   ...        0 min,  0.066 sec
 * total energy  :  -230.7882341 Eh     change       -0.1051126E-02 Eh
   gradient norm :     0.1112533 Eh/α   predicted    -0.1424915E-01 (1255.61%)
   displ. norm   :     0.5010217 α      lambda       -0.1857295E-01
   maximum displ.:     0.1347337 α      in ANC's #96, #108, #188, ...

........................................................................
.............................. CYCLE   33 ..............................
........................................................................

 iter      E             dE          RMSdq      gap      omega  full diag
   1   -232.2299847 -0.232230E+03  0.111E-01    3.02       0.0  T
   2   -232.2300372 -0.524240E-04  0.617E-02    3.02       1.0  T
   3   -232.2300391 -0.192892E-05  0.349E-02    3.02       1.0  T
   4   -232.2300606 -0.215467E-04  0.118E-02    3.02       1.0  T
   5   -232.2300614 -0.810409E-06  0.418E-03    3.02       2.1  T
   6   -232.2300617 -0.222270E-06  0.189E-03    3.02       4.7  T
   7   -232.2300617 -0.578548E-07  0.571E-04    3.02      15.4  T
   8   -232.2300617 -0.573812E-08  0.215E-04    3.02      41.0  T
     SCC iter.                  ...        0 min,  0.095 sec
     gradient                   ...        0 min,  0.065 sec
 * total energy  :  -230.7999590 Eh     change       -0.1172496E-01 Eh
   gradient norm :     0.0521393 Eh/α   predicted    -0.1161760E-01 (  -0.92%)
   displ. norm   :     0.7478983 α      lambda       -0.1717421E-01
   maximum displ.:     0.2107011 α      in ANC's #160, #96, #162, ...

........................................................................
.............................. CYCLE   34 ..............................
........................................................................

 iter      E             dE          RMSdq      gap      omega  full diag
   1   -232.2352062 -0.232235E+03  0.183E-01    3.07       0.0  T
   2   -232.2353603 -0.154146E-03  0.105E-01    3.07       1.0  T
   3   -232.2353940 -0.337222E-04  0.366E-02    3.07       1.0  T
   4   -232.2353995 -0.548121E-05  0.935E-03    3.07       1.0  T
   5   -232.2354002 -0.662183E-06  0.432E-03    3.07       2.0  T
   6   -232.2354003 -0.961777E-07  0.139E-03    3.07       6.3  T
   7   -232.2354003 -0.155778E-07  0.402E-04    3.07      21.9  T
   8   -232.2354003 -0.219939E-08  0.120E-04    3.07      73.2  T
     SCC iter.                  ...        0 min,  0.096 sec
     gradient                   ...        0 min,  0.067 sec
 * total energy  :  -230.7991971 Eh     change        0.7619290E-03 Eh
   gradient norm :     0.1262232 Eh/α   predicted    -0.1339032E-01 (*******%)
   displ. norm   :     0.5006510 α      lambda       -0.2482770E-01
   maximum displ.:     0.1119955 α      in ANC's #192, #159, #188, ...

........................................................................
.............................. CYCLE   35 ..............................
........................................................................

 iter      E             dE          RMSdq      gap      omega  full diag
   1   -232.2171922 -0.232217E+03  0.141E-01    3.08       0.0  T
   2   -232.2172585 -0.663147E-04  0.760E-02    3.07       1.0  T
   3   -232.2172773 -0.188391E-04  0.354E-02    3.07       1.0  T
   4   -232.2172828 -0.549132E-05  0.736E-03    3.07       1.2  T
   5   -232.2172832 -0.448525E-06  0.326E-03    3.07       2.7  T
   6   -232.2172833 -0.813854E-07  0.118E-03    3.07       7.5  T
   7   -232.2172833 -0.197577E-07  0.422E-04    3.07      20.8  T
   8   -232.2172833 -0.453517E-08  0.191E-04    3.07      46.1  T
     SCC iter.                  ...        0 min,  0.093 sec
     gradient                   ...        0 min,  0.063 sec
 * total energy  :  -230.8113702 Eh     change       -0.1217309E-01 Eh
   gradient norm :     0.0739473 Eh/α   predicted    -0.1552541E-01 (  27.54%)
   displ. norm   :     0.6912738 α      lambda       -0.2273698E-01
   maximum displ.:     0.1366382 α      in ANC's #96, #86, #162, ...

........................................................................
.............................. CYCLE   36 ..............................
........................................................................

 iter      E             dE          RMSdq      gap      omega  full diag
   1   -232.2747110 -0.232275E+03  0.219E-01    3.11       0.0  T
   2   -232.2748473 -0.136323E-03  0.125E-01    3.11       1.0  T
   3   -232.2748973 -0.500503E-04  0.452E-02    3.11       1.0  T
   4   -232.2749054 -0.801953E-05  0.110E-02    3.11       1.0  T
   5   -232.2749063 -0.927087E-06  0.387E-03    3.11       2.3  T
   6   -232.2749064 -0.871410E-07  0.151E-03    3.11       5.8  T
   7   -232.2749064 -0.225164E-07  0.510E-04    3.11      17.3  T
   8   -232.2749064 -0.312536E-08  0.148E-04    3.11      59.5  T
     SCC iter.                  ...        0 min,  0.094 sec
     gradient                   ...        0 min,  0.063 sec
 * total energy  :  -230.8001621 Eh     change        0.1120812E-01 Eh
   gradient norm :     0.1851556 Eh/α   predicted    -0.1680103E-01 (-249.90%)
   displ. norm   :     0.4184607 α      lambda       -0.3774847E-01
   maximum displ.:     0.1077203 α      in ANC's #192, #229, #160, ...

........................................................................
.............................. CYCLE   37 ..............................
........................................................................

 iter      E             dE          RMSdq      gap      omega  full diag
   1   -232.2586918 -0.232259E+03  0.139E-01    3.14       0.0  T
   2   -232.2587600 -0.682643E-04  0.828E-02    3.14       1.0  T
   3   -232.2587882 -0.281825E-04  0.185E-02    3.14       1.0  T
   4   -232.2587904 -0.220723E-05  0.818E-03    3.14       1.1  T
   5   -232.2587909 -0.516575E-06  0.349E-03    3.14       2.5  T
   6   -232.2587910 -0.107662E-06  0.115E-03    3.14       7.6  T
   7   -232.2587911 -0.220178E-07  0.414E-04    3.14      21.3  T
   8   -232.2587911 -0.435907E-08  0.221E-04    3.14      39.9  T
     SCC iter.                  ...        0 min,  0.097 sec
     gradient                   ...        0 min,  0.064 sec
 * total energy  :  -230.8191685 Eh     change       -0.1900644E-01 Eh
   gradient norm :     0.0737251 Eh/α   predicted    -0.2217930E-01 (  16.69%)
   displ. norm   :     0.7470493 α      lambda       -0.2826767E-01
   maximum displ.:     0.1779417 α      in ANC's #100, #154, #188, ...

........................................................................
.............................. CYCLE   38 ..............................
........................................................................

 iter      E             dE          RMSdq      gap      omega  full diag
   1   -232.1842708 -0.232184E+03  0.233E-01    3.18       0.0  T
   2   -232.1845010 -0.230203E-03  0.136E-01    3.17       1.0  T
   3   -232.1845793 -0.782998E-04  0.355E-02    3.17       1.0  T
   4   -232.1845878 -0.851484E-05  0.130E-02    3.17       1.0  T
   5   -232.1845898 -0.190356E-05  0.540E-03    3.17       1.6  T
   6   -232.1845900 -0.255393E-06  0.203E-03    3.17       4.3  T
   7   -232.1845901 -0.565097E-07  0.468E-04    3.17      18.8  T
   8   -232.1845901 -0.346205E-08  0.199E-04    3.17      44.2  T
     SCC iter.                  ...        0 min,  0.094 sec
     gradient                   ...        0 min,  0.062 sec
 * total energy  :  -230.7987334 Eh     change        0.2043509E-01 Eh
   gradient norm :     0.1988644 Eh/α   predicted    -0.2202170E-01 (-207.76%)
   displ. norm   :     0.3916259 α      lambda       -0.4819367E-01
[...]
H            6.82804215841548       -1.49427269015311       -1.56339758601959
O           -3.90806059878102       -2.99147009743569        5.55302781160983
H           -3.00806059878102       -2.99147009743569        5.55302781160983
H           -4.20107193779246       -2.14050337939630        5.55302781160983
O           -0.83762651864016       -3.76749630103559       -6.40822208783871
H            0.06237348135984       -3.76749630103559       -6.40822208783871
H           -1.13063785765160       -2.91652958299621       -6.40822208783871
O            4.53547710034863       -4.48666036881190        3.83051883145264
H            5.43547710034863       -4.48666036881190        3.83051883145264
H            4.24246576133719       -3.63569365077251        3.83051883145264
O           -5.18896244880000       -5.10679093260828        0.21615452244338
H           -4.28896244880000       -5.10679093260828        0.21615452244338
H           -5.48197378781144       -4.25582421456889        0.21615452244338
O            3.11908578610616       -5.90269652956836       -3.10670579720031
H            4.01908578610616       -5.90269652956836       -3.10670579720031
H            2.82607444709472       -5.05172981152897       -3.10670579720031
O           -0.14856107434437       -6.51350829473600        3.14471923300534
H            0.75143892565563       -6.51350829473600        3.14471923300534
H           -0.44157241335581       -5.66254157669662        3.14471923300534
O           -0.00280888278905       -7.20581567834865        0.00124612415534
H            0.89719111721095       -7.20581567834865        0.00124612415534
H           -0.29582022180049       -6.35484896030927        0.00124612415534

 Bond Distances (Angstroems)
 ---------------------------
Fe1-O2=2.0800        Fe1-O7=2.0800        Fe1-H8=1.7232        Fe1-H9=1.6065        Fe1-O10=2.0800       Fe1-H11=1.7448       
Fe1-H12=1.6929       Fe1-O13=2.0800       Fe1-H15=1.6370       Fe1-O16=2.0800       Fe1-H18=1.7590       Fe1-O19=2.0800       
O2-Fe1=2.0800        O2-S3=1.4743         S3-O2=1.4743         S3-O4=1.4615         S3-O5=1.4671         S3-O6=1.4592         
O4-S3=1.4615         O5-S3=1.4671         O6-S3=1.4592         O7-Fe1=2.0800        O7-H8=0.9772         O7-H9=0.9715         
H8-Fe1=1.7232        H8-O7=0.9772         H9-Fe1=1.6065        H9-O7=0.9715         O10-Fe1=2.0800       O10-H11=0.9781       
O10-H12=0.9761       H11-Fe1=1.7448       H11-O10=0.9781       H12-Fe1=1.6929       H12-O10=0.9761       O13-Fe1=2.0800       
O13-H14=0.9768       O13-H15=0.9787       H14-O13=0.9768       H15-Fe1=1.6370       H15-O13=0.9787       O16-Fe1=2.0800       
O16-H17=0.9734       O16-H18=0.9824       H17-O16=0.9734       H18-Fe1=1.7590       H18-O16=0.9824       O19-Fe1=2.0800       
O19-H20=0.9749       O19-H21=0.9741       H20-O19=0.9749       H21-O19=0.9741       O22-H23=0.9000       O22-H24=0.9000       
H23-O22=0.9000       H24-O22=0.9000       H24-O67=1.2340       O25-H26=0.9000       O25-H27=0.9000       H26-O25=0.9000       
H27-O25=0.9000       O28-H29=0.9000       O28-H30=0.9000       H29-O28=0.9000       H30-O28=0.9000       O31-H32=0.9000       
O31-H33=0.9000       H32-O31=0.9000       H33-O31=0.9000       O34-H35=0.9000       O34-H36=0.9000       H35-O34=0.9000       
H36-O34=0.9000       O37-H38=0.9000       O37-H39=0.9000       H38-O37=0.9000       H39-O37=0.9000       O40-H41=0.9000       
O40-H42=0.9000       H41-O40=0.9000       H42-O40=0.9000       O43-H44=0.9000       O43-H45=0.9000       H44-O43=0.9000       
H45-O43=0.9000       O46-H47=0.9000       O46-H48=0.9000       H47-O46=0.9000       H48-O46=0.9000       O49-H50=0.9000       
O49-H51=0.9000       H50-O49=0.9000       H51-O49=0.9000       O52-H53=0.9000       O52-H54=0.9000       H53-O52=0.9000       
H54-O52=0.9000       O55-H56=0.9000       O55-H57=0.9000       H56-O55=0.9000       H57-O55=0.9000       O58-H59=0.9000       
O58-H60=0.9000       H59-O58=0.9000       H60-O58=0.9000       O61-H62=0.9000       O61-H63=0.9000       H62-O61=0.9000       
H63-O61=0.9000       O64-H65=0.9000       O64-H66=0.9000       H65-O64=0.9000       H66-O64=0.9000       O67-H24=1.2340       
O67-H68=0.9000       O67-H69=0.9000       H68-O67=0.9000       H69-O67=0.9000       O70-H71=0.9000       O70-H72=0.9000       
H71-O70=0.9000       H72-O70=0.9000       O73-H74=0.9000       O73-H75=0.9000       H74-O73=0.9000       H75-O73=0.9000       
O76-H77=0.9000       O76-H78=0.9000       H77-O76=0.9000       H78-O76=0.9000       O79-H80=0.9000       O79-H81=0.9000       
H80-O79=0.9000       H81-O79=0.9000       O82-H83=0.9000       O82-H84=0.9000       H83-O82=0.9000       H84-O82=0.9000       
O85-H86=0.9000       O85-H87=0.9000       H86-O85=0.9000       H87-O85=0.9000       O88-H89=0.9000       O88-H90=0.9000       
H89-O88=0.9000       H90-O88=0.9000       O91-H92=0.9000       O91-H93=0.9000       H92-O91=0.9000       H93-O91=0.9000       
O94-H95=0.9000       O94-H96=0.9000       H95-O94=0.9000       H96-O94=0.9000       O97-H98=0.9000       O97-H99=0.9000       
H98-O97=0.9000       H99-O97=0.9000       O100-H101=0.9000     O100-H102=0.9000     H101-O100=0.9000     H102-O100=0.9000     
O103-H104=0.9000     O103-H105=0.9000     H104-O103=0.9000     H105-O103=0.9000     O106-H107=0.9000     O106-H108=0.9000     
H107-O106=0.9000     H108-O106=0.9000     O109-H110=0.9000     O109-H111=0.9000     H110-O109=0.9000     H111-O109=0.9000     
O112-H113=0.9000     O112-H114=0.9000     H113-O112=0.9000     H114-O112=0.9000     O115-H116=0.9000     O115-H117=0.9000     
H116-O115=0.9000     H117-O115=0.9000     O118-H119=0.9000     O118-H120=0.9000     H119-O118=0.9000     H120-O118=0.9000     
O121-H122=0.9000     O121-H123=0.9000     H122-O121=0.9000     H123-O121=0.9000     O124-H125=0.9000     O124-H126=0.9000     
H125-O124=0.9000     H126-O124=0.9000     O127-H128=0.9000     O127-H129=0.9000     H128-O127=0.9000     H129-O127=0.9000     
 O  H  Rav=0.9132 sigma=0.0433  Rmin=0.9000  Rmax=1.2340    83
 S  O  Rav=1.4655 sigma=0.0058  Rmin=1.4592  Rmax=1.4743     4
 Fe H  Rav=1.6939 sigma=0.0556  Rmin=1.6065  Rmax=1.7590     6
 Fe O  Rav=2.0800 sigma=0.0000  Rmin=2.0800  Rmax=2.0800     6

 selected bond angles (degree)
 --------------------
O7-Fe1-O2= 90.00               H8-Fe1-O2= 90.75               H8-Fe1-O7= 27.80               H9-Fe1-O2= 81.80               
H9-Fe1-O7= 26.84               H9-Fe1-H8= 54.00               O10-Fe1-O2=180.00              O10-Fe1-O7= 90.00              
O10-Fe1-H8= 89.25              O10-Fe1-H9= 98.20              H11-Fe1-O2=152.09              H11-Fe1-O7= 83.35              
H11-Fe1-H8= 71.01              H11-Fe1-H9=102.53              H11-Fe1-O10= 27.91             H12-Fe1-O2=152.37              
H12-Fe1-O7= 78.76              H12-Fe1-H8= 90.69              H12-Fe1-H9= 76.83              H12-Fe1-O10= 27.63             
H12-Fe1-H11= 52.07             O13-Fe1-O2= 90.00              O13-Fe1-O7=180.00              O13-Fe1-H8=152.20              
O13-Fe1-H9=153.16              O13-Fe1-O10= 90.00             O13-Fe1-H11= 96.65             O13-Fe1-H12=101.24             
H15-Fe1-O2= 93.56              H15-Fe1-O7=152.64              H15-Fe1-H8=175.64              H15-Fe1-H9=127.33              
H15-Fe1-O10= 86.44             H15-Fe1-H11=104.75             H15-Fe1-H12= 85.79             H15-Fe1-O13= 27.36             
O16-Fe1-O2= 90.00              O16-Fe1-O7= 90.00              O16-Fe1-H8= 62.21              O16-Fe1-H9=115.36              
O16-Fe1-O10= 90.00             O16-Fe1-H11= 63.03             O16-Fe1-H12=114.88             O16-Fe1-O13= 90.00             
O16-Fe1-H15=117.09             H18-Fe1-O2= 81.12              H18-Fe1-O7=116.41              H18-Fe1-H8= 89.09              
H18-Fe1-H9=138.83              H18-Fe1-O10= 98.88             H18-Fe1-H11= 77.75             H18-Fe1-H12=126.49             
H18-Fe1-O13= 63.59             H18-Fe1-H15= 90.93             H18-Fe1-O16= 28.09             O19-Fe1-O2= 90.00              
O19-Fe1-O7= 90.00              O19-Fe1-H8=117.79              O19-Fe1-H9= 64.64              O19-Fe1-O10= 90.00             
O19-Fe1-H11=116.97             O19-Fe1-H12= 65.12             O19-Fe1-O13= 90.00             O19-Fe1-H15= 62.91             
O19-Fe1-O16=180.00             O19-Fe1-H18=151.91             S3-O2-Fe1=180.00               O4-S3-O2=104.78                
O5-S3-O2=104.03                O5-S3-O4=113.91                O6-S3-O2=104.33                O6-S3-O4=113.74                
O6-S3-O5=114.48                H8-O7-Fe1= 55.34               H9-O7-Fe1= 48.29               H9-O7-H8=102.08                
O7-H8-Fe1= 96.86               O7-H9-Fe1=104.88               H11-O10-Fe1= 56.62             H12-O10-Fe1= 53.54             
H12-O10-H11=101.16             

 selected dihedral angles (degree)
 ---------------------------------
S3-O2-Fe1-O7=  0.00           S3-O2-Fe1-H8=  0.00           S3-O2-Fe1-H9=  0.00           S3-O2-Fe1-O10=  0.00          
S3-O2-Fe1-H11=  0.00          S3-O2-Fe1-H12=  0.00          S3-O2-Fe1-O13=  0.00          S3-O2-Fe1-H15=  0.00          
S3-O2-Fe1-O16=  0.00          S3-O2-Fe1-H18=  0.00          S3-O2-Fe1-O19=  0.00          O4-S3-O2-Fe1=  0.00           
O5-S3-O2-Fe1=  0.00           O6-S3-O2-Fe1=  0.00           H8-O7-Fe1-O2= 91.61           H8-O7-Fe1-H9=163.18           
H8-O7-Fe1-O10=271.61          H8-O7-Fe1-H11=298.78          H8-O7-Fe1-H12=246.21          H8-O7-Fe1-O13=  0.00          
H8-O7-Fe1-H15=189.37          H8-O7-Fe1-O16=  1.61          H8-O7-Fe1-H18= 11.54          H8-O7-Fe1-O19=181.61          
H9-O7-Fe1-O2=288.43           H9-O7-Fe1-H8=196.82           H9-O7-Fe1-O10=108.43          H9-O7-Fe1-H11=135.60          
H9-O7-Fe1-H12= 83.02          H9-O7-Fe1-O13=  0.00          H9-O7-Fe1-H15= 26.18          H9-O7-Fe1-O16=198.43          
H9-O7-Fe1-H18=208.35          H9-O7-Fe1-O19= 18.43          O7-H8-Fe1-O2=271.42           O7-H8-Fe1-H9=350.71           
O7-H8-Fe1-O10= 91.42          O7-H8-Fe1-H11=112.97          O7-H8-Fe1-H12= 63.83          O7-H8-Fe1-O13=180.00          
O7-H8-Fe1-H15=100.02          O7-H8-Fe1-O16=181.82          O7-H8-Fe1-H18=190.32          O7-H8-Fe1-O19=  1.82          
Fe1-H8-O7-H9= 12.76           O7-H9-Fe1-O2=106.56           O7-H9-Fe1-H8=  9.60           O7-H9-Fe1-O10=286.56          
O7-H9-Fe1-H11=314.61          O7-H9-Fe1-H12=268.92          O7-H9-Fe1-O13=180.00          O7-H9-Fe1-H15=194.77          
O7-H9-Fe1-O16= 20.47          O7-H9-Fe1-H18= 40.25          O7-H9-Fe1-O19=200.47          Fe1-H9-O7-H8=345.92           
H11-O10-Fe1-O2=  0.00         H11-O10-Fe1-O7= 75.68         H11-O10-Fe1-H8= 47.89         H11-O10-Fe1-H9=101.32         
H11-O10-Fe1-H12=140.82        H11-O10-Fe1-O13=255.68        H11-O10-Fe1-H15=228.54        H11-O10-Fe1-O16=345.68        
H11-O10-Fe1-H18=318.92        H11-O10-Fe1-O19=165.68        H12-O10-Fe1-O2=  0.00         H12-O10-Fe1-O7=294.86         
H12-O10-Fe1-H8=267.07         H12-O10-Fe1-H9=320.50         H12-O10-Fe1-H11=219.18        H12-O10-Fe1-O13=114.86        
H12-O10-Fe1-H15= 87.72        H12-O10-Fe1-O16=204.86        H12-O10-Fe1-H18=178.10        H12-O10-Fe1-O19= 24.86        

 CMA Distance (Angstroems)
 ---------------------------
R(CMA):  1.2361
           -------------------------------------------------
          |                Final Singlepoint                |
           -------------------------------------------------

          ...................................................
          :                      SETUP                      :
          :.................................................:
          :  # basis functions                 282          :
          :  # atomic orbitals                 280          :
          :  # shells                          178          :
          :  # electrons                       364          :
          :  max. iterations                   250          :
          :  Hamiltonian                  GFN2-xTB          :
          :  restarted?                      false          :
          :  GBSA solvation                   true          :
          :  PC potential                    false          :
          :  electronic temp.          300.0000000     K    :
          :  accuracy                    1.0000000          :
          :  -> integral cutoff          0.2500000E+02      :
          :  -> integral neglect         0.1000000E-07      :
          :  -> SCF convergence          0.1000000E-05 Eh   :
          :  -> wf. convergence          0.1000000E-03 e    :
          :  Broyden damping             0.4000000          :
          ...................................................

 iter      E             dE          RMSdq      gap      omega  full diag
   1   -201.0210746 -0.201021E+03  0.526E+01    1.92       0.0  T
   2   -221.4484953 -0.204274E+02  0.311E+01    0.86       1.0  T
   3   -228.2276931 -0.677920E+01  0.981E+00    0.16       1.0  T
   4   -230.6179440 -0.239025E+01  0.552E+00    0.30       1.0  T
   5   -231.5136814 -0.895737E+00  0.397E+00    0.03       1.0  T
   6   -231.8381116 -0.324430E+00  0.282E+00    0.16       1.0  T
   7   -231.8734453 -0.353337E-01  0.220E+00    0.18       1.0  T
   8   -229.4924004  0.238104E+01  0.489E+00    0.26       1.0  T
   9   -231.8092025 -0.231680E+01  0.213E+00    0.49       1.0  T
  10   -231.8601035 -0.509010E-01  0.198E+00    0.27       1.0  T
  11   -232.1469474 -0.286844E+00  0.107E+00    0.27       1.0  T
  12   -232.0156431  0.131304E+00  0.151E+00    0.22       1.0  T
  13   -232.0769673 -0.613242E-01  0.125E+00    0.26       1.0  T
  14   -232.1474870 -0.705197E-01  0.947E-01    0.26       1.0  T
  15   -232.1058029  0.416841E-01  0.115E+00    0.23       1.0  T
  16   -232.0516866  0.541163E-01  0.137E+00    0.21       1.0  T
  17   -232.1994633 -0.147777E+00  0.818E-01    0.22       1.0  T
  18   -232.2106751 -0.112118E-01  0.722E-01    0.22       1.0  T
  19   -232.1859660  0.247092E-01  0.823E-01    0.23       1.0  T
  20   -232.2177246 -0.317587E-01  0.537E-01    0.24       1.0  T
  21   -232.2321424 -0.144178E-01  0.422E-01    0.24       1.0  T
  22   -232.2410564 -0.891398E-02  0.325E-01    0.24       1.0  T
  23   -232.2222839  0.187725E-01  0.489E-01    0.23       1.0  T
  24   -232.1655413  0.567426E-01  0.827E-01    0.23       1.0  T
  25   -232.1935131 -0.279718E-01  0.682E-01    0.23       1.0  T
  26   -232.2217333 -0.282202E-01  0.487E-01    0.23       1.0  T
  27   -232.2277769 -0.604357E-02  0.434E-01    0.22       1.0  T
  28   -232.2431816 -0.154048E-01  0.283E-01    0.22       1.0  T
  29   -232.2463927 -0.321105E-02  0.226E-01    0.22       1.0  T
  30   -232.2474673 -0.107466E-02  0.193E-01    0.22       1.0  T
  31   -232.2407322  0.673515E-02  0.298E-01    0.22       1.0  T
  32   -232.2419925 -0.126028E-02  0.279E-01    0.22       1.0  T
  33   -232.2491904 -0.719793E-02  0.131E-01    0.22       1.0  T
  34   -232.2487774  0.413043E-03  0.142E-01    0.22       1.0  T
  35   -232.2503536 -0.157629E-02  0.739E-02    0.21       1.0  T
  36   -232.2506932 -0.339528E-03  0.514E-02    0.21       1.0  T
  37   -232.2506708  0.223997E-04  0.521E-02    0.21       1.0  T
  38   -232.2507505 -0.797195E-04  0.434E-02    0.21       1.0  T
  39   -232.2509111 -0.160633E-03  0.220E-02    0.21       1.0  T
  40   -232.2509492 -0.380493E-04  0.107E-02    0.21       1.0  T
  41   -232.2509507 -0.156258E-05  0.102E-02    0.21       1.0  T
  42   -232.2509528 -0.202657E-05  0.845E-03    0.21       1.0  T
  43   -232.2509586 -0.580503E-05  0.511E-03    0.21       1.7  T
  44   -232.2509605 -0.194718E-05  0.301E-03    0.21       2.9  T
  45   -232.2509611 -0.557045E-06  0.192E-03    0.21       4.6  T
  46   -232.2509613 -0.239700E-06  0.125E-03    0.21       7.1  T
  47   -232.2509614 -0.106896E-06  0.719E-04    0.21      12.2  T
  48   -232.2509615 -0.289909E-07  0.412E-04    0.21      21.4  T

   *** convergence criteria satisfied after 48 iterations ***

         #    Occupation            Energy/Eh            Energy/eV
      -------------------------------------------------------------
         1        2.0000           -0.7948133             -21.6280
       ...           ...                  ...                  ...
       178        1.9201           -0.4316806             -11.7466
       179        1.8408           -0.4309397             -11.7265
       180        1.7659           -0.4304844             -11.7141
       181        1.5678           -0.4296175             -11.6905
       182        1.2896           -0.4285058             -11.6602
       183        1.1404           -0.4276370             -11.6366
       184        0.9837           -0.3832631             -10.4291 (HOMO)
       185        0.0163           -0.3754691             -10.2170 (LUMO)
       186                         -0.1258535              -3.4246
       187                         -0.0532670              -1.4495
       188                         -0.0479550              -1.3049
       189                         -0.0010360              -0.0282
       ...                                ...                  ...
       280                          2.9757895              80.9754
      -------------------------------------------------------------
                  HL-Gap            0.0077940 Eh            0.2121 eV
             Fermi-level           -0.4043622 Eh          -11.0033 eV

 SCC (total)                   0 d,  0 h,  0 min,  0.749 sec
 SCC setup                      ...        0 min,  0.003 sec (  0.352%)
 Dispersion                     ...        0 min,  0.002 sec (  0.207%)
 classical contributions        ...        0 min,  0.001 sec (  0.081%)
 integral evaluation            ...        0 min,  0.007 sec (  0.981%)
 iterations                     ...        0 min,  0.656 sec ( 87.551%)
 molecular gradient             ...        0 min,  0.080 sec ( 10.644%)
 printout                       ...        0 min,  0.001 sec (  0.180%)

         :::::::::::::::::::::::::::::::::::::::::::::::::::::
         ::                     SUMMARY                     ::
         :::::::::::::::::::::::::::::::::::::::::::::::::::::
         :: total energy            -229.877999551930 Eh    ::
         :: total w/o Gsasa/hb      -229.623530335584 Eh    ::
         :: gradient norm              0.774618104179 Eh/a0 ::
         :: HOMO-LUMO gap              0.212085221310 eV    ::
         ::.................................................::
         :: SCC energy              -232.250961451960 Eh    ::
         :: -> isotropic ES            1.667670434566 Eh    ::
         :: -> anisotropic ES         -0.079240698613 Eh    ::
         :: -> anisotropic XC         -0.047334190197 Eh    ::
         :: -> dispersion             -0.057051553501 Eh    ::
         :: -> Gsolv                  -0.710771038783 Eh    ::
         ::    -> Gelec               -0.456301822437 Eh    ::
         ::    -> Gsasa                0.042675654809 Eh    ::
         ::    -> Ghb                 -0.298225630853 Eh    ::
         ::    -> Gshift               0.001080759698 Eh    ::
         :: repulsion energy           2.370184844545 Eh    ::
         :: add. restraining           0.000000000000 Eh    ::
         :: total charge               2.000000000000 e     ::
         :::::::::::::::::::::::::::::::::::::::::::::::::::::


last geometry written to: xtblast.xyz

########################################################################
[ERROR] Program stopped due to fatal error
-7- Geometry optimization failed
-6- xtb_geoopt: Trying to recover from failed geometry optimization
-5- xtb_geoopt: Geometry optimization did not converge
-4- optimizer_ancopt: Could not relax structure
-3- optimizer_relax: SCF not converged, aborting...
-2- xtb_calculator_singlepoint: Electronic structure method terminated
-1- scf: Self consistent charge iterator did not converge
########################################################################
