129
 energy: -229.877999563396 gnorm: 0.774617318132 xtb: 6.6.0 (conda-forge)
Fe           0.00000000000000        0.00000000000000        0.00000000000000
O            0.00000000000000        2.08000000000000        0.00000000000000
S            0.00000000000000        3.55430600000000        0.00000000000000
O           -1.38823200000000        3.92719700000000       -0.26400200000000
O            0.46578900000000        3.90985700000000        1.34499400000000
O            0.91978900000000        3.91554400000000       -1.07367800000000
O            2.08000000000000        0.00000000000000        0.00000000000000
H            1.52424400000000       -0.02259200000000        0.80343300000000
H            1.43353600000000        0.22924200000000       -0.68805400000000
O            0.00000000000000       -2.08000000000000        0.00000000000000
H            0.20202300000000       -1.54178300000000        0.79136600000000
H            0.33009900000000       -1.49990600000000       -0.71230600000000
O           -2.08000000000000        0.00000000000000        0.00000000000000
H           -2.00689700000000       -0.90677900000000        0.35564800000000
H           -1.45394600000000       -0.10154900000000       -0.74536700000000
O            0.00000000000000        0.00000000000000        2.08000000000000
H            0.17895900000000        0.81018900000000        2.58894100000000
H           -0.78249900000000        0.27160700000000        1.55179400000000
O            0.00000000000000        0.00000000000000       -2.08000000000000
H           -0.66553200000000        0.58310200000000       -2.48925200000000
H            0.75138400000000        0.10825300000000       -2.69036800000000
O            0.00644532517107        6.20387716370069        0.01609551649752
H            0.90644532517107        6.20387716370069        0.01609551649752
H           -0.28656601384037        7.05484388174008        0.01609551649752
O           -2.35462275670531        5.17364745311591        2.17642436318169
H           -1.45462275670531        5.17364745311591        2.17642436318169
H           -2.64763409571675        6.02461417115530        2.17642436318169
O            0.38197986249974        4.25065052823181       -4.27741035426589
H            1.28197986249974        4.25065052823181       -4.27741035426589
H            0.08896852348830        5.10161724627119       -4.27741035426589
O            2.95137625587234        3.25903005818829        3.85458432879727
H            3.85137625587234        3.25903005818829        3.85458432879727
H            2.65836491686090        4.10999677622767        3.85458432879727
O           -5.23506861353375        2.41172018911876       -0.91636072998227
H           -4.33506861353375        2.41172018911876       -0.91636072998227
H           -5.52807995254519        3.26268690715814       -0.91636072998227
O            4.65337212634489        1.54840937288522       -2.94908979553216
H            5.55337212634490        1.54840937288522       -2.94908979553216
H            4.36036078733345        2.39937609092460       -2.94908979553216
O           -1.42956687086178        0.72392914260112        5.33462179657312
H           -0.52956687086178        0.72392914260112        5.33462179657312
H           -1.72257820987322        1.57489586064050        5.33462179657312
O           -2.57799541356920       -0.07556178962176       -4.96216968485786
H           -1.67799541356920       -0.07556178962176       -4.96216968485786
H           -2.87100675258064        0.77540492841762       -4.96216968485786
O            5.01469820011905       -0.81970035056543        1.83527007815816
H            5.91469820011905       -0.81970035056543        1.83527007815816
H            4.72168686110761        0.03126636747396        1.83527007815816
O           -4.73140454343596       -1.56986026199647        1.95772681066411
H           -3.83140454343596       -1.56986026199647        1.95772681066411
H           -5.02441588244740       -0.71889354395708        1.95772681066411
O            2.02876508479528       -2.30600813691259       -4.32897495192456
H            2.92876508479528       -2.30600813691259       -4.32897495192456
H            1.73575374578384       -1.45504141887321       -4.32897495192456
O            1.26053739903811       -2.94770789980592        4.01837211080269
H            2.16053739903811       -2.94770789980592        4.01837211080269
H            0.96752606002667       -2.09674118176654        4.01837211080269
O           -3.10359696456499       -3.67770731590824       -1.79746309389096
H           -2.20359696456499       -3.67770731590824       -1.79746309389096
H           -3.39660830357644       -2.82674059786886       -1.79746309389096
O            2.52410995006066       -4.30272623949171       -0.55469852598597
H            3.42410995006066       -4.30272623949171       -0.55469852598597
H            2.23109861104922       -3.45175952145232       -0.55469852598597
O           -0.00023488656560       -4.94347003748815       -0.00058656785986
H            0.89976511343440       -4.94347003748815       -0.00058656785986
H           -0.29324622557704       -4.09250331944876       -0.00058656785986
O           -0.01999090744500        8.25965625523610        0.00886870493548
H            0.88000909255500        8.25965625523610        0.00886870493548
H           -0.31300224645644        9.11062297327548        0.00886870493548
O           -2.66229540240560        7.31199863045768        2.43037289171278
H           -1.76229540240560        7.31199863045768        2.43037289171278
H           -2.95530674141704        8.16296534849706        2.43037289171278
O            0.41488131626002        6.51485612622115       -4.93023105666497
H            1.31488131626002        6.51485612622115       -4.93023105666497
H            0.12186997724858        7.36582284426053       -4.93023105666497
O            3.53455488475971        5.63352203402750        4.64032084555731
H            4.43455488475971        5.63352203402750        4.64032084555731
H            3.24154354574827        6.48448875206689        4.64032084555731
O           -6.30884033913161        4.71947220394688       -1.10692954353061
H           -5.40884033913161        4.71947220394688       -1.10692954353061
H           -6.60185167814306        5.57043892198627       -1.10692954353061
O            5.92980286043912        3.98328739305260       -3.77526952478372
H            6.82980286043912        3.98328739305260       -3.77526952478372
H            5.63679152142768        4.83425411109199       -3.77526952478372
O           -1.88680754639061        3.08444760127581        6.97671052108469
H           -0.98680754639061        3.08444760127581        6.97671052108469
H           -2.17981888540205        3.93541431931519        6.97671052108469
O           -3.47867532956732        2.29828561673341       -6.66729856427995
H           -2.57867532956732        2.29828561673341       -6.66729856427995
H           -3.77168666857876        3.14925233477280       -6.66729856427995
O            7.27692292160493        1.51490754532995        2.66845791417099
H            8.17692292160493        1.51490754532995        2.66845791417099
H            6.98391158259349        2.36587426336933        2.66845791417099
O           -7.04257608082166        0.71598459320649        2.90736597909387
H           -6.14257608082166        0.71598459320649        2.90736597909387
H           -7.33558741983310        1.56695131124588        2.90736597909387
O            3.29651910548518       -0.06065278012731       -7.06448676747021
H            4.19651910548518       -0.06065278012731       -7.06448676747021
H            3.00350776647374        0.79031393791208       -7.06448676747021
O            2.26576407790944       -0.81224444693668        7.25773985102779
H            3.16576407790944       -0.81224444693668        7.25773985102779
H            1.97275273889800        0.03872227110271        7.25773985102779
O           -6.39216970896312       -1.54622035720076       -3.69641795146686
H           -5.49216970896312       -1.54622035720076       -3.69641795146686
H           -6.68518104797456       -0.69525363916137       -3.69641795146686
O            7.12105349742692       -2.34523940819250       -1.56339758601959
H            8.02105349742692       -2.34523940819250       -1.56339758601959
H            6.82804215841548       -1.49427269015311       -1.56339758601959
O           -3.90806059878102       -2.99147009743569        5.55302781160983
H           -3.00806059878102       -2.99147009743569        5.55302781160983
H           -4.20107193779246       -2.14050337939630        5.55302781160983
O           -0.83762651864016       -3.76749630103559       -6.40822208783871
H            0.06237348135984       -3.76749630103559       -6.40822208783871
H           -1.13063785765160       -2.91652958299621       -6.40822208783871
O            4.53547710034863       -4.48666036881190        3.83051883145264
H            5.43547710034863       -4.48666036881190        3.83051883145264
H            4.24246576133719       -3.63569365077251        3.83051883145264
O           -5.18896244880000       -5.10679093260828        0.21615452244338
H           -4.28896244880000       -5.10679093260828        0.21615452244338
H           -5.48197378781144       -4.25582421456889        0.21615452244338
O            3.11908578610616       -5.90269652956836       -3.10670579720031
H            4.01908578610616       -5.90269652956836       -3.10670579720031
H            2.82607444709472       -5.05172981152897       -3.10670579720031
O           -0.14856107434437       -6.51350829473600        3.14471923300534
H            0.75143892565563       -6.51350829473600        3.14471923300534
H           -0.44157241335581       -5.66254157669662        3.14471923300534
O           -0.00280888278905       -7.20581567834865        0.00124612415534
H            0.89719111721095       -7.20581567834865        0.00124612415534
H           -0.29582022180049       -6.35484896030927        0.00124612415534
