 Entering Gaussian System, Link 0=g16
 Input=Fe_CN6_minus2_LS.com
 Output=Fe_CN6_minus2_LS.log
 Initial command:
 /gpfs/fs1/soft/improv/software/custom-built/gaussian/g16/l1.exe "/scratch/Gau-3170243.inp" -scrdir="/scratch/"
 Default CPUs for threads: 0-127
 Default linda workers: i814.lcrc.anl.gov
 Default is to use 128 SMP processors on each worker.
 Entering Link 1 = /gpfs/fs1/soft/improv/software/custom-built/gaussian/g16/l1.exe PID=   3170244.
  
 Copyright (c) 1988-2021, Gaussian, Inc.  All Rights Reserved.
  
 This is part of the Gaussian(R) 16 program.  It is based on
 the Gaussian(R) 09 system (copyright 2009, Gaussian, Inc.),
 the Gaussian(R) 03 system (copyright 2003, Gaussian, Inc.),
 the Gaussian(R) 98 system (copyright 1998, Gaussian, Inc.),
 the Gaussian(R) 94 system (copyright 1995, Gaussian, Inc.),
 the Gaussian 92(TM) system (copyright 1992, Gaussian, Inc.),
 the Gaussian 90(TM) system (copyright 1990, Gaussian, Inc.),
 the Gaussian 88(TM) system (copyright 1988, Gaussian, Inc.),
 the Gaussian 86(TM) system (copyright 1986, Carnegie Mellon
 University), and the Gaussian 82(TM) system (copyright 1983,
 Carnegie Mellon University). Gaussian is a federally registered
 trademark of Gaussian, Inc.
  
 This software contains proprietary and confidential information,
 including trade secrets, belonging to Gaussian, Inc.
  
 This software is provided under written license and may be
 used, copied, transmitted, or stored only in accord with that
 written license.
  
 The following legend is applicable only to US Government
 contracts under FAR:
  
                    RESTRICTED RIGHTS LEGEND
  
 Use, reproduction and disclosure by the US Government is
 subject to restrictions as set forth in subparagraphs (a)
 and (c) of the Commercial Computer Software - Restricted
 Rights clause in FAR 52.227-19.
  
 Gaussian, Inc.
 340 Quinnipiac St., Bldg. 40, Wallingford CT 06492
  
  
 ---------------------------------------------------------------
 Warning -- This program may not be used in any manner that
 competes with the business of Gaussian, Inc. or will provide
 assistance to any competitor of Gaussian, Inc.  The licensee
 of this program is prohibited from giving any competitor of
 Gaussian, Inc. access to this program.  By using this program,
 the user acknowledges that Gaussian, Inc. is engaged in the
 business of creating and licensing software in the field of
 computational chemistry and represents and warrants to the
 licensee that it is not a competitor of Gaussian, Inc. and that
 it will not use this program in any manner prohibited above.
 ---------------------------------------------------------------
  

 Cite this work as:
 Gaussian 16, Revision C.02,
 M. J. Frisch, G. W. Trucks, H. B. Schlegel, G. E. Scuseria, 
 M. A. Robb, J. R. Cheeseman, G. Scalmani, V. Barone, 
 G. A. Petersson, H. Nakatsuji, X. Li, M. Caricato, A. V. Marenich, 
 J. Bloino, B. G. Janesko, R. Gomperts, B. Mennucci, H. P. Hratchian, 
 J. V. Ortiz, A. F. Izmaylov, J. L. Sonnenberg, D. Williams-Young, 
 F. Ding, F. Lipparini, F. Egidi, J. Goings, B. Peng, A. Petrone, 
 T. Henderson, D. Ranasinghe, V. G. Zakrzewski, J. Gao, N. Rega, 
 G. Zheng, W. Liang, M. Hada, M. Ehara, K. Toyota, R. Fukuda, 
 J. Hasegawa, M. Ishida, T. Nakajima, Y. Honda, O. Kitao, H. Nakai, 
 T. Vreven, K. Throssell, J. A. Montgomery, Jr., J. E. Peralta, 
 F. Ogliaro, M. J. Bearpark, J. J. Heyd, E. N. Brothers, K. N. Kudin, 
 V. N. Staroverov, T. A. Keith, R. Kobayashi, J. Normand, 
 K. Raghavachari, A. P. Rendell, J. C. Burant, S. S. Iyengar, 
 J. Tomasi, M. Cossi, J. M. Millam, M. Klene, C. Adamo, R. Cammi, 
 J. W. Ochterski, R. L. Martin, K. Morokuma, O. Farkas, 
 J. B. Foresman, and D. J. Fox, Gaussian, Inc., Wallingford CT, 2019.
 
 ******************************************
 Gaussian 16:  ES64L-G16RevC.02  7-Dec-2021
                22-Jul-2024 
 ******************************************
 %chk=Fe_CN6_minus2_LS
 SetSPE:  set environment variable "OMP_PROC_BIND" = "true"
 SetSPE:  set environment variable "OMP_PLACES" = "{0},{1},{2},{3},{4},{5},{6},{7},{8},{9},{10},{11},{12},{13},{14},{15},{16},{17},{18},{19},{20},{21},{22},{23},{24},{25},{26},{27},{28},{29},{30},{31},{32},{33},{34},{35},{36},{37},{38},{39},{40},{41},{42},{43},{44},{45},{46},{47},{48},{49},{50},{51},{52},{53},{54},{55},{56},{57},{58},{59},{60},{61},{62},{63},{64},{65},{66},{67},{68},{69},{70},{71},{72},{73},{74},{75},{76},{77},{78},{79},{80},{81},{82},{83},{84},{85},{86},{87},{88},{89},{90},{91},{92},{93},{94},{95},{96},{97},{98},{99},{100},{101},{102},{103},{104},{105},{106},{107},{108},{109},{110},{111},{112},{113},{114},{115},{116},{117},{118},{119},{120},{121},{122},{123},{124},{125},{126},{127}"
 SetLPE:    new flags="-opt 'Tsnet.Node.lindarsharg: ssh'  -nodelist 'i814.lcrc.anl.gov' -env GAUSS_MDEF=120795955200 -env GAUSS_EXEDIR="/gpfs/fs1/soft/improv/software/custom-built/gaussian/g16/bsd:/gpfs/fs1/soft/improv/software/custom-built/gaussian/g16" -env "OMP_PROC_BIND=true" -env "OMP_PLACES={0},{1},{2},{3},{4},{5},{6},{7},{8},{9},{10},{11},{12},{13},{14},{15},{16},{17},{18},{19},{20},{21},{22},{23},{24},{25},{26},{27},{28},{29},{30},{31},{32},{33},{34},{35},{36},{37},{38},{39},{40},{41},{42},{43},{44},{45},{46},{47},{48},{49},{50},{51},{52},{53},{54},{55},{56},{57},{58},{59},{60},{61},{62},{63},{64},{65},{66},{67},{68},{69},{70},{71},{72},{73},{74},{75},{76},{77},{78},{79},{80},{81},{82},{83},{84},{85},{86},{87},{88},{89},{90},{91},{92},{93},{94},{95},{96},{97},{98},{99},{100},{101},{102},{103},{104},{105},{106},{107},{108},{109},{110},{111},{112},{113},{114},{115},{116},{117},{118},{119},{120},{121},{122},{123},{124},{125},{126},{127}" -env GAUSS_ADEF="0,1,2,3,4,5,6,7,8,9,10,11,12,13,14,15,16,17,18,19,20,21,22,23,24,25,26,27,28,29,30,31,32,33,34,35,36,37,38,39,40,41,42,43,44,45,46,47,48,49,50,51,52,53,54,55,56,57,58,59,60,61,62,63,64,65,66,67,68,69,70,71,72,73,74,75,76,77,78,79,80,81,82,83,84,85,86,87,88,89,90,91,92,93,94,95,96,97,98,99,100,101,102,103,104,105,106,107,108,109,110,111,112,113,114,115,116,117,118,119,120,121,122,123,124,125,126,127""
 Will use up to    1 processors via Linda.
 ----------------------------------------------------------------------
 #p uB3LYP 6-31+G(2df,p) empiricaldispersion=gd3 opt=(cartesian,calcall
 ,maxcycles=500) freq scf=(maxcycles=500,xqc,maxconventional=500,NoSymm
 )
 ----------------------------------------------------------------------
 1/6=500,10=4,18=10,26=3,38=1/1,3;
 2/12=2,17=6,18=5,29=2,40=1/2;
 3/5=1,6=6,7=114,11=2,25=1,30=1,71=2,74=-5,116=2,124=31,140=1/1,2,3;
 4/9=2/1;
 5/5=2,7=500,8=3,13=1,38=5,85=500/2,8;
 8/6=4,10=90,11=11/1;
 11/6=1,8=1,9=11,15=111,16=1/1,2,10;
 10/6=1/2;
 6/7=2,8=2,9=2,10=2,18=1,28=1/1;
 7/7=1,10=1,25=1/1,2,3,16;
 1/6=500,10=4,18=10,26=3/3(3);
 2/29=1/2;
 7/7=1,8=1,9=1,25=1,44=-1/16;
 99/12=1/99;
 2/29=1/2;
 3/5=1,6=6,7=114,11=2,25=1,30=1,71=2,74=-5,116=2,124=31,140=1/1,2,3;
 4/5=5,9=2,16=3,69=1/1;
 5/5=2,7=500,8=3,13=1,38=5,85=500/2,8;
 8/6=4,10=90,11=11/1;
 11/6=1,8=1,9=11,15=111,16=1/1,2,10;
 10/6=1/2;
 7/7=1,10=1,25=1/1,2,3,16;
 1/6=500,10=4,18=10,26=3/3(-8);
 2/29=1/2;
 6/7=2,8=2,9=2,10=2,18=1,19=2,28=1/1;
 7/7=1,8=1,9=1,25=1,44=-1/16;
 99/12=1/99;
 Leave Link    1 at Mon Jul 22 22:00:58 2024, MaxMem=           0 cpu:               1.4 elap:               0.0
 (Enter /gpfs/fs1/soft/improv/software/custom-built/gaussian/g16/l101.exe)
 -----
 title
 -----
 Symbolic Z-matrix:
 Charge = -4 Multiplicity = 1
 Fe                   -0.36271  -0.38107   0. 
 C                    -0.36271   1.54893   0. 
 C                     1.56729  -0.38107   0. 
 C                    -0.36271  -0.38107   1.93 
 C                    -0.36271  -2.31107   0. 
 C                    -2.29271  -0.38107   0. 
 C                    -0.36271  -0.38107  -1.93 
 N                    -0.36271   2.69553   0. 
 N                     2.71389  -0.38107   0. 
 N                    -0.36271  -0.38107   3.0766 
 N                    -0.36271  -3.45767   0. 
 N                    -3.43931  -0.38107   0. 
 N                    -0.36271  -0.38107  -3.0766 
 
 ITRead=  0  0  0  0  0  0  0  0  0  0  0  0  0
 MicOpt= -1 -1 -1 -1 -1 -1 -1 -1 -1 -1 -1 -1 -1
 NAtoms=     13 NQM=       13 NQMF=       0 NMMI=      0 NMMIF=      0
                NMic=       0 NMicF=      0.
                    Isotopes and Nuclear Properties:
 (Nuclear quadrupole moments (NQMom) in fm**2, nuclear magnetic moments (NMagM)
  in nuclear magnetons)

  Atom         1           2           3           4           5           6           7           8           9          10
 IAtWgt=          56          12          12          12          12          12          12          14          14          14
 AtmWgt=  55.9349393  12.0000000  12.0000000  12.0000000  12.0000000  12.0000000  12.0000000  14.0030740  14.0030740  14.0030740
 NucSpn=           0           0           0           0           0           0           0           2           2           2
 AtZEff=  -0.0000000  -0.0000000  -0.0000000  -0.0000000  -0.0000000  -0.0000000  -0.0000000  -0.0000000  -0.0000000  -0.0000000
 NQMom=    0.0000000   0.0000000   0.0000000   0.0000000   0.0000000   0.0000000   0.0000000   2.0440000   2.0440000   2.0440000
 NMagM=    0.0000000   0.0000000   0.0000000   0.0000000   0.0000000   0.0000000   0.0000000   0.4037610   0.4037610   0.4037610
 AtZNuc=  26.0000000   6.0000000   6.0000000   6.0000000   6.0000000   6.0000000   6.0000000   7.0000000   7.0000000   7.0000000

  Atom        11          12          13
 IAtWgt=          14          14          14
 AtmWgt=  14.0030740  14.0030740  14.0030740
 NucSpn=           2           2           2
 AtZEff=  -0.0000000  -0.0000000  -0.0000000
 NQMom=    2.0440000   2.0440000   2.0440000
 NMagM=    0.4037610   0.4037610   0.4037610
 AtZNuc=   7.0000000   7.0000000   7.0000000
 Leave Link  101 at Mon Jul 22 22:00:58 2024, MaxMem=120795955200 cpu:               0.4 elap:               0.0
 (Enter /gpfs/fs1/soft/improv/software/custom-built/gaussian/g16/l103.exe)

 GradGradGradGradGradGradGradGradGradGradGradGradGradGradGradGradGradGrad
 Berny optimization.
 Initialization pass.
 No Z-matrix variables, so optimization will use Cartesian coordinates.
 Trust Radius=3.00D-01 FncErr=1.00D-07 GrdErr=1.00D-06 EigMax=2.50D+02 EigMin=1.00D-04
 Number of steps in this run=    100 maximum allowed number of steps=    100.
 GradGradGradGradGradGradGradGradGradGradGradGradGradGradGradGradGradGrad

 Leave Link  103 at Mon Jul 22 22:00:59 2024, MaxMem=120795955200 cpu:               0.4 elap:               0.0
 (Enter /gpfs/fs1/soft/improv/software/custom-built/gaussian/g16/l202.exe)
 ---------------------------------------------------------------------------------------------------
                            Z-MATRIX (ANGSTROMS AND DEGREES)
   CD    Cent   Atom    N1       Length/X        N2       Alpha/Y        N3        Beta/Z          J
 ---------------------------------------------------------------------------------------------------
      1      1  Fe       0  -0.362706         -0.381071          0.000000
      2      2  C        0  -0.362706          1.548929          0.000000
      3      3  C        0   1.567294         -0.381071          0.000000
      4      4  C        0  -0.362706         -0.381071          1.930000
      5      5  C        0  -0.362706         -2.311071          0.000000
      6      6  C        0  -2.292706         -0.381071          0.000000
      7      7  C        0  -0.362706         -0.381071         -1.930000
      8      8  N        0  -0.362706          2.695529         -0.000000
      9      9  N        0   2.713894         -0.381071          0.000000
     10     10  N        0  -0.362706         -0.381071          3.076600
     11     11  N        0  -0.362706         -3.457671          0.000000
     12     12  N        0  -3.439306         -0.381071          0.000000
     13     13  N        0  -0.362706         -0.381071         -3.076600
 ---------------------------------------------------------------------------------------------------
                         Z-Matrix orientation:                         
 ---------------------------------------------------------------------
 Center     Atomic      Atomic             Coordinates (Angstroms)
 Number     Number       Type             X           Y           Z
 ---------------------------------------------------------------------
      1         26           0       -0.362706   -0.381071    0.000000
      2          6           0       -0.362706    1.548929    0.000000
      3          6           0        1.567294   -0.381071    0.000000
      4          6           0       -0.362706   -0.381071    1.930000
      5          6           0       -0.362706   -2.311071    0.000000
      6          6           0       -2.292706   -0.381071    0.000000
      7          6           0       -0.362706   -0.381071   -1.930000
      8          7           0       -0.362706    2.695529   -0.000000
      9          7           0        2.713894   -0.381071    0.000000
     10          7           0       -0.362706   -0.381071    3.076600
     11          7           0       -0.362706   -3.457671    0.000000
     12          7           0       -3.439306   -0.381071    0.000000
     13          7           0       -0.362706   -0.381071   -3.076600
 ---------------------------------------------------------------------
                    Distance matrix (angstroms):
                    1          2          3          4          5
     1  Fe   0.000000
     2  C    1.930000   0.000000
     3  C    1.930000   2.729432   0.000000
     4  C    1.930000   2.729432   2.729432   0.000000
     5  C    1.930000   3.860000   2.729432   2.729432   0.000000
     6  C    1.930000   2.729432   3.860000   2.729432   2.729432
     7  C    1.930000   2.729432   2.729432   3.860000   2.729432
     8  N    3.076600   1.146600   3.631855   3.631855   5.006600
     9  N    3.076600   3.631855   1.146600   3.631855   3.631855
    10  N    3.076600   3.631855   3.631855   1.146600   3.631855
    11  N    3.076600   5.006600   3.631855   3.631855   1.146600
    12  N    3.076600   3.631855   5.006600   3.631855   3.631855
    13  N    3.076600   3.631855   3.631855   5.006600   3.631855
                    6          7          8          9         10
     6  C    0.000000
     7  C    2.729432   0.000000
     8  N    3.631855   3.631855   0.000000
     9  N    5.006600   3.631855   4.350969   0.000000
    10  N    3.631855   5.006600   4.350969   4.350969   0.000000
    11  N    3.631855   3.631855   6.153200   4.350969   4.350969
    12  N    1.146600   3.631855   4.350969   6.153200   4.350969
    13  N    3.631855   1.146600   4.350969   4.350969   6.153200
                   11         12         13
    11  N    0.000000
    12  N    4.350969   0.000000
    13  N    4.350969   4.350969   0.000000
 Stoichiometry    C6FeN6(4-)
 Framework group  OH[O(Fe),3C4(NC.CN)]
 Deg. of freedom     2
 Full point group                 OH      NOp  48
 Largest Abelian subgroup         D2H     NOp   8
 Largest concise Abelian subgroup D2H     NOp   8
                         Standard orientation:                         
 ---------------------------------------------------------------------
 Center     Atomic      Atomic             Coordinates (Angstroms)
 Number     Number       Type             X           Y           Z
 ---------------------------------------------------------------------
      1         26           0        0.000000    0.000000    0.000000
      2          6           0        0.000000    0.000000    1.930000
      3          6           0        0.000000    1.930000   -0.000000
      4          6           0        1.930000    0.000000    0.000000
      5          6           0        0.000000   -0.000000   -1.930000
      6          6           0        0.000000   -1.930000    0.000000
      7          6           0       -1.930000    0.000000   -0.000000
      8          7           0        0.000000    0.000000    3.076600
      9          7           0        0.000000    3.076600   -0.000000
     10          7           0        3.076600    0.000000    0.000000
     11          7           0        0.000000   -0.000000   -3.076600
     12          7           0        0.000000   -3.076600    0.000000
     13          7           0       -3.076600    0.000000   -0.000000
 ---------------------------------------------------------------------
 Rotational constants (GHZ):           0.7128277           0.7128277           0.7128277
 Leave Link  202 at Mon Jul 22 22:00:59 2024, MaxMem=120795955200 cpu:               1.2 elap:               0.0
 (Enter /gpfs/fs1/soft/improv/software/custom-built/gaussian/g16/l301.exe)
 Standard basis: 6-31+G(2df,p) (6D, 7F)
 Ernie: Thresh=  0.10000D-02 Tol=  0.10000D-05 Strict=F.
 There are   117 symmetry adapted cartesian basis functions of AG  symmetry.
 There are    44 symmetry adapted cartesian basis functions of B1G symmetry.
 There are    44 symmetry adapted cartesian basis functions of B2G symmetry.
 There are    44 symmetry adapted cartesian basis functions of B3G symmetry.
 There are    20 symmetry adapted cartesian basis functions of AU  symmetry.
 There are    76 symmetry adapted cartesian basis functions of B1U symmetry.
 There are    76 symmetry adapted cartesian basis functions of B2U symmetry.
 There are    76 symmetry adapted cartesian basis functions of B3U symmetry.
 There are   108 symmetry adapted basis functions of AG  symmetry.
 There are    39 symmetry adapted basis functions of B1G symmetry.
 There are    39 symmetry adapted basis functions of B2G symmetry.
 There are    39 symmetry adapted basis functions of B3G symmetry.
 There are    20 symmetry adapted basis functions of AU  symmetry.
 There are    68 symmetry adapted basis functions of B1U symmetry.
 There are    68 symmetry adapted basis functions of B2U symmetry.
 There are    68 symmetry adapted basis functions of B3U symmetry.
   449 basis functions,   718 primitive gaussians,   497 cartesian basis functions
    54 alpha electrons       54 beta electrons
       nuclear repulsion energy       916.9876679413 Hartrees.
 IExCor=  402 DFT=T Ex+Corr=B3LYP ExCW=0 ScaHFX=  0.200000
 ScaDFX=  0.800000  0.720000  1.000000  0.810000 ScalE2=  1.000000  1.000000
 IRadAn=      5 IRanWt=     -1 IRanGd=            0 ICorTp=0 IEmpDi=131
 NAtoms=   13 NActive=   13 NUniq=    3 SFac= 4.00D+00 NAtFMM=   60 NAOKFM=F Big=F
 Integral buffers will be    131072 words long.
 Raffenetti 2 integral format.
 Two-electron integral symmetry is turned on.
 R6Disp:  Grimme-D3 Dispersion energy=       -0.0150927704 Hartrees.
 Nuclear repulsion after empirical dispersion term =      916.9725751708 Hartrees.
 Leave Link  301 at Mon Jul 22 22:00:59 2024, MaxMem=120795955200 cpu:               0.4 elap:               0.0
 (Enter /gpfs/fs1/soft/improv/software/custom-built/gaussian/g16/l302.exe)
 NPDir=0 NMtPBC=     1 NCelOv=     1 NCel=       1 NClECP=     1 NCelD=      1
         NCelK=      1 NCelE2=     1 NClLst=     1 CellRange=     0.0.
 One-electron integrals computed using PRISM.
 One-electron integral symmetry used in STVInt
 NBasis=   449 RedAO= T EigKep=  3.68D-06  NBF=   108    39    39    39    20    68    68    68
 NBsUse=   446 1.00D-06 EigRej=  6.93D-08 NBFU=   108    39    39    39    20    67    67    67
 Precomputing XC quadrature grid using
 IXCGrd= 4 IRadAn=           5 IRanWt=          -1 IRanGd=           0 AccXCQ= 0.00D+00.
 Generated NRdTot=       0 NPtTot=           0 NUsed=           0 NTot=          32
 NSgBfM=   495   495   495   495   495 MxSgAt=    13 MxSgA2=    13.
 Leave Link  302 at Mon Jul 22 22:00:59 2024, MaxMem=120795955200 cpu:              65.4 elap:               0.6
 (Enter /gpfs/fs1/soft/improv/software/custom-built/gaussian/g16/l303.exe)
 DipDrv:  MaxL=1.
 Leave Link  303 at Mon Jul 22 22:00:59 2024, MaxMem=120795955200 cpu:               1.3 elap:               0.1
 (Enter /gpfs/fs1/soft/improv/software/custom-built/gaussian/g16/l401.exe)
 SCF N**3 symmetry information disabled.
 ExpMin= 1.26D-02 ExpMax= 6.11D+04 ExpMxC= 9.18D+03 IAcc=3 IRadAn=         5 AccDes= 0.00D+00
 Harris functional with IExCor=  402 and IRadAn=       5 diagonalized for initial guess.
 HarFok:  IExCor=  402 AccDes= 0.00D+00 IRadAn=         5 IDoV= 1 UseB2=F ITyADJ=14
 ICtDFT=  3500011 ScaDFX=  1.000000  1.000000  1.000000  1.000000
 FoFCou: FMM=F IPFlag=           0 FMFlag=      100000 FMFlg1=           0
         NFxFlg=           0 DoJE=T BraDBF=F KetDBF=T FulRan=T
         wScrn=  0.000000 ICntrl=       500 IOpCl=  0 I1Cent=   200000004 NGrid=           0
         NMat0=    1 NMatS0=      1 NMatT0=    0 NMatD0=    1 NMtDS0=    0 NMtDT0=    0
 Petite list used in FoFCou.
 Harris En= -1821.77811139888    
 JPrj=0 DoOrth=F DoCkMO=F.
 Initial guess orbital symmetries:
 Alpha Orbitals:
       Occupied  (A1G) (A1G) (T1U) (T1U) (T1U) (A1G) (T1U) (T1U)
                 (T1U) (EG) (EG) (A1G) (T1U) (T1U) (T1U) (EG) (EG)
                 (A1G) (T1U) (T1U) (T1U) (A1G) (T1U) (T1U) (T1U)
                 (EG) (EG) (A1G) (EG) (EG) (T1U) (T1U) (T1U) (T2G)
                 (T2G) (T2G) (A1G) (T1U) (T1U) (T1U) (EG) (EG)
                 (T2U) (T2U) (T2U) (T1G) (T1G) (T1G) (T1U) (T1U)
                 (T1U) (T2G) (T2G) (T2G)
       Virtual   (EG) (EG) (T1U) (T1U) (T1U) (T2G) (T2G) (T2G)
                 (T2U) (T2U) (T2U) (T1G) (T1G) (T1G) (A1G) (T1U)
                 (T1U) (T1U) (A1G) (EG) (EG) (T2G) (T2G) (T2G)
                 (T1U) (T1U) (T1U) (T2U) (T2U) (T2U) (A1G) (EG)
                 (EG) (T1G) (T1G) (T1G) (T1U) (T1U) (T1U) (A1G)
                 (T1U) (T1U) (T1U) (T2G) (T2G) (T2G) (EG) (EG)
                 (T2U) (T2U) (T2U) (T1U) (T1U) (T1U) (T1U) (T1U)
                 (T1U) (EG) (EG) (T1G) (T1G) (T1G) (A1G) (T1U)
                 (T1U) (T1U) (A1G) (A1G) (T1U) (T1U) (T1U) (T2G)
                 (T2G) (T2G) (EG) (EG) (T1U) (T1U) (T1U) (A2U)
                 (T2U) (T2U) (T2U) (EG) (EG) (T2G) (T2G) (T2G)
                 (A1G) (EU) (EU) (EG) (EG) (A2G) (T1U) (T1U) (T1U)
                 (T2U) (T2U) (T2U) (T2G) (T2G) (T2G) (T1G) (T1G)
                 (T1G) (T1U) (T1U) (T1U) (T2G) (T2G) (T2G) (A1G)
                 (T2U) (T2U) (T2U) (A2U) (T2U) (T2U) (T2U) (T1U)
                 (T1U) (T1U) (EG) (EG) (T1U) (T1U) (T1U) (EG) (EG)
                 (A1G) (T1G) (T1G) (T1G) (T2G) (T2G) (T2G) (A1G)
                 (EU) (EU) (T1U) (T1U) (T1U) (T1G) (T1G) (T1G)
                 (A2G) (T2U) (T2U) (T2U) (T2G) (T2G) (T2G) (EG)
                 (EG) (T1U) (T1U) (T1U) (T2U) (T2U) (T2U) (T2G)
                 (T2G) (T2G) (A2U) (T1U) (T1U) (T1U) (EG) (EG)
                 (A1G) (T1U) (T1U) (T1U) (EG) (EG) (EG) (EG) (T1G)
                 (T1G) (T1G) (A1G) (T1U) (T1U) (T1U) (T2U) (T2U)
                 (T2U) (T1U) (T1U) (T1U) (T2G) (T2G) (T2G) (A1G)
                 (EG) (EG) (T1U) (T1U) (T1U) (A1G) (T1G) (T1G)
                 (T1G) (T2U) (T2U) (T2U) (T2G) (T2G) (T2G) (EU)
                 (EU) (T2G) (T2G) (T2G) (A2G) (T2U) (T2U) (T2U)
                 (T1U) (T1U) (T1U) (EG) (EG) (A2U) (T1U) (T1U)
                 (T1U) (EG) (EG) (T1G) (T1G) (T1G) (T2U) (T2U)
                 (T2U) (T2G) (T2G) (T2G) (T1U) (T1U) (T1U) (T2G)
                 (T2G) (T2G) (A1G) (T1U) (T1U) (T1U) (T2U) (T2U)
                 (T2U) (T1G) (T1G) (T1G) (T2G) (T2G) (T2G) (EG)
                 (EG) (T1U) (T1U) (T1U) (T2U) (T2U) (T2U) (EG)
                 (EG) (T1U) (T1U) (T1U) (T1G) (T1G) (T1G) (A1G)
                 (A2U) (EU) (EU) (A2G) (T2G) (T2G) (T2G) (T2U)
                 (T2U) (T2U) (EG) (EG) (A2U) (T1U) (T1U) (T1U)
                 (A1G) (T2G) (T2G) (T2G) (EU) (EU) (A2G) (T2U)
                 (T2U) (T2U) (EG) (EG) (A2U) (EU) (EU) (T2U) (T2U)
                 (T2U) (T2G) (T2G) (T2G) (T1G) (T1G) (T1G) (A2G)
                 (T1U) (T1U) (T1U) (T2G) (T2G) (T2G) (EG) (EG)
                 (T2U) (T2U) (T2U) (T1U) (T1U) (T1U) (T2G) (T2G)
                 (T2G) (EG) (EG) (A1G) (T1G) (T1G) (T1G) (A2U)
                 (EG) (EG) (T1U) (T1U) (T1U) (T2U) (T2U) (T2U)
                 (T2G) (T2G) (T2G) (T1U) (T1U) (T1U) (T2U) (T2U)
                 (T2U) (T1U) (T1U) (T1U) (T1G) (T1G) (T1G) (A1G)
                 (A1G) (EG) (EG) (T1U) (T1U) (T1U) (EG) (EG) (A1G)
                 (T1U) (T1U) (T1U) (EG) (EG) (A1G) (T1U) (T1U)
                 (T1U) (A1G) (EG) (EG) (A1G) (EG) (EG) (T1U) (T1U)
                 (T1U) (A1G)
 Beta  Orbitals:
       Occupied  (A1G) (A1G) (T1U) (T1U) (T1U) (A1G) (T1U) (T1U)
                 (T1U) (EG) (EG) (A1G) (T1U) (T1U) (T1U) (EG) (EG)
                 (A1G) (T1U) (T1U) (T1U) (A1G) (T1U) (T1U) (T1U)
                 (EG) (EG) (A1G) (EG) (EG) (T1U) (T1U) (T1U) (T2G)
                 (T2G) (T2G) (A1G) (T1U) (T1U) (T1U) (EG) (EG)
                 (T2U) (T2U) (T2U) (T1G) (T1G) (T1G) (T1U) (T1U)
                 (T1U) (T2G) (T2G) (T2G)
       Virtual   (EG) (EG) (T1U) (T1U) (T1U) (T2G) (T2G) (T2G)
                 (T2U) (T2U) (T2U) (T1G) (T1G) (T1G) (A1G) (T1U)
                 (T1U) (T1U) (A1G) (EG) (EG) (T2G) (T2G) (T2G)
                 (T1U) (T1U) (T1U) (T2U) (T2U) (T2U) (A1G) (EG)
                 (EG) (T1G) (T1G) (T1G) (T1U) (T1U) (T1U) (A1G)
                 (T1U) (T1U) (T1U) (T2G) (T2G) (T2G) (EG) (EG)
                 (T2U) (T2U) (T2U) (T1U) (T1U) (T1U) (T1U) (T1U)
                 (T1U) (EG) (EG) (T1G) (T1G) (T1G) (A1G) (T1U)
                 (T1U) (T1U) (A1G) (A1G) (T1U) (T1U) (T1U) (T2G)
                 (T2G) (T2G) (EG) (EG) (T1U) (T1U) (T1U) (A2U)
                 (T2U) (T2U) (T2U) (EG) (EG) (T2G) (T2G) (T2G)
                 (A1G) (EU) (EU) (EG) (EG) (A2G) (T1U) (T1U) (T1U)
                 (T2U) (T2U) (T2U) (T2G) (T2G) (T2G) (T1G) (T1G)
                 (T1G) (T1U) (T1U) (T1U) (T2G) (T2G) (T2G) (A1G)
                 (T2U) (T2U) (T2U) (A2U) (T2U) (T2U) (T2U) (T1U)
                 (T1U) (T1U) (EG) (EG) (T1U) (T1U) (T1U) (EG) (EG)
                 (A1G) (T1G) (T1G) (T1G) (T2G) (T2G) (T2G) (A1G)
                 (EU) (EU) (T1U) (T1U) (T1U) (T1G) (T1G) (T1G)
                 (A2G) (T2U) (T2U) (T2U) (T2G) (T2G) (T2G) (EG)
                 (EG) (T1U) (T1U) (T1U) (T2U) (T2U) (T2U) (T2G)
                 (T2G) (T2G) (A2U) (T1U) (T1U) (T1U) (EG) (EG)
                 (A1G) (T1U) (T1U) (T1U) (EG) (EG) (EG) (EG) (T1G)
                 (T1G) (T1G) (A1G) (T1U) (T1U) (T1U) (T2U) (T2U)
                 (T2U) (T1U) (T1U) (T1U) (T2G) (T2G) (T2G) (A1G)
                 (EG) (EG) (T1U) (T1U) (T1U) (A1G) (T1G) (T1G)
                 (T1G) (T2U) (T2U) (T2U) (T2G) (T2G) (T2G) (EU)
                 (EU) (T2G) (T2G) (T2G) (A2G) (T2U) (T2U) (T2U)
                 (T1U) (T1U) (T1U) (EG) (EG) (A2U) (T1U) (T1U)
                 (T1U) (EG) (EG) (T1G) (T1G) (T1G) (T2U) (T2U)
                 (T2U) (T2G) (T2G) (T2G) (T1U) (T1U) (T1U) (T2G)
                 (T2G) (T2G) (A1G) (T1U) (T1U) (T1U) (T2U) (T2U)
                 (T2U) (T1G) (T1G) (T1G) (T2G) (T2G) (T2G) (EG)
                 (EG) (T1U) (T1U) (T1U) (T2U) (T2U) (T2U) (EG)
                 (EG) (T1U) (T1U) (T1U) (T1G) (T1G) (T1G) (A1G)
                 (A2U) (EU) (EU) (A2G) (T2G) (T2G) (T2G) (T2U)
                 (T2U) (T2U) (EG) (EG) (A2U) (T1U) (T1U) (T1U)
                 (A1G) (T2G) (T2G) (T2G) (EU) (EU) (A2G) (T2U)
                 (T2U) (T2U) (EG) (EG) (A2U) (EU) (EU) (T2U) (T2U)
                 (T2U) (T2G) (T2G) (T2G) (T1G) (T1G) (T1G) (A2G)
                 (T1U) (T1U) (T1U) (T2G) (T2G) (T2G) (EG) (EG)
                 (T2U) (T2U) (T2U) (T1U) (T1U) (T1U) (T2G) (T2G)
                 (T2G) (EG) (EG) (A1G) (T1G) (T1G) (T1G) (A2U)
                 (EG) (EG) (T1U) (T1U) (T1U) (T2U) (T2U) (T2U)
                 (T2G) (T2G) (T2G) (T1U) (T1U) (T1U) (T2U) (T2U)
                 (T2U) (T1U) (T1U) (T1U) (T1G) (T1G) (T1G) (A1G)
                 (A1G) (EG) (EG) (T1U) (T1U) (T1U) (EG) (EG) (A1G)
                 (T1U) (T1U) (T1U) (EG) (EG) (A1G) (T1U) (T1U)
                 (T1U) (A1G) (EG) (EG) (A1G) (EG) (EG) (T1U) (T1U)
                 (T1U) (A1G)
 The electronic state of the initial guess is 1-A1G.
 Initial guess <Sx>= 0.0000 <Sy>= 0.0000 <Sz>= 0.0000 <S**2>=-0.0000 S=-0.0000
 Leave Link  401 at Mon Jul 22 22:01:00 2024, MaxMem=120795955200 cpu:              60.4 elap:               0.7
 (Enter /gpfs/fs1/soft/improv/software/custom-built/gaussian/g16/l502.exe)
 Integral symmetry usage will be decided dynamically.
 UHF open shell SCF:
 Using DIIS extrapolation, IDIIS=  1040.
 NGot=120795955200 LenX=120795381889 LenY=120795134383
 Requested convergence on RMS density matrix=1.00D-08 within 500 cycles.
 Requested convergence on MAX density matrix=1.00D-06.
 Requested convergence on             energy=1.00D-06.
 No special actions if energy rises.
 Fock matrices will be formed incrementally for  20 cycles.

 Cycle   1  Pass 1  IDiag  1:
 FoFJK:  IHMeth= 1 ICntrl=       0 DoSepK=F KAlg= 0 I1Cent=           0 FoldK=F
 IRaf= 930000000 NMat=       1 IRICut=       1 DoRegI=T DoRafI=F ISym2E= 1 IDoP0=0 IntGTp=1.
 FoFCou: FMM=F IPFlag=           0 FMFlag=      100000 FMFlg1=           0
         NFxFlg=           0 DoJE=F BraDBF=F KetDBF=F FulRan=T
         wScrn=  0.000000 ICntrl=         0 IOpCl=  1 I1Cent=           0 NGrid=           0
         NMat0=    1 NMatS0=      1 NMatT0=    0 NMatD0=    1 NMtDS0=    0 NMtDT0=    0
 Petite list used in FoFCou.
 E= -1819.84644879462    
 DIIS: error= 3.76D-02 at cycle   1 NSaved=   1.
 NSaved= 1 IEnMin= 1 EnMin= -1819.84644879462     IErMin= 1 ErrMin= 3.76D-02
 ErrMax= 3.76D-02  0.00D+00 EMaxC= 1.00D-01 BMatC= 2.69D+00 BMatP= 2.69D+00
 IDIUse=3 WtCom= 6.24D-01 WtEn= 3.76D-01
 Coeff-Com:  0.100D+01
 Coeff-En:   0.100D+01
 Coeff:      0.100D+01
 Gap=     0.240 Goal=   None    Shift=    0.000
 Gap=     0.240 Goal=   None    Shift=    0.000
 GapD=    0.240 DampG=1.000 DampE=0.250 DampFc=0.2500 IDamp=-1.
 Damping current iteration by 2.50D-01
 RMSDP=9.03D+00 MaxDP=3.04D+03              OVMax= 7.82D-01

 Cycle   2  Pass 1  IDiag  1:
 Density matrix breaks symmetry, PCut= 1.00D-04
 Density matrix has no symmetry -- integrals replicated.
 RMSU=  2.23D+00    CP:  3.00D+00
 E= -1819.96759414797     Delta-E=       -0.121145353352 Rises=F Damp=T
 DIIS: error= 2.14D-02 at cycle   2 NSaved=   2.
 NSaved= 2 IEnMin= 2 EnMin= -1819.96759414797     IErMin= 2 ErrMin= 2.14D-02
 ErrMax= 2.14D-02  0.00D+00 EMaxC= 1.00D-01 BMatC= 5.06D-01 BMatP= 2.69D+00
 IDIUse=3 WtCom= 7.86D-01 WtEn= 2.14D-01
 Coeff-Com:  0.168D-02 0.998D+00
 Coeff-En:   0.291D+00 0.709D+00
 Coeff:      0.636D-01 0.936D+00
 Gap=     0.007 Goal=   None    Shift=    0.000
 Gap=     0.007 Goal=   None    Shift=    0.000
 RMSDP=6.02D+01 MaxDP=7.10D+03 DE=-1.21D-01 OVMax= 9.85D-01

 Cycle   3  Pass 1  IDiag  1:
 Density matrix breaks symmetry, PCut= 1.00D-04
 Density matrix has no symmetry -- integrals replicated.
 RMSU=  5.80D+01    CP:  3.00D+00  3.00D+00
 E= -1810.25879636098     Delta-E=        9.708797786994 Rises=F Damp=F
 DIIS: error= 1.84D-01 at cycle   3 NSaved=   3.
 NSaved= 3 IEnMin= 2 EnMin= -1819.96759414797     IErMin= 2 ErrMin= 2.14D-02
 ErrMax= 1.84D-01  0.00D+00 EMaxC= 1.00D-01 BMatC= 3.21D+01 BMatP= 5.06D-01
 IDIUse=2 WtCom= 0.00D+00 WtEn= 1.00D+00
 EnCoef did     4 forward-backward iterations
 Coeff-En:   0.225D+00 0.738D+00 0.369D-01
 Coeff:      0.225D+00 0.738D+00 0.369D-01
 Gap=     0.000 Goal=   None    Shift=    0.000
 Gap=     0.000 Goal=   None    Shift=    0.000
 RMSDP=6.08D+01 MaxDP=7.20D+03 DE= 9.71D+00 OVMax= 9.70D-01

 Cycle   4  Pass 1  IDiag  1:
 Density matrix breaks symmetry, PCut= 1.00D-04
 Density matrix has no symmetry -- integrals replicated.
 RMSU=  2.50D+00    CP:  3.00D+00  2.88D+00 -4.52D-02
 E= -1820.01449064364     Delta-E=       -9.755694282660 Rises=F Damp=F
 DIIS: error= 4.56D-02 at cycle   4 NSaved=   4.
 NSaved= 4 IEnMin= 4 EnMin= -1820.01449064364     IErMin= 2 ErrMin= 2.14D-02
 ErrMax= 4.56D-02  0.00D+00 EMaxC= 1.00D-01 BMatC= 1.49D+00 BMatP= 5.06D-01
 IDIUse=2 WtCom= 0.00D+00 WtEn= 1.00D+00
 EnCoef did     4 forward-backward iterations
 Coeff-En:   0.347D+00 0.974D-01 0.000D+00 0.555D+00
 Coeff:      0.347D+00 0.974D-01 0.000D+00 0.555D+00
 Gap=     0.034 Goal=   None    Shift=    0.000
 Gap=     0.034 Goal=   None    Shift=    0.000
 RMSDP=7.40D+00 MaxDP=2.87D+03 DE=-9.76D+00 OVMax= 7.56D-01

 Cycle   5  Pass 1  IDiag  1:
 Density matrix breaks symmetry, PCut= 1.00D-04
 Density matrix has no symmetry -- integrals replicated.
 RMSU=  1.49D-02    CP:  1.06D+00  2.17D-03  2.20D-05 -9.42D-04
 E= -1817.08656508421     Delta-E=        2.927925559433 Rises=F Damp=F
 DIIS: error= 2.09D-01 at cycle   5 NSaved=   5.
 NSaved= 5 IEnMin= 4 EnMin= -1820.01449064364     IErMin= 2 ErrMin= 2.14D-02
 ErrMax= 2.09D-01  0.00D+00 EMaxC= 1.00D-01 BMatC= 2.64D+01 BMatP= 5.06D-01
 IDIUse=2 WtCom= 0.00D+00 WtEn= 1.00D+00
 EnCoef did     4 forward-backward iterations
 Coeff-En:   0.266D+00 0.000D+00 0.000D+00 0.593D+00 0.141D+00
 Coeff:      0.266D+00 0.000D+00 0.000D+00 0.593D+00 0.141D+00
 Gap=     0.223 Goal=   None    Shift=    0.000
 Gap=     0.223 Goal=   None    Shift=    0.000
 RMSDP=1.04D-02 MaxDP=2.64D+00 DE= 2.93D+00 OVMax= 2.34D-01

 Cycle   6  Pass 1  IDiag  1:
 Density matrix breaks symmetry, PCut= 1.00D-04
 Density matrix has no symmetry -- integrals replicated.
 RMSU=  3.60D-03    CP:  8.86D-01 -2.50D-04  3.51D-05 -1.02D-03  5.10D-01
 E= -1820.04932876831     Delta-E=       -2.962763684099 Rises=F Damp=F
 DIIS: error= 6.28D-02 at cycle   6 NSaved=   6.
 NSaved= 6 IEnMin= 6 EnMin= -1820.04932876831     IErMin= 2 ErrMin= 2.14D-02
 ErrMax= 6.28D-02  0.00D+00 EMaxC= 1.00D-01 BMatC= 2.52D+00 BMatP= 5.06D-01
 IDIUse=2 WtCom= 0.00D+00 WtEn= 1.00D+00
 Coeff-En:   0.000D+00 0.000D+00 0.000D+00 0.487D+00 0.000D+00 0.513D+00
 Coeff:      0.000D+00 0.000D+00 0.000D+00 0.487D+00 0.000D+00 0.513D+00
 Gap=    -0.018 Goal=   None    Shift=    0.000
 Gap=    -0.018 Goal=   None    Shift=    0.000
 RMSDP=6.78D+00 MaxDP=2.63D+03 DE=-2.96D+00 OVMax= 1.00D+00

 Cycle   7  Pass 1  IDiag  1:
 Density matrix breaks symmetry, PCut= 1.00D-04
 Density matrix has no symmetry -- integrals replicated.
 RMSU=  3.74D-02    CP:  3.00D+00  2.62D+00 -4.21D-02  9.27D-01 -8.56D-01
                    CP:  1.35D-01
 E= -1819.19372635084     Delta-E=        0.855602417469 Rises=F Damp=F
 DIIS: error= 1.27D-01 at cycle   7 NSaved=   7.
 NSaved= 7 IEnMin= 6 EnMin= -1820.04932876831     IErMin= 2 ErrMin= 2.14D-02
 ErrMax= 1.27D-01  0.00D+00 EMaxC= 1.00D-01 BMatC= 7.84D+00 BMatP= 5.06D-01
 IDIUse=2 WtCom= 0.00D+00 WtEn= 1.00D+00
 EnCoef did    25 forward-backward iterations
 Coeff-En:   0.000D+00 0.000D+00 0.000D+00 0.194D+00 0.000D+00 0.587D+00
 Coeff-En:   0.219D+00
 Coeff:      0.000D+00 0.000D+00 0.000D+00 0.194D+00 0.000D+00 0.587D+00
 Coeff:      0.219D+00
 Gap=    -0.001 Goal=   None    Shift=    0.000
 Gap=    -0.001 Goal=   None    Shift=    0.000
 RMSDP=6.78D+00 MaxDP=2.63D+03 DE= 8.56D-01 OVMax= 9.96D-01

 Cycle   8  Pass 1  IDiag  1:
 Density matrix breaks symmetry, PCut= 1.00D-04
 Density matrix has no symmetry -- integrals replicated.
 RMSU=  4.34D-03    CP:  1.05D+00  6.18D-04  9.66D-05 -2.00D-03  5.70D-01
                    CP:  1.22D+00 -3.35D-02
 E= -1820.36400775071     Delta-E=       -1.170281399875 Rises=F Damp=F
 DIIS: error= 1.86D-02 at cycle   8 NSaved=   8.
 NSaved= 8 IEnMin= 8 EnMin= -1820.36400775071     IErMin= 8 ErrMin= 1.86D-02
 ErrMax= 1.86D-02  0.00D+00 EMaxC= 1.00D-01 BMatC= 2.50D-01 BMatP= 5.06D-01
 IDIUse=3 WtCom= 8.14D-01 WtEn= 1.86D-01
 EnCoef did    12 forward-backward iterations
 Coeff-Com:  0.221D+00-0.184D+00-0.583D-04 0.435D+00-0.498D-01 0.442D+00
 Coeff-Com: -0.499D-01 0.186D+00
 Coeff-En:   0.000D+00 0.000D+00 0.000D+00 0.878D-01 0.000D+00 0.000D+00
 Coeff-En:   0.101D+00 0.811D+00
 Coeff:      0.180D+00-0.150D+00-0.475D-04 0.371D+00-0.406D-01 0.360D+00
 Coeff:     -0.219D-01 0.302D+00
 Gap=     0.007 Goal=   None    Shift=    0.000
 Gap=     0.007 Goal=   None    Shift=    0.000
 RMSDP=2.05D-03 MaxDP=3.19D-01 DE=-1.17D+00 OVMax= 3.36D-02

 Cycle   9  Pass 1  IDiag  1:
 Density matrix breaks symmetry, PCut= 1.00D-04
 Density matrix has no symmetry -- integrals replicated.
 RMSU=  1.28D-03    CP:  1.05D+00  8.57D-04  7.93D-05 -2.05D-03  6.40D-01
                    CP:  1.21D+00 -3.23D-02  9.09D-01
 E= -1820.34659547175     Delta-E=        0.017412278961 Rises=F Damp=F
 DIIS: error= 2.85D-02 at cycle   9 NSaved=   9.
 NSaved= 9 IEnMin= 8 EnMin= -1820.36400775071     IErMin= 8 ErrMin= 1.86D-02
 ErrMax= 2.85D-02  0.00D+00 EMaxC= 1.00D-01 BMatC= 5.27D-01 BMatP= 2.50D-01
 IDIUse=2 WtCom= 0.00D+00 WtEn= 1.00D+00
 EnCoef did    13 forward-backward iterations
 Coeff-En:   0.000D+00 0.000D+00 0.000D+00 0.693D-01 0.000D+00 0.000D+00
 Coeff-En:   0.117D+00 0.444D+00 0.370D+00
 Coeff:      0.000D+00 0.000D+00 0.000D+00 0.693D-01 0.000D+00 0.000D+00
 Coeff:      0.117D+00 0.444D+00 0.370D+00
 Gap=    -0.009 Goal=   None    Shift=    0.000
 Gap=    -0.009 Goal=   None    Shift=    0.000
 RMSDP=6.67D+00 MaxDP=2.59D+03 DE= 1.74D-02 OVMax= 1.00D+00

 Cycle  10  Pass 1  IDiag  1:
 Density matrix breaks symmetry, PCut= 1.00D-04
 Density matrix has no symmetry -- integrals replicated.
 RMSU=  2.05D-02    CP:  3.00D+00  2.58D+00 -4.13D-02  9.10D-01 -6.40D-01
                    CP:  2.79D+00  1.11D+00  1.61D+00  8.98D-01
 E= -1819.78601088466     Delta-E=        0.560584587096 Rises=F Damp=F
 DIIS: error= 8.13D-02 at cycle  10 NSaved=  10.
 NSaved=10 IEnMin= 8 EnMin= -1820.36400775071     IErMin= 8 ErrMin= 1.86D-02
 ErrMax= 8.13D-02  0.00D+00 EMaxC= 1.00D-01 BMatC= 3.40D+00 BMatP= 2.50D-01
 IDIUse=2 WtCom= 0.00D+00 WtEn= 1.00D+00
 EnCoef did   100 forward-backward iterations
 Coeff-En:   0.000D+00 0.000D+00 0.000D+00 0.000D+00 0.000D+00 0.000D+00
 Coeff-En:   0.718D-02 0.467D+00 0.318D+00 0.208D+00
 Coeff:      0.000D+00 0.000D+00 0.000D+00 0.000D+00 0.000D+00 0.000D+00
 Coeff:      0.718D-02 0.467D+00 0.318D+00 0.208D+00
 Gap=    -0.009 Goal=   None    Shift=    0.000
 Gap=    -0.009 Goal=   None    Shift=    0.000
 RMSDP=6.67D+00 MaxDP=2.59D+03 DE= 5.61D-01 OVMax= 1.00D+00

 Cycle  11  Pass 1  IDiag  1:
 Density matrix breaks symmetry, PCut= 1.00D-04
 Density matrix has no symmetry -- integrals replicated.
 RMSU=  8.13D-04    CP:  1.16D+00  1.23D-03  1.37D-04 -3.05D-03  7.06D-01
                    CP:  1.23D+00 -5.85D-02  1.51D+00  8.57D-01  1.90D-02
 E= -1820.37882318729     Delta-E=       -0.592812302636 Rises=F Damp=F
 DIIS: error= 2.12D-02 at cycle  11 NSaved=  11.
 NSaved=11 IEnMin=11 EnMin= -1820.37882318729     IErMin= 8 ErrMin= 1.86D-02
 ErrMax= 2.12D-02  0.00D+00 EMaxC= 1.00D-01 BMatC= 2.62D-01 BMatP= 2.50D-01
 IDIUse=3 WtCom= 8.14D-01 WtEn= 1.86D-01
 Coeff-Com:  0.124D+00-0.149D+00-0.172D-02 0.792D-01 0.309D-01-0.485D+00
 Coeff-Com:  0.242D-01 0.106D-01 0.425D+00-0.534D-01 0.995D+00
 Coeff-En:   0.000D+00 0.000D+00 0.000D+00 0.000D+00 0.000D+00 0.000D+00
 Coeff-En:   0.000D+00 0.000D+00 0.000D+00 0.202D+00 0.798D+00
 Coeff:      0.101D+00-0.122D+00-0.140D-02 0.644D-01 0.252D-01-0.395D+00
 Coeff:      0.197D-01 0.862D-02 0.346D+00-0.589D-02 0.959D+00
 Gap=    -0.011 Goal=   None    Shift=    0.000
 Gap=    -0.011 Goal=   None    Shift=    0.000
 RMSDP=6.48D+00 MaxDP=2.51D+03 DE=-5.93D-01 OVMax= 1.00D+00

 Cycle  12  Pass 1  IDiag  1:
 Density matrix breaks symmetry, PCut= 1.00D-04
 Density matrix has no symmetry -- integrals replicated.
 RMSU=  5.75D-03    CP:  3.00D+00  2.51D+00 -4.00D-02  8.82D-01 -5.90D-01
                    CP:  3.00D+00  1.24D+00  2.92D+00  1.73D+00  1.61D+00
                    CP:  1.99D+00
 E= -1819.68819677661     Delta-E=        0.690626410680 Rises=F Damp=F
 DIIS: error= 8.81D-02 at cycle  12 NSaved=  12.
 NSaved=12 IEnMin=11 EnMin= -1820.37882318729     IErMin= 8 ErrMin= 1.86D-02
 ErrMax= 8.81D-02  0.00D+00 EMaxC= 1.00D-01 BMatC= 3.96D+00 BMatP= 2.50D-01
 IDIUse=2 WtCom= 0.00D+00 WtEn= 1.00D+00
 Rare condition: small coef for last iteration:  0.000D+00
 Coeff-En:   0.000D+00 0.000D+00 0.000D+00 0.000D+00 0.000D+00 0.000D+00
 Coeff-En:   0.000D+00 0.000D+00 0.000D+00 0.203D-02 0.809D+00 0.189D+00
 Coeff:      0.000D+00 0.000D+00 0.000D+00 0.000D+00 0.000D+00 0.000D+00
 Coeff:      0.000D+00 0.000D+00 0.000D+00 0.203D-02 0.809D+00 0.189D+00
 Gap=     0.016 Goal=   None    Shift=    0.000
 Gap=     0.016 Goal=   None    Shift=    0.000
 RMSDP=6.48D+00 MaxDP=2.51D+03 DE= 6.91D-01 OVMax= 1.00D+00

 Cycle  13  Pass 1  IDiag  1:
 Density matrix breaks symmetry, PCut= 1.00D-04
 Density matrix has no symmetry -- integrals replicated.
 RMSU=  3.65D-04    CP:  1.17D+00  1.24D-03  1.52D-04 -3.15D-03  6.99D-01
                    CP:  1.24D+00 -6.29D-02  1.61D+00  6.70D-01  1.92D-02
                    CP:  1.12D+00  4.75D-03
 E= -1820.39706468352     Delta-E=       -0.708867906913 Rises=F Damp=F
 DIIS: error= 1.38D-02 at cycle  13 NSaved=  13.
 NSaved=13 IEnMin=13 EnMin= -1820.39706468352     IErMin=13 ErrMin= 1.38D-02
 ErrMax= 1.38D-02  0.00D+00 EMaxC= 1.00D-01 BMatC= 1.12D-01 BMatP= 2.50D-01
 IDIUse=3 WtCom= 8.62D-01 WtEn= 1.38D-01
 EnCoef did   100 forward-backward iterations
 Coeff-Com:  0.752D-01-0.971D-01-0.142D-02 0.757D-01 0.196D-01-0.365D+00
 Coeff-Com:  0.379D-01-0.391D+00 0.128D+00-0.384D+00 0.801D+00 0.280D+00
 Coeff-Com:  0.820D+00
 Coeff-En:   0.000D+00 0.000D+00 0.000D+00 0.000D+00 0.000D+00 0.000D+00
 Coeff-En:   0.000D+00 0.000D+00 0.000D+00 0.181D+00 0.453D+00 0.127D-02
 Coeff-En:   0.365D+00
 Coeff:      0.648D-01-0.837D-01-0.122D-02 0.652D-01 0.169D-01-0.314D+00
 Coeff:      0.327D-01-0.337D+00 0.111D+00-0.306D+00 0.753D+00 0.242D+00
 Coeff:      0.757D+00
 Gap=    -0.011 Goal=   None    Shift=    0.000
 Gap=    -0.011 Goal=   None    Shift=    0.000
 RMSDP=6.46D+00 MaxDP=2.50D+03 DE=-7.09D-01 OVMax= 1.00D+00

 Cycle  14  Pass 1  IDiag  1:
 Density matrix breaks symmetry, PCut= 1.00D-04
 Density matrix has no symmetry -- integrals replicated.
 RMSU=  3.05D-03    CP:  3.00D+00  2.50D+00 -3.98D-02  8.78D-01 -5.56D-01
                    CP:  3.00D+00  1.27D+00  3.00D+00  2.22D+00  1.69D+00
                    CP:  3.00D+00  1.30D+00 -1.63D+00
 E= -1819.64195028832     Delta-E=        0.755114395203 Rises=F Damp=F
 DIIS: error= 9.11D-02 at cycle  14 NSaved=  14.
 NSaved=14 IEnMin=13 EnMin= -1820.39706468352     IErMin=13 ErrMin= 1.38D-02
 ErrMax= 9.11D-02  0.00D+00 EMaxC= 1.00D-01 BMatC= 4.22D+00 BMatP= 1.12D-01
 IDIUse=2 WtCom= 0.00D+00 WtEn= 1.00D+00
 EnCoef did    55 forward-backward iterations
 Rare condition: small coef for last iteration:  0.288D-14
 Coeff-En:   0.000D+00 0.000D+00 0.000D+00 0.000D+00 0.000D+00 0.000D+00
 Coeff-En:   0.000D+00 0.000D+00 0.000D+00 0.514D-02 0.129D-01 0.849D-03
 Coeff-En:   0.841D+00 0.140D+00
 Coeff:      0.000D+00 0.000D+00 0.000D+00 0.000D+00 0.000D+00 0.000D+00
 Coeff:      0.000D+00 0.000D+00 0.000D+00 0.514D-02 0.129D-01 0.849D-03
 Coeff:      0.841D+00 0.140D+00
 Gap=     0.012 Goal=   None    Shift=    0.000
 Gap=     0.012 Goal=   None    Shift=    0.000
 RMSDP=6.46D+00 MaxDP=2.50D+03 DE= 7.55D-01 OVMax= 1.00D+00

 Cycle  15  Pass 1  IDiag  1:
 Density matrix breaks symmetry, PCut= 1.00D-04
 Density matrix has no symmetry -- integrals replicated.
 RMSU=  2.57D-04    CP:  1.25D+00  1.68D-03  1.79D-04 -3.99D-03  7.97D-01
                    CP:  1.24D+00 -8.14D-02  1.98D+00  1.40D+00  3.70D-02
                    CP:  1.92D+00  5.02D-03  2.40D-01  1.37D-02
 E= -1820.38423215671     Delta-E=       -0.742281868392 Rises=F Damp=F
 DIIS: error= 2.06D-02 at cycle  15 NSaved=  15.
 NSaved=15 IEnMin=13 EnMin= -1820.39706468352     IErMin=13 ErrMin= 1.38D-02
 ErrMax= 2.06D-02  0.00D+00 EMaxC= 1.00D-01 BMatC= 2.48D-01 BMatP= 1.12D-01
 IDIUse=2 WtCom= 0.00D+00 WtEn= 1.00D+00
 EnCoef did   100 forward-backward iterations
 Coeff-En:   0.000D+00 0.000D+00 0.000D+00 0.000D+00 0.000D+00 0.000D+00
 Coeff-En:   0.000D+00 0.000D+00 0.000D+00 0.185D+00 0.521D+00 0.140D-03
 Coeff-En:   0.288D+00 0.832D-03 0.508D-02
 Coeff:      0.000D+00 0.000D+00 0.000D+00 0.000D+00 0.000D+00 0.000D+00
 Coeff:      0.000D+00 0.000D+00 0.000D+00 0.185D+00 0.521D+00 0.140D-03
 Coeff:      0.288D+00 0.832D-03 0.508D-02
 Gap=     0.008 Goal=   None    Shift=    0.000
 Gap=     0.008 Goal=   None    Shift=    0.000
 RMSDP=3.39D-03 MaxDP=3.97D-01 DE=-7.42D-01 OVMax= 9.35D-03

 Cycle  16  Pass 1  IDiag  1:
 Density matrix breaks symmetry, PCut= 1.00D-04
 Density matrix has no symmetry -- integrals replicated.
 RMSU=  5.53D-05    CP:  1.19D+00  1.35D-03  1.57D-04 -3.30D-03  7.20D-01
                    CP:  1.24D+00 -6.58D-02  1.68D+00  8.18D-01  2.23D-02
                    CP:  1.20D+00  5.30D-03  8.20D-01  2.64D-03  2.44D-01
 E= -1820.39312080657     Delta-E=       -0.008888649853 Rises=F Damp=F
 DIIS: error= 1.63D-02 at cycle  16 NSaved=  16.
 NSaved=16 IEnMin=13 EnMin= -1820.39706468352     IErMin=13 ErrMin= 1.38D-02
 ErrMax= 1.63D-02  0.00D+00 EMaxC= 1.00D-01 BMatC= 1.52D-01 BMatP= 1.12D-01
 IDIUse=2 WtCom= 0.00D+00 WtEn= 1.00D+00
 EnCoef did   100 forward-backward iterations
 Coeff-En:   0.000D+00 0.000D+00 0.000D+00 0.000D+00 0.000D+00 0.000D+00
 Coeff-En:   0.000D+00 0.000D+00 0.000D+00 0.178D+00 0.269D+00 0.163D-03
 Coeff-En:   0.116D+00 0.965D-03 0.233D-04 0.436D+00
 Coeff:      0.000D+00 0.000D+00 0.000D+00 0.000D+00 0.000D+00 0.000D+00
 Coeff:      0.000D+00 0.000D+00 0.000D+00 0.178D+00 0.269D+00 0.163D-03
 Coeff:      0.116D+00 0.965D-03 0.233D-04 0.436D+00
 Gap=     0.008 Goal=   None    Shift=    0.000
 Gap=     0.008 Goal=   None    Shift=    0.000
 RMSDP=5.48D-04 MaxDP=7.68D-02 DE=-8.89D-03 OVMax= 1.23D-03

 Cycle  17  Pass 1  IDiag  1:
 Density matrix breaks symmetry, PCut= 1.00D-04
 Density matrix has no symmetry -- integrals replicated.
 RMSU=  5.67D-05    CP:  1.20D+00  1.39D-03  1.59D-04 -3.42D-03  7.32D-01
                    CP:  1.24D+00 -6.87D-02  1.73D+00  9.39D-01  2.51D-02
                    CP:  1.36D+00  4.29D-03  5.59D-01  3.57D-03  3.84D-01
                    CP:  2.92D-01
 E= -1820.39346671470     Delta-E=       -0.000345908130 Rises=F Damp=F
 DIIS: error= 1.63D-02 at cycle  17 NSaved=  17.
 NSaved=17 IEnMin=13 EnMin= -1820.39706468352     IErMin=13 ErrMin= 1.38D-02
 ErrMax= 1.63D-02  0.00D+00 EMaxC= 1.00D-01 BMatC= 1.52D-01 BMatP= 1.12D-01
 IDIUse=2 WtCom= 0.00D+00 WtEn= 1.00D+00
 EnCoef did   100 forward-backward iterations
 Coeff-En:   0.000D+00 0.000D+00 0.000D+00 0.000D+00 0.000D+00 0.000D+00
 Coeff-En:   0.000D+00 0.000D+00 0.000D+00 0.168D+00 0.114D-02 0.200D-03
 Coeff-En:   0.449D-03 0.119D-02 0.286D-04 0.719D+00 0.110D+00
 Coeff:      0.000D+00 0.000D+00 0.000D+00 0.000D+00 0.000D+00 0.000D+00
 Coeff:      0.000D+00 0.000D+00 0.000D+00 0.168D+00 0.114D-02 0.200D-03
 Coeff:      0.449D-03 0.119D-02 0.286D-04 0.719D+00 0.110D+00
 Gap=     0.008 Goal=   None    Shift=    0.000
 Gap=     0.008 Goal=   None    Shift=    0.000
 RMSDP=6.66D-04 MaxDP=8.53D-02 DE=-3.46D-04 OVMax= 1.28D-03

 Cycle  18  Pass 1  IDiag  1:
 Density matrix breaks symmetry, PCut= 1.00D-04
 Density matrix has no symmetry -- integrals replicated.
 RMSU=  1.22D-05    CP:  1.21D+00  1.45D-03  1.62D-04 -3.56D-03  7.46D-01
                    CP:  1.24D+00 -7.20D-02  1.79D+00  1.06D+00  2.82D-02
                    CP:  1.53D+00  3.60D-03  3.52D-01  5.16D-03  5.63D-01
                    CP: -2.03D-01  1.85D+00
 E= -1820.39339633352     Delta-E=        0.000070381182 Rises=F Damp=F
 DIIS: error= 1.65D-02 at cycle  18 NSaved=  18.
 NSaved=18 IEnMin=13 EnMin= -1820.39706468352     IErMin=13 ErrMin= 1.38D-02
 ErrMax= 1.65D-02  0.00D+00 EMaxC= 1.00D-01 BMatC= 1.57D-01 BMatP= 1.12D-01
 IDIUse=2 WtCom= 0.00D+00 WtEn= 1.00D+00
 EnCoef did   100 forward-backward iterations
 Coeff-En:   0.000D+00 0.000D+00 0.000D+00 0.000D+00 0.000D+00 0.000D+00
 Coeff-En:   0.000D+00 0.000D+00 0.000D+00 0.168D+00 0.114D-02 0.200D-03
 Coeff-En:   0.449D-03 0.119D-02 0.286D-04 0.600D+00 0.180D+00 0.489D-01
 Coeff:      0.000D+00 0.000D+00 0.000D+00 0.000D+00 0.000D+00 0.000D+00
 Coeff:      0.000D+00 0.000D+00 0.000D+00 0.168D+00 0.114D-02 0.200D-03
 Coeff:      0.449D-03 0.119D-02 0.286D-04 0.600D+00 0.180D+00 0.489D-01
 Gap=     0.008 Goal=   None    Shift=    0.000
 Gap=     0.008 Goal=   None    Shift=    0.000
 RMSDP=1.06D-04 MaxDP=1.48D-02 DE= 7.04D-05 OVMax= 4.41D-04

 Cycle  19  Pass 1  IDiag  1:
 Density matrix breaks symmetry, PCut= 1.00D-04
 Density matrix has no symmetry -- integrals replicated.
 RMSU=  3.46D-06    CP:  1.21D+00  1.46D-03  1.63D-04 -3.54D-03  7.44D-01
                    CP:  1.24D+00 -7.16D-02  1.79D+00  1.03D+00  2.76D-02
                    CP:  1.50D+00  4.08D-03  4.82D-01  5.35D-03  5.66D-01
                    CP:  1.11D-01  1.71D+00  2.59D+00
 E= -1820.39369369143     Delta-E=       -0.000297357919 Rises=F Damp=F
 DIIS: error= 1.64D-02 at cycle  19 NSaved=  19.
 NSaved=19 IEnMin=13 EnMin= -1820.39706468352     IErMin=13 ErrMin= 1.38D-02
 ErrMax= 1.64D-02  0.00D+00 EMaxC= 1.00D-01 BMatC= 1.54D-01 BMatP= 1.12D-01
 IDIUse=2 WtCom= 0.00D+00 WtEn= 1.00D+00
 EnCoef did   100 forward-backward iterations
 Coeff-En:   0.000D+00 0.000D+00 0.000D+00 0.000D+00 0.000D+00 0.000D+00
 Coeff-En:   0.000D+00 0.000D+00 0.000D+00 0.168D+00 0.114D-02 0.200D-03
 Coeff-En:   0.449D-03 0.118D-02 0.286D-04 0.501D+00 0.249D+00 0.714D-01
 Coeff-En:   0.704D-02
 Coeff:      0.000D+00 0.000D+00 0.000D+00 0.000D+00 0.000D+00 0.000D+00
 Coeff:      0.000D+00 0.000D+00 0.000D+00 0.168D+00 0.114D-02 0.200D-03
 Coeff:      0.449D-03 0.118D-02 0.286D-04 0.501D+00 0.249D+00 0.714D-01
 Coeff:      0.704D-02
 Gap=     0.008 Goal=   None    Shift=    0.000
 Gap=     0.008 Goal=   None    Shift=    0.000
 RMSDP=7.97D-05 MaxDP=1.09D-02 DE=-2.97D-04 OVMax= 3.33D-04

 Cycle  20  Pass 1  IDiag  1:
 Density matrix breaks symmetry, PCut= 1.00D-04
 Density matrix has no symmetry -- integrals replicated.
 RMSU=  9.85D-06    CP:  1.21D+00  1.46D-03  1.64D-04 -3.53D-03  7.43D-01
                    CP:  1.24D+00 -7.13D-02  1.79D+00  9.97D-01  2.72D-02
                    CP:  1.47D+00  4.45D-03  5.81D-01  5.50D-03  5.70D-01
                    CP:  3.49D-01  1.60D+00  3.00D+00  1.75D+00
 E= -1820.39391362522     Delta-E=       -0.000219933790 Rises=F Damp=F
 DIIS: error= 1.63D-02 at cycle  20 NSaved=  20.
 NSaved=20 IEnMin=13 EnMin= -1820.39706468352     IErMin=13 ErrMin= 1.38D-02
 ErrMax= 1.63D-02  0.00D+00 EMaxC= 1.00D-01 BMatC= 1.52D-01 BMatP= 1.12D-01
 IDIUse=2 WtCom= 0.00D+00 WtEn= 1.00D+00
 EnCoef did   100 forward-backward iterations
 Coeff-En:   0.000D+00 0.000D+00 0.000D+00 0.000D+00 0.000D+00 0.000D+00
 Coeff-En:   0.000D+00 0.000D+00 0.000D+00 0.168D+00 0.117D-02 0.204D-03
 Coeff-En:   0.458D-03 0.121D-02 0.292D-04 0.410D+00 0.324D+00 0.743D-01
 Coeff-En:   0.188D-01 0.207D-02
 Coeff:      0.000D+00 0.000D+00 0.000D+00 0.000D+00 0.000D+00 0.000D+00
 Coeff:      0.000D+00 0.000D+00 0.000D+00 0.168D+00 0.117D-02 0.204D-03
 Coeff:      0.458D-03 0.121D-02 0.292D-04 0.410D+00 0.324D+00 0.743D-01
 Coeff:      0.188D-01 0.207D-02
 Gap=     0.008 Goal=   None    Shift=    0.000
 Gap=     0.008 Goal=   None    Shift=    0.000
 RMSDP=6.58D-05 MaxDP=8.56D-03 DE=-2.20D-04 OVMax= 2.77D-04

 Cycle  21  Pass 1  IDiag  1:
 Density matrix breaks symmetry, PCut= 1.00D-04
 Density matrix has no symmetry -- integrals replicated.
 Restarting incremental Fock formation.
 E= -1820.39416618675     Delta-E=       -0.000252561528 Rises=F Damp=F
 DIIS: error= 1.62D-02 at cycle  21 NSaved=  20.
 NSaved=20 IEnMin=13 EnMin= -1820.39706468352     IErMin=13 ErrMin= 1.38D-02
 ErrMax= 1.62D-02  0.00D+00 EMaxC= 1.00D-01 BMatC= 1.50D-01 BMatP= 1.12D-01
 IDIUse=2 WtCom= 0.00D+00 WtEn= 1.00D+00
 EnCoef did   100 forward-backward iterations
 Coeff-En:   0.000D+00 0.000D+00 0.000D+00 0.000D+00 0.000D+00 0.000D+00
 Coeff-En:   0.000D+00 0.000D+00 0.000D+00 0.168D+00 0.120D-02 0.211D-03
 Coeff-En:   0.473D-03 0.125D-02 0.301D-04 0.322D+00 0.404D+00 0.540D-01
 Coeff-En:   0.293D-01 0.194D-01
 Coeff:      0.000D+00 0.000D+00 0.000D+00 0.000D+00 0.000D+00 0.000D+00
 Coeff:      0.000D+00 0.000D+00 0.000D+00 0.168D+00 0.120D-02 0.211D-03
 Coeff:      0.473D-03 0.125D-02 0.301D-04 0.322D+00 0.404D+00 0.540D-01
 Coeff:      0.293D-01 0.194D-01
 Gap=     0.008 Goal=   None    Shift=    0.000
 Gap=     0.008 Goal=   None    Shift=    0.000
 RMSDP=4.41D-05 MaxDP=5.40D-03 DE=-2.53D-04 OVMax= 1.87D-04

 Cycle  22  Pass 1  IDiag  1:
 Density matrix breaks symmetry, PCut= 1.00D-04
 Density matrix has no symmetry -- integrals replicated.
 RMSU=  4.41D-05    CP:  1.00D+00
 E= -1820.39429389569     Delta-E=       -0.000127708935 Rises=F Damp=F
 DIIS: error= 1.61D-02 at cycle  22 NSaved=  20.
 NSaved=20 IEnMin=13 EnMin= -1820.39706468352     IErMin=13 ErrMin= 1.38D-02
 ErrMax= 1.61D-02  0.00D+00 EMaxC= 1.00D-01 BMatC= 1.49D-01 BMatP= 1.12D-01
 IDIUse=2 WtCom= 0.00D+00 WtEn= 1.00D+00
 EnCoef did   100 forward-backward iterations
 Coeff-En:   0.000D+00 0.000D+00 0.000D+00 0.000D+00 0.000D+00 0.000D+00
 Coeff-En:   0.000D+00 0.000D+00 0.000D+00 0.168D+00 0.124D-02 0.218D-03
 Coeff-En:   0.490D-03 0.129D-02 0.312D-04 0.240D+00 0.484D+00 0.201D-01
 Coeff-En:   0.539D-01 0.303D-01
 Coeff:      0.000D+00 0.000D+00 0.000D+00 0.000D+00 0.000D+00 0.000D+00
 Coeff:      0.000D+00 0.000D+00 0.000D+00 0.168D+00 0.124D-02 0.218D-03
 Coeff:      0.490D-03 0.129D-02 0.312D-04 0.240D+00 0.484D+00 0.201D-01
 Coeff:      0.539D-01 0.303D-01
 Gap=     0.008 Goal=   None    Shift=    0.000
 Gap=     0.008 Goal=   None    Shift=    0.000
 RMSDP=2.89D-05 MaxDP=2.73D-03 DE=-1.28D-04 OVMax= 1.18D-04

 Cycle  23  Pass 1  IDiag  1:
 Density matrix breaks symmetry, PCut= 1.00D-04
 Density matrix has no symmetry -- integrals replicated.
 RMSU=  5.13D-06    CP:  1.00D+00  1.63D+00
 E= -1820.39438365174     Delta-E=       -0.000089756049 Rises=F Damp=F
 DIIS: error= 1.61D-02 at cycle  23 NSaved=  20.
 NSaved=20 IEnMin=13 EnMin= -1820.39706468352     IErMin=13 ErrMin= 1.38D-02
 ErrMax= 1.61D-02  0.00D+00 EMaxC= 1.00D-01 BMatC= 1.48D-01 BMatP= 1.12D-01
 IDIUse=2 WtCom= 0.00D+00 WtEn= 1.00D+00
 EnCoef did   100 forward-backward iterations
 Coeff-En:   0.000D+00 0.000D+00 0.000D+00 0.000D+00 0.000D+00 0.000D+00
 Coeff-En:   0.000D+00 0.000D+00 0.000D+00 0.167D+00 0.129D-02 0.227D-03
 Coeff-En:   0.509D-03 0.134D-02 0.325D-04 0.157D+00 0.547D+00 0.149D-04
 Coeff-En:   0.688D-01 0.561D-01
 Coeff:      0.000D+00 0.000D+00 0.000D+00 0.000D+00 0.000D+00 0.000D+00
 Coeff:      0.000D+00 0.000D+00 0.000D+00 0.167D+00 0.129D-02 0.227D-03
 Coeff:      0.509D-03 0.134D-02 0.325D-04 0.157D+00 0.547D+00 0.149D-04
 Coeff:      0.688D-01 0.561D-01
 Gap=     0.008 Goal=   None    Shift=    0.000
 Gap=     0.008 Goal=   None    Shift=    0.000
 RMSDP=3.29D-05 MaxDP=3.17D-03 DE=-8.98D-05 OVMax= 1.28D-04

 Cycle  24  Pass 1  IDiag  1:
 Density matrix breaks symmetry, PCut= 1.00D-04
 Density matrix has no symmetry -- integrals replicated.
 RMSU=  2.09D-06    CP:  1.00D+00  2.34D+00  2.54D+00
 E= -1820.39450949634     Delta-E=       -0.000125844603 Rises=F Damp=F
 DIIS: error= 1.60D-02 at cycle  24 NSaved=  20.
 NSaved=20 IEnMin=13 EnMin= -1820.39706468352     IErMin=13 ErrMin= 1.38D-02
 ErrMax= 1.60D-02  0.00D+00 EMaxC= 1.00D-01 BMatC= 1.47D-01 BMatP= 1.12D-01
 IDIUse=2 WtCom= 0.00D+00 WtEn= 1.00D+00
 EnCoef did   100 forward-backward iterations
 Coeff-En:   0.000D+00 0.000D+00 0.000D+00 0.000D+00 0.000D+00 0.000D+00
 Coeff-En:   0.000D+00 0.000D+00 0.000D+00 0.167D+00 0.135D-02 0.236D-03
 Coeff-En:   0.530D-03 0.140D-02 0.338D-04 0.770D-01 0.584D+00 0.155D-04
 Coeff-En:   0.971D-01 0.716D-01
 Coeff:      0.000D+00 0.000D+00 0.000D+00 0.000D+00 0.000D+00 0.000D+00
 Coeff:      0.000D+00 0.000D+00 0.000D+00 0.167D+00 0.135D-02 0.236D-03
 Coeff:      0.530D-03 0.140D-02 0.338D-04 0.770D-01 0.584D+00 0.155D-04
 Coeff:      0.971D-01 0.716D-01
 Gap=     0.008 Goal=   None    Shift=    0.000
 Gap=     0.008 Goal=   None    Shift=    0.000
 RMSDP=3.95D-05 MaxDP=4.14D-03 DE=-1.26D-04 OVMax= 1.62D-04

 Cycle  25  Pass 1  IDiag  1:
 Density matrix breaks symmetry, PCut= 1.00D-04
 Density matrix has no symmetry -- integrals replicated.
 RMSU=  1.16D-05    CP:  1.00D+00  3.00D+00  3.00D+00  3.00D+00
 E= -1820.39467438513     Delta-E=       -0.000164888786 Rises=F Damp=F
 DIIS: error= 1.60D-02 at cycle  25 NSaved=  20.
 NSaved=20 IEnMin=13 EnMin= -1820.39706468352     IErMin=13 ErrMin= 1.38D-02
 ErrMax= 1.60D-02  0.00D+00 EMaxC= 1.00D-01 BMatC= 1.46D-01 BMatP= 1.12D-01
 IDIUse=2 WtCom= 0.00D+00 WtEn= 1.00D+00
 EnCoef did   100 forward-backward iterations
 Coeff-En:   0.000D+00 0.000D+00 0.000D+00 0.000D+00 0.000D+00 0.000D+00
 Coeff-En:   0.000D+00 0.000D+00 0.000D+00 0.167D+00 0.140D-02 0.246D-03
 Coeff-En:   0.552D-03 0.146D-02 0.352D-04 0.280D-03 0.611D+00 0.162D-04
 Coeff-En:   0.117D+00 0.101D+00
 Coeff:      0.000D+00 0.000D+00 0.000D+00 0.000D+00 0.000D+00 0.000D+00
 Coeff:      0.000D+00 0.000D+00 0.000D+00 0.167D+00 0.140D-02 0.246D-03
 Coeff:      0.552D-03 0.146D-02 0.352D-04 0.280D-03 0.611D+00 0.162D-04
 Coeff:      0.117D+00 0.101D+00
 Gap=     0.008 Goal=   None    Shift=    0.000
 Gap=     0.008 Goal=   None    Shift=    0.000
 RMSDP=3.58D-05 MaxDP=5.37D-03 DE=-1.65D-04 OVMax= 1.79D-04

 Cycle  26  Pass 1  IDiag  1:
 Density matrix breaks symmetry, PCut= 1.00D-04
 Density matrix has no symmetry -- integrals replicated.
 RMSU=  1.20D-05    CP:  1.00D+00  3.00D+00  3.00D+00  3.00D+00  3.00D+00
 E= -1820.39484132429     Delta-E=       -0.000166939165 Rises=F Damp=F
 DIIS: error= 1.59D-02 at cycle  26 NSaved=  20.
 NSaved=20 IEnMin=13 EnMin= -1820.39706468352     IErMin=13 ErrMin= 1.38D-02
 ErrMax= 1.59D-02  0.00D+00 EMaxC= 1.00D-01 BMatC= 1.44D-01 BMatP= 1.12D-01
 IDIUse=2 WtCom= 0.00D+00 WtEn= 1.00D+00
 EnCoef did   100 forward-backward iterations
 Coeff-En:   0.000D+00 0.000D+00 0.000D+00 0.000D+00 0.000D+00 0.000D+00
 Coeff-En:   0.000D+00 0.000D+00 0.000D+00 0.166D+00 0.140D-02 0.245D-03
 Coeff-En:   0.552D-03 0.146D-02 0.351D-04 0.280D-03 0.568D+00 0.162D-04
 Coeff-En:   0.144D+00 0.117D+00
 Coeff:      0.000D+00 0.000D+00 0.000D+00 0.000D+00 0.000D+00 0.000D+00
 Coeff:      0.000D+00 0.000D+00 0.000D+00 0.166D+00 0.140D-02 0.245D-03
 Coeff:      0.552D-03 0.146D-02 0.351D-04 0.280D-03 0.568D+00 0.162D-04
 Coeff:      0.144D+00 0.117D+00
 Gap=     0.008 Goal=   None    Shift=    0.000
 Gap=     0.008 Goal=   None    Shift=    0.000
 RMSDP=4.25D-05 MaxDP=5.89D-03 DE=-1.67D-04 OVMax= 1.51D-04

 Cycle  27  Pass 1  IDiag  1:
 Density matrix breaks symmetry, PCut= 1.00D-04
 Density matrix has no symmetry -- integrals replicated.
 RMSU=  3.71D-05    CP:  1.00D+00  3.00D+00  3.00D+00  3.00D+00  3.00D+00
                    CP:  2.47D-01
 E= -1820.39485946047     Delta-E=       -0.000018136176 Rises=F Damp=F
 DIIS: error= 1.59D-02 at cycle  27 NSaved=  20.
 NSaved=20 IEnMin=13 EnMin= -1820.39706468352     IErMin=13 ErrMin= 1.38D-02
 ErrMax= 1.59D-02  0.00D+00 EMaxC= 1.00D-01 BMatC= 1.44D-01 BMatP= 1.12D-01
 IDIUse=2 WtCom= 0.00D+00 WtEn= 1.00D+00
 EnCoef did   100 forward-backward iterations
 Coeff-En:   0.000D+00 0.000D+00 0.000D+00 0.000D+00 0.000D+00 0.000D+00
 Coeff-En:   0.000D+00 0.000D+00 0.000D+00 0.166D+00 0.140D-02 0.245D-03
 Coeff-En:   0.551D-03 0.145D-02 0.351D-04 0.280D-03 0.526D+00 0.162D-04
 Coeff-En:   0.160D+00 0.144D+00
 Coeff:      0.000D+00 0.000D+00 0.000D+00 0.000D+00 0.000D+00 0.000D+00
 Coeff:      0.000D+00 0.000D+00 0.000D+00 0.166D+00 0.140D-02 0.245D-03
 Coeff:      0.551D-03 0.145D-02 0.351D-04 0.280D-03 0.526D+00 0.162D-04
 Coeff:      0.160D+00 0.144D+00
 Gap=     0.008 Goal=   None    Shift=    0.000
 Gap=     0.008 Goal=   None    Shift=    0.000
 RMSDP=3.50D-05 MaxDP=5.70D-03 DE=-1.81D-05 OVMax= 1.83D-04

 Cycle  28  Pass 1  IDiag  1:
 Density matrix breaks symmetry, PCut= 1.00D-04
 Density matrix has no symmetry -- integrals replicated.
 RMSU=  4.11D-06    CP:  1.00D+00  3.00D+00  3.00D+00  3.00D+00  3.00D+00
                    CP:  7.31D-01  1.80D+00
 E= -1820.39489127861     Delta-E=       -0.000031818144 Rises=F Damp=F
 DIIS: error= 1.59D-02 at cycle  28 NSaved=  20.
 NSaved=20 IEnMin=13 EnMin= -1820.39706468352     IErMin=13 ErrMin= 1.38D-02
 ErrMax= 1.59D-02  0.00D+00 EMaxC= 1.00D-01 BMatC= 1.44D-01 BMatP= 1.12D-01
 IDIUse=2 WtCom= 0.00D+00 WtEn= 1.00D+00
 EnCoef did   100 forward-backward iterations
 Coeff-En:   0.000D+00 0.000D+00 0.000D+00 0.000D+00 0.000D+00 0.000D+00
 Coeff-En:   0.000D+00 0.000D+00 0.000D+00 0.166D+00 0.140D-02 0.245D-03
 Coeff-En:   0.550D-03 0.145D-02 0.351D-04 0.280D-03 0.481D+00 0.161D-04
 Coeff-En:   0.189D+00 0.160D+00
 Coeff:      0.000D+00 0.000D+00 0.000D+00 0.000D+00 0.000D+00 0.000D+00
 Coeff:      0.000D+00 0.000D+00 0.000D+00 0.166D+00 0.140D-02 0.245D-03
 Coeff:      0.550D-03 0.145D-02 0.351D-04 0.280D-03 0.481D+00 0.161D-04
 Coeff:      0.189D+00 0.160D+00
 Gap=     0.008 Goal=   None    Shift=    0.000
 Gap=     0.008 Goal=   None    Shift=    0.000
 RMSDP=3.30D-05 MaxDP=6.64D-03 DE=-3.18D-05 OVMax= 2.13D-04

 Cycle  29  Pass 1  IDiag  1:
 Density matrix breaks symmetry, PCut= 1.00D-04
 Density matrix has no symmetry -- integrals replicated.
 RMSU=  1.17D-06    CP:  1.00D+00  3.00D+00  3.00D+00  3.00D+00  3.00D+00
                    CP:  2.45D+00  2.39D+00  2.64D+00
 E= -1820.39494356205     Delta-E=       -0.000052283442 Rises=F Damp=F
 DIIS: error= 1.59D-02 at cycle  29 NSaved=  20.
 NSaved=20 IEnMin=13 EnMin= -1820.39706468352     IErMin=13 ErrMin= 1.38D-02
 ErrMax= 1.59D-02  0.00D+00 EMaxC= 1.00D-01 BMatC= 1.44D-01 BMatP= 1.12D-01
 IDIUse=2 WtCom= 0.00D+00 WtEn= 1.00D+00
 EnCoef did   100 forward-backward iterations
 Coeff-En:   0.000D+00 0.000D+00 0.000D+00 0.000D+00 0.000D+00 0.000D+00
 Coeff-En:   0.000D+00 0.000D+00 0.000D+00 0.166D+00 0.140D-02 0.245D-03
 Coeff-En:   0.550D-03 0.145D-02 0.350D-04 0.279D-03 0.436D+00 0.161D-04
 Coeff-En:   0.206D+00 0.189D+00
 Coeff:      0.000D+00 0.000D+00 0.000D+00 0.000D+00 0.000D+00 0.000D+00
 Coeff:      0.000D+00 0.000D+00 0.000D+00 0.166D+00 0.140D-02 0.245D-03
 Coeff:      0.550D-03 0.145D-02 0.350D-04 0.279D-03 0.436D+00 0.161D-04
 Coeff:      0.206D+00 0.189D+00
 Gap=     0.008 Goal=   None    Shift=    0.000
 Gap=     0.008 Goal=   None    Shift=    0.000
 RMSDP=4.28D-05 MaxDP=8.50D-03 DE=-5.23D-05 OVMax= 2.73D-04

 Cycle  30  Pass 1  IDiag  1:
 Density matrix breaks symmetry, PCut= 1.00D-04
 Density matrix has no symmetry -- integrals replicated.
 RMSU=  1.77D-05    CP:  1.00D+00  3.00D+00  3.00D+00  3.00D+00  3.00D+00
                    CP:  3.00D+00  3.00D+00  3.00D+00  3.00D+00
 E= -1820.39498793233     Delta-E=       -0.000044370275 Rises=F Damp=F
 DIIS: error= 1.58D-02 at cycle  30 NSaved=  20.
 NSaved=20 IEnMin=13 EnMin= -1820.39706468352     IErMin=13 ErrMin= 1.38D-02
 ErrMax= 1.58D-02  0.00D+00 EMaxC= 1.00D-01 BMatC= 1.44D-01 BMatP= 1.12D-01
 IDIUse=2 WtCom= 0.00D+00 WtEn= 1.00D+00
 EnCoef did   100 forward-backward iterations
 Coeff-En:   0.000D+00 0.000D+00 0.000D+00 0.000D+00 0.000D+00 0.000D+00
 Coeff-En:   0.000D+00 0.000D+00 0.000D+00 0.165D+00 0.140D-02 0.244D-03
 Coeff-En:   0.549D-03 0.145D-02 0.350D-04 0.279D-03 0.390D+00 0.161D-04
 Coeff-En:   0.236D+00 0.205D+00
 Coeff:      0.000D+00 0.000D+00 0.000D+00 0.000D+00 0.000D+00 0.000D+00
 Coeff:      0.000D+00 0.000D+00 0.000D+00 0.165D+00 0.140D-02 0.244D-03
 Coeff:      0.549D-03 0.145D-02 0.350D-04 0.279D-03 0.390D+00 0.161D-04
 Coeff:      0.236D+00 0.205D+00
 Gap=     0.008 Goal=   None    Shift=    0.000
 Gap=     0.008 Goal=   None    Shift=    0.000
 RMSDP=5.36D-05 MaxDP=1.06D-02 DE=-4.44D-05 OVMax= 3.41D-04

 Cycle  31  Pass 1  IDiag  1:
 Density matrix breaks symmetry, PCut= 1.00D-04
 Density matrix has no symmetry -- integrals replicated.
 RMSU=  2.07D-05    CP:  1.00D+00  3.00D+00  3.00D+00  3.00D+00  3.00D+00
                    CP:  3.00D+00  3.00D+00  3.00D+00  3.00D+00  3.00D+00
 E= -1820.39502804532     Delta-E=       -0.000040112992 Rises=F Damp=F
 DIIS: error= 1.58D-02 at cycle  31 NSaved=  20.
 NSaved=20 IEnMin=13 EnMin= -1820.39706468352     IErMin=13 ErrMin= 1.38D-02
 ErrMax= 1.58D-02  0.00D+00 EMaxC= 1.00D-01 BMatC= 1.43D-01 BMatP= 1.12D-01
 IDIUse=2 WtCom= 0.00D+00 WtEn= 1.00D+00
 EnCoef did   100 forward-backward iterations
 Coeff-En:   0.000D+00 0.000D+00 0.000D+00 0.000D+00 0.000D+00 0.000D+00
 Coeff-En:   0.000D+00 0.000D+00 0.000D+00 0.165D+00 0.139D-02 0.244D-03
 Coeff-En:   0.548D-03 0.145D-02 0.349D-04 0.279D-03 0.342D+00 0.161D-04
 Coeff-En:   0.254D+00 0.235D+00
 Coeff:      0.000D+00 0.000D+00 0.000D+00 0.000D+00 0.000D+00 0.000D+00
 Coeff:      0.000D+00 0.000D+00 0.000D+00 0.165D+00 0.139D-02 0.244D-03
 Coeff:      0.548D-03 0.145D-02 0.349D-04 0.279D-03 0.342D+00 0.161D-04
 Coeff:      0.254D+00 0.235D+00
 Gap=     0.008 Goal=   None    Shift=    0.000
 Gap=     0.008 Goal=   None    Shift=    0.000
 RMSDP=6.95D-05 MaxDP=1.43D-02 DE=-4.01D-05 OVMax= 4.57D-04

 Cycle  32  Pass 1  IDiag  1:
 Density matrix breaks symmetry, PCut= 1.00D-04
 Density matrix has no symmetry -- integrals replicated.
 RMSU=  4.70D-05    CP:  1.00D+00  3.00D+00  3.00D+00  3.00D+00  3.00D+00
                    CP:  3.00D+00  3.00D+00  3.00D+00  3.00D+00  3.00D+00
                    CP:  3.00D+00
 E= -1820.39507589683     Delta-E=       -0.000047851515 Rises=F Damp=F
 DIIS: error= 1.58D-02 at cycle  32 NSaved=  20.
 NSaved=20 IEnMin=13 EnMin= -1820.39706468352     IErMin=13 ErrMin= 1.38D-02
 ErrMax= 1.58D-02  0.00D+00 EMaxC= 1.00D-01 BMatC= 1.43D-01 BMatP= 1.12D-01
 IDIUse=2 WtCom= 0.00D+00 WtEn= 1.00D+00
 EnCoef did   100 forward-backward iterations
 Coeff-En:   0.000D+00 0.000D+00 0.000D+00 0.000D+00 0.000D+00 0.000D+00
 Coeff-En:   0.000D+00 0.000D+00 0.000D+00 0.165D+00 0.139D-02 0.244D-03
 Coeff-En:   0.548D-03 0.145D-02 0.349D-04 0.278D-03 0.292D+00 0.161D-04
 Coeff-En:   0.286D+00 0.254D+00
 Coeff:      0.000D+00 0.000D+00 0.000D+00 0.000D+00 0.000D+00 0.000D+00
 Coeff:      0.000D+00 0.000D+00 0.000D+00 0.165D+00 0.139D-02 0.244D-03
 Coeff:      0.548D-03 0.145D-02 0.349D-04 0.278D-03 0.292D+00 0.161D-04
 Coeff:      0.286D+00 0.254D+00
 Gap=     0.008 Goal=   None    Shift=    0.000
 Gap=     0.008 Goal=   None    Shift=    0.000
 RMSDP=9.26D-05 MaxDP=1.90D-02 DE=-4.79D-05 OVMax= 6.09D-04

 Cycle  33  Pass 1  IDiag  1:
 Density matrix breaks symmetry, PCut= 1.00D-04
 Density matrix has no symmetry -- integrals replicated.
 RMSU=  5.57D-05    CP:  1.00D+00  3.00D+00  3.00D+00  3.00D+00  3.00D+00
                    CP:  3.00D+00  3.00D+00  3.00D+00  3.00D+00  3.00D+00
                    CP:  3.00D+00  2.49D+00
 E= -1820.39512612052     Delta-E=       -0.000050223682 Rises=F Damp=F
 DIIS: error= 1.58D-02 at cycle  33 NSaved=  20.
 NSaved=20 IEnMin=13 EnMin= -1820.39706468352     IErMin=13 ErrMin= 1.38D-02
 ErrMax= 1.58D-02  0.00D+00 EMaxC= 1.00D-01 BMatC= 1.43D-01 BMatP= 1.12D-01
 IDIUse=2 WtCom= 0.00D+00 WtEn= 1.00D+00
 EnCoef did   100 forward-backward iterations
 Coeff-En:   0.000D+00 0.000D+00 0.000D+00 0.000D+00 0.000D+00 0.000D+00
 Coeff-En:   0.000D+00 0.000D+00 0.000D+00 0.164D+00 0.139D-02 0.243D-03
 Coeff-En:   0.547D-03 0.144D-02 0.348D-04 0.278D-03 0.239D+00 0.160D-04
 Coeff-En:   0.307D+00 0.286D+00
 Coeff:      0.000D+00 0.000D+00 0.000D+00 0.000D+00 0.000D+00 0.000D+00
 Coeff:      0.000D+00 0.000D+00 0.000D+00 0.164D+00 0.139D-02 0.243D-03
 Coeff:      0.547D-03 0.144D-02 0.348D-04 0.278D-03 0.239D+00 0.160D-04
 Coeff:      0.307D+00 0.286D+00
 Gap=     0.008 Goal=   None    Shift=    0.000
 Gap=     0.008 Goal=   None    Shift=    0.000
 RMSDP=1.33D-04 MaxDP=2.68D-02 DE=-5.02D-05 OVMax= 8.60D-04

 Cycle  34  Pass 1  IDiag  1:
 Density matrix breaks symmetry, PCut= 1.00D-04
 Density matrix has no symmetry -- integrals replicated.
 RMSU=  7.66D-05    CP:  1.01D+00  3.00D+00  3.00D+00  3.00D+00  3.00D+00
                    CP:  3.00D+00  3.00D+00  3.00D+00  3.00D+00  3.00D+00
                    CP:  3.00D+00  3.00D+00  2.47D+00
 E= -1820.39517612487     Delta-E=       -0.000050004352 Rises=F Damp=F
 DIIS: error= 1.58D-02 at cycle  34 NSaved=  20.
 NSaved=20 IEnMin=13 EnMin= -1820.39706468352     IErMin=13 ErrMin= 1.38D-02
 ErrMax= 1.58D-02  0.00D+00 EMaxC= 1.00D-01 BMatC= 1.42D-01 BMatP= 1.12D-01
 IDIUse=2 WtCom= 0.00D+00 WtEn= 1.00D+00
 EnCoef did   100 forward-backward iterations
 Coeff-En:   0.000D+00 0.000D+00 0.000D+00 0.000D+00 0.000D+00 0.000D+00
 Coeff-En:   0.000D+00 0.000D+00 0.000D+00 0.164D+00 0.142D-02 0.248D-03
 Coeff-En:   0.557D-03 0.147D-02 0.355D-04 0.283D-03 0.171D+00 0.163D-04
 Coeff-En:   0.349D+00 0.313D+00
 Coeff:      0.000D+00 0.000D+00 0.000D+00 0.000D+00 0.000D+00 0.000D+00
 Coeff:      0.000D+00 0.000D+00 0.000D+00 0.164D+00 0.142D-02 0.248D-03
 Coeff:      0.557D-03 0.147D-02 0.355D-04 0.283D-03 0.171D+00 0.163D-04
 Coeff:      0.349D+00 0.313D+00
 Gap=     0.008 Goal=   None    Shift=    0.000
 Gap=     0.008 Goal=   None    Shift=    0.000
 RMSDP=2.16D-04 MaxDP=4.20D-02 DE=-5.00D-05 OVMax= 1.35D-03

 Cycle  35  Pass 1  IDiag  1:
 Density matrix breaks symmetry, PCut= 1.00D-04
 Density matrix has no symmetry -- integrals replicated.
 RMSU=  1.01D-04    CP:  1.01D+00  3.00D+00  3.00D+00  3.00D+00  3.00D+00
                    CP:  3.00D+00  3.00D+00  3.00D+00  3.00D+00  3.00D+00
                    CP:  3.00D+00  3.00D+00  3.00D+00  3.00D+00
 E= -1820.39532536180     Delta-E=       -0.000149236936 Rises=F Damp=F
 DIIS: error= 1.57D-02 at cycle  35 NSaved=  20.
 NSaved=20 IEnMin=13 EnMin= -1820.39706468352     IErMin=13 ErrMin= 1.38D-02
 ErrMax= 1.57D-02  0.00D+00 EMaxC= 1.00D-01 BMatC= 1.41D-01 BMatP= 1.12D-01
 IDIUse=2 WtCom= 0.00D+00 WtEn= 1.00D+00
 EnCoef did   100 forward-backward iterations
 Coeff-En:   0.000D+00 0.000D+00 0.000D+00 0.000D+00 0.000D+00 0.000D+00
 Coeff-En:   0.000D+00 0.000D+00 0.000D+00 0.163D+00 0.148D-02 0.259D-03
 Coeff-En:   0.581D-03 0.153D-02 0.370D-04 0.295D-03 0.778D-01 0.170D-04
 Coeff-En:   0.384D+00 0.371D+00
 Coeff:      0.000D+00 0.000D+00 0.000D+00 0.000D+00 0.000D+00 0.000D+00
 Coeff:      0.000D+00 0.000D+00 0.000D+00 0.163D+00 0.148D-02 0.259D-03
 Coeff:      0.581D-03 0.153D-02 0.370D-04 0.295D-03 0.778D-01 0.170D-04
 Coeff:      0.384D+00 0.371D+00
 Gap=     0.008 Goal=   None    Shift=    0.000
 Gap=     0.008 Goal=   None    Shift=    0.000
 RMSDP=3.98D-04 MaxDP=8.97D-02 DE=-1.49D-04 OVMax= 2.31D-03

 Cycle  36  Pass 1  IDiag  1:
 Density matrix breaks symmetry, PCut= 1.00D-04
 Density matrix has no symmetry -- integrals replicated.
 RMSU=  2.85D-04    CP:  1.01D+00  3.00D+00  3.00D+00  3.00D+00  3.00D+00
                    CP:  3.00D+00  3.00D+00  3.00D+00  3.00D+00  3.00D+00
                    CP:  3.00D+00  3.00D+00  3.00D+00  3.00D+00  3.00D+00
 E= -1820.39544286738     Delta-E=       -0.000117505573 Rises=F Damp=F
 DIIS: error= 1.57D-02 at cycle  36 NSaved=  20.
 NSaved=20 IEnMin=13 EnMin= -1820.39706468352     IErMin=13 ErrMin= 1.38D-02
 ErrMax= 1.57D-02  0.00D+00 EMaxC= 1.00D-01 BMatC= 1.41D-01 BMatP= 1.12D-01
 IDIUse=2 WtCom= 0.00D+00 WtEn= 1.00D+00
 EnCoef did   100 forward-backward iterations
 Coeff-En:   0.000D+00 0.000D+00 0.000D+00 0.000D+00 0.000D+00 0.000D+00
 Coeff-En:   0.000D+00 0.000D+00 0.000D+00 0.162D+00 0.154D-02 0.269D-03
 Coeff-En:   0.605D-03 0.160D-02 0.386D-04 0.307D-03 0.537D-03 0.177D-04
 Coeff-En:   0.419D+00 0.415D+00
 Coeff:      0.000D+00 0.000D+00 0.000D+00 0.000D+00 0.000D+00 0.000D+00
 Coeff:      0.000D+00 0.000D+00 0.000D+00 0.162D+00 0.154D-02 0.269D-03
 Coeff:      0.605D-03 0.160D-02 0.386D-04 0.307D-03 0.537D-03 0.177D-04
 Coeff:      0.419D+00 0.415D+00
 Gap=     0.008 Goal=   None    Shift=    0.000
 Gap=     0.008 Goal=   None    Shift=    0.000
 RMSDP=7.34D-04 MaxDP=2.01D-01 DE=-1.18D-04 OVMax= 3.72D-03

 Cycle  37  Pass 1  IDiag  1:
 Density matrix breaks symmetry, PCut= 1.00D-04
 Density matrix has no symmetry -- integrals replicated.
 RMSU=  3.68D-04    CP:  1.01D+00  3.00D+00  3.00D+00  3.00D+00  3.00D+00
                    CP:  3.00D+00  3.00D+00  3.00D+00  3.00D+00  3.00D+00
                    CP:  3.00D+00  3.00D+00  3.00D+00  3.00D+00  3.00D+00
                    CP:  3.00D+00
 E= -1820.39559606220     Delta-E=       -0.000153194820 Rises=F Damp=F
 DIIS: error= 1.56D-02 at cycle  37 NSaved=  20.
 NSaved=20 IEnMin=13 EnMin= -1820.39706468352     IErMin=13 ErrMin= 1.38D-02
 ErrMax= 1.56D-02  0.00D+00 EMaxC= 1.00D-01 BMatC= 1.40D-01 BMatP= 1.12D-01
 IDIUse=2 WtCom= 0.00D+00 WtEn= 1.00D+00
 EnCoef did   100 forward-backward iterations
 Coeff-En:   0.000D+00 0.000D+00 0.000D+00 0.000D+00 0.000D+00 0.000D+00
 Coeff-En:   0.000D+00 0.000D+00 0.000D+00 0.162D+00 0.154D-02 0.269D-03
 Coeff-En:   0.605D-03 0.160D-02 0.386D-04 0.307D-03 0.538D-03 0.178D-04
 Coeff-En:   0.385D+00 0.448D+00
 Coeff:      0.000D+00 0.000D+00 0.000D+00 0.000D+00 0.000D+00 0.000D+00
 Coeff:      0.000D+00 0.000D+00 0.000D+00 0.162D+00 0.154D-02 0.269D-03
 Coeff:      0.605D-03 0.160D-02 0.386D-04 0.307D-03 0.538D-03 0.178D-04
 Coeff:      0.385D+00 0.448D+00
 Gap=     0.008 Goal=   None    Shift=    0.000
 Gap=     0.008 Goal=   None    Shift=    0.000
 RMSDP=1.24D-03 MaxDP=3.91D-01 DE=-1.53D-04 OVMax= 5.14D-03

 Cycle  38  Pass 1  IDiag  1:
 Density matrix breaks symmetry, PCut= 1.00D-04
 Density matrix has no symmetry -- integrals replicated.
 RMSU=  9.34D-04    CP:  1.02D+00  3.00D+00  3.00D+00  3.00D+00  3.00D+00
                    CP:  3.00D+00  3.00D+00  3.00D+00  3.00D+00  3.00D+00
                    CP:  3.00D+00  3.00D+00  3.00D+00  3.00D+00  3.00D+00
                    CP:  3.00D+00  3.00D+00
 E= -1820.39563512143     Delta-E=       -0.000039059229 Rises=F Damp=F
 DIIS: error= 1.56D-02 at cycle  38 NSaved=  20.
 NSaved=20 IEnMin=13 EnMin= -1820.39706468352     IErMin=13 ErrMin= 1.38D-02
 ErrMax= 1.56D-02  0.00D+00 EMaxC= 1.00D-01 BMatC= 1.40D-01 BMatP= 1.12D-01
 IDIUse=2 WtCom= 0.00D+00 WtEn= 1.00D+00
 EnCoef did   100 forward-backward iterations
 Coeff-En:   0.000D+00 0.000D+00 0.000D+00 0.000D+00 0.000D+00 0.000D+00
 Coeff-En:   0.000D+00 0.000D+00 0.000D+00 0.161D+00 0.154D-02 0.269D-03
 Coeff-En:   0.606D-03 0.160D-02 0.386D-04 0.308D-03 0.538D-03 0.178D-04
 Coeff-En:   0.398D+00 0.436D+00
 Coeff:      0.000D+00 0.000D+00 0.000D+00 0.000D+00 0.000D+00 0.000D+00
 Coeff:      0.000D+00 0.000D+00 0.000D+00 0.161D+00 0.154D-02 0.269D-03
 Coeff:      0.606D-03 0.160D-02 0.386D-04 0.308D-03 0.538D-03 0.178D-04
 Coeff:      0.398D+00 0.436D+00
 Gap=     0.008 Goal=   None    Shift=    0.000
 Gap=     0.008 Goal=   None    Shift=    0.000
 RMSDP=2.24D-03 MaxDP=7.75D-01 DE=-3.91D-05 OVMax= 7.23D-03

 Cycle  39  Pass 1  IDiag  1:
 Density matrix breaks symmetry, PCut= 1.00D-04
 Density matrix has no symmetry -- integrals replicated.
 RMSU=  1.41D-03    CP:  1.03D+00  3.00D+00  3.00D+00  3.00D+00  3.00D+00
                    CP:  3.00D+00  3.00D+00  3.00D+00  3.00D+00  3.00D+00
                    CP:  3.00D+00  3.00D+00  3.00D+00  3.00D+00  3.00D+00
                    CP:  3.00D+00  3.00D+00  2.81D+00
 E= -1820.39567708119     Delta-E=       -0.000041959765 Rises=F Damp=F
 DIIS: error= 1.56D-02 at cycle  39 NSaved=  20.
 NSaved=20 IEnMin=13 EnMin= -1820.39706468352     IErMin=13 ErrMin= 1.38D-02
 ErrMax= 1.56D-02  0.00D+00 EMaxC= 1.00D-01 BMatC= 1.39D-01 BMatP= 1.12D-01
 IDIUse=2 WtCom= 0.00D+00 WtEn= 1.00D+00
 EnCoef did   100 forward-backward iterations
 Coeff-En:   0.000D+00 0.000D+00 0.000D+00 0.000D+00 0.000D+00 0.000D+00
 Coeff-En:   0.000D+00 0.000D+00 0.000D+00 0.161D+00 0.156D-02 0.273D-03
 Coeff-En:   0.613D-03 0.162D-02 0.390D-04 0.311D-03 0.544D-03 0.180D-04
 Coeff-En:   0.345D+00 0.489D+00
 Coeff:      0.000D+00 0.000D+00 0.000D+00 0.000D+00 0.000D+00 0.000D+00
 Coeff:      0.000D+00 0.000D+00 0.000D+00 0.161D+00 0.156D-02 0.273D-03
 Coeff:      0.613D-03 0.162D-02 0.390D-04 0.311D-03 0.544D-03 0.180D-04
 Coeff:      0.345D+00 0.489D+00
 Gap=     0.008 Goal=   None    Shift=    0.000
 Gap=     0.008 Goal=   None    Shift=    0.000
 RMSDP=4.77D-03 MaxDP=1.75D+00 DE=-4.20D-05 OVMax= 1.13D-02

 Cycle  40  Pass 1  IDiag  1:
 Density matrix breaks symmetry, PCut= 1.00D-04
 Density matrix has no symmetry -- integrals replicated.
 RMSU=  3.34D-03    CP:  1.06D+00  3.00D+00  3.00D+00  3.00D+00  3.00D+00
                    CP:  3.00D+00  3.00D+00  3.00D+00  3.00D+00  3.00D+00
                    CP:  3.00D+00  3.00D+00  3.00D+00  3.00D+00  3.00D+00
                    CP:  3.00D+00  3.00D+00  3.00D+00  3.00D+00
 E= -1820.39580351206     Delta-E=       -0.000126430866 Rises=F Damp=F
 DIIS: error= 1.56D-02 at cycle  40 NSaved=  20.
 NSaved=20 IEnMin=13 EnMin= -1820.39706468352     IErMin=13 ErrMin= 1.38D-02
 ErrMax= 1.56D-02  0.00D+00 EMaxC= 1.00D-01 BMatC= 1.39D-01 BMatP= 1.12D-01
 IDIUse=2 WtCom= 0.00D+00 WtEn= 1.00D+00
 EnCoef did   100 forward-backward iterations
 Coeff-En:   0.000D+00 0.000D+00 0.000D+00 0.000D+00 0.000D+00 0.000D+00
 Coeff-En:   0.000D+00 0.000D+00 0.000D+00 0.161D+00 0.167D-02 0.292D-03
 Coeff-En:   0.657D-03 0.173D-02 0.419D-04 0.334D-03 0.583D-03 0.193D-04
 Coeff-En:   0.303D+00 0.530D+00
 Coeff:      0.000D+00 0.000D+00 0.000D+00 0.000D+00 0.000D+00 0.000D+00
 Coeff:      0.000D+00 0.000D+00 0.000D+00 0.161D+00 0.167D-02 0.292D-03
 Coeff:      0.657D-03 0.173D-02 0.419D-04 0.334D-03 0.583D-03 0.193D-04
 Coeff:      0.303D+00 0.530D+00
 Gap=     0.008 Goal=   None    Shift=    0.000
 Gap=     0.008 Goal=   None    Shift=    0.000
 RMSDP=1.09D-02 MaxDP=4.10D+00 DE=-1.26D-04 OVMax= 1.79D-02

 Cycle  41  Pass 1  IDiag  1:
 Density matrix breaks symmetry, PCut= 1.00D-04
 Density matrix has no symmetry -- integrals replicated.
 Restarting incremental Fock formation.
 E= -1820.39607810183     Delta-E=       -0.000274589770 Rises=F Damp=F
 DIIS: error= 1.55D-02 at cycle  41 NSaved=  20.
 NSaved=20 IEnMin=13 EnMin= -1820.39706468352     IErMin=13 ErrMin= 1.38D-02
 ErrMax= 1.55D-02  0.00D+00 EMaxC= 1.00D-01 BMatC= 1.38D-01 BMatP= 1.12D-01
 IDIUse=2 WtCom= 0.00D+00 WtEn= 1.00D+00
 EnCoef did   100 forward-backward iterations
 Coeff-En:   0.000D+00 0.000D+00 0.000D+00 0.000D+00 0.000D+00 0.000D+00
 Coeff-En:   0.000D+00 0.000D+00 0.000D+00 0.160D+00 0.195D-02 0.341D-03
 Coeff-En:   0.767D-03 0.202D-02 0.488D-04 0.389D-03 0.681D-03 0.225D-04
 Coeff-En:   0.177D+00 0.657D+00
 Coeff:      0.000D+00 0.000D+00 0.000D+00 0.000D+00 0.000D+00 0.000D+00
 Coeff:      0.000D+00 0.000D+00 0.000D+00 0.160D+00 0.195D-02 0.341D-03
 Coeff:      0.767D-03 0.202D-02 0.488D-04 0.389D-03 0.681D-03 0.225D-04
 Coeff:      0.177D+00 0.657D+00
 Gap=     0.007 Goal=   None    Shift=    0.000
 Gap=     0.007 Goal=   None    Shift=    0.000
 RMSDP=3.27D-02 MaxDP=1.26D+01 DE=-2.75D-04 OVMax= 3.44D-02

 Cycle  42  Pass 1  IDiag  1:
 Density matrix breaks symmetry, PCut= 1.00D-04
 Density matrix has no symmetry -- integrals replicated.
 RMSU=  2.54D-02    CP:  1.50D+00
 E= -1820.39714701938     Delta-E=       -0.001068917551 Rises=F Damp=F
 DIIS: error= 1.52D-02 at cycle  42 NSaved=  20.
 NSaved=20 IEnMin=20 EnMin= -1820.39714701938     IErMin=13 ErrMin= 1.38D-02
 ErrMax= 1.52D-02  0.00D+00 EMaxC= 1.00D-01 BMatC= 1.33D-01 BMatP= 1.12D-01
 IDIUse=2 WtCom= 0.00D+00 WtEn= 1.00D+00
 EnCoef did    85 forward-backward iterations
 Coeff-En:   0.000D+00 0.000D+00 0.000D+00 0.000D+00 0.000D+00 0.000D+00
 Coeff-En:   0.000D+00 0.000D+00 0.000D+00 0.159D+00 0.259D-02 0.150D-02
 Coeff-En:   0.102D-02 0.517D-04 0.650D-04 0.518D-03 0.906D-03 0.299D-04
 Coeff-En:   0.637D-03 0.834D+00
 Coeff:      0.000D+00 0.000D+00 0.000D+00 0.000D+00 0.000D+00 0.000D+00
 Coeff:      0.000D+00 0.000D+00 0.000D+00 0.159D+00 0.259D-02 0.150D-02
 Coeff:      0.102D-02 0.517D-04 0.650D-04 0.518D-03 0.906D-03 0.299D-04
 Coeff:      0.637D-03 0.834D+00
 Gap=     0.007 Goal=   None    Shift=    0.000
 Gap=     0.007 Goal=   None    Shift=    0.000
 RMSDP=1.47D-01 MaxDP=5.70D+01 DE=-1.07D-03 OVMax= 8.37D-02

 Cycle  43  Pass 1  IDiag  1:
 Density matrix breaks symmetry, PCut= 1.00D-04
 Density matrix has no symmetry -- integrals replicated.
 RMSU=  7.12D-02    CP:  3.00D+00  3.00D+00
 E= -1820.40254591985     Delta-E=       -0.005398900475 Rises=F Damp=F
 DIIS: error= 1.35D-02 at cycle  43 NSaved=  20.
 NSaved=20 IEnMin=20 EnMin= -1820.40254591985     IErMin=20 ErrMin= 1.35D-02
[...]
     Eigenvalues ---    0.04465   0.04544   0.05925   0.05936   0.05993
     Eigenvalues ---    0.06865   0.06894   0.06981   0.09827   0.09835
     Eigenvalues ---    0.10620   0.11794   0.12842   0.16096   0.28415
     Eigenvalues ---    0.28731   0.30841   2.17486   2.17768   2.17846
     Eigenvalues ---    2.18546   2.19602   2.19847
 Angle between quadratic step and forces=  81.56 degrees.
 Linear search not attempted -- first point.
 B after Tr=    -0.000000    0.000002    0.000000
         Rot=    1.000000    0.000000    0.000000   -0.000000 Ang=   0.00 deg.
 Variable       Old X    -DE/DX   Delta X   Delta X   Delta X     New X
                                 (Linear)    (Quad)   (Total)
    X1       -0.68541  -0.00000   0.00000  -0.00000  -0.00000  -0.68542
    Y1       -0.72016   0.00000   0.00000   0.00004   0.00004  -0.72012
    Z1       -0.00001  -0.00000   0.00000   0.00001   0.00001  -0.00000
    X2       -0.68567   0.00000   0.00000   0.00002   0.00002  -0.68564
    Y2        3.04233   0.00003   0.00000   0.00004   0.00004   3.04237
    Z2       -0.00160   0.00000   0.00000   0.00004   0.00004  -0.00156
    X3        3.09600   0.00000   0.00000  -0.00001  -0.00001   3.09599
    Y3       -0.72000  -0.00000   0.00000   0.00009   0.00009  -0.71991
    Z3       -0.00019   0.00000   0.00000   0.00005   0.00005  -0.00013
    X4       -0.68540  -0.00000   0.00000   0.00010   0.00010  -0.68530
    Y4       -0.72162  -0.00000   0.00000  -0.00010  -0.00009  -0.72172
    Z4        3.76249   0.00000   0.00000  -0.00001  -0.00001   3.76249
    X5       -0.68511   0.00000   0.00000  -0.00008  -0.00008  -0.68519
    Y5       -4.48264  -0.00000   0.00000   0.00004   0.00004  -4.48261
    Z5        0.00150   0.00000   0.00000   0.00005   0.00005   0.00156
    X6       -4.46681  -0.00000   0.00000  -0.00001  -0.00001  -4.46682
    Y6       -0.72033  -0.00000   0.00000   0.00000   0.00000  -0.72033
    Z6        0.00019   0.00000   0.00000  -0.00005  -0.00005   0.00013
    X7       -0.68551   0.00000   0.00000  -0.00003  -0.00003  -0.68553
    Y7       -0.71851   0.00000   0.00000  -0.00001  -0.00001  -0.71852
    Z7       -3.76247  -0.00001   0.00000  -0.00001  -0.00001  -3.76249
    X8       -0.68584   0.00000   0.00000   0.00007   0.00007  -0.68577
    Y8        5.26805  -0.00003   0.00000   0.00001   0.00002   5.26806
    Z8        0.02355  -0.00000   0.00000  -0.00005  -0.00006   0.02349
    X9        5.32138  -0.00000   0.00000  -0.00001  -0.00001   5.32136
    Y9       -0.72000   0.00000   0.00000   0.00022   0.00022  -0.71978
    Z9       -0.00035   0.00000   0.00000   0.00015   0.00015  -0.00021
   X10       -0.68550   0.00000   0.00000   0.00027   0.00027  -0.68523
   Y10       -0.69650  -0.00000   0.00000  -0.00020  -0.00020  -0.69670
   Z10        5.98819  -0.00000   0.00000  -0.00001  -0.00001   5.98818
   X11       -0.68486  -0.00000   0.00000  -0.00021  -0.00021  -0.68506
   Y11       -6.70834   0.00000   0.00000   0.00004   0.00004  -6.70830
   Z11       -0.02357  -0.00000   0.00000   0.00007   0.00007  -0.02349
   X12       -6.69218   0.00000   0.00000  -0.00001  -0.00001  -6.69219
   Y12       -0.72039  -0.00000   0.00000  -0.00007  -0.00006  -0.72045
   Z12        0.00044  -0.00000   0.00000  -0.00023  -0.00023   0.00021
   X13       -0.68551  -0.00000   0.00000  -0.00010  -0.00010  -0.68560
   Y13       -0.74343  -0.00000   0.00000  -0.00012  -0.00012  -0.74354
   Z13       -5.98818   0.00001   0.00000  -0.00001  -0.00001  -5.98818
         Item               Value     Threshold  Converged?
 Maximum Force            0.000028     0.000450     YES
 RMS     Force            0.000007     0.000300     YES
 Maximum Displacement     0.000272     0.001800     YES
 RMS     Displacement     0.000098     0.001200     YES
 Predicted change in Energy=-1.890569D-09
 Optimization completed.
    -- Stationary point found.
 GradGradGradGradGradGradGradGradGradGradGradGradGradGradGradGradGradGrad

 Leave Link  103 at Mon Jul 22 22:59:18 2024, MaxMem=120795955200 cpu:               0.5 elap:               0.0
 (Enter /gpfs/fs1/soft/improv/software/custom-built/gaussian/g16/l9999.exe)

 ----------------------------------------------------------------------

 Electric dipole moment (input orientation):
 (Debye = 10**-18 statcoulomb cm , SI units = C m)
                  (au)            (Debye)         (10**-30 SI)
   Tot        0.618218D-04      0.157135D-03      0.524147D-03
   x          0.000000D+00      0.000000D+00      0.000000D+00
   y         -0.391103D-04     -0.994084D-04     -0.331591D-03
   z         -0.478781D-04     -0.121694D-03     -0.405928D-03

 Dipole polarizability, Alpha (input orientation).
 (esu units = cm**3 , SI units = C**2 m**2 J**-1)
 Alpha(0;0):
               (au)            (10**-24 esu)      (10**-40 SI)
   iso        0.311666D+03      0.461842D+02      0.513869D+02
   aniso      0.355581D+02      0.526916D+01      0.586273D+01
   xx         0.305067D+03      0.452063D+02      0.502988D+02
   yx        -0.130149D-01     -0.192861D-02     -0.214587D-02
   yy         0.314964D+03      0.466729D+02      0.519306D+02
   zx        -0.197002D-01     -0.291928D-02     -0.324813D-02
   zy        -0.197179D+02     -0.292189D+01     -0.325104D+01
   zz         0.314968D+03      0.466734D+02      0.519312D+02

 ----------------------------------------------------------------------

 Dipole orientation:
    26         -0.65718935          0.53545202          0.51943236
     6         -0.78601211         -2.38558032         -1.84853527
     6          3.10446615          0.66459042          0.15564892
     6         -1.01912795          2.90581823         -2.38001357
     6         -0.52831461          3.45643643          2.88745835
     6         -4.41882958          0.40634040          0.88321131
     6         -0.29533916         -1.83503773          3.41874189
     7         -0.86474867         -4.09710670         -3.26942816
     7          5.31822695          0.74061910         -0.05833290
     7         -1.23423091          4.28782353         -4.11153113
     7         -0.44950046          5.16800043          4.30826751
     7         -6.63259660          0.33041045          1.09716349
     7         -0.08034392         -3.21721010          5.15014222

 Electric dipole moment (dipole orientation):
 (Debye = 10**-18 statcoulomb cm , SI units = C m)
                  (au)            (Debye)         (10**-30 SI)
   Tot        0.621099D-04      0.157868D-03      0.526590D-03
   x          0.000000D+00      0.000000D+00      0.000000D+00
   y          0.000000D+00      0.000000D+00      0.000000D+00
   z          0.621099D-04      0.157868D-03      0.526590D-03

 Dipole polarizability, Alpha (dipole orientation).
 (esu units = cm**3 , SI units = C**2 m**2 J**-1)
 Alpha(0;0):
               (au)            (10**-24 esu)      (10**-40 SI)
   iso        0.311666D+03      0.461842D+02      0.513869D+02
   aniso      0.355581D+02      0.526916D+01      0.586273D+01
   xx         0.305045D+03      0.452030D+02      0.502952D+02
   yx        -0.138681D+01     -0.205504D+00     -0.228655D+00
   yy         0.334226D+03      0.495272D+02      0.551065D+02
   zx        -0.744068D+00     -0.110259D+00     -0.122680D+00
   zy        -0.394604D+01     -0.584743D+00     -0.650614D+00
   zz         0.295728D+03      0.438224D+02      0.487589D+02

 ----------------------------------------------------------------------
 Unable to Open any file for archive entry.
 1\1\GINC-I814\Freq\UB3LYP\6-31+G(2df,p)\C6Fe1N6(4-)\HHARB\22-Jul-2024\
 0\\#P Geom=AllCheck Guess=TCheck SCRF=Check GenChk UB3LYP/6-31+G(2df,p
 ) Freq\\title\\-4,1\Fe,-0.3627040589,-0.3810913659,-0.0000045199\C,-0.
 3628384548,1.6099299522,-0.0008456275\C,1.6383323292,-0.3810093402,-0.
 0000985069\C,-0.3626962381,-0.3818671565,1.9910257086\C,-0.3625461387,
 -2.3721133825,0.0007941664\C,-2.363731692,-0.3811831669,0.0000994467\C
 ,-0.3627537121,-0.3802177817,-1.9910157704\N,-0.3629289689,2.787729854
 9,0.01246201\N,2.8159514368,-0.3810090681,-0.0001876532\N,-0.362750037
 1,-0.3685700731,3.1688141325\N,-0.3624098336,-3.5499022407,-0.01247073
 09\N,-3.5413507788,-0.3812139934,0.0002339008\N,-0.3627536729,-0.39340
 52381,-3.1688065562\\Version=ES64L-G16RevC.02\State=1-A\HF=-1820.44356
 58\S2=0.\S2-1=0.\S2A=0.\RMSD=1.853e-09\RMSF=6.753e-06\ZeroPoint=0.0485
 153\Thermal=0.0631652\ETot=-1820.3804006\HTot=-1820.3794564\GTot=-1820
 .4362845\Dipole=-0.000006,-0.0000391,-0.0000479\DipoleDeriv=-1.8540335
 ,0.0014106,0.0016144,0.0031445,-1.5198112,-0.0675387,0.0033922,-0.0675
 466,-1.5198777,0.2001107,-0.0002303,-0.0000015,-0.0005862,0.7227146,-0
 .1124263,0.0001328,0.1901467,0.126282,0.9077228,-0.0001843,-0.0002521,
 -0.0000813,0.177749,0.0225926,-0.000063,0.0225652,0.1777879,0.2002029,
 -0.0000171,-0.0002511,0.0001367,0.1264181,0.1900129,-0.0005393,-0.1123
 763,0.7226061,0.2001831,-0.0002635,-0.0000034,-0.0005866,0.7226094,-0.
 1124185,0.0001292,0.1899837,0.1264443,0.9077443,-0.0002178,-0.0002657,
 -0.0000017,0.1777673,0.0225901,-0.0000969,0.0225814,0.1777393,0.200185
 4,-0.0000035,-0.0002379,0.0001434,0.1263208,0.1900501,-0.0005294,-0.11
 24426,0.7226673,-0.4633918,-0.0002284,0.0001264,-0.0001261,-1.3533704,
 0.0554112,-0.0002788,-0.112268,-0.4504756,-1.4542514,-0.0001873,-0.000
 1407,-0.0006599,-0.4630606,-0.0096194,-0.0006741,-0.0096143,-0.4630515
 ,-0.4634068,0.000124,-0.0002654,-0.0002851,-0.4505052,-0.1122562,-0.00
 02609,0.0553472,-1.3532738,-0.463396,-0.0001876,0.0001242,-0.0001225,-
 1.3532762,0.0553934,-0.0002756,-0.1122058,-0.4505051,-1.4542603,-0.000
 1405,-0.0001339,-0.0006866,-0.4630668,-0.0096203,-0.0006534,-0.0096151
 ,-0.4630395,-0.4634093,0.0001258,-0.0003133,-0.0002886,-0.4504887,-0.1
 121709,-0.0002828,0.0554446,-1.3533038\Polar=305.0671517,-0.0130149,31
 4.9643164,-0.0197002,-19.7178834,314.9678716\Quadrupole=-0.9616781,0.4
 806642,0.4810139,0.0016248,0.0023804,0.6793993\PG=C01 [X(C6Fe1N6)]\NIm
 ag=0\\0.26099946,-0.00000814,0.24417839,-0.00000787,-0.00024618,0.2441
 7785,-0.05314524,-0.00000759,0.00000683,0.08967659,0.00000666,-0.03593
 864,-0.00001413,-0.00008391,1.13650384,0.00001271,0.00157830,-0.041639
 76,-0.00000472,0.01129679,0.07614524,-0.03976564,0.00001194,0.00001041
 ,-0.00313242,-0.00110078,0.00018257,1.14422874,0.00000582,-0.05173077,
 0.00024623,0.02181485,-0.00324338,-0.00035071,-0.00000720,0.08802328,0
 .00000244,0.00024607,-0.05172947,0.00350435,-0.00004699,0.00073432,-0.
 00008704,0.00374098,0.08802179,-0.05314723,0.00000529,-0.00000511,0.00
 476298,-0.00000761,-0.00000342,-0.00313108,0.00350187,0.02181278,0.089
 66336,0.00001119,-0.04164002,0.00157975,-0.00000096,-0.00364034,0.0146
 7052,0.00018185,0.00073503,-0.00034842,-0.00000240,0.07613269,0.000008
 29,-0.00001237,-0.03593855,-0.00000830,0.00116270,-0.00364069,-0.00110
 130,-0.00004768,-0.00324483,-0.00005140,0.01128579,1.13658731,-0.05314
 874,-0.00000596,0.00000659,0.00244414,0.00000431,-0.00000145,-0.003110
 15,-0.02181437,-0.00350452,-0.00278361,-0.00000216,0.00000341,0.089665
 49,0.00000641,-0.03594086,-0.00001235,0.00000449,-0.01220165,-0.000329
 98,0.00109593,-0.00323017,-0.00003149,0.00000383,-0.00479632,-0.001074
 36,-0.00012481,1.13658750,0.00001270,0.00157922,-0.04164041,-0.0000017
 0,-0.00033028,0.00250036,-0.00018589,-0.00034776,0.00073549,-0.0000012
 1,-0.01636317,-0.00479606,-0.00000494,0.01125746,0.07613161,-0.0397685
 9,0.00001011,0.00001210,-0.00311038,0.00109591,-0.00018641,-0.00829479
 ,0.00000642,0.00000845,-0.00311087,-0.00018604,0.00109565,-0.00313215,
 -0.00110083,0.00018204,1.14423111,0.00000215,-0.05173023,0.00024607,-0
 .02181532,-0.00323005,-0.00034749,0.00000661,0.00234424,-0.00325243,-0
 .00350463,0.00073560,-0.00003100,0.02181449,-0.00324301,-0.00035057,0.
 00002127,0.08802412,0.00000397,0.00024655,-0.05173013,-0.00350624,-0.0
 0003131,0.00073609,0.00000811,-0.00325220,0.00234475,-0.02181395,-0.00
 035031,-0.00322887,0.00350248,-0.00004737,0.00073488,-0.00012904,0.003
 74106,0.08802392,-0.05314720,0.00000577,-0.00000626,-0.00278803,0.0000
 0365,-0.00000076,-0.00311112,-0.00350666,-0.02181520,0.00244508,-0.000
 00237,0.00000354,0.00476338,-0.00000762,-0.00000292,-0.00313144,0.0035
 0422,0.02181527,0.08966890,0.00001126,-0.04164103,0.00158058,-0.000001
 32,-0.00479818,-0.01636526,-0.00018693,0.00073646,-0.00034981,-0.00000
 206,0.00250051,-0.00033023,-0.00000183,-0.00364020,0.01467090,0.000182
 78,0.00073416,-0.00034844,-0.00000214,0.07613502,0.00000914,-0.0000136
 8,-0.03594333,0.00000331,-0.00107522,-0.00479892,0.00109579,-0.0000306
 8,-0.00322799,0.00000378,-0.00033055,-0.01220143,-0.00000848,0.0011625
 2,-0.00363986,-0.00110125,-0.00004745,-0.00324599,-0.00000466,0.011190
 01,1.13658617,0.01487108,0.00000736,0.00000292,-0.03601564,0.00007992,
 -0.00000059,-0.00007379,-0.00382122,-0.00131378,-0.00141435,-0.0000011
 0,0.00000015,-0.00108426,-0.00000172,0.00000101,-0.00008198,0.00382053
 ,0.00131230,0.00145095,-0.00000007,-0.00000079,0.02034592,-0.00000849,
 -0.01932377,-0.00070139,0.00009405,-1.07125246,-0.01139084,0.00223494,
 0.00122412,0.00004147,0.00001149,0.00160713,0.00044640,-0.00000899,-0.
 00258285,0.00050350,-0.00223325,0.00120075,0.00002316,-0.00001001,0.00
 236446,-0.00023521,-0.00008462,1.08142376,-0.00000489,-0.00081803,0.01
 243195,0.00000276,-0.01137180,-0.03291122,-0.00009494,0.00008714,0.000
 08555,0.00000361,-0.00214347,-0.00003056,-0.00000030,0.00006115,-0.001
 37610,0.00009751,0.00008991,0.00008671,0.00000043,0.00257382,0.0003173
 3,-0.00000275,0.01167311,0.01954241,-0.01418104,-0.00001724,-0.0000152
 4,0.00118967,0.00078095,-0.00026006,-1.07890096,0.00001101,0.00009116,
 0.00119031,-0.00025922,0.00078136,0.00116582,-0.00077665,0.00026142,-0
 .00447111,-0.00000990,-0.00001018,0.00116445,0.00026266,-0.00077713,0.
 00062461,-0.00318600,0.00011011,1.08650530,-0.00000568,0.01411220,-0.0
 0016914,-0.00383598,0.00005174,0.00015328,-0.00000448,-0.03521552,-0.0
 0142995,-0.00134427,0.00014098,0.00007089,0.00383683,0.00004553,0.0001
 5177,-0.00000127,-0.00101623,0.00123018,0.00134714,0.00013826,0.000066
 67,0.00142365,0.00057544,-0.00002025,0.00000616,0.01990917,-0.00000359
 ,-0.00016908,0.01411202,-0.00134499,0.00007057,0.00014134,0.00007368,-
 0.00142997,-0.03521542,-0.00383551,0.00015290,0.00005178,0.00134661,0.
 00006712,0.00013841,-0.00000087,0.00123029,-0.00101610,0.00383798,0.00
 015197,0.00004592,0.00037580,-0.00003681,0.00015635,-0.00007408,0.0003
 9410,0.01990878,0.01487113,0.00000361,0.00000441,-0.00141442,-0.000000
 05,-0.00000055,-0.00007410,-0.00131335,-0.00382104,-0.03600455,-0.0000
 0136,0.00004815,0.00144998,-0.00000080,-0.00000023,-0.00008169,0.00131
 183,0.00382081,-0.00108402,0.00000087,-0.00000165,0.00058457,-0.000001
 42,-0.00000128,0.00062461,0.00037566,0.00142355,0.02033566,-0.00000411
 ,0.01243192,-0.00081954,0.00000320,-0.00003069,-0.00214352,-0.00009512
 ,0.00008549,0.00008689,0.00000196,-0.03290032,-0.01136279,0.00000061,0
 .00031703,0.00257351,0.00009744,0.00008681,0.00009033,-0.00000021,-0.0
 0137609,0.00006121,-0.00000119,0.00060692,0.00103926,0.00011014,0.0001
 5640,-0.00002017,-0.00000221,0.01953166,-0.00001188,-0.00070339,-0.019
 32071,0.00001149,0.00044681,0.00160663,0.00223548,0.00004175,0.0012252
 4,0.00006316,-0.01138185,-1.07133781,-0.00000937,-0.00023570,0.0023630
 0,-0.00223354,0.00002277,0.00119991,-0.00001069,0.00050433,-0.00258344
 ,-0.00000143,-0.00304632,0.00060685,-0.00318640,-0.00003746,0.00057590
 ,-0.00005051,0.01166567,1.08150791,0.01487152,0.00000741,0.00000314,-0
 .00108393,-0.00000148,0.00000083,-0.00008191,0.00382041,0.00131188,0.0
 0144997,0.00000002,-0.00000072,-0.03600497,0.00012069,-0.00000031,-0.0
 0007385,-0.00382133,-0.00131336,-0.00141441,-0.00000102,0.00000015,0.0
 0038782,0.00000224,0.00000029,0.00062912,-0.00142416,-0.00037555,-0.00
 022403,0.00000012,0.00000239,0.02033542,-0.00000755,-0.01932194,-0.000
 70262,-0.00000923,-0.00258293,0.00050390,-0.00223320,0.00120075,0.0000
 2319,-0.00000997,0.00236295,-0.00023571,0.00013412,-1.07133608,-0.0113
 5420,0.00223486,0.00122415,0.00004156,0.00001160,0.00160586,0.00044695
 ,0.00000242,0.00322553,-0.00012793,0.00318740,0.00057958,-0.00003429,0
 .00000248,0.00035169,0.00288527,-0.00012528,1.08150773,-0.00000485,-0.
 00081878,0.01243236,-0.00000029,0.00006126,-0.00137601,0.00009744,0.00
 008989,0.00008680,0.00000051,0.00257338,0.00031692,0.00000318,-0.01133
 413,-0.03289965,-0.00009487,0.00008711,0.00008551,0.00000352,-0.002143
 73,-0.00003052,0.00000026,-0.00012799,0.00058507,-0.00011080,-0.000021
 46,0.00015404,0.00000028,-0.00102131,0.00035171,-0.00000318,0.01163699
 ,0.01953063,-0.01418157,-0.00001585,-0.00001589,0.00116586,-0.00077676
 ,0.00026208,-0.00447105,-0.00000973,-0.00001045,0.00116446,0.00026141,
 -0.00077693,0.00118944,0.00078104,-0.00025940,-1.07890026,-0.00001614,
 0.00013111,0.00119057,-0.00026050,0.00078121,0.00062924,0.00318741,-0.
 00011085,0.00383007,0.00000197,0.00000145,0.00062900,-0.00011085,0.003
 18850,0.00062474,-0.00318602,0.00011006,1.08650503,-0.00000538,0.01411
 227,-0.00016901,0.00383724,0.00004552,0.00015160,-0.00000138,-0.001016
 24,0.00123024,0.00134671,0.00013841,0.00006666,-0.00383558,0.00005173,
 0.00015319,-0.00003189,-0.03521594,-0.00142998,-0.00134479,0.00014114,
 0.00007097,-0.00142410,0.00057965,-0.00002142,0.00000208,0.00036841,-0
 .00035506,-0.00037554,0.00015404,-0.00003345,0.00142358,0.00057535,-0.
 00002027,0.00003332,0.01990926,-0.00000343,-0.00016937,0.01411218,0.00
 134695,0.00006713,0.00013833,-0.00000070,0.00123022,-0.00101607,0.0038
 3739,0.00015215,0.00004603,-0.00134463,0.00007064,0.00014124,0.0001146
 6,-0.00143002,-0.03521610,-0.00383639,0.00015313,0.00005193,-0.0003756
 4,-0.00003440,0.00015401,0.00000131,-0.00035504,0.00036837,-0.00142453
 ,-0.00002158,0.00057852,0.00037571,-0.00003674,0.00015635,-0.00011441,
 0.00039411,0.01990922,0.01487205,0.00000329,0.00000399,0.00145081,-0.0
 0000081,-0.00000024,-0.00008173,0.00131214,0.00382097,-0.00108448,0.00
 000114,-0.00000189,-0.00141439,0.00000003,-0.00000057,-0.00007401,-0.0
 0131379,-0.00382129,-0.03600712,-0.00000170,0.00000058,-0.00022416,0.0
 0000265,0.00000030,0.00062915,-0.00037558,-0.00142446,0.00038786,0.000
 00023,0.00000278,0.00058450,-0.00000163,-0.00000128,0.00062447,0.00037
 572,0.00142372,0.02033707,-0.00000413,0.01243250,-0.00081826,0.0000004
 7,0.00031723,0.00257343,0.00009782,0.00008672,0.00009025,-0.00000020,-
 0.00137628,0.00006170,0.00000334,-0.00003063,-0.00214356,-0.00009552,0
 .00008562,0.00008677,0.00000141,-0.03290034,-0.01126553,0.00000014,0.0
 0035131,-0.00102150,-0.00011139,0.00015403,-0.00002159,0.00000027,0.00
 058513,-0.00012844,-0.00000120,0.00060736,0.00103902,0.00011068,0.0001
 5640,-0.00002022,-0.00000168,0.01953097,-0.00001274,-0.00069928,-0.019
 32399,-0.00000944,-0.00023551,0.00236428,-0.00223360,0.00002279,0.0011
 9984,-0.00001064,0.00050327,-0.00258325,0.00001140,0.00044650,0.001607
 09,0.00223557,0.00004174,0.00122541,0.00001614,-0.01128727,-1.07132986
 ,0.00000253,0.00288532,0.00035165,0.00318852,-0.00003359,0.00057862,0.
 00000259,-0.00012794,0.00322630,-0.00000127,-0.00304638,0.00060679,-0.
 00318647,-0.00003759,0.00057599,-0.00000260,0.01156793,1.08150112\\0.0
 0000021,-0.00000340,0.00000194,-0.00000049,-0.00002762,-0.00000408,-0.
 00000304,0.00000079,-0.00000049,0.00000030,0.00000219,-0.00000248,-0.0
 0000050,0.00000294,-0.00000276,0.00000411,0.00000073,-0.00000192,-0.00
 000085,-0.00000086,0.00000724,-0.00000031,0.00002761,0.00000265,0.0000
 0342,-0.00000184,-0.00000144,-0.00000181,0.00000039,0.00000357,0.00000
 133,-0.00000314,0.00000050,-0.00000342,0.00000114,0.00000294,0.0000010
 6,0.00000108,-0.00000567\\\@
 The archive entry for this job was punched.


 E PUR SI MUOVE    -- GALILEO GALILEI
 Job cpu time:       0 days  8 hours  0 minutes 53.1 seconds.
 Elapsed time:       0 days  0 hours  3 minutes 54.7 seconds.
 File lengths (MBytes):  RWF=    495 Int=      0 D2E=      0 Chk=     48 Scr=      1
 Normal termination of Gaussian 16 at Mon Jul 22 22:59:18 2024.
