13
Fe_CN6_minus2_HS.log	Energy: -1142348.7410170
Fe         0.00015       -0.00015       -0.00008
C          0.00081        1.40799        1.45920
C          0.00035        1.45916       -1.40819
C          2.38553       -0.00089       -0.00035
C         -0.00080       -1.40827       -1.45938
C         -0.00042       -1.45944        1.40805
C         -2.38565        0.00098        0.00041
N          0.00120        2.22010        2.30089
N          0.00049        2.30090       -2.22024
N          3.56000       -0.00033        0.00006
N         -0.00130       -2.22034       -2.30110
N         -0.00074       -2.30113        2.22016
N         -3.56006        0.00177        0.00077
