 Entering Gaussian System, Link 0=g16
 Input=Fe_CN6_minus3_HS.com
 Output=Fe_CN6_minus3_HS.log
 Initial command:
 /gpfs/fs1/soft/improv/software/custom-built/gaussian/g16/l1.exe "/scratch/Gau-350889.inp" -scrdir="/scratch/"
 Default CPUs for threads: 0-127
 Default linda workers: i816.lcrc.anl.gov
 Default is to use 128 SMP processors on each worker.
 Entering Link 1 = /gpfs/fs1/soft/improv/software/custom-built/gaussian/g16/l1.exe PID=    350890.
  
 Copyright (c) 1988-2021, Gaussian, Inc.  All Rights Reserved.
  
 This is part of the Gaussian(R) 16 program.  It is based on
 the Gaussian(R) 09 system (copyright 2009, Gaussian, Inc.),
 the Gaussian(R) 03 system (copyright 2003, Gaussian, Inc.),
 the Gaussian(R) 98 system (copyright 1998, Gaussian, Inc.),
 the Gaussian(R) 94 system (copyright 1995, Gaussian, Inc.),
 the Gaussian 92(TM) system (copyright 1992, Gaussian, Inc.),
 the Gaussian 90(TM) system (copyright 1990, Gaussian, Inc.),
 the Gaussian 88(TM) system (copyright 1988, Gaussian, Inc.),
 the Gaussian 86(TM) system (copyright 1986, Carnegie Mellon
 University), and the Gaussian 82(TM) system (copyright 1983,
 Carnegie Mellon University). Gaussian is a federally registered
 trademark of Gaussian, Inc.
  
 This software contains proprietary and confidential information,
 including trade secrets, belonging to Gaussian, Inc.
  
 This software is provided under written license and may be
 used, copied, transmitted, or stored only in accord with that
 written license.
  
 The following legend is applicable only to US Government
 contracts under FAR:
  
                    RESTRICTED RIGHTS LEGEND
  
 Use, reproduction and disclosure by the US Government is
 subject to restrictions as set forth in subparagraphs (a)
 and (c) of the Commercial Computer Software - Restricted
 Rights clause in FAR 52.227-19.
  
 Gaussian, Inc.
 340 Quinnipiac St., Bldg. 40, Wallingford CT 06492
  
  
 ---------------------------------------------------------------
 Warning -- This program may not be used in any manner that
 competes with the business of Gaussian, Inc. or will provide
 assistance to any competitor of Gaussian, Inc.  The licensee
 of this program is prohibited from giving any competitor of
 Gaussian, Inc. access to this program.  By using this program,
 the user acknowledges that Gaussian, Inc. is engaged in the
 business of creating and licensing software in the field of
 computational chemistry and represents and warrants to the
 licensee that it is not a competitor of Gaussian, Inc. and that
 it will not use this program in any manner prohibited above.
 ---------------------------------------------------------------
  

 Cite this work as:
 Gaussian 16, Revision C.02,
 M. J. Frisch, G. W. Trucks, H. B. Schlegel, G. E. Scuseria, 
 M. A. Robb, J. R. Cheeseman, G. Scalmani, V. Barone, 
 G. A. Petersson, H. Nakatsuji, X. Li, M. Caricato, A. V. Marenich, 
 J. Bloino, B. G. Janesko, R. Gomperts, B. Mennucci, H. P. Hratchian, 
 J. V. Ortiz, A. F. Izmaylov, J. L. Sonnenberg, D. Williams-Young, 
 F. Ding, F. Lipparini, F. Egidi, J. Goings, B. Peng, A. Petrone, 
 T. Henderson, D. Ranasinghe, V. G. Zakrzewski, J. Gao, N. Rega, 
 G. Zheng, W. Liang, M. Hada, M. Ehara, K. Toyota, R. Fukuda, 
 J. Hasegawa, M. Ishida, T. Nakajima, Y. Honda, O. Kitao, H. Nakai, 
 T. Vreven, K. Throssell, J. A. Montgomery, Jr., J. E. Peralta, 
 F. Ogliaro, M. J. Bearpark, J. J. Heyd, E. N. Brothers, K. N. Kudin, 
 V. N. Staroverov, T. A. Keith, R. Kobayashi, J. Normand, 
 K. Raghavachari, A. P. Rendell, J. C. Burant, S. S. Iyengar, 
 J. Tomasi, M. Cossi, J. M. Millam, M. Klene, C. Adamo, R. Cammi, 
 J. W. Ochterski, R. L. Martin, K. Morokuma, O. Farkas, 
 J. B. Foresman, and D. J. Fox, Gaussian, Inc., Wallingford CT, 2019.
 
 ******************************************
 Gaussian 16:  ES64L-G16RevC.02  7-Dec-2021
                22-Jul-2024 
 ******************************************
 %chk=Fe_CN6_minus3_HS
 SetSPE:  set environment variable "OMP_PROC_BIND" = "true"
 SetSPE:  set environment variable "OMP_PLACES" = "{0},{1},{2},{3},{4},{5},{6},{7},{8},{9},{10},{11},{12},{13},{14},{15},{16},{17},{18},{19},{20},{21},{22},{23},{24},{25},{26},{27},{28},{29},{30},{31},{32},{33},{34},{35},{36},{37},{38},{39},{40},{41},{42},{43},{44},{45},{46},{47},{48},{49},{50},{51},{52},{53},{54},{55},{56},{57},{58},{59},{60},{61},{62},{63},{64},{65},{66},{67},{68},{69},{70},{71},{72},{73},{74},{75},{76},{77},{78},{79},{80},{81},{82},{83},{84},{85},{86},{87},{88},{89},{90},{91},{92},{93},{94},{95},{96},{97},{98},{99},{100},{101},{102},{103},{104},{105},{106},{107},{108},{109},{110},{111},{112},{113},{114},{115},{116},{117},{118},{119},{120},{121},{122},{123},{124},{125},{126},{127}"
 SetLPE:    new flags="-opt 'Tsnet.Node.lindarsharg: ssh'  -nodelist 'i816.lcrc.anl.gov' -env GAUSS_MDEF=120795955200 -env GAUSS_EXEDIR="/gpfs/fs1/soft/improv/software/custom-built/gaussian/g16/bsd:/gpfs/fs1/soft/improv/software/custom-built/gaussian/g16" -env "OMP_PROC_BIND=true" -env "OMP_PLACES={0},{1},{2},{3},{4},{5},{6},{7},{8},{9},{10},{11},{12},{13},{14},{15},{16},{17},{18},{19},{20},{21},{22},{23},{24},{25},{26},{27},{28},{29},{30},{31},{32},{33},{34},{35},{36},{37},{38},{39},{40},{41},{42},{43},{44},{45},{46},{47},{48},{49},{50},{51},{52},{53},{54},{55},{56},{57},{58},{59},{60},{61},{62},{63},{64},{65},{66},{67},{68},{69},{70},{71},{72},{73},{74},{75},{76},{77},{78},{79},{80},{81},{82},{83},{84},{85},{86},{87},{88},{89},{90},{91},{92},{93},{94},{95},{96},{97},{98},{99},{100},{101},{102},{103},{104},{105},{106},{107},{108},{109},{110},{111},{112},{113},{114},{115},{116},{117},{118},{119},{120},{121},{122},{123},{124},{125},{126},{127}" -env GAUSS_ADEF="0,1,2,3,4,5,6,7,8,9,10,11,12,13,14,15,16,17,18,19,20,21,22,23,24,25,26,27,28,29,30,31,32,33,34,35,36,37,38,39,40,41,42,43,44,45,46,47,48,49,50,51,52,53,54,55,56,57,58,59,60,61,62,63,64,65,66,67,68,69,70,71,72,73,74,75,76,77,78,79,80,81,82,83,84,85,86,87,88,89,90,91,92,93,94,95,96,97,98,99,100,101,102,103,104,105,106,107,108,109,110,111,112,113,114,115,116,117,118,119,120,121,122,123,124,125,126,127""
 Will use up to    1 processors via Linda.
 ----------------------------------------------------------------------
 #p B3LYP 6-31+G(2df,p) empiricaldispersion=gd3 opt=(cartesian,calcall,
 maxcycles=500) freq scf=(maxcycles=500,xqc,maxconventional=50)
 ----------------------------------------------------------------------
 1/6=500,10=4,18=10,26=3,38=1/1,3;
 2/12=2,17=6,18=5,29=2,40=1/2;
 3/5=1,6=6,7=114,11=2,25=1,30=1,71=2,74=-5,124=31,140=1/1,2,3;
 4//1;
 5/5=2,7=500,8=3,13=1,38=5,85=50/2,8;
 8/6=4,10=90,11=11/1;
 11/6=1,8=1,9=11,15=111,16=1/1,2,10;
 10/6=1/2;
 6/7=2,8=2,9=2,10=2,18=1,28=1/1;
 7/7=1,10=1,25=1/1,2,3,16;
 1/6=500,10=4,18=10,26=3/3(3);
 2/29=1/2;
 7/7=1,8=1,9=1,25=1,44=-1/16;
 99/12=1/99;
 2/29=1/2;
 3/5=1,6=6,7=114,11=2,25=1,30=1,71=2,74=-5,124=31,140=1/1,2,3;
 4/5=5,16=3,69=1/1;
 5/5=2,7=500,8=3,13=1,38=5,85=50/2,8;
 8/6=4,10=90,11=11/1;
 11/6=1,8=1,9=11,15=111,16=1/1,2,10;
 10/6=1/2;
 7/7=1,10=1,25=1/1,2,3,16;
 1/6=500,10=4,18=10,26=3/3(-8);
 2/29=1/2;
 6/7=2,8=2,9=2,10=2,18=1,19=2,28=1/1;
 7/7=1,8=1,9=1,25=1,44=-1/16;
 99/12=1/99;
 Leave Link    1 at Mon Jul 22 16:49:20 2024, MaxMem=           0 cpu:               3.0 elap:               0.1
 (Enter /gpfs/fs1/soft/improv/software/custom-built/gaussian/g16/l101.exe)
 -----
 title
 -----
 Symbolic Z-matrix:
 Charge = -3 Multiplicity = 6
 Fe                   -0.36271  -0.38107   0. 
 C                    -0.36271   1.54893   0. 
 C                     1.56729  -0.38107   0. 
 C                    -0.36271  -0.38107   1.93 
 C                    -0.36271  -2.31107   0. 
 C                    -2.29271  -0.38107   0. 
 C                    -0.36271  -0.38107  -1.93 
 N                    -0.36271   2.69553   0. 
 N                     2.71389  -0.38107   0. 
 N                    -0.36271  -0.38107   3.0766 
 N                    -0.36271  -3.45767   0. 
 N                    -3.43931  -0.38107   0. 
 N                    -0.36271  -0.38107  -3.0766 
 
 ITRead=  0  0  0  0  0  0  0  0  0  0  0  0  0
 MicOpt= -1 -1 -1 -1 -1 -1 -1 -1 -1 -1 -1 -1 -1
 NAtoms=     13 NQM=       13 NQMF=       0 NMMI=      0 NMMIF=      0
                NMic=       0 NMicF=      0.
                    Isotopes and Nuclear Properties:
 (Nuclear quadrupole moments (NQMom) in fm**2, nuclear magnetic moments (NMagM)
  in nuclear magnetons)

  Atom         1           2           3           4           5           6           7           8           9          10
 IAtWgt=          56          12          12          12          12          12          12          14          14          14
 AtmWgt=  55.9349393  12.0000000  12.0000000  12.0000000  12.0000000  12.0000000  12.0000000  14.0030740  14.0030740  14.0030740
 NucSpn=           0           0           0           0           0           0           0           2           2           2
 AtZEff=  -0.0000000  -0.0000000  -0.0000000  -0.0000000  -0.0000000  -0.0000000  -0.0000000  -0.0000000  -0.0000000  -0.0000000
 NQMom=    0.0000000   0.0000000   0.0000000   0.0000000   0.0000000   0.0000000   0.0000000   2.0440000   2.0440000   2.0440000
 NMagM=    0.0000000   0.0000000   0.0000000   0.0000000   0.0000000   0.0000000   0.0000000   0.4037610   0.4037610   0.4037610
 AtZNuc=  26.0000000   6.0000000   6.0000000   6.0000000   6.0000000   6.0000000   6.0000000   7.0000000   7.0000000   7.0000000

  Atom        11          12          13
 IAtWgt=          14          14          14
 AtmWgt=  14.0030740  14.0030740  14.0030740
 NucSpn=           2           2           2
 AtZEff=  -0.0000000  -0.0000000  -0.0000000
 NQMom=    2.0440000   2.0440000   2.0440000
 NMagM=    0.4037610   0.4037610   0.4037610
 AtZNuc=   7.0000000   7.0000000   7.0000000
 Leave Link  101 at Mon Jul 22 16:49:20 2024, MaxMem=120795955200 cpu:               0.4 elap:               0.0
 (Enter /gpfs/fs1/soft/improv/software/custom-built/gaussian/g16/l103.exe)

 GradGradGradGradGradGradGradGradGradGradGradGradGradGradGradGradGradGrad
 Berny optimization.
 Initialization pass.
 No Z-matrix variables, so optimization will use Cartesian coordinates.
 Trust Radius=3.00D-01 FncErr=1.00D-07 GrdErr=1.00D-06 EigMax=2.50D+02 EigMin=1.00D-04
 Number of steps in this run=    100 maximum allowed number of steps=    100.
 GradGradGradGradGradGradGradGradGradGradGradGradGradGradGradGradGradGrad

 Leave Link  103 at Mon Jul 22 16:49:20 2024, MaxMem=120795955200 cpu:               0.3 elap:               0.1
 (Enter /gpfs/fs1/soft/improv/software/custom-built/gaussian/g16/l202.exe)
 ---------------------------------------------------------------------------------------------------
                            Z-MATRIX (ANGSTROMS AND DEGREES)
   CD    Cent   Atom    N1       Length/X        N2       Alpha/Y        N3        Beta/Z          J
 ---------------------------------------------------------------------------------------------------
      1      1  Fe       0  -0.362706         -0.381071          0.000000
      2      2  C        0  -0.362706          1.548929          0.000000
      3      3  C        0   1.567294         -0.381071          0.000000
      4      4  C        0  -0.362706         -0.381071          1.930000
      5      5  C        0  -0.362706         -2.311071          0.000000
      6      6  C        0  -2.292706         -0.381071          0.000000
      7      7  C        0  -0.362706         -0.381071         -1.930000
      8      8  N        0  -0.362706          2.695529         -0.000000
      9      9  N        0   2.713894         -0.381071          0.000000
     10     10  N        0  -0.362706         -0.381071          3.076600
     11     11  N        0  -0.362706         -3.457671          0.000000
     12     12  N        0  -3.439306         -0.381071          0.000000
     13     13  N        0  -0.362706         -0.381071         -3.076600
 ---------------------------------------------------------------------------------------------------
                         Z-Matrix orientation:                         
 ---------------------------------------------------------------------
 Center     Atomic      Atomic             Coordinates (Angstroms)
 Number     Number       Type             X           Y           Z
 ---------------------------------------------------------------------
      1         26           0       -0.362706   -0.381071    0.000000
      2          6           0       -0.362706    1.548929    0.000000
      3          6           0        1.567294   -0.381071    0.000000
      4          6           0       -0.362706   -0.381071    1.930000
      5          6           0       -0.362706   -2.311071    0.000000
      6          6           0       -2.292706   -0.381071    0.000000
      7          6           0       -0.362706   -0.381071   -1.930000
      8          7           0       -0.362706    2.695529   -0.000000
      9          7           0        2.713894   -0.381071    0.000000
     10          7           0       -0.362706   -0.381071    3.076600
     11          7           0       -0.362706   -3.457671    0.000000
     12          7           0       -3.439306   -0.381071    0.000000
     13          7           0       -0.362706   -0.381071   -3.076600
 ---------------------------------------------------------------------
                    Distance matrix (angstroms):
                    1          2          3          4          5
     1  Fe   0.000000
     2  C    1.930000   0.000000
     3  C    1.930000   2.729432   0.000000
     4  C    1.930000   2.729432   2.729432   0.000000
     5  C    1.930000   3.860000   2.729432   2.729432   0.000000
     6  C    1.930000   2.729432   3.860000   2.729432   2.729432
     7  C    1.930000   2.729432   2.729432   3.860000   2.729432
     8  N    3.076600   1.146600   3.631855   3.631855   5.006600
     9  N    3.076600   3.631855   1.146600   3.631855   3.631855
    10  N    3.076600   3.631855   3.631855   1.146600   3.631855
    11  N    3.076600   5.006600   3.631855   3.631855   1.146600
    12  N    3.076600   3.631855   5.006600   3.631855   3.631855
    13  N    3.076600   3.631855   3.631855   5.006600   3.631855
                    6          7          8          9         10
     6  C    0.000000
     7  C    2.729432   0.000000
     8  N    3.631855   3.631855   0.000000
     9  N    5.006600   3.631855   4.350969   0.000000
    10  N    3.631855   5.006600   4.350969   4.350969   0.000000
    11  N    3.631855   3.631855   6.153200   4.350969   4.350969
    12  N    1.146600   3.631855   4.350969   6.153200   4.350969
    13  N    3.631855   1.146600   4.350969   4.350969   6.153200
                   11         12         13
    11  N    0.000000
    12  N    4.350969   0.000000
    13  N    4.350969   4.350969   0.000000
 Stoichiometry    C6FeN6(3-,6)
 Framework group  OH[O(Fe),3C4(NC.CN)]
 Deg. of freedom     2
 Full point group                 OH      NOp  48
 Largest Abelian subgroup         D2H     NOp   8
 Largest concise Abelian subgroup D2H     NOp   8
                         Standard orientation:                         
 ---------------------------------------------------------------------
 Center     Atomic      Atomic             Coordinates (Angstroms)
 Number     Number       Type             X           Y           Z
 ---------------------------------------------------------------------
      1         26           0        0.000000    0.000000    0.000000
      2          6           0        0.000000    0.000000    1.930000
      3          6           0        0.000000    1.930000   -0.000000
      4          6           0        1.930000    0.000000    0.000000
      5          6           0        0.000000   -0.000000   -1.930000
      6          6           0        0.000000   -1.930000    0.000000
      7          6           0       -1.930000    0.000000   -0.000000
      8          7           0        0.000000    0.000000    3.076600
      9          7           0        0.000000    3.076600   -0.000000
     10          7           0        3.076600    0.000000    0.000000
     11          7           0        0.000000   -0.000000   -3.076600
     12          7           0        0.000000   -3.076600    0.000000
     13          7           0       -3.076600    0.000000   -0.000000
 ---------------------------------------------------------------------
 Rotational constants (GHZ):           0.7128277           0.7128277           0.7128277
 Leave Link  202 at Mon Jul 22 16:49:21 2024, MaxMem=120795955200 cpu:               1.2 elap:               0.1
 (Enter /gpfs/fs1/soft/improv/software/custom-built/gaussian/g16/l301.exe)
 Standard basis: 6-31+G(2df,p) (6D, 7F)
 Ernie: Thresh=  0.10000D-02 Tol=  0.10000D-05 Strict=F.
 There are   117 symmetry adapted cartesian basis functions of AG  symmetry.
 There are    44 symmetry adapted cartesian basis functions of B1G symmetry.
 There are    44 symmetry adapted cartesian basis functions of B2G symmetry.
 There are    44 symmetry adapted cartesian basis functions of B3G symmetry.
 There are    20 symmetry adapted cartesian basis functions of AU  symmetry.
 There are    76 symmetry adapted cartesian basis functions of B1U symmetry.
 There are    76 symmetry adapted cartesian basis functions of B2U symmetry.
 There are    76 symmetry adapted cartesian basis functions of B3U symmetry.
 There are   108 symmetry adapted basis functions of AG  symmetry.
 There are    39 symmetry adapted basis functions of B1G symmetry.
 There are    39 symmetry adapted basis functions of B2G symmetry.
 There are    39 symmetry adapted basis functions of B3G symmetry.
 There are    20 symmetry adapted basis functions of AU  symmetry.
 There are    68 symmetry adapted basis functions of B1U symmetry.
 There are    68 symmetry adapted basis functions of B2U symmetry.
 There are    68 symmetry adapted basis functions of B3U symmetry.
   449 basis functions,   718 primitive gaussians,   497 cartesian basis functions
    56 alpha electrons       51 beta electrons
       nuclear repulsion energy       916.9876679413 Hartrees.
 IExCor=  402 DFT=T Ex+Corr=B3LYP ExCW=0 ScaHFX=  0.200000
 ScaDFX=  0.800000  0.720000  1.000000  0.810000 ScalE2=  1.000000  1.000000
 IRadAn=      5 IRanWt=     -1 IRanGd=            0 ICorTp=0 IEmpDi=131
 NAtoms=   13 NActive=   13 NUniq=    3 SFac= 4.00D+00 NAtFMM=   60 NAOKFM=F Big=F
 Integral buffers will be    131072 words long.
 Raffenetti 2 integral format.
 Two-electron integral symmetry is turned on.
 R6Disp:  Grimme-D3 Dispersion energy=       -0.0150927704 Hartrees.
 Nuclear repulsion after empirical dispersion term =      916.9725751708 Hartrees.
 Leave Link  301 at Mon Jul 22 16:49:21 2024, MaxMem=120795955200 cpu:               0.4 elap:               0.1
 (Enter /gpfs/fs1/soft/improv/software/custom-built/gaussian/g16/l302.exe)
 NPDir=0 NMtPBC=     1 NCelOv=     1 NCel=       1 NClECP=     1 NCelD=      1
         NCelK=      1 NCelE2=     1 NClLst=     1 CellRange=     0.0.
 One-electron integrals computed using PRISM.
 One-electron integral symmetry used in STVInt
 NBasis=   449 RedAO= T EigKep=  3.68D-06  NBF=   108    39    39    39    20    68    68    68
 NBsUse=   446 1.00D-06 EigRej=  6.93D-08 NBFU=   108    39    39    39    20    67    67    67
 Precomputing XC quadrature grid using
 IXCGrd= 4 IRadAn=           5 IRanWt=          -1 IRanGd=           0 AccXCQ= 0.00D+00.
 Generated NRdTot=       0 NPtTot=           0 NUsed=           0 NTot=          32
 NSgBfM=   495   495   495   495   495 MxSgAt=    13 MxSgA2=    13.
 Leave Link  302 at Mon Jul 22 16:49:22 2024, MaxMem=120795955200 cpu:              65.2 elap:               0.6
 (Enter /gpfs/fs1/soft/improv/software/custom-built/gaussian/g16/l303.exe)
 DipDrv:  MaxL=1.
 Leave Link  303 at Mon Jul 22 16:49:22 2024, MaxMem=120795955200 cpu:               1.3 elap:               0.1
 (Enter /gpfs/fs1/soft/improv/software/custom-built/gaussian/g16/l401.exe)
 ExpMin= 1.26D-02 ExpMax= 6.11D+04 ExpMxC= 9.18D+03 IAcc=3 IRadAn=         5 AccDes= 0.00D+00
 Harris functional with IExCor=  402 and IRadAn=       5 diagonalized for initial guess.
 HarFok:  IExCor=  402 AccDes= 0.00D+00 IRadAn=         5 IDoV= 1 UseB2=F ITyADJ=14
 ICtDFT=  3500011 ScaDFX=  1.000000  1.000000  1.000000  1.000000
 FoFCou: FMM=F IPFlag=           0 FMFlag=      100000 FMFlg1=           0
         NFxFlg=           0 DoJE=T BraDBF=F KetDBF=T FulRan=T
         wScrn=  0.000000 ICntrl=       500 IOpCl=  0 I1Cent=   200000004 NGrid=           0
         NMat0=    1 NMatS0=      1 NMatT0=    0 NMatD0=    1 NMtDS0=    0 NMtDT0=    0
 Petite list used in FoFCou.
 Harris En= -1821.19755699272    
 JPrj=0 DoOrth=F DoCkMO=F.
 Initial guess orbital symmetries:
 Alpha Orbitals:
       Occupied  (A1G) (A1G) (T1U) (T1U) (T1U) (A1G) (T1U) (T1U)
                 (T1U) (EG) (EG) (A1G) (T1U) (T1U) (T1U) (EG) (EG)
                 (A1G) (T1U) (T1U) (T1U) (A1G) (T1U) (T1U) (T1U)
                 (EG) (EG) (A1G) (EG) (EG) (T1U) (T1U) (T1U) (T2G)
                 (T2G) (T2G) (A1G) (T1U) (T1U) (T1U) (EG) (EG)
                 (T2U) (T2U) (T2U) (T1G) (T1G) (T1G) (T1U) (T1U)
                 (T1U) (T2G) (T2G) (T2G) (EG) (EG)
       Virtual   (T1U) (T1U) (T1U) (T2G) (T2G) (T2G) (T2U) (T2U)
                 (T2U) (T1G) (T1G) (T1G) (A1G) (T1U) (T1U) (T1U)
                 (A1G) (EG) (EG) (T2G) (T2G) (T2G) (T1U) (T1U)
                 (T1U) (T2U) (T2U) (T2U) (A1G) (EG) (EG) (T1G)
                 (T1G) (T1G) (T1U) (T1U) (T1U) (A1G) (T1U) (T1U)
                 (T1U) (T2G) (T2G) (T2G) (EG) (EG) (T2U) (T2U)
                 (T2U) (T1U) (T1U) (T1U) (T1U) (T1U) (T1U) (EG)
                 (EG) (T1G) (T1G) (T1G) (A1G) (T1U) (T1U) (T1U)
                 (A1G) (A1G) (T1U) (T1U) (T1U) (T2G) (T2G) (T2G)
                 (EG) (EG) (T1U) (T1U) (T1U) (A2U) (T2U) (T2U)
                 (T2U) (EG) (EG) (T2G) (T2G) (T2G) (A1G) (EU) (EU)
                 (EG) (EG) (A2G) (T1U) (T1U) (T1U) (T2U) (T2U)
                 (T2U) (T2G) (T2G) (T2G) (T1G) (T1G) (T1G) (T1U)
                 (T1U) (T1U) (T2G) (T2G) (T2G) (A1G) (T2U) (T2U)
                 (T2U) (A2U) (T2U) (T2U) (T2U) (T1U) (T1U) (T1U)
                 (EG) (EG) (T1U) (T1U) (T1U) (EG) (EG) (A1G) (T1G)
                 (T1G) (T1G) (T2G) (T2G) (T2G) (A1G) (EU) (EU)
                 (T1U) (T1U) (T1U) (T1G) (T1G) (T1G) (A2G) (T2U)
                 (T2U) (T2U) (T2G) (T2G) (T2G) (EG) (EG) (T1U)
                 (T1U) (T1U) (T2U) (T2U) (T2U) (T2G) (T2G) (T2G)
                 (A2U) (T1U) (T1U) (T1U) (EG) (EG) (A1G) (T1U)
                 (T1U) (T1U) (EG) (EG) (EG) (EG) (T1G) (T1G) (T1G)
                 (A1G) (T1U) (T1U) (T1U) (T2U) (T2U) (T2U) (T1U)
                 (T1U) (T1U) (T2G) (T2G) (T2G) (A1G) (EG) (EG)
                 (T1U) (T1U) (T1U) (A1G) (T1G) (T1G) (T1G) (T2U)
                 (T2U) (T2U) (T2G) (T2G) (T2G) (EU) (EU) (T2G)
                 (T2G) (T2G) (A2G) (T2U) (T2U) (T2U) (T1U) (T1U)
                 (T1U) (EG) (EG) (A2U) (T1U) (T1U) (T1U) (EG) (EG)
                 (T1G) (T1G) (T1G) (T2U) (T2U) (T2U) (T2G) (T2G)
                 (T2G) (T1U) (T1U) (T1U) (T2G) (T2G) (T2G) (A1G)
                 (T1U) (T1U) (T1U) (T2U) (T2U) (T2U) (T1G) (T1G)
                 (T1G) (T2G) (T2G) (T2G) (EG) (EG) (T1U) (T1U)
                 (T1U) (T2U) (T2U) (T2U) (EG) (EG) (T1U) (T1U)
                 (T1U) (T1G) (T1G) (T1G) (A1G) (A2U) (EU) (EU)
                 (A2G) (T2G) (T2G) (T2G) (T2U) (T2U) (T2U) (EG)
                 (EG) (A2U) (T1U) (T1U) (T1U) (A1G) (T2G) (T2G)
                 (T2G) (EU) (EU) (A2G) (T2U) (T2U) (T2U) (EG) (EG)
                 (A2U) (EU) (EU) (T2U) (T2U) (T2U) (T2G) (T2G)
                 (T2G) (T1G) (T1G) (T1G) (A2G) (T1U) (T1U) (T1U)
                 (T2G) (T2G) (T2G) (EG) (EG) (T2U) (T2U) (T2U)
                 (T1U) (T1U) (T1U) (T2G) (T2G) (T2G) (EG) (EG)
                 (A1G) (T1G) (T1G) (T1G) (A2U) (EG) (EG) (T1U)
                 (T1U) (T1U) (T2U) (T2U) (T2U) (T2G) (T2G) (T2G)
                 (T1U) (T1U) (T1U) (T2U) (T2U) (T2U) (T1U) (T1U)
                 (T1U) (T1G) (T1G) (T1G) (A1G) (A1G) (EG) (EG)
                 (T1U) (T1U) (T1U) (EG) (EG) (A1G) (T1U) (T1U)
                 (T1U) (EG) (EG) (A1G) (T1U) (T1U) (T1U) (A1G)
                 (EG) (EG) (A1G) (EG) (EG) (T1U) (T1U) (T1U) (A1G)
 Beta  Orbitals:
       Occupied  (A1G) (A1G) (T1U) (T1U) (T1U) (A1G) (T1U) (T1U)
                 (T1U) (EG) (EG) (A1G) (T1U) (T1U) (T1U) (EG) (EG)
                 (A1G) (T1U) (T1U) (T1U) (A1G) (T1U) (T1U) (T1U)
                 (EG) (EG) (A1G) (EG) (EG) (T1U) (T1U) (T1U) (T2G)
                 (T2G) (T2G) (A1G) (T1U) (T1U) (T1U) (EG) (EG)
                 (T2U) (T2U) (T2U) (T1G) (T1G) (T1G) (T1U) (T1U)
                 (T1U)
       Virtual   (T2G) (T2G) (T2G) (EG) (EG) (T1U) (T1U) (T1U)
                 (T2G) (T2G) (T2G) (T2U) (T2U) (T2U) (T1G) (T1G)
                 (T1G) (A1G) (T1U) (T1U) (T1U) (A1G) (EG) (EG)
                 (T2G) (T2G) (T2G) (T1U) (T1U) (T1U) (T2U) (T2U)
                 (T2U) (A1G) (EG) (EG) (T1G) (T1G) (T1G) (T1U)
                 (T1U) (T1U) (A1G) (T1U) (T1U) (T1U) (T2G) (T2G)
                 (T2G) (EG) (EG) (T2U) (T2U) (T2U) (T1U) (T1U)
                 (T1U) (T1U) (T1U) (T1U) (EG) (EG) (T1G) (T1G)
                 (T1G) (A1G) (T1U) (T1U) (T1U) (A1G) (A1G) (T1U)
                 (T1U) (T1U) (T2G) (T2G) (T2G) (EG) (EG) (T1U)
                 (T1U) (T1U) (A2U) (T2U) (T2U) (T2U) (EG) (EG)
                 (T2G) (T2G) (T2G) (A1G) (EU) (EU) (EG) (EG) (A2G)
                 (T1U) (T1U) (T1U) (T2U) (T2U) (T2U) (T2G) (T2G)
                 (T2G) (T1G) (T1G) (T1G) (T1U) (T1U) (T1U) (T2G)
                 (T2G) (T2G) (A1G) (T2U) (T2U) (T2U) (A2U) (T2U)
                 (T2U) (T2U) (T1U) (T1U) (T1U) (EG) (EG) (T1U)
                 (T1U) (T1U) (EG) (EG) (A1G) (T1G) (T1G) (T1G)
                 (T2G) (T2G) (T2G) (A1G) (EU) (EU) (T1U) (T1U)
                 (T1U) (T1G) (T1G) (T1G) (A2G) (T2U) (T2U) (T2U)
                 (T2G) (T2G) (T2G) (EG) (EG) (T1U) (T1U) (T1U)
                 (T2U) (T2U) (T2U) (T2G) (T2G) (T2G) (A2U) (T1U)
                 (T1U) (T1U) (EG) (EG) (A1G) (T1U) (T1U) (T1U)
                 (EG) (EG) (EG) (EG) (T1G) (T1G) (T1G) (A1G) (T1U)
                 (T1U) (T1U) (T2U) (T2U) (T2U) (T1U) (T1U) (T1U)
                 (T2G) (T2G) (T2G) (A1G) (EG) (EG) (T1U) (T1U)
                 (T1U) (A1G) (T1G) (T1G) (T1G) (T2U) (T2U) (T2U)
                 (T2G) (T2G) (T2G) (EU) (EU) (T2G) (T2G) (T2G)
                 (A2G) (T2U) (T2U) (T2U) (T1U) (T1U) (T1U) (EG)
                 (EG) (A2U) (T1U) (T1U) (T1U) (EG) (EG) (T1G) (T1G)
                 (T1G) (T2U) (T2U) (T2U) (T2G) (T2G) (T2G) (T1U)
                 (T1U) (T1U) (T2G) (T2G) (T2G) (A1G) (T1U) (T1U)
                 (T1U) (T2U) (T2U) (T2U) (T1G) (T1G) (T1G) (T2G)
                 (T2G) (T2G) (EG) (EG) (T1U) (T1U) (T1U) (T2U)
                 (T2U) (T2U) (EG) (EG) (T1U) (T1U) (T1U) (T1G)
                 (T1G) (T1G) (A1G) (A2U) (EU) (EU) (A2G) (T2G)
                 (T2G) (T2G) (T2U) (T2U) (T2U) (EG) (EG) (A2U)
                 (T1U) (T1U) (T1U) (A1G) (T2G) (T2G) (T2G) (EU)
                 (EU) (A2G) (T2U) (T2U) (T2U) (EG) (EG) (A2U) (EU)
                 (EU) (T2U) (T2U) (T2U) (T2G) (T2G) (T2G) (T1G)
                 (T1G) (T1G) (A2G) (T1U) (T1U) (T1U) (T2G) (T2G)
                 (T2G) (EG) (EG) (T2U) (T2U) (T2U) (T1U) (T1U)
                 (T1U) (T2G) (T2G) (T2G) (EG) (EG) (A1G) (T1G)
                 (T1G) (T1G) (A2U) (EG) (EG) (T1U) (T1U) (T1U)
                 (T2U) (T2U) (T2U) (T2G) (T2G) (T2G) (T1U) (T1U)
                 (T1U) (T2U) (T2U) (T2U) (T1U) (T1U) (T1U) (T1G)
                 (T1G) (T1G) (A1G) (A1G) (EG) (EG) (T1U) (T1U)
                 (T1U) (EG) (EG) (A1G) (T1U) (T1U) (T1U) (EG) (EG)
                 (A1G) (T1U) (T1U) (T1U) (A1G) (EG) (EG) (A1G)
                 (EG) (EG) (T1U) (T1U) (T1U) (A1G)
 The electronic state of the initial guess is 6-A1G.
 Initial guess <Sx>= 0.0000 <Sy>= 0.0000 <Sz>= 2.5000 <S**2>= 8.7500 S= 2.5000
 Leave Link  401 at Mon Jul 22 16:49:23 2024, MaxMem=120795955200 cpu:              58.5 elap:               0.7
 (Enter /gpfs/fs1/soft/improv/software/custom-built/gaussian/g16/l502.exe)
 Integral symmetry usage will be decided dynamically.
 UHF open shell SCF:
 Using DIIS extrapolation, IDIIS=  1040.
 NGot=120795955200 LenX=120795381861 LenY=120795134355
 Requested convergence on RMS density matrix=1.00D-08 within  50 cycles.
 Requested convergence on MAX density matrix=1.00D-06.
 Requested convergence on             energy=1.00D-06.
 No special actions if energy rises.
 Fock matrices will be formed incrementally for  20 cycles.

 Cycle   1  Pass 1  IDiag  1:
 FoFJK:  IHMeth= 1 ICntrl=       0 DoSepK=F KAlg= 0 I1Cent=           0 FoldK=F
 IRaf= 930000000 NMat=       1 IRICut=       1 DoRegI=T DoRafI=F ISym2E= 1 IDoP0=0 IntGTp=1.
 FoFCou: FMM=F IPFlag=           0 FMFlag=      100000 FMFlg1=           0
         NFxFlg=           0 DoJE=F BraDBF=F KetDBF=F FulRan=T
         wScrn=  0.000000 ICntrl=         0 IOpCl=  1 I1Cent=           0 NGrid=           0
         NMat0=    1 NMatS0=      1 NMatT0=    0 NMatD0=    1 NMtDS0=    0 NMtDT0=    0
 Petite list used in FoFCou.
 E= -1819.85926977188    
 DIIS: error= 7.24D-02 at cycle   1 NSaved=   1.
 NSaved= 1 IEnMin= 1 EnMin= -1819.85926977188     IErMin= 1 ErrMin= 7.24D-02
 ErrMax= 7.24D-02  0.00D+00 EMaxC= 1.00D-01 BMatC= 4.10D+00 BMatP= 4.10D+00
 IDIUse=3 WtCom= 2.76D-01 WtEn= 7.24D-01
 Coeff-Com:  0.100D+01
 Coeff-En:   0.100D+01
 Coeff:      0.100D+01
 Gap=     0.133 Goal=   None    Shift=    0.000
 Gap=    -0.204 Goal=   None    Shift=    0.000
 GapD=   -0.204 DampG=0.250 DampE=0.250 DampFc=0.1250 IDamp=-1.
 Damping current iteration by 1.25D-01
 RMSDP=8.22D-02 MaxDP=1.30D+01              OVMax= 9.96D-01

 Cycle   2  Pass 1  IDiag  1:
 RMSU=  9.17D-03    CP:  1.21D+00
 E= -1820.02146290842     Delta-E=       -0.162193136540 Rises=F Damp=T
 DIIS: error= 2.99D-02 at cycle   2 NSaved=   2.
 NSaved= 2 IEnMin= 2 EnMin= -1820.02146290842     IErMin= 2 ErrMin= 2.99D-02
 ErrMax= 2.99D-02  0.00D+00 EMaxC= 1.00D-01 BMatC= 1.08D+00 BMatP= 4.10D+00
 IDIUse=3 WtCom= 7.01D-01 WtEn= 2.99D-01
 Coeff-Com: -0.494D+00 0.149D+01
 Coeff-En:   0.523D-01 0.948D+00
 Coeff:     -0.330D+00 0.133D+01
 Gap=    -0.046 Goal=   None    Shift=    0.000
 Gap=     0.000 Goal=   None    Shift=    0.000
 DSYEVD-2 returned Info=         217 IAlg= 4 N=   108 NDim=   446 NE2=   270841107 trying  DSYEV.
 RMSDP=2.55D+01 MaxDP=5.96D+03 DE=-1.62D-01 OVMax= 9.99D-01

 Cycle   3  Pass 1  IDiag  1:
 Density matrix breaks symmetry, PCut= 1.00D-04
 Density has only Abelian symmetry.
 RMSU=  2.55D+01    CP:  3.00D+00  3.00D+00
 E= -1818.91400641847     Delta-E=        1.107456489952 Rises=F Damp=F
 DIIS: error= 1.10D-01 at cycle   3 NSaved=   3.
 NSaved= 3 IEnMin= 2 EnMin= -1820.02146290842     IErMin= 2 ErrMin= 2.99D-02
 ErrMax= 1.10D-01  0.00D+00 EMaxC= 1.00D-01 BMatC= 7.19D+00 BMatP= 1.08D+00
 IDIUse=2 WtCom= 0.00D+00 WtEn= 1.00D+00
 Coeff-En:   0.000D+00 0.810D+00 0.190D+00
 Coeff:      0.000D+00 0.810D+00 0.190D+00
 Gap=     0.002 Goal=   None    Shift=    0.000
 Gap=     0.008 Goal=   None    Shift=    0.000
 RMSDP=2.55D+01 MaxDP=5.96D+03 DE= 1.11D+00 OVMax= 9.07D-01

 Cycle   4  Pass 1  IDiag  1:
 Density matrix breaks symmetry, PCut= 1.00D-04
 Density has only Abelian symmetry.
 RMSU=  9.81D-03    CP:  1.06D+00  1.64D+00  2.52D-05
 E= -1815.31014399264     Delta-E=        3.603862425828 Rises=F Damp=F
 DIIS: error= 2.44D-01 at cycle   4 NSaved=   4.
 NSaved= 4 IEnMin= 2 EnMin= -1820.02146290842     IErMin= 2 ErrMin= 2.99D-02
 ErrMax= 2.44D-01  0.00D+00 EMaxC= 1.00D-01 BMatC= 3.45D+01 BMatP= 1.08D+00
 IDIUse=2 WtCom= 0.00D+00 WtEn= 1.00D+00
 EnCoef did   100 forward-backward iterations
 Coeff-En:   0.474D+00 0.254D-01 0.292D+00 0.209D+00
 Coeff:      0.474D+00 0.254D-01 0.292D+00 0.209D+00
 Gap=     0.064 Goal=   None    Shift=    0.000
 Gap=    -0.043 Goal=   None    Shift=    0.000
 RMSDP=1.16D-02 MaxDP=2.79D+00 DE= 3.60D+00 OVMax= 9.88D-01

 Cycle   5  Pass 1  IDiag  1:
 Density matrix breaks symmetry, PCut= 1.00D-04
 Density has only Abelian symmetry.
 RMSU=  4.14D-03    CP:  8.42D-01  6.05D-01  1.14D-06  7.59D-01
 E= -1820.38779338825     Delta-E=       -5.077649395611 Rises=F Damp=F
 DIIS: error= 3.48D-02 at cycle   5 NSaved=   5.
 NSaved= 5 IEnMin= 5 EnMin= -1820.38779338825     IErMin= 2 ErrMin= 2.99D-02
 ErrMax= 3.48D-02  0.00D+00 EMaxC= 1.00D-01 BMatC= 8.90D-01 BMatP= 1.08D+00
 IDIUse=3 WtCom= 6.52D-01 WtEn= 3.48D-01
 Coeff-Com: -0.859D-01 0.377D+00 0.179D+00-0.815D-02 0.539D+00
 Coeff-En:   0.000D+00 0.000D+00 0.179D+00 0.000D+00 0.821D+00
 Coeff:     -0.560D-01 0.246D+00 0.179D+00-0.532D-02 0.637D+00
 Gap=     0.000 Goal=   None    Shift=    0.000
 Gap=     0.171 Goal=   None    Shift=    0.000
 RMSDP=3.16D+00 MaxDP=1.73D+03 DE=-5.08D+00 OVMax= 1.00D+00

 Cycle   6  Pass 1  IDiag  1:
 Density matrix breaks symmetry, PCut= 1.00D-04
 Density has only Abelian symmetry.
 RMSU=  3.11D+00    CP:  3.00D+00  3.00D+00  1.65D-02 -3.00D+00 -3.00D+00
 E= -1820.32919946201     Delta-E=        0.058593926243 Rises=F Damp=F
 DIIS: error= 3.51D-02 at cycle   6 NSaved=   6.
 NSaved= 6 IEnMin= 5 EnMin= -1820.38779338825     IErMin= 2 ErrMin= 2.99D-02
 ErrMax= 3.51D-02  0.00D+00 EMaxC= 1.00D-01 BMatC= 1.11D+00 BMatP= 8.90D-01
 IDIUse=2 WtCom= 0.00D+00 WtEn= 1.00D+00
 Coeff-En:   0.000D+00 0.000D+00 0.000D+00 0.000D+00 0.545D+00 0.455D+00
 Coeff:      0.000D+00 0.000D+00 0.000D+00 0.000D+00 0.545D+00 0.455D+00
 Gap=     0.026 Goal=   None    Shift=    0.000
 Gap=     0.159 Goal=   None    Shift=    0.000
 RMSDP=3.16D+00 MaxDP=1.73D+03 DE= 5.86D-02 OVMax= 9.99D-01

 Cycle   7  Pass 1  IDiag  1:
 Density matrix breaks symmetry, PCut= 1.00D-04
 Density has only Abelian symmetry.
 RMSU=  1.77D-03    CP:  8.18D-01  3.58D-01 -1.64D-05  6.13D-01  1.04D+00
                    CP:  8.41D-05
 E= -1820.53384224056     Delta-E=       -0.204642778554 Rises=F Damp=F
 DIIS: error= 8.28D-03 at cycle   7 NSaved=   7.
 NSaved= 7 IEnMin= 7 EnMin= -1820.53384224056     IErMin= 7 ErrMin= 8.28D-03
 ErrMax= 8.28D-03  0.00D+00 EMaxC= 1.00D-01 BMatC= 6.34D-02 BMatP= 8.90D-01
 IDIUse=3 WtCom= 9.17D-01 WtEn= 8.28D-02
 Coeff-Com: -0.583D-01 0.139D-01-0.122D-04 0.154D-02 0.103D-01 0.231D+00
 Coeff-Com:  0.801D+00
 Coeff-En:   0.000D+00 0.000D+00 0.000D+00 0.000D+00 0.000D+00 0.164D+00
 Coeff-En:   0.836D+00
 Coeff:     -0.535D-01 0.127D-01-0.112D-04 0.141D-02 0.946D-02 0.226D+00
 Coeff:      0.804D+00
 Gap=     0.007 Goal=   None    Shift=    0.000
 Gap=     0.160 Goal=   None    Shift=    0.000
 RMSDP=2.19D-03 MaxDP=5.83D-01 DE=-2.05D-01 OVMax= 2.56D-02

 Cycle   8  Pass 1  IDiag  1:
 Density matrix breaks symmetry, PCut= 1.00D-04
 Density has only Abelian symmetry.
 RMSU=  1.41D-03    CP:  8.40D-01  4.79D-01 -1.57D-05  6.24D-01  9.65D-01
                    CP:  2.79D-04  1.52D+00
 E= -1820.54878166105     Delta-E=       -0.014939420493 Rises=F Damp=F
 DIIS: error= 5.36D-03 at cycle   8 NSaved=   8.
 NSaved= 8 IEnMin= 8 EnMin= -1820.54878166105     IErMin= 8 ErrMin= 5.36D-03
 ErrMax= 5.36D-03  0.00D+00 EMaxC= 1.00D-01 BMatC= 1.95D-02 BMatP= 6.34D-02
 IDIUse=3 WtCom= 9.46D-01 WtEn= 5.36D-02
 Coeff-Com:  0.307D-01-0.592D-01 0.947D-02-0.933D-03-0.685D-01 0.330D-01
 Coeff-Com:  0.214D+00 0.841D+00
 Coeff-En:   0.000D+00 0.000D+00 0.000D+00 0.000D+00 0.000D+00 0.420D-01
 Coeff-En:   0.000D+00 0.958D+00
 Coeff:      0.291D-01-0.561D-01 0.896D-02-0.883D-03-0.648D-01 0.334D-01
 Coeff:      0.203D+00 0.847D+00
 Gap=     0.016 Goal=   None    Shift=    0.000
 Gap=     0.151 Goal=   None    Shift=    0.000
 RMSDP=1.09D-03 MaxDP=1.97D-01 DE=-1.49D-02 OVMax= 1.74D-02

 Cycle   9  Pass 1  IDiag  1:
 Density matrix breaks symmetry, PCut= 1.00D-04
 Density has only Abelian symmetry.
 RMSU=  6.60D-04    CP:  8.48D-01  5.37D-01 -8.21D-06  6.12D-01  1.10D+00
                    CP:  1.95D-04  1.47D+00  9.78D-01
 E= -1820.55217836662     Delta-E=       -0.003396705567 Rises=F Damp=F
 DIIS: error= 1.28D-03 at cycle   9 NSaved=   9.
 NSaved= 9 IEnMin= 9 EnMin= -1820.55217836662     IErMin= 9 ErrMin= 1.28D-03
 ErrMax= 1.28D-03  0.00D+00 EMaxC= 1.00D-01 BMatC= 1.79D-03 BMatP= 1.95D-02
 IDIUse=3 WtCom= 9.87D-01 WtEn= 1.28D-02
 Coeff-Com:  0.229D-01-0.272D-01 0.175D-02-0.848D-03-0.217D-01 0.101D-01
 Coeff-Com: -0.119D-01 0.288D+00 0.739D+00
 Coeff-En:   0.000D+00 0.000D+00 0.000D+00 0.000D+00 0.000D+00 0.000D+00
 Coeff-En:   0.000D+00 0.000D+00 0.100D+01
 Coeff:      0.226D-01-0.268D-01 0.173D-02-0.837D-03-0.215D-01 0.995D-02
 Coeff:     -0.118D-01 0.284D+00 0.743D+00
 Gap=     0.020 Goal=   None    Shift=    0.000
 Gap=     0.152 Goal=   None    Shift=    0.000
 RMSDP=5.66D-04 MaxDP=1.67D-01 DE=-3.40D-03 OVMax= 4.98D-03

 Cycle  10  Pass 1  IDiag  1:
 Density matrix breaks symmetry, PCut= 1.00D-04
 Density has only Abelian symmetry.
 RMSU=  3.04D-04    CP:  8.46D-01  5.44D-01 -1.39D-05  6.09D-01  1.16D+00
                    CP:  1.43D-04  1.42D+00  7.62D-01  1.09D+00
 E= -1820.55234519598     Delta-E=       -0.000166829354 Rises=F Damp=F
 DIIS: error= 1.03D-03 at cycle  10 NSaved=  10.
 NSaved=10 IEnMin=10 EnMin= -1820.55234519598     IErMin=10 ErrMin= 1.03D-03
 ErrMax= 1.03D-03  0.00D+00 EMaxC= 1.00D-01 BMatC= 9.64D-04 BMatP= 1.79D-03
 IDIUse=3 WtCom= 9.90D-01 WtEn= 1.03D-02
 Coeff-Com:  0.102D-01-0.942D-02-0.119D-02-0.390D-03-0.570D-02 0.106D-01
 Coeff-Com: -0.310D-01 0.332D-01 0.558D+00 0.436D+00
 Coeff-En:   0.000D+00 0.000D+00 0.000D+00 0.000D+00 0.000D+00 0.000D+00
 Coeff-En:   0.000D+00 0.000D+00 0.263D+00 0.737D+00
 Coeff:      0.101D-01-0.933D-02-0.117D-02-0.386D-03-0.564D-02 0.104D-01
 Coeff:     -0.307D-01 0.329D-01 0.555D+00 0.439D+00
 Gap=     0.020 Goal=   None    Shift=    0.000
 Gap=     0.152 Goal=   None    Shift=    0.000
 RMSDP=2.92D-04 MaxDP=6.93D-02 DE=-1.67D-04 OVMax= 3.68D-03

 Cycle  11  Pass 1  IDiag  1:
 Density matrix breaks symmetry, PCut= 1.00D-04
 Density has only Abelian symmetry.
 RMSU=  1.29D-04    CP:  8.45D-01  5.45D-01 -1.01D-05  6.12D-01  1.18D+00
                    CP:  1.13D-04  1.32D+00  7.45D-01  1.27D+00  8.20D-01
 E= -1820.55253173986     Delta-E=       -0.000186543883 Rises=F Damp=F
 DIIS: error= 3.40D-04 at cycle  11 NSaved=  11.
 NSaved=11 IEnMin=11 EnMin= -1820.55253173986     IErMin=11 ErrMin= 3.40D-04
 ErrMax= 3.40D-04  0.00D+00 EMaxC= 1.00D-01 BMatC= 9.06D-05 BMatP= 9.64D-04
 IDIUse=3 WtCom= 9.97D-01 WtEn= 3.40D-03
 Coeff-Com: -0.981D-03 0.141D-02-0.337D-03-0.363D-04-0.326D-04 0.423D-02
 Coeff-Com: -0.995D-02-0.545D-01 0.556D-01 0.169D+00 0.836D+00
 Coeff-En:   0.000D+00 0.000D+00 0.000D+00 0.000D+00 0.000D+00 0.000D+00
 Coeff-En:   0.000D+00 0.000D+00 0.000D+00 0.000D+00 0.100D+01
 Coeff:     -0.978D-03 0.140D-02-0.336D-03-0.361D-04-0.324D-04 0.422D-02
 Coeff:     -0.992D-02-0.543D-01 0.554D-01 0.168D+00 0.837D+00
 Gap=     0.021 Goal=   None    Shift=    0.000
 Gap=     0.152 Goal=   None    Shift=    0.000
 RMSDP=3.73D-04 MaxDP=1.11D-01 DE=-1.87D-04 OVMax= 2.79D-03

 Cycle  12  Pass 1  IDiag  1:
 Density matrix breaks symmetry, PCut= 1.00D-04
 Density has only Abelian symmetry.
 RMSU=  5.78D-05    CP:  8.43D-01  5.46D-01 -1.08D-05  6.14D-01  1.21D+00
                    CP:  7.34D-05  1.23D+00  5.82D-01  1.39D+00  1.10D+00
                    CP:  1.53D+00
 E= -1820.55255376303     Delta-E=       -0.000022023175 Rises=F Damp=F
 DIIS: error= 7.81D-05 at cycle  12 NSaved=  12.
 NSaved=12 IEnMin=12 EnMin= -1820.55255376303     IErMin=12 ErrMin= 7.81D-05
 ErrMax= 7.81D-05  0.00D+00 EMaxC= 1.00D-01 BMatC= 6.24D-06 BMatP= 9.06D-05
 IDIUse=1 WtCom= 1.00D+00 WtEn= 0.00D+00
 Coeff-Com:  0.731D-03-0.959D-03 0.158D-03 0.126D-04 0.302D-02-0.101D-02
 Coeff-Com: -0.904D-02-0.269D-01-0.356D-01 0.151D-01 0.299D+00 0.755D+00
 Coeff:      0.731D-03-0.959D-03 0.158D-03 0.126D-04 0.302D-02-0.101D-02
 Coeff:     -0.904D-02-0.269D-01-0.356D-01 0.151D-01 0.299D+00 0.755D+00
 Gap=     0.021 Goal=   None    Shift=    0.000
 Gap=     0.152 Goal=   None    Shift=    0.000
 RMSDP=2.69D-04 MaxDP=6.91D-02 DE=-2.20D-05 OVMax= 2.01D-03

 Cycle  13  Pass 1  IDiag  1:
 Density matrix breaks symmetry, PCut= 1.00D-04
 Density has only Abelian symmetry.
 RMSU=  1.90D-05    CP:  8.42D-01  5.47D-01 -1.08D-05  6.15D-01  1.24D+00
                    CP:  4.80D-05  1.15D+00  4.73D-01  1.48D+00  1.27D+00
                    CP:  2.09D+00  1.80D+00
 E= -1820.55255613261     Delta-E=       -0.000002369581 Rises=F Damp=F
 DIIS: error= 2.12D-05 at cycle  13 NSaved=  13.
 NSaved=13 IEnMin=13 EnMin= -1820.55255613261     IErMin=13 ErrMin= 2.12D-05
 ErrMax= 2.12D-05  0.00D+00 EMaxC= 1.00D-01 BMatC= 3.13D-07 BMatP= 6.24D-06
 IDIUse=1 WtCom= 1.00D+00 WtEn= 0.00D+00
 Coeff-Com: -0.262D-03 0.305D-03-0.203D-04 0.101D-04-0.815D-03-0.367D-04
 Coeff-Com:  0.500D-02 0.131D-01 0.119D-03-0.281D-01-0.170D+00-0.116D+00
 Coeff-Com:  0.130D+01
 Coeff:     -0.262D-03 0.305D-03-0.203D-04 0.101D-04-0.815D-03-0.367D-04
 Coeff:      0.500D-02 0.131D-01 0.119D-03-0.281D-01-0.170D+00-0.116D+00
 Coeff:      0.130D+01
 Gap=     0.021 Goal=   None    Shift=    0.000
 Gap=     0.152 Goal=   None    Shift=    0.000
 RMSDP=3.38D-04 MaxDP=6.72D-02 DE=-2.37D-06 OVMax= 2.84D-03

 Cycle  14  Pass 1  IDiag  1:
 Density matrix breaks symmetry, PCut= 1.00D-04
 Density has only Abelian symmetry.
 RMSU=  1.64D-05    CP:  8.41D-01  5.44D-01 -1.12D-05  6.17D-01  1.25D+00
                    CP:  2.51D-05  1.05D+00  3.19D-01  1.56D+00  1.47D+00
                    CP:  2.76D+00  3.00D+00  2.52D+00
 E= -1820.55255667499     Delta-E=       -0.000000542380 Rises=F Damp=F
 DIIS: error= 8.48D-06 at cycle  14 NSaved=  14.
 NSaved=14 IEnMin=14 EnMin= -1820.55255667499     IErMin=14 ErrMin= 8.48D-06
 ErrMax= 8.48D-06  0.00D+00 EMaxC= 1.00D-01 BMatC= 3.67D-08 BMatP= 3.13D-07
 IDIUse=1 WtCom= 1.00D+00 WtEn= 0.00D+00
 Coeff-Com: -0.637D-04 0.112D-03-0.242D-04 0.304D-05-0.229D-03 0.503D-04
 Coeff-Com:  0.316D-03 0.173D-02 0.241D-02 0.637D-03-0.943D-02-0.825D-01
 Coeff-Com: -0.238D+00 0.133D+01
 Coeff:     -0.637D-04 0.112D-03-0.242D-04 0.304D-05-0.229D-03 0.503D-04
 Coeff:      0.316D-03 0.173D-02 0.241D-02 0.637D-03-0.943D-02-0.825D-01
 Coeff:     -0.238D+00 0.133D+01
 Gap=     0.021 Goal=   None    Shift=    0.000
 Gap=     0.152 Goal=   None    Shift=    0.000
 RMSDP=2.56D-04 MaxDP=4.56D-02 DE=-5.42D-07 OVMax= 2.21D-03

 Cycle  15  Pass 1  IDiag  1:
 Density matrix breaks symmetry, PCut= 1.00D-04
 Density has only Abelian symmetry.
 RMSU=  6.75D-05    CP:  8.40D-01  5.43D-01 -1.15D-05  6.18D-01  1.26D+00
                    CP:  1.34D-05  9.65D-01  2.02D-01  1.62D+00  1.62D+00
                    CP:  3.00D+00  3.00D+00  3.00D+00  3.00D+00
 E= -1820.55255682683     Delta-E=       -0.000000151837 Rises=F Damp=F
 DIIS: error= 3.63D-06 at cycle  15 NSaved=  15.
 NSaved=15 IEnMin=15 EnMin= -1820.55255682683     IErMin=15 ErrMin= 3.63D-06
 ErrMax= 3.63D-06  0.00D+00 EMaxC= 1.00D-01 BMatC= 7.25D-09 BMatP= 3.67D-08
 IDIUse=1 WtCom= 1.00D+00 WtEn= 0.00D+00
 Coeff-Com: -0.284D-04 0.329D-04 0.405D-05 0.723D-08 0.541D-04-0.113D-04
 Coeff-Com: -0.538D-03-0.120D-02 0.200D-03 0.312D-02 0.182D-01 0.424D-02
 Coeff-Com: -0.153D+00 0.100D+00 0.103D+01
 Coeff:     -0.284D-04 0.329D-04 0.405D-05 0.723D-08 0.541D-04-0.113D-04
 Coeff:     -0.538D-03-0.120D-02 0.200D-03 0.312D-02 0.182D-01 0.424D-02
 Coeff:     -0.153D+00 0.100D+00 0.103D+01
 Gap=     0.021 Goal=   None    Shift=    0.000
 Gap=     0.152 Goal=   None    Shift=    0.000
 RMSDP=1.28D-04 MaxDP=2.33D-02 DE=-1.52D-07 OVMax= 1.13D-03

 Cycle  16  Pass 1  IDiag  1:
 Density matrix breaks symmetry, PCut= 1.00D-04
 Density has only Abelian symmetry.
 RMSU=  2.28D-05    CP:  8.40D-01  5.42D-01 -1.16D-05  6.18D-01  1.27D+00
                    CP:  9.73D-06  9.24D-01  1.43D-01  1.65D+00  1.69D+00
                    CP:  3.00D+00  3.00D+00  3.00D+00  3.00D+00  1.71D+00
 E= -1820.55255686529     Delta-E=       -0.000000038459 Rises=F Damp=F
 DIIS: error= 1.56D-06 at cycle  16 NSaved=  16.
 NSaved=16 IEnMin=16 EnMin= -1820.55255686529     IErMin=16 ErrMin= 1.56D-06
 ErrMax= 1.56D-06  0.00D+00 EMaxC= 1.00D-01 BMatC= 5.09D-10 BMatP= 7.25D-09
 IDIUse=1 WtCom= 1.00D+00 WtEn= 0.00D+00
 Coeff-Com:  0.439D-05-0.661D-05-0.573D-06 0.112D-06-0.555D-05 0.395D-05
 Coeff-Com:  0.612D-04 0.145D-03 0.494D-05-0.509D-03-0.209D-02-0.930D-03
 Coeff-Com:  0.396D-01-0.988D-01-0.100D+00 0.116D+01
 Coeff:      0.439D-05-0.661D-05-0.573D-06 0.112D-06-0.555D-05 0.395D-05
 Coeff:      0.612D-04 0.145D-03 0.494D-05-0.509D-03-0.209D-02-0.930D-03
 Coeff:      0.396D-01-0.988D-01-0.100D+00 0.116D+01
 Gap=     0.021 Goal=   None    Shift=    0.000
 Gap=     0.152 Goal=   None    Shift=    0.000
 RMSDP=9.10D-05 MaxDP=1.67D-02 DE=-3.85D-08 OVMax= 8.06D-04

 Cycle  17  Pass 1  IDiag  1:
 Density matrix breaks symmetry, PCut= 1.00D-04
 Density has only Abelian symmetry.
 RMSU=  1.43D-06    CP:  8.40D-01  5.42D-01 -1.16D-05  6.18D-01  1.27D+00
                    CP:  8.03D-06  8.94D-01  1.02D-01  1.67D+00  1.75D+00
                    CP:  3.00D+00  3.00D+00  3.00D+00  3.00D+00  2.22D+00
                    CP:  1.77D+00
 E= -1820.55255688370     Delta-E=       -0.000000018411 Rises=F Damp=F
 DIIS: error= 1.11D-06 at cycle  17 NSaved=  17.
 NSaved=17 IEnMin=17 EnMin= -1820.55255688370     IErMin=17 ErrMin= 1.11D-06
 ErrMax= 1.11D-06  0.00D+00 EMaxC= 1.00D-01 BMatC= 2.64D-10 BMatP= 5.09D-10
 IDIUse=1 WtCom= 1.00D+00 WtEn= 0.00D+00
 Coeff-Com:  0.796D-05-0.730D-05-0.561D-06-0.433D-06 0.646D-06 0.166D-05
 Coeff-Com:  0.557D-04 0.245D-03-0.128D-03-0.718D-03-0.252D-02-0.979D-03
 Coeff-Com:  0.256D-01-0.177D-02-0.168D+00-0.807D+00 0.196D+01
 Coeff:      0.796D-05-0.730D-05-0.561D-06-0.433D-06 0.646D-06 0.166D-05
 Coeff:      0.557D-04 0.245D-03-0.128D-03-0.718D-03-0.252D-02-0.979D-03
 Coeff:      0.256D-01-0.177D-02-0.168D+00-0.807D+00 0.196D+01
 Gap=     0.021 Goal=   None    Shift=    0.000
 Gap=     0.152 Goal=   None    Shift=    0.000
 RMSDP=1.25D-04 MaxDP=2.30D-02 DE=-1.84D-08 OVMax= 1.11D-03

 Cycle  18  Pass 1  IDiag  1:
 Density matrix breaks symmetry, PCut= 1.00D-04
 Density has only Abelian symmetry.
 RMSU=  1.00D-06    CP:  8.39D-01  5.42D-01 -1.17D-05  6.19D-01  1.27D+00
                    CP:  6.96D-06  8.53D-01  4.44D-02  1.69D+00  1.82D+00
                    CP:  3.00D+00  3.00D+00  3.00D+00  3.00D+00  2.94D+00
                    CP:  2.91D+00  3.00D+00
 E= -1820.55255689929     Delta-E=       -0.000000015590 Rises=F Damp=F
 DIIS: error= 5.09D-07 at cycle  18 NSaved=  18.
 NSaved=18 IEnMin=18 EnMin= -1820.55255689929     IErMin=18 ErrMin= 5.09D-07
 ErrMax= 5.09D-07  0.00D+00 EMaxC= 1.00D-01 BMatC= 1.45D-10 BMatP= 2.64D-10
 IDIUse=1 WtCom= 1.00D+00 WtEn= 0.00D+00
 Coeff-Com:  0.117D-05-0.449D-06-0.170D-06-0.616D-07-0.499D-05 0.875D-06
 Coeff-Com: -0.215D-04-0.168D-04 0.137D-05 0.165D-03 0.580D-03-0.636D-03
 Coeff-Com: -0.204D-01 0.584D-01 0.986D-01-0.672D+00 0.311D-01 0.150D+01
 Coeff:      0.117D-05-0.449D-06-0.170D-06-0.616D-07-0.499D-05 0.875D-06
 Coeff:     -0.215D-04-0.168D-04 0.137D-05 0.165D-03 0.580D-03-0.636D-03
 Coeff:     -0.204D-01 0.584D-01 0.986D-01-0.672D+00 0.311D-01 0.150D+01
 Gap=     0.021 Goal=   None    Shift=    0.000
 Gap=     0.152 Goal=   None    Shift=    0.000
 RMSDP=9.41D-05 MaxDP=1.74D-02 DE=-1.56D-08 OVMax= 8.41D-04

 Cycle  19  Pass 1  IDiag  1:
 Density matrix breaks symmetry, PCut= 1.00D-04
 Density has only Abelian symmetry.
 RMSU=  3.81D-05    CP:  8.39D-01  5.42D-01 -1.18D-05  6.19D-01  1.27D+00
                    CP:  7.14D-06  8.23D-01  1.67D-03  1.71D+00  1.87D+00
                    CP:  3.00D+00  3.00D+00  3.00D+00  3.00D+00  3.00D+00
                    CP:  3.00D+00  3.00D+00  3.00D+00
 E= -1820.55255690332     Delta-E=       -0.000000004034 Rises=F Damp=F
 DIIS: error= 1.10D-07 at cycle  19 NSaved=  19.
 NSaved=19 IEnMin=19 EnMin= -1820.55255690332     IErMin=19 ErrMin= 1.10D-07
 ErrMax= 1.10D-07  0.00D+00 EMaxC= 1.00D-01 BMatC= 8.65D-12 BMatP= 1.45D-10
 IDIUse=1 WtCom= 1.00D+00 WtEn= 0.00D+00
 Coeff-Com: -0.320D-08-0.108D-06 0.302D-07 0.166D-08-0.582D-06-0.139D-06
 Coeff-Com:  0.131D-05-0.892D-05-0.778D-06 0.109D-03 0.661D-04 0.144D-04
 Coeff-Com: -0.232D-02 0.541D-02-0.263D-02 0.106D-02-0.554D-01 0.316D-01
 Coeff-Com:  0.102D+01
 Coeff:     -0.320D-08-0.108D-06 0.302D-07 0.166D-08-0.582D-06-0.139D-06
 Coeff:      0.131D-05-0.892D-05-0.778D-06 0.109D-03 0.661D-04 0.144D-04
 Coeff:     -0.232D-02 0.541D-02-0.263D-02 0.106D-02-0.554D-01 0.316D-01
 Coeff:      0.102D+01
 Gap=     0.021 Goal=   None    Shift=    0.000
 Gap=     0.152 Goal=   None    Shift=    0.000
 RMSDP=9.21D-06 MaxDP=1.70D-03 DE=-4.03D-09 OVMax= 8.22D-05

 Cycle  20  Pass 1  IDiag  1:
 Density matrix breaks symmetry, PCut= 1.00D-04
 Density has only Abelian symmetry.
 RMSU=  1.90D-07    CP:  8.39D-01  5.42D-01 -1.18D-05  6.19D-01  1.27D+00
                    CP:  7.20D-06  8.20D-01 -2.45D-03  1.71D+00  1.88D+00
                    CP:  3.00D+00  3.00D+00  3.00D+00  3.00D+00  3.00D+00
                    CP:  3.00D+00  3.00D+00  3.00D+00  1.11D+00
 E= -1820.55255690348     Delta-E=       -0.000000000159 Rises=F Damp=F
 DIIS: error= 3.16D-08 at cycle  20 NSaved=  20.
 NSaved=20 IEnMin=20 EnMin= -1820.55255690348     IErMin=20 ErrMin= 3.16D-08
 ErrMax= 3.16D-08  0.00D+00 EMaxC= 1.00D-01 BMatC= 7.42D-13 BMatP= 8.65D-12
 IDIUse=1 WtCom= 1.00D+00 WtEn= 0.00D+00
 Coeff-Com: -0.100D-06 0.156D-06 0.103D-07-0.286D-08 0.109D-07-0.617D-07
 Coeff-Com: -0.598D-06 0.290D-05-0.696D-05-0.357D-05-0.233D-04 0.721D-04
 Coeff-Com:  0.677D-04-0.422D-03 0.257D-02-0.140D-01 0.630D-02 0.217D-01
 Coeff-Com: -0.345D+00 0.133D+01
 Coeff:     -0.100D-06 0.156D-06 0.103D-07-0.286D-08 0.109D-07-0.617D-07
 Coeff:     -0.598D-06 0.290D-05-0.696D-05-0.357D-05-0.233D-04 0.721D-04
 Coeff:      0.677D-04-0.422D-03 0.257D-02-0.140D-01 0.630D-02 0.217D-01
 Coeff:     -0.345D+00 0.133D+01
 Gap=     0.021 Goal=   None    Shift=    0.000
 Gap=     0.152 Goal=   None    Shift=    0.000
 RMSDP=3.04D-06 MaxDP=5.61D-04 DE=-1.59D-10 OVMax= 2.71D-05

 Cycle  21  Pass 1  IDiag  1:
 E= -1820.55255688300     Delta-E=        0.000000020485 Rises=F Damp=F
 DIIS: error= 3.44D-09 at cycle  21 NSaved=  20.
 NSaved=20 IEnMin=19 EnMin= -1820.55255690348     IErMin=20 ErrMin= 3.44D-09
 ErrMax= 3.44D-09  0.00D+00 EMaxC= 1.00D-01 BMatC= 7.20D-15 BMatP= 7.42D-13
 IDIUse=1 WtCom= 1.00D+00 WtEn= 0.00D+00
 Coeff-Com: -0.284D-07 0.335D-07-0.161D-08 0.392D-07-0.489D-08-0.138D-06
 Coeff-Com: -0.359D-06-0.158D-06 0.712D-06 0.781D-05 0.106D-04-0.166D-04
 Coeff-Com:  0.556D-04 0.258D-03 0.601D-04-0.853D-03 0.487D-03 0.688D-03
 Coeff-Com: -0.150D-01 0.101D+01
 Coeff:     -0.284D-07 0.335D-07-0.161D-08 0.392D-07-0.489D-08-0.138D-06
 Coeff:     -0.359D-06-0.158D-06 0.712D-06 0.781D-05 0.106D-04-0.166D-04
 Coeff:      0.556D-04 0.258D-03 0.601D-04-0.853D-03 0.487D-03 0.688D-03
 Coeff:     -0.150D-01 0.101D+01
 Gap=     0.021 Goal=   None    Shift=    0.000
 Gap=     0.152 Goal=   None    Shift=    0.000
 RMSDP=1.09D-07 MaxDP=2.01D-05 DE= 2.05D-08 OVMax= 9.62D-07

 Cycle  22  Pass 1  IDiag  1:
 RMSU=  2.59D-09    CP:  1.00D+00
 E= -1820.55255690400     Delta-E=       -0.000000020997 Rises=F Damp=F
 DIIS: error= 1.62D-09 at cycle  22 NSaved=  20.
 NSaved=20 IEnMin=20 EnMin= -1820.55255690400     IErMin=20 ErrMin= 1.62D-09
 ErrMax= 1.62D-09  0.00D+00 EMaxC= 1.00D-01 BMatC= 1.50D-15 BMatP= 7.20D-15
 IDIUse=1 WtCom= 1.00D+00 WtEn= 0.00D+00
 Large coefficients: NSaved= 20 BigCof=    0.00 CofMax=   10.00 Det=-9.79D-16
 Inversion failed.  Reducing to 19 matrices.
 Large coefficients: NSaved= 19 BigCof=    0.00 CofMax=   10.00 Det=-9.73D-16
 Inversion failed.  Reducing to 18 matrices.
 Large coefficients: NSaved= 18 BigCof=    0.00 CofMax=   10.00 Det=-9.79D-16
 Inversion failed.  Reducing to 17 matrices.
 Large coefficients: NSaved= 17 BigCof=    0.00 CofMax=   10.00 Det=-9.81D-16
 Inversion failed.  Reducing to 16 matrices.
 Large coefficients: NSaved= 16 BigCof=    0.00 CofMax=   10.00 Det=-1.04D-15
 Inversion failed.  Reducing to 15 matrices.
 Coeff-Com:  0.294D-06 0.174D-06-0.500D-06-0.236D-05 0.191D-05 0.951D-05
 Coeff-Com: -0.557D-04-0.184D-03 0.557D-03-0.389D-05-0.535D-03 0.320D-02
 Coeff-Com: -0.159D-01 0.289D+00 0.724D+00
 Coeff:      0.294D-06 0.174D-06-0.500D-06-0.236D-05 0.191D-05 0.951D-05
 Coeff:     -0.557D-04-0.184D-03 0.557D-03-0.389D-05-0.535D-03 0.320D-02
 Coeff:     -0.159D-01 0.289D+00 0.724D+00
 Gap=     0.021 Goal=   None    Shift=    0.000
 Gap=     0.152 Goal=   None    Shift=    0.000
 RMSDP=8.12D-10 MaxDP=1.14D-07 DE=-2.10D-08 OVMax= 1.28D-08

 SCF Done:  E(UB3LYP) =  -1820.55255690     A.U. after   22 cycles
            NFock= 22  Conv=0.81D-09     -V/T= 2.0023
 <Sx>= 0.0000 <Sy>= 0.0000 <Sz>= 2.5000 <S**2>= 8.7590 S= 2.5015
 <L.S>=  0.00000000000    
 KE= 1.816378900687D+03 PE=-6.185585681217D+03 EE= 1.631681648455D+03
 Annihilation of the first spin contaminant:
 S**2 before annihilation     8.7590,   after     8.7500
 Leave Link  502 at Mon Jul 22 16:50:09 2024, MaxMem=120795955200 cpu:            5143.0 elap:              45.9
 (Enter /gpfs/fs1/soft/improv/software/custom-built/gaussian/g16/l508.exe)
 QCSCF skips out because SCF is already converged.
 Leave Link  508 at Mon Jul 22 16:50:09 2024, MaxMem=120795955200 cpu:               0.2 elap:               0.0
 (Enter /gpfs/fs1/soft/improv/software/custom-built/gaussian/g16/l801.exe)
 DoSCS=F DFT=T ScalE2(SS,OS)=  1.000000  1.000000
 Range of M.O.s used for correlation:     1   446
 NBasis=   449 NAE=    56 NBE=    51 NFC=     0 NFV=     0
 NROrb=    446 NOA=    56 NOB=    51 NVA=   390 NVB=   395

 **** Warning!!: The largest alpha MO coefficient is  0.19837479D+03


 **** Warning!!: The smallest alpha delta epsilon is  0.21036838D-01


 **** Warning!!: The largest beta MO coefficient is  0.20343750D+03

 Leave Link  801 at Mon Jul 22 16:50:10 2024, MaxMem=120795955200 cpu:               0.4 elap:               0.0
 (Enter /gpfs/fs1/soft/improv/software/custom-built/gaussian/g16/l1101.exe)
 Using compressed storage, NAtomX=    13.
 Will process     14 centers per pass.
 R6Disp: Adding Grimme-D3 dispersion energy 1st derivatives to the gradient.
 Leave Link 1101 at Mon Jul 22 16:50:11 2024, MaxMem=120795955200 cpu:              60.3 elap:               0.6
 (Enter /gpfs/fs1/soft/improv/software/custom-built/gaussian/g16/l1102.exe)
 Symmetrizing basis deriv contribution to polar:
 IMax=3 JMax=2 DiffMx= 0.00D+00
 Leave Link 1102 at Mon Jul 22 16:50:11 2024, MaxMem=120795955200 cpu:               1.0 elap:               0.1
 (Enter /gpfs/fs1/soft/improv/software/custom-built/gaussian/g16/l1110.exe)
 Forming Gx(P) for the SCF density, NAtomX=    13.
 Integral derivatives from FoFJK, PRISM(SPDF).
 Do as many integral derivatives as possible in FoFJK.
 G2DrvN: MDV=  120795953673.
 G2DrvN: will do    14 centers at a time, making    1 passes.
 Calling FoFCou, ICntrl=  3107 FMM=F I1Cent=   0 AccDes= 0.00D+00.
 FoFJK:  IHMeth= 1 ICntrl=    3107 DoSepK=F KAlg= 0 I1Cent=           0 FoldK=F
 IRaf=         0 NMat=       1 IRICut=       1 DoRegI=T DoRafI=F ISym2E= 1 IDoP0=0 IntGTp=1.
 FoFCou: FMM=F IPFlag=           0 FMFlag=      100000 FMFlg1=           0
         NFxFlg=           0 DoJE=F BraDBF=F KetDBF=F FulRan=T
         wScrn=  0.000000 ICntrl=      3107 IOpCl=  1 I1Cent=           0 NGrid=           0
         NMat0=    1 NMatS0=      1 NMatT0=    0 NMatD0=    1 NMtDS0=    0 NMtDT0=    0
 Petite list used in FoFCou.
 End of G2Drv F.D. properties file   721 does not exist.
 End of G2Drv F.D. properties file   722 does not exist.
 End of G2Drv F.D. properties file   788 does not exist.
 Leave Link 1110 at Mon Jul 22 16:50:18 2024, MaxMem=120795955200 cpu:             814.1 elap:               6.8
 (Enter /gpfs/fs1/soft/improv/software/custom-built/gaussian/g16/l1002.exe)
 Minotr:  UHF open shell wavefunction.
          IDoAtm=1111111111111
          Direct CPHF calculation.
          Differentiating once with respect to electric field.
                with respect to dipole field.
          Differentiating once with respect to nuclear coordinates.
          Using symmetry in CPHF.
          Requested convergence is 1.0D-08 RMS, and 1.0D-07 maximum.
          Secondary convergence is 1.0D-12 RMS, and 1.0D-12 maximum.
          NewPWx=T KeepS1=F KeepF1=F KeepIn=T MapXYZ=F SortEE=F KeepMc=T.
         4078 words used for storage of precomputed grid.
 Two-electron integrals replicated using symmetry.
          MDV=  120795955200 using IRadAn=       1.
          Solving linear equations simultaneously, MaxMat=     384.
 FoF2E skips out because all densities are zero.
 CalDSu exits because no D1Ps are significant.
 FoFJK:  IHMeth= 1 ICntrl=       0 DoSepK=F KAlg= 0 I1Cent=           0 FoldK=F
 IRaf= 930000000 NMat=       9 IRICut=      22 DoRegI=T DoRafI=T ISym2E= 2 IDoP0=0 IntGTp=1.
 FoFCou: FMM=F IPFlag=           0 FMFlag=      100000 FMFlg1=           0
         NFxFlg=           0 DoJE=F BraDBF=F KetDBF=F FulRan=T
         wScrn=  0.000000 ICntrl=         0 IOpCl=  1 I1Cent=           0 NGrid=           0
         NMat0=    9 NMatS0=      9 NMatT0=    0 NMatD0=    9 NMtDS0=    0 NMtDT0=    0
 Integrals replicated using symmetry in FoFCou.
 Raff kept on since  91.84% of shell-pairs survive, threshold=   0.20 IRatSp=92.
          There are    12 degrees of freedom in the 1st order CPHF.  IDoFFX=4 NUNeed=    12.
     12 vectors produced by pass  0 Test12= 3.50D-13 8.33D-09 XBig12= 3.72D+02 6.87D+00.
 AX will form    12 AO Fock derivatives at one time.
     12 vectors produced by pass  1 Test12= 3.50D-13 8.33D-09 XBig12= 1.94D+02 4.87D+00.
     12 vectors produced by pass  2 Test12= 3.50D-13 8.33D-09 XBig12= 5.24D+01 2.11D+00.
     12 vectors produced by pass  3 Test12= 3.50D-13 8.33D-09 XBig12= 6.43D+00 1.19D+00.
     12 vectors produced by pass  4 Test12= 3.50D-13 8.33D-09 XBig12= 2.14D-01 1.04D-01.
     12 vectors produced by pass  5 Test12= 3.50D-13 8.33D-09 XBig12= 2.41D-02 2.63D-02.
     12 vectors produced by pass  6 Test12= 3.50D-13 8.33D-09 XBig12= 5.54D-03 9.27D-03.
     12 vectors produced by pass  7 Test12= 3.50D-13 8.33D-09 XBig12= 4.34D-04 5.12D-03.
     12 vectors produced by pass  8 Test12= 3.50D-13 8.33D-09 XBig12= 8.89D-06 6.68D-04.
     12 vectors produced by pass  9 Test12= 3.50D-13 8.33D-09 XBig12= 1.98D-07 9.40D-05.
     10 vectors produced by pass 10 Test12= 3.50D-13 8.33D-09 XBig12= 7.48D-09 1.96D-05.
      5 vectors produced by pass 11 Test12= 3.50D-13 8.33D-09 XBig12= 1.90D-10 2.87D-06.
      4 vectors produced by pass 12 Test12= 3.50D-13 8.33D-09 XBig12= 4.53D-12 5.34D-07.
      2 vectors produced by pass 13 Test12= 3.50D-13 8.33D-09 XBig12= 6.46D-14 3.51D-08.
      1 vectors produced by pass 14 Test12= 3.50D-13 8.33D-09 XBig12= 1.99D-15 2.57D-08.
      1 vectors produced by pass 15 Test12= 3.50D-13 8.33D-09 XBig12= 2.38D-16 1.13D-08.
 InvSVY:  IOpt=1 It=  1 EMax= 1.07D-14
 Solved reduced A of dimension   143 with    12 vectors.
 FullF1:  Do perturbations      1 to      12.
 Isotropic polarizability for W=    0.000000      164.96 Bohr**3.
 End of Minotr F.D. properties file   721 does not exist.
 End of Minotr F.D. properties file   722 does not exist.
 End of Minotr F.D. properties file   788 does not exist.
 Leave Link 1002 at Mon Jul 22 16:51:41 2024, MaxMem=120795955200 cpu:           10069.6 elap:              82.8
 (Enter /gpfs/fs1/soft/improv/software/custom-built/gaussian/g16/l601.exe)
 Copying SCF densities to generalized density rwf, IOpCl= 1 IROHF=0.

 **********************************************************************

            Population analysis using the SCF Density.

 **********************************************************************

 Orbital symmetries:
 Alpha Orbitals:
       Occupied  (A1G) (A1G) (T1U) (T1U) (T1U) (A1G) (T1U) (T1U)
                 (T1U) (EG) (EG) (EG) (EG) (A1G) (T1U) (T1U) (T1U)
                 (A1G) (T1U) (T1U) (T1U) (A1G) (T1U) (T1U) (T1U)
                 (EG) (EG) (A1G) (EG) (EG) (T1U) (T1U) (T1U) (T2G)
                 (T2G) (T2G) (EG) (EG) (A1G) (T1U) (T1U) (T1U)
                 (T2G) (T2G) (T2G) (T2U) (T2U) (T2U) (T1G) (T1G)
                 (T1G) (T1U) (T1U) (T1U) (EG) (EG)
       Virtual   (A1G) (T1U) (T1U) (T1U) (EG) (EG) (A1G) (T1U)
                 (T1U) (T1U) (T2G) (T2G) (T2G) (T1U) (T1U) (T1U)
                 (T2G) (T2G) (T2G) (T1G) (T1G) (T1G) (A1G) (T2U)
                 (T2U) (T2U) (T2U) (T2U) (T2U) (T1U) (T1U) (T1U)
                 (EG) (EG) (T1G) (T1G) (T1G) (A1G) (T1U) (T1U)
                 (T1U) (EG) (EG) (T2G) (T2G) (T2G) (T2U) (T2U)
                 (T2U) (T1U) (T1U) (T1U) (T1U) (T1U) (T1U) (EG)
                 (EG) (T1G) (T1G) (T1G) (A1G) (A1G) (T1U) (T1U)
                 (T1U) (A1G) (EG) (EG) (T2G) (T2G) (T2G) (T1U)
                 (T1U) (T1U) (A2U) (T1U) (T1U) (T1U) (T2U) (T2U)
                 (T2U) (T2G) (T2G) (T2G) (EG) (EG) (A1G) (EU) (EU)
                 (EG) (EG) (T1U) (T1U) (T1U) (A2G) (T2G) (T2G)
                 (T2G) (T2U) (T2U) (T2U) (T1G) (T1G) (T1G) (A1G)
                 (T1U) (T1U) (T1U) (T2G) (T2G) (T2G) (T2U) (T2U)
                 (T2U) (A2U) (T1U) (T1U) (T1U) (EG) (EG) (T2U)
                 (T2U) (T2U) (T1U) (T1U) (T1U) (EG) (EG) (T1G)
                 (T1G) (T1G) (T2G) (T2G) (T2G) (A1G) (A1G) (EU)
                 (EU) (T1U) (T1U) (T1U) (A2G) (T1G) (T1G) (T1G)
                 (T2U) (T2U) (T2U) (T2G) (T2G) (T2G) (EG) (EG)
                 (T1U) (T1U) (T1U) (T2U) (T2U) (T2U) (T2G) (T2G)
                 (T2G) (A2U) (T1U) (T1U) (T1U) (EG) (EG) (A1G)
                 (T1U) (T1U) (T1U) (EG) (EG) (EG) (EG) (T1G) (T1G)
                 (T1G) (A1G) (T1U) (T1U) (T1U) (T2G) (T2G) (T2G)
                 (T2U) (T2U) (T2U) (T1U) (T1U) (T1U) (A1G) (EG)
                 (EG) (T1U) (T1U) (T1U) (A1G) (T2U) (T2U) (T2U)
                 (T1G) (T1G) (T1G) (T2G) (T2G) (T2G) (EU) (EU)
                 (T2G) (T2G) (T2G) (T1U) (T1U) (T1U) (A2G) (T2U)
                 (T2U) (T2U) (EG) (EG) (A2U) (T1U) (T1U) (T1U)
                 (EG) (EG) (T1G) (T1G) (T1G) (T2U) (T2U) (T2U)
                 (T2G) (T2G) (T2G) (T1U) (T1U) (T1U) (T1U) (T1U)
                 (T1U) (T2G) (T2G) (T2G) (A1G) (T2U) (T2U) (T2U)
                 (T1G) (T1G) (T1G) (T2G) (T2G) (T2G) (EG) (EG)
                 (T1U) (T1U) (T1U) (T2U) (T2U) (T2U) (EG) (EG)
                 (T1U) (T1U) (T1U) (T1G) (T1G) (T1G) (A1G) (A2U)
                 (EU) (EU) (A2G) (T2G) (T2G) (T2G) (T2U) (T2U)
                 (T2U) (A2U) (T1U) (T1U) (T1U) (EG) (EG) (T2G)
                 (T2G) (T2G) (A1G) (EU) (EU) (T2U) (T2U) (T2U)
                 (A2G) (EG) (EG) (A2U) (EU) (EU) (T2U) (T2U) (T2U)
                 (T2G) (T2G) (T2G) (T1G) (T1G) (T1G) (T1U) (T1U)
                 (T1U) (A2G) (T2G) (T2G) (T2G) (EG) (EG) (T2U)
                 (T2U) (T2U) (T1U) (T1U) (T1U) (EG) (EG) (T2G)
                 (T2G) (T2G) (A2U) (A1G) (T1G) (T1G) (T1G) (T1U)
                 (T1U) (T1U) (EG) (EG) (T2U) (T2U) (T2U) (T1U)
                 (T1U) (T1U) (T2G) (T2G) (T2G) (T2U) (T2U) (T2U)
                 (T1U) (T1U) (T1U) (A1G) (T1G) (T1G) (T1G) (A1G)
                 (EG) (EG) (T1U) (T1U) (T1U) (EG) (EG) (A1G) (T1U)
                 (T1U) (T1U) (EG) (EG) (A1G) (T1U) (T1U) (T1U)
                 (A1G) (EG) (EG) (A1G) (EG) (EG) (T1U) (T1U) (T1U)
                 (A1G)
 Beta  Orbitals:
       Occupied  (A1G) (A1G) (T1U) (T1U) (T1U) (A1G) (T1U) (T1U)
                 (T1U) (EG) (EG) (A1G) (T1U) (T1U) (T1U) (EG) (EG)
                 (A1G) (T1U) (T1U) (T1U) (A1G) (T1U) (T1U) (T1U)
                 (EG) (EG) (A1G) (T1U) (T1U) (T1U) (EG) (EG) (A1G)
                 (T2G) (T2G) (T2G) (T1U) (T1U) (T1U) (EG) (EG)
                 (T2U) (T2U) (T2U) (T1G) (T1G) (T1G) (T1U) (T1U)
                 (T1U)
       Virtual   (A1G) (T2G) (T2G) (T2G) (T1U) (T1U) (T1U) (EG)
                 (EG) (A1G) (T1U) (T1U) (T1U) (EG) (EG) (T2G) (T2G)
                 (T2G) (T1G) (T1G) (T1G) (A1G) (T1U) (T1U) (T1U)
                 (T2U) (T2U) (T2U) (T2G) (T2G) (T2G) (T2U) (T2U)
                 (T2U) (T1U) (T1U) (T1U) (EG) (EG) (T1G) (T1G)
                 (T1G) (A1G) (T1U) (T1U) (T1U) (EG) (EG) (T2G)
                 (T2G) (T2G) (T2U) (T2U) (T2U) (T1U) (T1U) (T1U)
                 (T1U) (T1U) (T1U) (EG) (EG) (T1G) (T1G) (T1G)
                 (A1G) (A1G) (T1U) (T1U) (T1U) (EG) (EG) (A1G)
                 (T2G) (T2G) (T2G) (T1U) (T1U) (T1U) (A2U) (T1U)
                 (T1U) (T1U) (T2U) (T2U) (T2U) (T2G) (T2G) (T2G)
                 (EG) (EG) (A1G) (EU) (EU) (EG) (EG) (T1U) (T1U)
                 (T1U) (A2G) (T2U) (T2U) (T2U) (T2G) (T2G) (T2G)
                 (T1G) (T1G) (T1G) (A1G) (T1U) (T1U) (T1U) (T2G)
                 (T2G) (T2G) (T2U) (T2U) (T2U) (T1U) (T1U) (T1U)
                 (A2U) (EG) (EG) (T2U) (T2U) (T2U) (T1U) (T1U)
                 (T1U) (EG) (EG) (T1G) (T1G) (T1G) (T2G) (T2G)
                 (T2G) (A1G) (A1G) (EU) (EU) (T1U) (T1U) (T1U)
                 (A2G) (T1G) (T1G) (T1G) (T2U) (T2U) (T2U) (EG)
                 (EG) (T2G) (T2G) (T2G) (T1U) (T1U) (T1U) (T2U)
                 (T2U) (T2U) (T2G) (T2G) (T2G) (T1U) (T1U) (T1U)
                 (A2U) (EG) (EG) (A1G) (T1U) (T1U) (T1U) (EG) (EG)
                 (EG) (EG) (T1G) (T1G) (T1G) (A1G) (T1U) (T1U)
                 (T1U) (T2U) (T2U) (T2U) (T1U) (T1U) (T1U) (T2G)
                 (T2G) (T2G) (A1G) (EG) (EG) (T1U) (T1U) (T1U)
                 (A1G) (T2U) (T2U) (T2U) (T1G) (T1G) (T1G) (T2G)
                 (T2G) (T2G) (EU) (EU) (T2G) (T2G) (T2G) (T1U)
                 (T1U) (T1U) (A2G) (T2U) (T2U) (T2U) (EG) (EG)
                 (A2U) (T1U) (T1U) (T1U) (EG) (EG) (T1G) (T1G)
                 (T1G) (T2U) (T2U) (T2U) (T2G) (T2G) (T2G) (T1U)
                 (T1U) (T1U) (T1U) (T1U) (T1U) (T2G) (T2G) (T2G)
                 (A1G) (T2U) (T2U) (T2U) (T1G) (T1G) (T1G) (T2G)
                 (T2G) (T2G) (EG) (EG) (T1U) (T1U) (T1U) (T2U)
                 (T2U) (T2U) (EG) (EG) (T1U) (T1U) (T1U) (T1G)
                 (T1G) (T1G) (A1G) (A2U) (EU) (EU) (A2G) (T2G)
                 (T2G) (T2G) (T2U) (T2U) (T2U) (A2U) (EG) (EG)
                 (T1U) (T1U) (T1U) (T2G) (T2G) (T2G) (A1G) (EU)
                 (EU) (A2G) (T2U) (T2U) (T2U) (EG) (EG) (A2U) (EU)
                 (EU) (T2U) (T2U) (T2U) (T2G) (T2G) (T2G) (T1G)
                 (T1G) (T1G) (T1U) (T1U) (T1U) (A2G) (T2G) (T2G)
                 (T2G) (EG) (EG) (T2U) (T2U) (T2U) (T1U) (T1U)
                 (T1U) (EG) (EG) (T2G) (T2G) (T2G) (A1G) (T1G)
                 (T1G) (T1G) (A2U) (T1U) (T1U) (T1U) (EG) (EG)
                 (T2U) (T2U) (T2U) (T1U) (T1U) (T1U) (T2G) (T2G)
                 (T2G) (T2U) (T2U) (T2U) (T1U) (T1U) (T1U) (A1G)
                 (T1G) (T1G) (T1G) (A1G) (EG) (EG) (T1U) (T1U)
                 (T1U) (EG) (EG) (A1G) (T1U) (T1U) (T1U) (EG) (EG)
                 (A1G) (T1U) (T1U) (T1U) (A1G) (EG) (EG) (A1G)
                 (EG) (EG) (T1U) (T1U) (T1U) (A1G)
 The electronic state is 6-A1G.
 Alpha  occ. eigenvalues -- -255.76058 -29.77811 -25.63226 -25.63226 -25.63226
 Alpha  occ. eigenvalues --  -13.91725 -13.91723 -13.91723 -13.91723 -13.91721
 Alpha  occ. eigenvalues --  -13.91721  -9.77815  -9.77815  -9.77815  -9.77815
 Alpha  occ. eigenvalues --   -9.77815  -9.77815  -3.23788  -2.01110  -2.01110
 Alpha  occ. eigenvalues --   -2.01110  -0.49840  -0.49464  -0.49464  -0.49464
 Alpha  occ. eigenvalues --   -0.49328  -0.49328  -0.15042  -0.11018  -0.11018
 Alpha  occ. eigenvalues --   -0.05006  -0.05006  -0.05006  -0.03672  -0.03672
 Alpha  occ. eigenvalues --   -0.03672   0.01297   0.01297   0.02693   0.03491
 Alpha  occ. eigenvalues --    0.03491   0.03491   0.06351   0.06351   0.06351
 Alpha  occ. eigenvalues --    0.06387   0.06387   0.06387   0.07612   0.07612
 Alpha  occ. eigenvalues --    0.07612   0.08539   0.08539   0.08539   0.22669
 Alpha  occ. eigenvalues --    0.22669
 Alpha virt. eigenvalues --    0.24773   0.32231   0.32231   0.32231   0.35061
 Alpha virt. eigenvalues --    0.35061   0.36241   0.39617   0.39617   0.39617
 Alpha virt. eigenvalues --    0.41138   0.41138   0.41138   0.44339   0.44339
 Alpha virt. eigenvalues --    0.44339   0.44396   0.44396   0.44396   0.44487
 Alpha virt. eigenvalues --    0.44487   0.44487   0.44745   0.45052   0.45052
 Alpha virt. eigenvalues --    0.45052   0.47166   0.47166   0.47166   0.50979
 Alpha virt. eigenvalues --    0.50979   0.50979   0.51194   0.51194   0.52308
 Alpha virt. eigenvalues --    0.52308   0.52308   0.55223   0.56043   0.56043
 Alpha virt. eigenvalues --    0.56043   0.56662   0.56662   0.57808   0.57808
 Alpha virt. eigenvalues --    0.57808   0.60181   0.60181   0.60181   0.60714
 Alpha virt. eigenvalues --    0.60714   0.60714   0.64267   0.64267   0.64267
 Alpha virt. eigenvalues --    0.65341   0.65341   0.67170   0.67170   0.67170
 Alpha virt. eigenvalues --    0.71090   0.75098   0.75165   0.75165   0.75165
 Alpha virt. eigenvalues --    0.85182   0.87060   0.87060   0.90392   0.90392
 Alpha virt. eigenvalues --    0.90392   0.91236   0.91236   0.91236   1.02959
 Alpha virt. eigenvalues --    1.03132   1.03132   1.03132   1.03988   1.03988
 Alpha virt. eigenvalues --    1.03988   1.07204   1.07204   1.07204   1.07415
 Alpha virt. eigenvalues --    1.07415   1.10381   1.18287   1.18287   1.18825
 Alpha virt. eigenvalues --    1.18825   1.20102   1.20102   1.20102   1.21518
 Alpha virt. eigenvalues --    1.25363   1.25363   1.25363   1.25779   1.25779
 Alpha virt. eigenvalues --    1.25779   1.28616   1.28616   1.28616   1.29907
 Alpha virt. eigenvalues --    1.30961   1.30961   1.30961   1.32131   1.32131
 Alpha virt. eigenvalues --    1.32131   1.33388   1.33388   1.33388   1.35751
 Alpha virt. eigenvalues --    1.35822   1.35822   1.35822   1.36802   1.36802
 Alpha virt. eigenvalues --    1.38000   1.38000   1.38000   1.38582   1.38582
 Alpha virt. eigenvalues --    1.38582   1.41020   1.41020   1.42777   1.42777
 Alpha virt. eigenvalues --    1.42777   1.47918   1.47918   1.47918   1.48050
 Alpha virt. eigenvalues --    1.54192   1.59230   1.59230   1.66827   1.66827
 Alpha virt. eigenvalues --    1.66827   1.70631   1.72069   1.72069   1.72069
 Alpha virt. eigenvalues --    1.74505   1.74505   1.74505   1.76073   1.76073
 Alpha virt. eigenvalues --    1.76073   1.77356   1.77356   1.81107   1.81107
 Alpha virt. eigenvalues --    1.81107   1.85491   1.85491   1.85491   1.87561
 Alpha virt. eigenvalues --    1.87561   1.87561   1.87869   1.90457   1.90457
 Alpha virt. eigenvalues --    1.90457   1.96634   1.96634   2.03453   2.10107
 Alpha virt. eigenvalues --    2.10107   2.10107   2.11920   2.11920   2.15540
 Alpha virt. eigenvalues --    2.15540   2.18122   2.18122   2.18122   2.27124
 Alpha virt. eigenvalues --    2.43313   2.43313   2.43313   2.52638   2.52638
 Alpha virt. eigenvalues --    2.52638   2.54438   2.54438   2.54438   2.56584
 Alpha virt. eigenvalues --    2.56584   2.56584   2.63915   2.64783   2.64783
 Alpha virt. eigenvalues --    2.71298   2.71298   2.71298   3.00147   3.21298
 Alpha virt. eigenvalues --    3.21298   3.21298   3.21406   3.21406   3.21406
 Alpha virt. eigenvalues --    3.22530   3.22530   3.22530   3.26011   3.26011
 Alpha virt. eigenvalues --    3.30080   3.30080   3.30080   3.31785   3.31785
 Alpha virt. eigenvalues --    3.31785   3.32802   3.33937   3.33937   3.33937
 Alpha virt. eigenvalues --    3.34849   3.34849   3.44377   3.48811   3.48811
 Alpha virt. eigenvalues --    3.48811   3.53172   3.53172   3.56946   3.56946
 Alpha virt. eigenvalues --    3.56946   3.76331   3.76331   3.76331   3.76695
 Alpha virt. eigenvalues --    3.76695   3.76695   3.77765   3.77765   3.77765
 Alpha virt. eigenvalues --    4.06123   4.06123   4.06123   4.06260   4.06260
 Alpha virt. eigenvalues --    4.06260   4.06307   4.07519   4.07519   4.07519
 Alpha virt. eigenvalues --    4.07754   4.07754   4.07754   4.13524   4.13524
 Alpha virt. eigenvalues --    4.13524   4.14743   4.14743   4.20521   4.20521
 Alpha virt. eigenvalues --    4.20521   4.22800   4.22800   4.22800   4.31549
 Alpha virt. eigenvalues --    4.31549   4.31843   4.31843   4.31843   4.35407
 Alpha virt. eigenvalues --    4.35407   4.35407   4.43943   4.50216   4.54376
 Alpha virt. eigenvalues --    4.54376   4.55108   4.55728   4.55728   4.55728
 Alpha virt. eigenvalues --    4.57561   4.57561   4.57561   4.58582   4.59574
 Alpha virt. eigenvalues --    4.59574   4.59574   4.59935   4.59935   4.62083
 Alpha virt. eigenvalues --    4.62083   4.62083   4.62999   4.64497   4.64497
 Alpha virt. eigenvalues --    4.67600   4.67600   4.67600   4.67659   4.68795
 Alpha virt. eigenvalues --    4.68795   4.72325   4.81776   4.81776   4.81886
 Alpha virt. eigenvalues --    4.81886   4.81886   4.86317   4.86317   4.86317
 Alpha virt. eigenvalues --    4.87600   4.87600   4.87600   4.91343   4.91343
 Alpha virt. eigenvalues --    4.91343   4.91911   4.94168   4.94168   4.94168
 Alpha virt. eigenvalues --    4.99545   4.99545   5.00007   5.00007   5.00007
 Alpha virt. eigenvalues --    5.09053   5.09053   5.09053   5.15830   5.15830
 Alpha virt. eigenvalues --    5.16692   5.16692   5.16692   5.24806   5.25484
 Alpha virt. eigenvalues --    5.31093   5.31093   5.31093   5.43597   5.43597
 Alpha virt. eigenvalues --    5.43597   5.43907   5.43907   5.45468   5.45468
 Alpha virt. eigenvalues --    5.45468   5.74441   5.74441   5.74441   5.79814
 Alpha virt. eigenvalues --    5.79814   5.79814   5.94523   5.94523   5.94523
 Alpha virt. eigenvalues --    5.97487   5.97487   5.97487   6.00328   6.01412
 Alpha virt. eigenvalues --    6.01412   6.01412   6.19393   6.36280   6.36280
 Alpha virt. eigenvalues --    6.51739   6.51739   6.51739   6.92578   6.92578
 Alpha virt. eigenvalues --    7.84845  11.72952  11.72952  11.72952  11.78432
 Alpha virt. eigenvalues --   11.78432  11.79811  12.48861  12.48861  12.48861
 Alpha virt. eigenvalues --   13.45389  13.47331  13.47331  24.30468  24.83188
 Alpha virt. eigenvalues --   24.83188  28.91275  28.91275  28.91275  41.61689
  Beta  occ. eigenvalues -- -255.75952 -29.69367 -25.56237 -25.56237 -25.56237
  Beta  occ. eigenvalues --  -13.91565 -13.91562 -13.91562 -13.91562 -13.91560
  Beta  occ. eigenvalues --  -13.91560  -9.77532  -9.77532  -9.77532  -9.77532
  Beta  occ. eigenvalues --   -9.77532  -9.77532  -3.03333  -1.79605  -1.79605
  Beta  occ. eigenvalues --   -1.79605  -0.49307  -0.48938  -0.48938  -0.48938
  Beta  occ. eigenvalues --   -0.48799  -0.48799  -0.13303  -0.03838  -0.03838
  Beta  occ. eigenvalues --   -0.03838  -0.03576  -0.03576   0.03108   0.03625
  Beta  occ. eigenvalues --    0.03625   0.03625   0.04042   0.04042   0.04042
  Beta  occ. eigenvalues --    0.04281   0.04281   0.06974   0.06974   0.06974
  Beta  occ. eigenvalues --    0.08184   0.08184   0.08184   0.09585   0.09585
  Beta  occ. eigenvalues --    0.09585
  Beta virt. eigenvalues --    0.24770   0.26600   0.26600   0.26600   0.32214
  Beta virt. eigenvalues --    0.32214   0.32214   0.34761   0.34761   0.36271
  Beta virt. eigenvalues --    0.39619   0.39619   0.39619   0.41284   0.41284
  Beta virt. eigenvalues --    0.44414   0.44414   0.44414   0.44513   0.44513
  Beta virt. eigenvalues --    0.44513   0.44821   0.44940   0.44940   0.44940
  Beta virt. eigenvalues --    0.45253   0.45253   0.45253   0.45459   0.45459
  Beta virt. eigenvalues --    0.45459   0.47522   0.47522   0.47522   0.51083
  Beta virt. eigenvalues --    0.51083   0.51083   0.51367   0.51367   0.52804
  Beta virt. eigenvalues --    0.52804   0.52804   0.55402   0.56099   0.56099
  Beta virt. eigenvalues --    0.56099   0.56881   0.56881   0.58106   0.58106
  Beta virt. eigenvalues --    0.58106   0.60326   0.60326   0.60326   0.60801
  Beta virt. eigenvalues --    0.60801   0.60801   0.64434   0.64434   0.64434
  Beta virt. eigenvalues --    0.65449   0.65449   0.67338   0.67338   0.67338
  Beta virt. eigenvalues --    0.71621   0.75090   0.75210   0.75210   0.75210
  Beta virt. eigenvalues --    0.87452   0.87452   0.87888   0.91484   0.91484
  Beta virt. eigenvalues --    0.91484   0.93242   0.93242   0.93242   1.03595
  Beta virt. eigenvalues --    1.03830   1.03830   1.03830   1.04236   1.04236
  Beta virt. eigenvalues --    1.04236   1.07523   1.07523   1.07523   1.08729
  Beta virt. eigenvalues --    1.08729   1.10862   1.18550   1.18550   1.19041
  Beta virt. eigenvalues --    1.19041   1.20298   1.20298   1.20298   1.21769
  Beta virt. eigenvalues --    1.26112   1.26112   1.26112   1.26803   1.26803
  Beta virt. eigenvalues --    1.26803   1.28881   1.28881   1.28881   1.30644
  Beta virt. eigenvalues --    1.31372   1.31372   1.31372   1.32382   1.32382
  Beta virt. eigenvalues --    1.32382   1.33860   1.33860   1.33860   1.36031
  Beta virt. eigenvalues --    1.36031   1.36031   1.36577   1.37279   1.37279
  Beta virt. eigenvalues --    1.38483   1.38483   1.38483   1.38893   1.38893
  Beta virt. eigenvalues --    1.38893   1.41369   1.41369   1.43063   1.43063
  Beta virt. eigenvalues --    1.43063   1.48769   1.48769   1.48769   1.49122
  Beta virt. eigenvalues --    1.54648   1.59566   1.59566   1.68220   1.68220
  Beta virt. eigenvalues --    1.68220   1.70999   1.72320   1.72320   1.72320
  Beta virt. eigenvalues --    1.74949   1.74949   1.74949   1.77729   1.77729
  Beta virt. eigenvalues --    1.78461   1.78461   1.78461   1.81446   1.81446
  Beta virt. eigenvalues --    1.81446   1.86542   1.86542   1.86542   1.87882
  Beta virt. eigenvalues --    1.87882   1.87882   1.91130   1.91130   1.91130
  Beta virt. eigenvalues --    1.91203   1.98003   1.98003   2.04026   2.11210
  Beta virt. eigenvalues --    2.11210   2.11210   2.15229   2.15229   2.16170
  Beta virt. eigenvalues --    2.16170   2.18350   2.18350   2.18350   2.27984
  Beta virt. eigenvalues --    2.44375   2.44375   2.44375   2.56781   2.56781
  Beta virt. eigenvalues --    2.56781   2.56957   2.56957   2.56957   2.59275
  Beta virt. eigenvalues --    2.59275   2.59275   2.64207   2.64939   2.64939
  Beta virt. eigenvalues --    2.73820   2.73820   2.73820   3.02432   3.21786
  Beta virt. eigenvalues --    3.21786   3.21786   3.21868   3.21868   3.21868
  Beta virt. eigenvalues --    3.23013   3.23013   3.23013   3.26368   3.26368
  Beta virt. eigenvalues --    3.30622   3.30622   3.30622   3.32887   3.32887
  Beta virt. eigenvalues --    3.32887   3.33220   3.34728   3.34728   3.34728
  Beta virt. eigenvalues --    3.35417   3.35417   3.45951   3.51995   3.51995
  Beta virt. eigenvalues --    3.51995   3.57114   3.57114   3.57695   3.57695
  Beta virt. eigenvalues --    3.57695   3.77583   3.77583   3.77583   3.78073
  Beta virt. eigenvalues --    3.78073   3.78073   3.78844   3.78844   3.78844
  Beta virt. eigenvalues --    4.06638   4.06638   4.06638   4.06699   4.06699
  Beta virt. eigenvalues --    4.06699   4.07585   4.07886   4.07886   4.07886
  Beta virt. eigenvalues --    4.08124   4.08124   4.08124   4.14177   4.14177
  Beta virt. eigenvalues --    4.14177   4.17083   4.17083   4.22116   4.22116
  Beta virt. eigenvalues --    4.22116   4.23725   4.23725   4.23725   4.32295
  Beta virt. eigenvalues --    4.32295   4.32727   4.32727   4.32727   4.36050
  Beta virt. eigenvalues --    4.36050   4.36050   4.45327   4.50995   4.54988
  Beta virt. eigenvalues --    4.54988   4.55684   4.56738   4.56738   4.56738
  Beta virt. eigenvalues --    4.58323   4.58323   4.58323   4.59171   4.60522
  Beta virt. eigenvalues --    4.60522   4.61464   4.61464   4.61464   4.63226
  Beta virt. eigenvalues --    4.63226   4.63226   4.64364   4.64931   4.64931
  Beta virt. eigenvalues --    4.68041   4.68666   4.68666   4.68666   4.69403
  Beta virt. eigenvalues --    4.69403   4.77659   4.82137   4.82137   4.82475
  Beta virt. eigenvalues --    4.82475   4.82475   4.88109   4.88109   4.88109
  Beta virt. eigenvalues --    4.89544   4.89544   4.89544   4.91908   4.91908
  Beta virt. eigenvalues --    4.91908   4.92311   4.97639   4.97639   4.97639
  Beta virt. eigenvalues --    5.00778   5.00778   5.02667   5.02667   5.02667
[...]
     Eigenvalues ---    2.32623   2.32630   2.33333
 Angle between quadratic step and forces=  83.97 degrees.
 Linear search not attempted -- first point.
 B after Tr=     0.000001    0.000000    0.000000
         Rot=    1.000000   -0.000000    0.000000    0.000000 Ang=  -0.00 deg.
 Variable       Old X    -DE/DX   Delta X   Delta X   Delta X     New X
                                 (Linear)    (Quad)   (Total)
    X1       -0.68544  -0.00000   0.00000   0.00002   0.00002  -0.68542
    Y1       -0.72012   0.00000   0.00000   0.00000   0.00000  -0.72012
    Z1        0.00000   0.00000   0.00000  -0.00000  -0.00000   0.00000
    X2       -0.68348   0.00000   0.00000   0.00001   0.00001  -0.68347
    Y2        3.49806   0.00002   0.00000   0.00003   0.00003   3.49810
    Z2       -0.00444  -0.00000   0.00000  -0.00001  -0.00001  -0.00445
    X3        3.53274   0.00000   0.00000   0.00005   0.00005   3.53279
    Y3       -0.72211   0.00000   0.00000  -0.00000  -0.00000  -0.72211
    Z3        0.00714  -0.00000   0.00000  -0.00003  -0.00003   0.00711
    X4       -0.69252   0.00000   0.00000  -0.00004  -0.00003  -0.69256
    Y4       -0.71566  -0.00000   0.00000   0.00000   0.00000  -0.71565
    Z4        4.21818   0.00001   0.00000  -0.00004  -0.00004   4.21814
    X5       -0.68746   0.00000   0.00000   0.00010   0.00010  -0.68736
    Y5       -4.93831  -0.00002   0.00000  -0.00002  -0.00002  -4.93834
    Z5        0.00446   0.00000   0.00000  -0.00001  -0.00001   0.00445
    X6       -4.90362  -0.00000   0.00000  -0.00000   0.00000  -4.90362
    Y6       -0.71819  -0.00000   0.00000   0.00006   0.00006  -0.71813
    Z6       -0.00716   0.00000   0.00000   0.00005   0.00005  -0.00711
    X7       -0.67824  -0.00000   0.00000  -0.00004  -0.00004  -0.67827
    Y7       -0.72453   0.00000   0.00000  -0.00006  -0.00006  -0.72459
    Z7       -4.21817  -0.00001   0.00000   0.00004   0.00004  -4.21813
    X8       -0.68233  -0.00000   0.00000  -0.00009  -0.00009  -0.68242
    Y8        5.71181  -0.00002   0.00000   0.00002   0.00002   5.71183
    Z8       -0.00679   0.00000   0.00000   0.00007   0.00007  -0.00672
    X9        5.74647  -0.00000   0.00000   0.00005   0.00005   5.74651
    Y9       -0.72315  -0.00000   0.00000  -0.00006  -0.00006  -0.72322
    Z9        0.01091  -0.00000   0.00000  -0.00002  -0.00002   0.01089
   X10       -0.69619  -0.00000   0.00000  -0.00016  -0.00016  -0.69635
   Y10       -0.71329  -0.00000   0.00000  -0.00001  -0.00001  -0.71330
   Z10        6.43192  -0.00001   0.00000  -0.00005  -0.00005   6.43186
   X11       -0.68853  -0.00000   0.00000   0.00012   0.00012  -0.68841
   Y11       -7.15206   0.00002   0.00000  -0.00001  -0.00001  -7.15207
   Z11        0.00681  -0.00000   0.00000  -0.00009  -0.00009   0.00672
   X12       -7.11735   0.00000   0.00000  -0.00000   0.00000  -7.11735
   Y12       -0.71719   0.00000   0.00000   0.00016   0.00016  -0.71702
   Z12       -0.01094   0.00000   0.00000   0.00005   0.00005  -0.01089
   X13       -0.67445  -0.00000   0.00000  -0.00004  -0.00003  -0.67448
   Y13       -0.72682  -0.00000   0.00000  -0.00013  -0.00012  -0.72694
   Z13       -6.43191   0.00001   0.00000   0.00005   0.00005  -6.43186
         Item               Value     Threshold  Converged?
 Maximum Force            0.000021     0.000450     YES
 RMS     Force            0.000007     0.000300     YES
 Maximum Displacement     0.000164     0.001800     YES
 RMS     Displacement     0.000062     0.001200     YES
 Predicted change in Energy=-8.870376D-10
 Optimization completed.
    -- Stationary point found.
 GradGradGradGradGradGradGradGradGradGradGradGradGradGradGradGradGradGrad

 Leave Link  103 at Mon Jul 22 17:35:34 2024, MaxMem=120795955200 cpu:               0.5 elap:               0.0
 (Enter /gpfs/fs1/soft/improv/software/custom-built/gaussian/g16/l9999.exe)

 ----------------------------------------------------------------------

 Electric dipole moment (input orientation):
 (Debye = 10**-18 statcoulomb cm , SI units = C m)
                  (au)            (Debye)         (10**-30 SI)
   Tot        0.527873D-04      0.134172D-03      0.447549D-03
   x         -0.527873D-04     -0.134172D-03     -0.447549D-03
   y          0.000000D+00      0.000000D+00      0.000000D+00
   z          0.000000D+00      0.000000D+00      0.000000D+00

 Dipole polarizability, Alpha (input orientation).
 (esu units = cm**3 , SI units = C**2 m**2 J**-1)
 Alpha(0;0):
               (au)            (10**-24 esu)      (10**-40 SI)
   iso        0.166433D+03      0.246628D+02      0.274411D+02
   aniso      0.688978D-02      0.102096D-02      0.113597D-02
   xx         0.166430D+03      0.246624D+02      0.274406D+02
   yx        -0.153303D-02     -0.227172D-03     -0.252763D-03
   yy         0.166437D+03      0.246633D+02      0.274417D+02
   zx        -0.561861D-03     -0.832593D-04     -0.926384D-04
   zy        -0.130498D-02     -0.193378D-03     -0.215162D-03
   zz         0.166432D+03      0.246627D+02      0.274409D+02

 ----------------------------------------------------------------------

 Dipole orientation:
    26         -0.00395263         -0.64578893          0.75587539
     6         -0.41855552          3.52696203          0.29828281
     6          0.45883221         -1.05740717         -3.41658979
     6          4.16822254         -0.18545697          1.17315995
     6          0.41065959         -4.81853164          1.21353145
     6         -0.46675258         -0.23422601          4.92834471
     6         -4.17612040         -1.10607004          0.33846515
     7         -0.63614978          5.71684699          0.05800795
     7          0.70171983         -1.27342166         -5.60632862
     7          6.35782209          0.05614306          1.39210039
     7          0.62826201         -7.00842822          1.45371987
     7         -0.70965069         -0.01825122          7.11808618
     7         -6.36571600         -1.34760661          0.11939819

 Electric dipole moment (dipole orientation):
 (Debye = 10**-18 statcoulomb cm , SI units = C m)
                  (au)            (Debye)         (10**-30 SI)
   Tot        0.533539D-04      0.135612D-03      0.452353D-03
   x          0.000000D+00      0.000000D+00      0.000000D+00
   y          0.000000D+00      0.000000D+00      0.000000D+00
   z          0.533539D-04      0.135612D-03      0.452353D-03

 Dipole polarizability, Alpha (dipole orientation).
 (esu units = cm**3 , SI units = C**2 m**2 J**-1)
 Alpha(0;0):
               (au)            (10**-24 esu)      (10**-40 SI)
   iso        0.166433D+03      0.246628D+02      0.274411D+02
   aniso      0.688978D-02      0.102096D-02      0.113597D-02
   xx         0.166432D+03      0.246627D+02      0.274409D+02
   yx        -0.182165D-02     -0.269941D-03     -0.300350D-03
   yy         0.166436D+03      0.246633D+02      0.274417D+02
   zx         0.821776D-03      0.121775D-03      0.135493D-03
   zy         0.756567D-03      0.112112D-03      0.124741D-03
   zz         0.166430D+03      0.246624D+02      0.274406D+02

 ----------------------------------------------------------------------
 Unable to Open any file for archive entry.
 1\1\GINC-I816\Freq\UB3LYP\6-31+G(2df,p)\C6Fe1N6(3-,6)\HHARB\22-Jul-202
 4\0\\#P Geom=AllCheck Guess=TCheck SCRF=Check GenChk UB3LYP/6-31+G(2df
 ,p) Freq\\title\\-3,6\Fe,-0.3627192316,-0.3810732092,0.0000010136\C,-0
 .3616832768,1.8510959788,-0.0023479889\C,1.8694434628,-0.3821256567,0.
 0037804745\C,-0.3664683386,-0.3787088731,2.2321635392\C,-0.3637883071,
 -2.6132421788,0.0023586412\C,-2.594882108,-0.3800491824,-0.003789307\C
 ,-0.3589065162,-0.3834041236,-2.2321612142\N,-0.3610733145,3.022559578
 1,-0.0035916004\N,3.0408985765,-0.3826758061,0.0057720901\N,-0.3684079
 458,-0.3774580207,3.4036228436\N,-0.3643519529,-3.7847073489,0.0036014
 053\N,-3.7663371559,-0.3795194255,-0.0057885464\N,-0.3569037119,-0.384
 6147319,-3.4036213506\\Version=ES64L-G16RevC.02\State=6-A\HF=-1820.683
 2008\S2=8.755631\S2-1=0.\S2A=8.75001\RMSD=4.100e-09\RMSF=6.999e-06\Zer
 oPoint=0.0431809\Thermal=0.0609108\ETot=-1820.6222901\HTot=-1820.62134
 59\GTot=-1820.6877131\Dipole=-0.0000528,-0.0000058,0.0000052\DipoleDer
 iv=1.9975185,0.0000902,-0.0000578,0.0001687,1.9973021,0.0000227,-0.000
 0312,-0.0000627,1.9972687,-0.1992037,-0.0000802,0.0000103,-0.0000952,-
 0.3685348,0.0002095,-0.0000009,0.0002188,-0.1992005,-0.3685862,0.00007
 34,-0.0002728,0.000068,-0.1992132,0.0000047,-0.0002827,-0.0000124,-0.1
 991732,-0.1992502,0.0000161,0.0003256,-0.0000283,-0.1992325,-0.0001917
 ,0.0002728,-0.0001284,-0.368569,-0.1992038,-0.0000927,0.0000103,-0.000
 0963,-0.3685332,0.0002103,-0.0000009,0.0002199,-0.1992001,-0.3685838,0
 .00007,-0.0002738,0.0000695,-0.1992111,0.0000047,-0.0002824,-0.0000124
 ,-0.1991736,-0.1992499,0.0000161,0.0003202,-0.0000283,-0.1992325,-0.00
 01957,0.0002803,-0.0001243,-0.3685691,-0.396568,-0.0002762,-0.0000138,
 -0.0002652,-0.9385539,0.0005311,0.0000011,0.0005679,-0.3965623,-0.9385
 616,0.0002377,-0.000924,0.0002448,-0.3965657,0.0000013,-0.0009273,0.00
 00042,-0.3965784,-0.3965872,-0.00001,0.0008957,-0.0000008,-0.3965503,-
 0.0005727,0.0009482,-0.0006242,-0.9385478,-0.3965674,-0.0002669,-0.000
 0138,-0.000272,-0.9385576,0.0005326,0.0000011,0.0005686,-0.3965648,-0.
 9385696,0.0002326,-0.0009249,0.0002359,-0.3965666,0.0000012,-0.0009304
 ,0.0000042,-0.3965821,-0.396587,-0.00001,0.0009189,-0.0000008,-0.39655
 06,-0.000558,0.0009523,-0.0006191,-0.9385478\Polar=166.4299425,-0.0015
 33,166.4365276,-0.0005619,-0.001305,166.4318788\Quadrupole=0.0001424,-
 0.0003621,0.0002197,-0.0007542,-0.0003721,0.0002812\PG=C01 [X(C6Fe1N6)
 ]\NImag=0\\0.10653784,-0.00002558,0.10655981,0.00001157,0.00002377,0.1
 0654895,-0.01227561,-0.00000736,-0.00000350,0.03335791,-0.00000933,-0.
 04431880,0.00002859,0.00060612,1.20589455,0.00000120,0.00002821,-0.012
 27973,0.00000557,-0.00123948,0.03335510,-0.04431194,0.00002220,-0.0000
 5436,-0.00236626,0.00338891,-0.00000819,1.20594844,0.00002060,-0.01227
 232,0.00000407,0.00779325,-0.00237706,0.00001663,-0.00055581,0.0333460
 3,-0.00005500,-0.00000089,-0.01226841,-0.00001476,0.00000953,0.0010023
 3,0.00199213,-0.00000875,0.03335140,-0.01226029,-0.00000123,0.00005185
 ,0.00100276,-0.00000608,0.00000568,-0.00239410,0.00001111,0.00779964,0
 .03333910,0.00000477,-0.01226979,-0.00004482,-0.00001764,-0.00236192,0
 .00779598,0.00000364,0.00100215,-0.00000520,-0.00000457,0.03335548,0.0
 0004618,-0.00003654,-0.04430727,0.00000849,0.00339104,-0.00238556,0.00
 339020,-0.00000693,-0.00235825,-0.00194280,0.00125873,1.20591859,-0.01
 227563,-0.00000688,-0.00000352,-0.00155949,-0.00000013,-0.00000019,-0.
 00237935,-0.00779645,0.00000340,0.00100222,0.00001271,0.00000441,0.033
 36029,-0.00001074,-0.04431872,0.00002887,0.00000020,-0.00169379,-0.000
 00038,-0.00338880,-0.00236838,-0.00000233,0.00000324,-0.00238297,-0.00
 338787,0.00056222,1.20588295,0.00000120,0.00002827,-0.01227958,-0.0000
 0019,-0.00000030,-0.00155960,-0.00000140,-0.00000923,0.00100238,0.0000
 0142,-0.00779501,-0.00236124,0.00000562,-0.00123882,0.03335577,-0.0443
 1192,0.00002153,-0.00005463,-0.00237916,-0.00338898,-0.00000145,-0.001
 69370,0.00000046,0.00000001,-0.00235567,-0.00000160,-0.00338933,-0.002
 36643,0.00338942,-0.00000824,1.20594897,0.00002000,-0.01227247,0.00000
 408,-0.00779673,-0.00236849,-0.00000929,0.00000032,-0.00155965,0.00000
 016,-0.00000570,0.00100202,-0.00000198,0.00779416,-0.00237726,0.000016
 69,-0.00053565,0.03334737,-0.00005525,-0.00000089,-0.01226822,0.000003
 35,-0.00000236,0.00100246,-0.00000001,0.00000016,-0.00156023,-0.007796
 01,0.00000121,-0.00239318,-0.00001481,0.00000957,0.00100257,0.00199969
 ,-0.00000872,0.03334957,-0.01226031,-0.00000123,0.00005356,0.00100228,
 0.00000335,0.00000163,-0.00235591,-0.00000558,-0.00779673,-0.00155994,
 -0.00000040,0.00000015,0.00100263,-0.00000620,0.00000588,-0.00239400,0
 .00001099,0.00779914,0.03334045,0.00000477,-0.01226974,-0.00004386,0.0
 0001305,-0.00238302,-0.00779518,-0.00000153,0.00100224,0.00000130,-0.0
 0000040,-0.00155952,0.00000016,-0.00001797,-0.00236178,0.00779556,0.00
 000357,0.00100199,-0.00000509,-0.00000457,0.03335592,0.00004757,-0.000
 03587,-0.04430733,0.00000470,-0.00338799,-0.00236144,-0.00338975,-0.00
 000187,-0.00239361,-0.00000004,0.00000007,-0.00169411,0.00000879,0.003
 39079,-0.00238533,0.00338992,-0.00000683,-0.00235788,-0.00200483,0.001
 21939,1.20591178,0.00265438,0.00000363,-0.00000010,-0.01467016,-0.0005
 9342,-0.00000402,0.00036749,-0.00113520,0.00000174,-0.00000990,0.00000
 158,-0.00000010,0.00027401,-0.00000084,0.00000006,0.00036783,0.0011337
 3,-0.00000071,-0.00000978,-0.00000265,-0.00000097,0.00950879,0.0000018
 9,0.01027297,-0.00000925,-0.00059257,-1.15052809,0.00120569,0.00073310
 ,-0.00118300,0.00000253,-0.00000111,-0.00118370,0.00073398,-0.00000077
 ,-0.00133512,0.00000190,-0.00073599,-0.00118357,0.00000010,0.00000084,
 -0.00118333,-0.00073364,0.00059331,1.14508302,-0.00000044,-0.00000860,
 0.00265476,-0.00000428,0.00120515,-0.01466044,-0.00000024,-0.00000075,
 -0.00001006,-0.00000077,-0.00113216,0.00036846,0.,0.00000184,0.0002740
 5,0.00000145,0.00000312,-0.00001001,0.00000010,0.00113590,0.00036671,0
 .00000418,-0.00120495,0.00949927,0.01027257,-0.00000351,0.00001220,-0.
 00118372,0.00073424,-0.00000270,-1.15058461,0.00053378,-0.00193142,-0.
 00118359,0.00000134,0.00073324,-0.00118289,-0.00073475,-0.00000161,-0.
 00133497,0.00000053,-0.00000275,-0.00118373,-0.00000035,-0.00073697,0.
 00060456,0.00139983,-0.00000061,1.14513977,-0.00000366,0.00265416,0.00
 000008,-0.00113368,0.00036806,-0.00000249,0.00053343,-0.01466078,0.000
 00601,-0.00000078,-0.00000982,-0.00000004,0.00113516,0.00036748,0.0000
 0147,0.00000075,0.00027409,-0.00000002,0.00000174,-0.00000990,0.000000
 79,0.00058042,0.00060257,0.00000052,-0.00053320,0.00949946,0.00001364,
 0.00000029,0.00265368,-0.00000096,0.00000078,-0.00000983,-0.00193256,0
 .00000597,-0.01466280,-0.00113685,0.00000071,0.00036676,-0.00000323,-0
 .00000176,-0.00000993,-0.00000279,-0.00000002,0.00027405,0.00113161,-0
 .00000021,0.00036864,0.00000019,0.00000196,0.00013893,0.00193137,-0.00
 000589,0.00950162,0.00265197,-0.00000048,-0.00001223,-0.00000976,-0.00
 000098,0.00000147,0.00036953,-0.00000128,-0.00113239,-0.01466152,0.000
 00296,0.00188450,-0.00000985,0.00000173,0.00000253,0.00036736,0.000000
 95,0.00113667,0.00027427,0.00000009,0.00000279,0.00013890,-0.00000213,
 -0.00000061,0.00060036,0.00000041,0.00058045,0.00950077,-0.00000085,0.
 00265391,0.00000908,0.00000233,0.00036787,-0.00113613,0.00000081,-0.00
 000996,-0.00000068,0.00000290,-0.01467278,-0.00121589,-0.00000141,0.00
 036828,0.00113301,-0.00000105,-0.00000983,-0.00000182,0.00000007,0.000
 27397,-0.00000187,-0.00000088,0.00060560,0.00058067,0.00000126,0.00013
 886,0.00000017,-0.00000281,0.00951139,-0.00001208,0.00000517,0.0102723
 8,0.00000263,0.00073153,-0.00118366,0.00073792,-0.00000151,-0.00118372
 ,0.00188375,-0.00121343,-1.15055477,0.00000208,-0.00073654,-0.00118375
 ,-0.00073232,-0.00000088,-0.00118302,0.00000254,-0.00000176,-0.0013346
 9,-0.00000011,0.00140142,0.00060123,0.00139822,-0.00000007,0.00060745,
 -0.00188401,0.00121431,1.14511000,0.00265437,0.00000291,-0.00000010,0.
 00027401,-0.00000072,0.00000006,0.00036790,0.00113366,-0.00000072,-0.0
 0000977,-0.00000255,-0.00000088,-0.01467194,-0.00054874,-0.00000406,0.
 00036747,-0.00113539,0.00000175,-0.00000988,0.00000168,-0.00000019,0.0
 0003213,-0.00000059,0.,0.00060291,-0.00058033,0.00000140,0.00013885,0.
 00000121,-0.00000150,0.00951049,0.00000248,0.01027289,-0.00000931,-0.0
 0000065,-0.00133512,0.00000189,-0.00073601,-0.00118349,0.00000011,0.00
 000083,-0.00118326,-0.00073362,-0.00054922,-1.15051661,0.00120499,0.00
 073313,-0.00118323,0.00000253,-0.00000112,-0.00118359,0.00073396,-0.00
 000064,-0.00117390,0.00000123,-0.00139825,0.00060482,-0.00000282,0.000
 00242,0.00060167,-0.00139814,0.00054932,1.14507165,-0.00000044,-0.0000
 0855,0.00265473,0.,0.00000182,0.00027406,0.00000144,0.00000311,-0.0000
 0999,0.00000011,0.00113586,0.00036669,-0.00000432,0.00120433,-0.014661
 81,-0.00000023,-0.00000076,-0.00001010,-0.00000078,-0.00113207,0.00036
 843,0.,0.00000123,0.00003213,0.00000224,-0.00000147,0.00013892,-0.0000
 0100,-0.00058044,0.00060605,0.00000422,-0.00120419,0.00950074,0.010272
 60,-0.00000354,0.00001220,-0.00118293,-0.00073475,-0.00000163,-0.00133
 497,0.00000053,-0.00000275,-0.00118356,-0.00000034,-0.00073692,-0.0011
 8383,0.00073428,-0.00000272,-1.15058522,0.00051406,-0.00193881,-0.0011
 8345,0.00000135,0.00073319,0.00060288,-0.00139830,0.00000225,-0.001173
 78,0.00000062,-0.00000201,0.00060700,-0.00000157,-0.00139917,0.0006045
 5,0.00139991,-0.00000061,1.14514047,-0.00000348,0.00265421,0.00000008,
 0.00113516,0.00036748,0.00000149,0.00000075,0.00027408,-0.00000001,0.0
 0000173,-0.00000986,0.00000078,-0.00113383,0.00036813,-0.00000250,0.00
 051365,-0.01466104,0.00000598,-0.00000079,-0.00000980,-0.00000003,-0.0
 0058029,0.00060481,-0.00000147,0.00000060,0.00003212,0.,-0.00000088,0.
 00013887,0.00000108,0.00058045,0.00060265,0.00000052,-0.00051349,0.009
 49950,0.00001374,0.00000029,0.00265367,-0.00000323,-0.00000176,-0.0000
 0995,-0.00000281,-0.00000002,0.00027406,0.00113147,-0.00000021,0.00036
 858,-0.00000096,0.00000079,-0.00000988,-0.00193998,0.00000595,-0.01466
 230,-0.00113677,0.00000071,0.00036673,0.00000141,-0.00000283,0.0001389
 1,-0.00000202,0.,0.00003214,-0.00058015,0.00000082,0.00060035,0.000000
 19,0.00000197,0.00013895,0.00193875,-0.00000586,0.00950130,0.00265197,
 -0.00000048,-0.00001294,-0.00000986,0.00000177,0.00000258,0.00036747,0
 .00000093,0.00113685,0.00027427,0.00000009,0.00000286,-0.00000974,-0.0
 0000102,0.00000152,0.00036944,-0.00000127,-0.00113224,-0.01466264,0.00
 000296,0.00194580,0.00013886,0.00000249,-0.00000103,0.00060713,-0.0000
 0088,-0.00058026,0.00003212,0.,0.00000205,0.00013888,-0.00000220,-0.00
 000064,0.00060024,0.00000041,0.00058036,0.00950186,-0.00000085,0.00265
 389,0.00000862,-0.00000149,0.00036833,0.00113307,-0.00000102,-0.000009
 86,-0.00000178,0.00000007,0.00027397,-0.00000182,0.00000240,0.00036780
 ,-0.00113603,0.00000077,-0.00000994,-0.00000064,0.00000290,-0.01467345
 ,-0.00117689,0.00000125,0.00060174,-0.00058049,-0.00000152,0.00013889,
 0.00000081,0.,0.00003215,-0.00000119,-0.00000092,0.00060552,0.00058060
 ,0.00000122,0.00013884,0.00000016,-0.00000280,0.00951212,-0.00001190,0
 .00000532,0.01027238,0.00000220,-0.00073655,-0.00118375,-0.00073238,-0
 .00000087,-0.00118309,0.00000256,-0.00000174,-0.00133469,0.00000274,0.
 00073151,-0.00118363,0.00073789,-0.00000150,-0.00118371,0.00194452,-0.
 00117484,-1.15054790,-0.00000157,-0.00139814,0.00060605,-0.00139918,0.
 00000110,0.00060038,0.00000198,-0.00000123,-0.00117384,-0.00000018,0.0
 0140140,0.00060122,0.00139822,-0.00000005,0.00060745,-0.00194491,0.001
 17558,1.14510311\\0.,-0.00000005,-0.00000003,-0.00000077,-0.00001784,0
 .00000112,-0.00000178,-0.00000034,0.00000087,-0.00000051,0.,-0.0000090
 5,-0.00000134,0.00002096,-0.00000085,0.00000145,0.00000010,-0.00000099
 ,0.00000076,-0.00000009,0.00001106,0.00000110,0.00001654,-0.00000091,0
 .00000073,0.00000049,0.00000021,0.00000040,0.00000003,0.00001069,0.000
 00010,-0.00001959,0.00000081,-0.00000031,-0.00000057,-0.00000025,0.000
 00017,0.00000036,-0.00001267\\\@
 The archive entry for this job was punched.


 THE CHYMISTS ARE A STRANGE CLASS OF MORTALS IMPELLED
 BY AN ALMOST INSANE IMPULSE TO SEEK THEIR PLEASURE
 AMONG SMOKE AND VAPOR, SOOT AND FLAME, POISONS AND
 POVERTY; YET AMONG ALL THESE EVILS I SEEM TO LIVE
 SO SWEETLY, THAT I MAY DIE IF I WOULD CHANGE PLACES
 WITH THE PERSIAN KING.
   --  JOHANN JOACHIM BECHER, 1635-1682
 ACTA LABORATORII CHYMICA MONACENSIS, 1669
 Job cpu time:       0 days  7 hours  3 minutes 53.5 seconds.
 Elapsed time:       0 days  0 hours  3 minutes 26.0 seconds.
 File lengths (MBytes):  RWF=    489 Int=      0 D2E=      0 Chk=     48 Scr=      1
 Normal termination of Gaussian 16 at Mon Jul 22 17:35:34 2024.
