 Entering Gaussian System, Link 0=g16
 Input=Fe_CN6_minus2_HS.com
 Output=Fe_CN6_minus2_HS.log
 Initial command:
 /gpfs/fs1/soft/improv/software/custom-built/gaussian/g16/l1.exe "/scratch/Gau-3129581.inp" -scrdir="/scratch/"
 Default CPUs for threads: 0-127
 Default linda workers: i814.lcrc.anl.gov
 Default is to use 128 SMP processors on each worker.
 Entering Link 1 = /gpfs/fs1/soft/improv/software/custom-built/gaussian/g16/l1.exe PID=   3129582.
  
 Copyright (c) 1988-2021, Gaussian, Inc.  All Rights Reserved.
  
 This is part of the Gaussian(R) 16 program.  It is based on
 the Gaussian(R) 09 system (copyright 2009, Gaussian, Inc.),
 the Gaussian(R) 03 system (copyright 2003, Gaussian, Inc.),
 the Gaussian(R) 98 system (copyright 1998, Gaussian, Inc.),
 the Gaussian(R) 94 system (copyright 1995, Gaussian, Inc.),
 the Gaussian 92(TM) system (copyright 1992, Gaussian, Inc.),
 the Gaussian 90(TM) system (copyright 1990, Gaussian, Inc.),
 the Gaussian 88(TM) system (copyright 1988, Gaussian, Inc.),
 the Gaussian 86(TM) system (copyright 1986, Carnegie Mellon
 University), and the Gaussian 82(TM) system (copyright 1983,
 Carnegie Mellon University). Gaussian is a federally registered
 trademark of Gaussian, Inc.
  
 This software contains proprietary and confidential information,
 including trade secrets, belonging to Gaussian, Inc.
  
 This software is provided under written license and may be
 used, copied, transmitted, or stored only in accord with that
 written license.
  
 The following legend is applicable only to US Government
 contracts under FAR:
  
                    RESTRICTED RIGHTS LEGEND
  
 Use, reproduction and disclosure by the US Government is
 subject to restrictions as set forth in subparagraphs (a)
 and (c) of the Commercial Computer Software - Restricted
 Rights clause in FAR 52.227-19.
  
 Gaussian, Inc.
 340 Quinnipiac St., Bldg. 40, Wallingford CT 06492
  
  
 ---------------------------------------------------------------
 Warning -- This program may not be used in any manner that
 competes with the business of Gaussian, Inc. or will provide
 assistance to any competitor of Gaussian, Inc.  The licensee
 of this program is prohibited from giving any competitor of
 Gaussian, Inc. access to this program.  By using this program,
 the user acknowledges that Gaussian, Inc. is engaged in the
 business of creating and licensing software in the field of
 computational chemistry and represents and warrants to the
 licensee that it is not a competitor of Gaussian, Inc. and that
 it will not use this program in any manner prohibited above.
 ---------------------------------------------------------------
  

 Cite this work as:
 Gaussian 16, Revision C.02,
 M. J. Frisch, G. W. Trucks, H. B. Schlegel, G. E. Scuseria, 
 M. A. Robb, J. R. Cheeseman, G. Scalmani, V. Barone, 
 G. A. Petersson, H. Nakatsuji, X. Li, M. Caricato, A. V. Marenich, 
 J. Bloino, B. G. Janesko, R. Gomperts, B. Mennucci, H. P. Hratchian, 
 J. V. Ortiz, A. F. Izmaylov, J. L. Sonnenberg, D. Williams-Young, 
 F. Ding, F. Lipparini, F. Egidi, J. Goings, B. Peng, A. Petrone, 
 T. Henderson, D. Ranasinghe, V. G. Zakrzewski, J. Gao, N. Rega, 
 G. Zheng, W. Liang, M. Hada, M. Ehara, K. Toyota, R. Fukuda, 
 J. Hasegawa, M. Ishida, T. Nakajima, Y. Honda, O. Kitao, H. Nakai, 
 T. Vreven, K. Throssell, J. A. Montgomery, Jr., J. E. Peralta, 
 F. Ogliaro, M. J. Bearpark, J. J. Heyd, E. N. Brothers, K. N. Kudin, 
 V. N. Staroverov, T. A. Keith, R. Kobayashi, J. Normand, 
 K. Raghavachari, A. P. Rendell, J. C. Burant, S. S. Iyengar, 
 J. Tomasi, M. Cossi, J. M. Millam, M. Klene, C. Adamo, R. Cammi, 
 J. W. Ochterski, R. L. Martin, K. Morokuma, O. Farkas, 
 J. B. Foresman, and D. J. Fox, Gaussian, Inc., Wallingford CT, 2019.
 
 ******************************************
 Gaussian 16:  ES64L-G16RevC.02  7-Dec-2021
                22-Jul-2024 
 ******************************************
 %chk=Fe_CN6_minus2_HS
 SetSPE:  set environment variable "OMP_PROC_BIND" = "true"
 SetSPE:  set environment variable "OMP_PLACES" = "{0},{1},{2},{3},{4},{5},{6},{7},{8},{9},{10},{11},{12},{13},{14},{15},{16},{17},{18},{19},{20},{21},{22},{23},{24},{25},{26},{27},{28},{29},{30},{31},{32},{33},{34},{35},{36},{37},{38},{39},{40},{41},{42},{43},{44},{45},{46},{47},{48},{49},{50},{51},{52},{53},{54},{55},{56},{57},{58},{59},{60},{61},{62},{63},{64},{65},{66},{67},{68},{69},{70},{71},{72},{73},{74},{75},{76},{77},{78},{79},{80},{81},{82},{83},{84},{85},{86},{87},{88},{89},{90},{91},{92},{93},{94},{95},{96},{97},{98},{99},{100},{101},{102},{103},{104},{105},{106},{107},{108},{109},{110},{111},{112},{113},{114},{115},{116},{117},{118},{119},{120},{121},{122},{123},{124},{125},{126},{127}"
 SetLPE:    new flags="-opt 'Tsnet.Node.lindarsharg: ssh'  -nodelist 'i814.lcrc.anl.gov' -env GAUSS_MDEF=120795955200 -env GAUSS_EXEDIR="/gpfs/fs1/soft/improv/software/custom-built/gaussian/g16/bsd:/gpfs/fs1/soft/improv/software/custom-built/gaussian/g16" -env "OMP_PROC_BIND=true" -env "OMP_PLACES={0},{1},{2},{3},{4},{5},{6},{7},{8},{9},{10},{11},{12},{13},{14},{15},{16},{17},{18},{19},{20},{21},{22},{23},{24},{25},{26},{27},{28},{29},{30},{31},{32},{33},{34},{35},{36},{37},{38},{39},{40},{41},{42},{43},{44},{45},{46},{47},{48},{49},{50},{51},{52},{53},{54},{55},{56},{57},{58},{59},{60},{61},{62},{63},{64},{65},{66},{67},{68},{69},{70},{71},{72},{73},{74},{75},{76},{77},{78},{79},{80},{81},{82},{83},{84},{85},{86},{87},{88},{89},{90},{91},{92},{93},{94},{95},{96},{97},{98},{99},{100},{101},{102},{103},{104},{105},{106},{107},{108},{109},{110},{111},{112},{113},{114},{115},{116},{117},{118},{119},{120},{121},{122},{123},{124},{125},{126},{127}" -env GAUSS_ADEF="0,1,2,3,4,5,6,7,8,9,10,11,12,13,14,15,16,17,18,19,20,21,22,23,24,25,26,27,28,29,30,31,32,33,34,35,36,37,38,39,40,41,42,43,44,45,46,47,48,49,50,51,52,53,54,55,56,57,58,59,60,61,62,63,64,65,66,67,68,69,70,71,72,73,74,75,76,77,78,79,80,81,82,83,84,85,86,87,88,89,90,91,92,93,94,95,96,97,98,99,100,101,102,103,104,105,106,107,108,109,110,111,112,113,114,115,116,117,118,119,120,121,122,123,124,125,126,127""
 Will use up to    1 processors via Linda.
 ----------------------------------------------------------------------
 #p B3LYP 6-31+G(2df,p) empiricaldispersion=gd3 opt=(cartesian,calcall,
 maxcycles=500) freq scf=(maxcycles=500,xqc,maxconventional=50)
 ----------------------------------------------------------------------
 1/6=500,10=4,18=10,26=3,38=1/1,3;
 2/12=2,17=6,18=5,29=2,40=1/2;
 3/5=1,6=6,7=114,11=2,25=1,30=1,71=2,74=-5,124=31,140=1/1,2,3;
 4//1;
 5/5=2,7=500,8=3,13=1,38=5,85=50/2,8;
 8/6=4,10=90,11=11/1;
 11/6=1,8=1,9=11,15=111,16=1/1,2,10;
 10/6=1/2;
 6/7=2,8=2,9=2,10=2,18=1,28=1/1;
 7/7=1,10=1,25=1/1,2,3,16;
 1/6=500,10=4,18=10,26=3/3(3);
 2/29=1/2;
 7/7=1,8=1,9=1,25=1,44=-1/16;
 99/12=1/99;
 2/29=1/2;
 3/5=1,6=6,7=114,11=2,25=1,30=1,71=2,74=-5,124=31,140=1/1,2,3;
 4/5=5,16=3,69=1/1;
 5/5=2,7=500,8=3,13=1,38=5,85=50/2,8;
 8/6=4,10=90,11=11/1;
 11/6=1,8=1,9=11,15=111,16=1/1,2,10;
 10/6=1/2;
 7/7=1,10=1,25=1/1,2,3,16;
 1/6=500,10=4,18=10,26=3/3(-8);
 2/29=1/2;
 6/7=2,8=2,9=2,10=2,18=1,19=2,28=1/1;
 7/7=1,8=1,9=1,25=1,44=-1/16;
 99/12=1/99;
 Leave Link    1 at Mon Jul 22 16:49:20 2024, MaxMem=           0 cpu:               2.0 elap:               0.1
 (Enter /gpfs/fs1/soft/improv/software/custom-built/gaussian/g16/l101.exe)
 -----
 title
 -----
 Symbolic Z-matrix:
 Charge = -4 Multiplicity = 5
 Fe                   -0.36271  -0.38107   0. 
 C                    -0.36271   1.54893   0. 
 C                     1.56729  -0.38107   0. 
 C                    -0.36271  -0.38107   1.93 
 C                    -0.36271  -2.31107   0. 
 C                    -2.29271  -0.38107   0. 
 C                    -0.36271  -0.38107  -1.93 
 N                    -0.36271   2.69553   0. 
 N                     2.71389  -0.38107   0. 
 N                    -0.36271  -0.38107   3.0766 
 N                    -0.36271  -3.45767   0. 
 N                    -3.43931  -0.38107   0. 
 N                    -0.36271  -0.38107  -3.0766 
 
 ITRead=  0  0  0  0  0  0  0  0  0  0  0  0  0
 MicOpt= -1 -1 -1 -1 -1 -1 -1 -1 -1 -1 -1 -1 -1
 NAtoms=     13 NQM=       13 NQMF=       0 NMMI=      0 NMMIF=      0
                NMic=       0 NMicF=      0.
                    Isotopes and Nuclear Properties:
 (Nuclear quadrupole moments (NQMom) in fm**2, nuclear magnetic moments (NMagM)
  in nuclear magnetons)

  Atom         1           2           3           4           5           6           7           8           9          10
 IAtWgt=          56          12          12          12          12          12          12          14          14          14
 AtmWgt=  55.9349393  12.0000000  12.0000000  12.0000000  12.0000000  12.0000000  12.0000000  14.0030740  14.0030740  14.0030740
 NucSpn=           0           0           0           0           0           0           0           2           2           2
 AtZEff=  -0.0000000  -0.0000000  -0.0000000  -0.0000000  -0.0000000  -0.0000000  -0.0000000  -0.0000000  -0.0000000  -0.0000000
 NQMom=    0.0000000   0.0000000   0.0000000   0.0000000   0.0000000   0.0000000   0.0000000   2.0440000   2.0440000   2.0440000
 NMagM=    0.0000000   0.0000000   0.0000000   0.0000000   0.0000000   0.0000000   0.0000000   0.4037610   0.4037610   0.4037610
 AtZNuc=  26.0000000   6.0000000   6.0000000   6.0000000   6.0000000   6.0000000   6.0000000   7.0000000   7.0000000   7.0000000

  Atom        11          12          13
 IAtWgt=          14          14          14
 AtmWgt=  14.0030740  14.0030740  14.0030740
 NucSpn=           2           2           2
 AtZEff=  -0.0000000  -0.0000000  -0.0000000
 NQMom=    2.0440000   2.0440000   2.0440000
 NMagM=    0.4037610   0.4037610   0.4037610
 AtZNuc=   7.0000000   7.0000000   7.0000000
 Leave Link  101 at Mon Jul 22 16:49:20 2024, MaxMem=120795955200 cpu:               0.3 elap:               0.0
 (Enter /gpfs/fs1/soft/improv/software/custom-built/gaussian/g16/l103.exe)

 GradGradGradGradGradGradGradGradGradGradGradGradGradGradGradGradGradGrad
 Berny optimization.
 Initialization pass.
 No Z-matrix variables, so optimization will use Cartesian coordinates.
 Trust Radius=3.00D-01 FncErr=1.00D-07 GrdErr=1.00D-06 EigMax=2.50D+02 EigMin=1.00D-04
 Number of steps in this run=    100 maximum allowed number of steps=    100.
 GradGradGradGradGradGradGradGradGradGradGradGradGradGradGradGradGradGrad

 Leave Link  103 at Mon Jul 22 16:49:20 2024, MaxMem=120795955200 cpu:               0.3 elap:               0.1
 (Enter /gpfs/fs1/soft/improv/software/custom-built/gaussian/g16/l202.exe)
 ---------------------------------------------------------------------------------------------------
                            Z-MATRIX (ANGSTROMS AND DEGREES)
   CD    Cent   Atom    N1       Length/X        N2       Alpha/Y        N3        Beta/Z          J
 ---------------------------------------------------------------------------------------------------
      1      1  Fe       0  -0.362706         -0.381071          0.000000
      2      2  C        0  -0.362706          1.548929          0.000000
      3      3  C        0   1.567294         -0.381071          0.000000
      4      4  C        0  -0.362706         -0.381071          1.930000
      5      5  C        0  -0.362706         -2.311071          0.000000
      6      6  C        0  -2.292706         -0.381071          0.000000
      7      7  C        0  -0.362706         -0.381071         -1.930000
      8      8  N        0  -0.362706          2.695529         -0.000000
      9      9  N        0   2.713894         -0.381071          0.000000
     10     10  N        0  -0.362706         -0.381071          3.076600
     11     11  N        0  -0.362706         -3.457671          0.000000
     12     12  N        0  -3.439306         -0.381071          0.000000
     13     13  N        0  -0.362706         -0.381071         -3.076600
 ---------------------------------------------------------------------------------------------------
                         Z-Matrix orientation:                         
 ---------------------------------------------------------------------
 Center     Atomic      Atomic             Coordinates (Angstroms)
 Number     Number       Type             X           Y           Z
 ---------------------------------------------------------------------
      1         26           0       -0.362706   -0.381071    0.000000
      2          6           0       -0.362706    1.548929    0.000000
      3          6           0        1.567294   -0.381071    0.000000
      4          6           0       -0.362706   -0.381071    1.930000
      5          6           0       -0.362706   -2.311071    0.000000
      6          6           0       -2.292706   -0.381071    0.000000
      7          6           0       -0.362706   -0.381071   -1.930000
      8          7           0       -0.362706    2.695529   -0.000000
      9          7           0        2.713894   -0.381071    0.000000
     10          7           0       -0.362706   -0.381071    3.076600
     11          7           0       -0.362706   -3.457671    0.000000
     12          7           0       -3.439306   -0.381071    0.000000
     13          7           0       -0.362706   -0.381071   -3.076600
 ---------------------------------------------------------------------
                    Distance matrix (angstroms):
                    1          2          3          4          5
     1  Fe   0.000000
     2  C    1.930000   0.000000
     3  C    1.930000   2.729432   0.000000
     4  C    1.930000   2.729432   2.729432   0.000000
     5  C    1.930000   3.860000   2.729432   2.729432   0.000000
     6  C    1.930000   2.729432   3.860000   2.729432   2.729432
     7  C    1.930000   2.729432   2.729432   3.860000   2.729432
     8  N    3.076600   1.146600   3.631855   3.631855   5.006600
     9  N    3.076600   3.631855   1.146600   3.631855   3.631855
    10  N    3.076600   3.631855   3.631855   1.146600   3.631855
    11  N    3.076600   5.006600   3.631855   3.631855   1.146600
    12  N    3.076600   3.631855   5.006600   3.631855   3.631855
    13  N    3.076600   3.631855   3.631855   5.006600   3.631855
                    6          7          8          9         10
     6  C    0.000000
     7  C    2.729432   0.000000
     8  N    3.631855   3.631855   0.000000
     9  N    5.006600   3.631855   4.350969   0.000000
    10  N    3.631855   5.006600   4.350969   4.350969   0.000000
    11  N    3.631855   3.631855   6.153200   4.350969   4.350969
    12  N    1.146600   3.631855   4.350969   6.153200   4.350969
    13  N    3.631855   1.146600   4.350969   4.350969   6.153200
                   11         12         13
    11  N    0.000000
    12  N    4.350969   0.000000
    13  N    4.350969   4.350969   0.000000
 Stoichiometry    C6FeN6(4-,5)
 Framework group  OH[O(Fe),3C4(NC.CN)]
 Deg. of freedom     2
 Full point group                 OH      NOp  48
 Largest Abelian subgroup         D2H     NOp   8
 Largest concise Abelian subgroup D2H     NOp   8
                         Standard orientation:                         
 ---------------------------------------------------------------------
 Center     Atomic      Atomic             Coordinates (Angstroms)
 Number     Number       Type             X           Y           Z
 ---------------------------------------------------------------------
      1         26           0        0.000000    0.000000    0.000000
      2          6           0        0.000000    0.000000    1.930000
      3          6           0        0.000000    1.930000   -0.000000
      4          6           0        1.930000    0.000000    0.000000
      5          6           0        0.000000   -0.000000   -1.930000
      6          6           0        0.000000   -1.930000    0.000000
      7          6           0       -1.930000    0.000000   -0.000000
      8          7           0        0.000000    0.000000    3.076600
      9          7           0        0.000000    3.076600   -0.000000
     10          7           0        3.076600    0.000000    0.000000
     11          7           0        0.000000   -0.000000   -3.076600
     12          7           0        0.000000   -3.076600    0.000000
     13          7           0       -3.076600    0.000000   -0.000000
 ---------------------------------------------------------------------
 Rotational constants (GHZ):           0.7128277           0.7128277           0.7128277
 Leave Link  202 at Mon Jul 22 16:49:21 2024, MaxMem=120795955200 cpu:               1.3 elap:               0.1
 (Enter /gpfs/fs1/soft/improv/software/custom-built/gaussian/g16/l301.exe)
 Standard basis: 6-31+G(2df,p) (6D, 7F)
 Ernie: Thresh=  0.10000D-02 Tol=  0.10000D-05 Strict=F.
 There are   117 symmetry adapted cartesian basis functions of AG  symmetry.
 There are    44 symmetry adapted cartesian basis functions of B1G symmetry.
 There are    44 symmetry adapted cartesian basis functions of B2G symmetry.
 There are    44 symmetry adapted cartesian basis functions of B3G symmetry.
 There are    20 symmetry adapted cartesian basis functions of AU  symmetry.
 There are    76 symmetry adapted cartesian basis functions of B1U symmetry.
 There are    76 symmetry adapted cartesian basis functions of B2U symmetry.
 There are    76 symmetry adapted cartesian basis functions of B3U symmetry.
 There are   108 symmetry adapted basis functions of AG  symmetry.
 There are    39 symmetry adapted basis functions of B1G symmetry.
 There are    39 symmetry adapted basis functions of B2G symmetry.
 There are    39 symmetry adapted basis functions of B3G symmetry.
 There are    20 symmetry adapted basis functions of AU  symmetry.
 There are    68 symmetry adapted basis functions of B1U symmetry.
 There are    68 symmetry adapted basis functions of B2U symmetry.
 There are    68 symmetry adapted basis functions of B3U symmetry.
   449 basis functions,   718 primitive gaussians,   497 cartesian basis functions
    56 alpha electrons       52 beta electrons
       nuclear repulsion energy       916.9876679413 Hartrees.
 IExCor=  402 DFT=T Ex+Corr=B3LYP ExCW=0 ScaHFX=  0.200000
 ScaDFX=  0.800000  0.720000  1.000000  0.810000 ScalE2=  1.000000  1.000000
 IRadAn=      5 IRanWt=     -1 IRanGd=            0 ICorTp=0 IEmpDi=131
 NAtoms=   13 NActive=   13 NUniq=    3 SFac= 4.00D+00 NAtFMM=   60 NAOKFM=F Big=F
 Integral buffers will be    131072 words long.
 Raffenetti 2 integral format.
 Two-electron integral symmetry is turned on.
 R6Disp:  Grimme-D3 Dispersion energy=       -0.0150927704 Hartrees.
 Nuclear repulsion after empirical dispersion term =      916.9725751708 Hartrees.
 Leave Link  301 at Mon Jul 22 16:49:21 2024, MaxMem=120795955200 cpu:               0.4 elap:               0.1
 (Enter /gpfs/fs1/soft/improv/software/custom-built/gaussian/g16/l302.exe)
 NPDir=0 NMtPBC=     1 NCelOv=     1 NCel=       1 NClECP=     1 NCelD=      1
         NCelK=      1 NCelE2=     1 NClLst=     1 CellRange=     0.0.
 One-electron integrals computed using PRISM.
 One-electron integral symmetry used in STVInt
 NBasis=   449 RedAO= T EigKep=  3.68D-06  NBF=   108    39    39    39    20    68    68    68
 NBsUse=   446 1.00D-06 EigRej=  6.93D-08 NBFU=   108    39    39    39    20    67    67    67
 Precomputing XC quadrature grid using
 IXCGrd= 4 IRadAn=           5 IRanWt=          -1 IRanGd=           0 AccXCQ= 0.00D+00.
 Generated NRdTot=       0 NPtTot=           0 NUsed=           0 NTot=          32
 NSgBfM=   495   495   495   495   495 MxSgAt=    13 MxSgA2=    13.
 Leave Link  302 at Mon Jul 22 16:49:22 2024, MaxMem=120795955200 cpu:              65.3 elap:               0.6
 (Enter /gpfs/fs1/soft/improv/software/custom-built/gaussian/g16/l303.exe)
 DipDrv:  MaxL=1.
 Leave Link  303 at Mon Jul 22 16:49:22 2024, MaxMem=120795955200 cpu:               1.4 elap:               0.1
 (Enter /gpfs/fs1/soft/improv/software/custom-built/gaussian/g16/l401.exe)
 ExpMin= 1.26D-02 ExpMax= 6.11D+04 ExpMxC= 9.18D+03 IAcc=3 IRadAn=         5 AccDes= 0.00D+00
 Harris functional with IExCor=  402 and IRadAn=       5 diagonalized for initial guess.
 HarFok:  IExCor=  402 AccDes= 0.00D+00 IRadAn=         5 IDoV= 1 UseB2=F ITyADJ=14
 ICtDFT=  3500011 ScaDFX=  1.000000  1.000000  1.000000  1.000000
 FoFCou: FMM=F IPFlag=           0 FMFlag=      100000 FMFlg1=           0
         NFxFlg=           0 DoJE=T BraDBF=F KetDBF=T FulRan=T
         wScrn=  0.000000 ICntrl=       500 IOpCl=  0 I1Cent=   200000004 NGrid=           0
         NMat0=    1 NMatS0=      1 NMatT0=    0 NMatD0=    1 NMtDS0=    0 NMtDT0=    0
 Petite list used in FoFCou.
 Harris En= -1821.46710648646    
 JPrj=0 DoOrth=F DoCkMO=F.
 Initial guess orbital symmetries:
 Alpha Orbitals:
       Occupied  (A1G) (A1G) (T1U) (T1U) (T1U) (A1G) (T1U) (T1U)
                 (T1U) (EG) (EG) (A1G) (T1U) (T1U) (T1U) (EG) (EG)
                 (A1G) (T1U) (T1U) (T1U) (A1G) (T1U) (T1U) (T1U)
                 (EG) (EG) (A1G) (EG) (EG) (T1U) (T1U) (T1U) (T2G)
                 (T2G) (T2G) (A1G) (T1U) (T1U) (T1U) (EG) (EG)
                 (T2U) (T2U) (T2U) (T1G) (T1G) (T1G) (T1U) (T1U)
                 (T1U) (T2G) (T2G) (T2G) (EG) (EG)
       Virtual   (T1U) (T1U) (T1U) (T2G) (T2G) (T2G) (T2U) (T2U)
                 (T2U) (T1G) (T1G) (T1G) (A1G) (T1U) (T1U) (T1U)
                 (A1G) (EG) (EG) (T2G) (T2G) (T2G) (T1U) (T1U)
                 (T1U) (T2U) (T2U) (T2U) (A1G) (EG) (EG) (T1G)
                 (T1G) (T1G) (T1U) (T1U) (T1U) (A1G) (T1U) (T1U)
                 (T1U) (T2G) (T2G) (T2G) (EG) (EG) (T2U) (T2U)
                 (T2U) (T1U) (T1U) (T1U) (T1U) (T1U) (T1U) (EG)
                 (EG) (T1G) (T1G) (T1G) (A1G) (T1U) (T1U) (T1U)
                 (A1G) (A1G) (T1U) (T1U) (T1U) (T2G) (T2G) (T2G)
                 (EG) (EG) (T1U) (T1U) (T1U) (A2U) (T2U) (T2U)
                 (T2U) (EG) (EG) (T2G) (T2G) (T2G) (A1G) (EU) (EU)
                 (EG) (EG) (A2G) (T1U) (T1U) (T1U) (T2U) (T2U)
                 (T2U) (T2G) (T2G) (T2G) (T1G) (T1G) (T1G) (T1U)
                 (T1U) (T1U) (T2G) (T2G) (T2G) (A1G) (T2U) (T2U)
                 (T2U) (A2U) (T2U) (T2U) (T2U) (T1U) (T1U) (T1U)
                 (EG) (EG) (T1U) (T1U) (T1U) (EG) (EG) (A1G) (T1G)
                 (T1G) (T1G) (T2G) (T2G) (T2G) (A1G) (EU) (EU)
                 (T1U) (T1U) (T1U) (T1G) (T1G) (T1G) (A2G) (T2U)
                 (T2U) (T2U) (T2G) (T2G) (T2G) (EG) (EG) (T1U)
                 (T1U) (T1U) (T2U) (T2U) (T2U) (T2G) (T2G) (T2G)
                 (A2U) (T1U) (T1U) (T1U) (EG) (EG) (A1G) (T1U)
                 (T1U) (T1U) (EG) (EG) (EG) (EG) (T1G) (T1G) (T1G)
                 (A1G) (T1U) (T1U) (T1U) (T2U) (T2U) (T2U) (T1U)
                 (T1U) (T1U) (T2G) (T2G) (T2G) (A1G) (EG) (EG)
                 (T1U) (T1U) (T1U) (A1G) (T1G) (T1G) (T1G) (T2U)
                 (T2U) (T2U) (T2G) (T2G) (T2G) (EU) (EU) (T2G)
                 (T2G) (T2G) (A2G) (T2U) (T2U) (T2U) (T1U) (T1U)
                 (T1U) (EG) (EG) (A2U) (T1U) (T1U) (T1U) (EG) (EG)
                 (T1G) (T1G) (T1G) (T2U) (T2U) (T2U) (T2G) (T2G)
                 (T2G) (T1U) (T1U) (T1U) (T2G) (T2G) (T2G) (A1G)
                 (T1U) (T1U) (T1U) (T2U) (T2U) (T2U) (T1G) (T1G)
                 (T1G) (T2G) (T2G) (T2G) (EG) (EG) (T1U) (T1U)
                 (T1U) (T2U) (T2U) (T2U) (EG) (EG) (T1U) (T1U)
                 (T1U) (T1G) (T1G) (T1G) (A1G) (A2U) (EU) (EU)
                 (A2G) (T2G) (T2G) (T2G) (T2U) (T2U) (T2U) (EG)
                 (EG) (A2U) (T1U) (T1U) (T1U) (A1G) (T2G) (T2G)
                 (T2G) (EU) (EU) (A2G) (T2U) (T2U) (T2U) (EG) (EG)
                 (A2U) (EU) (EU) (T2U) (T2U) (T2U) (T2G) (T2G)
                 (T2G) (T1G) (T1G) (T1G) (A2G) (T1U) (T1U) (T1U)
                 (T2G) (T2G) (T2G) (EG) (EG) (T2U) (T2U) (T2U)
                 (T1U) (T1U) (T1U) (T2G) (T2G) (T2G) (EG) (EG)
                 (A1G) (T1G) (T1G) (T1G) (A2U) (EG) (EG) (T1U)
                 (T1U) (T1U) (T2U) (T2U) (T2U) (T2G) (T2G) (T2G)
                 (T1U) (T1U) (T1U) (T2U) (T2U) (T2U) (T1U) (T1U)
                 (T1U) (T1G) (T1G) (T1G) (A1G) (A1G) (EG) (EG)
                 (T1U) (T1U) (T1U) (EG) (EG) (A1G) (T1U) (T1U)
                 (T1U) (EG) (EG) (A1G) (T1U) (T1U) (T1U) (A1G)
                 (EG) (EG) (A1G) (EG) (EG) (T1U) (T1U) (T1U) (A1G)
 Beta  Orbitals:
       Occupied  (A1G) (A1G) (T1U) (T1U) (T1U) (A1G) (T1U) (T1U)
                 (T1U) (EG) (EG) (A1G) (T1U) (T1U) (T1U) (EG) (EG)
                 (A1G) (T1U) (T1U) (T1U) (A1G) (T1U) (T1U) (T1U)
                 (EG) (EG) (A1G) (EG) (EG) (T1U) (T1U) (T1U) (T2G)
                 (T2G) (T2G) (A1G) (T1U) (T1U) (T1U) (EG) (EG)
                 (T2U) (T2U) (T2U) (T1G) (T1G) (T1G) (T1U) (T1U)
                 (T1U) (T2G)
       Virtual   (T2G) (T2G) (EG) (EG) (T1U) (T1U) (T1U) (T2G)
                 (T2G) (T2G) (T2U) (T2U) (T2U) (T1G) (T1G) (T1G)
                 (A1G) (T1U) (T1U) (T1U) (A1G) (EG) (EG) (T2G)
                 (T2G) (T2G) (T1U) (T1U) (T1U) (T2U) (T2U) (T2U)
                 (A1G) (EG) (EG) (T1G) (T1G) (T1G) (T1U) (T1U)
                 (T1U) (A1G) (T1U) (T1U) (T1U) (T2G) (T2G) (T2G)
                 (EG) (EG) (T2U) (T2U) (T2U) (T1U) (T1U) (T1U)
                 (T1U) (T1U) (T1U) (EG) (EG) (T1G) (T1G) (T1G)
                 (A1G) (T1U) (T1U) (T1U) (A1G) (A1G) (T1U) (T1U)
                 (T1U) (T2G) (T2G) (T2G) (EG) (EG) (T1U) (T1U)
                 (T1U) (A2U) (T2U) (T2U) (T2U) (EG) (EG) (T2G)
                 (T2G) (T2G) (A1G) (EU) (EU) (EG) (EG) (A2G) (T1U)
                 (T1U) (T1U) (T2U) (T2U) (T2U) (T2G) (T2G) (T2G)
                 (T1G) (T1G) (T1G) (T1U) (T1U) (T1U) (T2G) (T2G)
                 (T2G) (A1G) (T2U) (T2U) (T2U) (A2U) (T2U) (T2U)
                 (T2U) (T1U) (T1U) (T1U) (EG) (EG) (T1U) (T1U)
                 (T1U) (EG) (EG) (A1G) (T1G) (T1G) (T1G) (T2G)
                 (T2G) (T2G) (A1G) (EU) (EU) (T1U) (T1U) (T1U)
                 (T1G) (T1G) (T1G) (A2G) (T2U) (T2U) (T2U) (T2G)
                 (T2G) (T2G) (EG) (EG) (T1U) (T1U) (T1U) (T2U)
                 (T2U) (T2U) (T2G) (T2G) (T2G) (A2U) (T1U) (T1U)
                 (T1U) (EG) (EG) (A1G) (T1U) (T1U) (T1U) (EG) (EG)
                 (EG) (EG) (T1G) (T1G) (T1G) (A1G) (T1U) (T1U)
                 (T1U) (T2U) (T2U) (T2U) (T1U) (T1U) (T1U) (T2G)
                 (T2G) (T2G) (A1G) (EG) (EG) (T1U) (T1U) (T1U)
                 (A1G) (T1G) (T1G) (T1G) (T2U) (T2U) (T2U) (T2G)
                 (T2G) (T2G) (EU) (EU) (T2G) (T2G) (T2G) (A2G)
                 (T2U) (T2U) (T2U) (T1U) (T1U) (T1U) (EG) (EG)
                 (A2U) (T1U) (T1U) (T1U) (EG) (EG) (T1G) (T1G)
                 (T1G) (T2U) (T2U) (T2U) (T2G) (T2G) (T2G) (T1U)
                 (T1U) (T1U) (T2G) (T2G) (T2G) (A1G) (T1U) (T1U)
                 (T1U) (T2U) (T2U) (T2U) (T1G) (T1G) (T1G) (T2G)
                 (T2G) (T2G) (EG) (EG) (T1U) (T1U) (T1U) (T2U)
                 (T2U) (T2U) (EG) (EG) (T1U) (T1U) (T1U) (T1G)
                 (T1G) (T1G) (A1G) (A2U) (EU) (EU) (A2G) (T2G)
                 (T2G) (T2G) (T2U) (T2U) (T2U) (EG) (EG) (A2U)
                 (T1U) (T1U) (T1U) (A1G) (T2G) (T2G) (T2G) (EU)
                 (EU) (A2G) (T2U) (T2U) (T2U) (EG) (EG) (A2U) (EU)
                 (EU) (T2U) (T2U) (T2U) (T2G) (T2G) (T2G) (T1G)
                 (T1G) (T1G) (A2G) (T1U) (T1U) (T1U) (T2G) (T2G)
                 (T2G) (EG) (EG) (T2U) (T2U) (T2U) (T1U) (T1U)
                 (T1U) (T2G) (T2G) (T2G) (EG) (EG) (A1G) (T1G)
                 (T1G) (T1G) (A2U) (EG) (EG) (T1U) (T1U) (T1U)
                 (T2U) (T2U) (T2U) (T2G) (T2G) (T2G) (T1U) (T1U)
                 (T1U) (T2U) (T2U) (T2U) (T1U) (T1U) (T1U) (T1G)
                 (T1G) (T1G) (A1G) (A1G) (EG) (EG) (T1U) (T1U)
                 (T1U) (EG) (EG) (A1G) (T1U) (T1U) (T1U) (EG) (EG)
                 (A1G) (T1U) (T1U) (T1U) (A1G) (EG) (EG) (A1G)
                 (EG) (EG) (T1U) (T1U) (T1U) (A1G)
 Initial guess <Sx>= 0.0000 <Sy>= 0.0000 <Sz>= 2.0000 <S**2>= 6.0000 S= 2.0000
 Leave Link  401 at Mon Jul 22 16:49:23 2024, MaxMem=120795955200 cpu:              59.4 elap:               0.7
 (Enter /gpfs/fs1/soft/improv/software/custom-built/gaussian/g16/l502.exe)
 Integral symmetry usage will be decided dynamically.
 UHF open shell SCF:
 Using DIIS extrapolation, IDIIS=  1040.
 NGot=120795955200 LenX=120795381861 LenY=120795134355
 Requested convergence on RMS density matrix=1.00D-08 within  50 cycles.
 Requested convergence on MAX density matrix=1.00D-06.
 Requested convergence on             energy=1.00D-06.
 No special actions if energy rises.
 Fock matrices will be formed incrementally for  20 cycles.

 Cycle   1  Pass 1  IDiag  1:
 Density matrix breaks symmetry, PCut= 1.00D-04
 Density has only Abelian symmetry.
 FoFJK:  IHMeth= 1 ICntrl=       0 DoSepK=F KAlg= 0 I1Cent=           0 FoldK=F
 IRaf= 930000000 NMat=       1 IRICut=       1 DoRegI=T DoRafI=F ISym2E= 1 IDoP0=0 IntGTp=1.
 FoFCou: FMM=F IPFlag=           0 FMFlag=      100000 FMFlg1=           0
         NFxFlg=           0 DoJE=F BraDBF=F KetDBF=F FulRan=T
         wScrn=  0.000000 ICntrl=         0 IOpCl=  1 I1Cent=           0 NGrid=           0
         NMat0=    1 NMatS0=      1 NMatT0=    0 NMatD0=    1 NMtDS0=    0 NMtDT0=    0
 Petite list used in FoFCou.
 E= -1819.63686978169    
 DIIS: error= 3.73D-02 at cycle   1 NSaved=   1.
 NSaved= 1 IEnMin= 1 EnMin= -1819.63686978169     IErMin= 1 ErrMin= 3.73D-02
 ErrMax= 3.73D-02  0.00D+00 EMaxC= 1.00D-01 BMatC= 2.47D+00 BMatP= 2.47D+00
 IDIUse=3 WtCom= 6.27D-01 WtEn= 3.73D-01
 Coeff-Com:  0.100D+01
 Coeff-En:   0.100D+01
 Coeff:      0.100D+01
 Gap=    -0.027 Goal=   None    Shift=    0.000
 Gap=     0.076 Goal=   None    Shift=    0.000
 GapD=   -0.027 DampG=0.250 DampE=0.250 DampFc=0.1250 IDamp=-1.
 Damping current iteration by 1.25D-01
 RMSDP=3.65D+01 MaxDP=7.64D+03              OVMax= 9.63D-01

 Cycle   2  Pass 1  IDiag  1:
 Density matrix breaks symmetry, PCut= 1.00D-04
 Density has only Abelian symmetry.
 RMSU=  4.54D+00    CP:  3.00D+00
 E= -1819.79536701288     Delta-E=       -0.158497231191 Rises=F Damp=T
 DIIS: error= 3.11D-02 at cycle   2 NSaved=   2.
 NSaved= 2 IEnMin= 2 EnMin= -1819.79536701288     IErMin= 2 ErrMin= 3.11D-02
 ErrMax= 3.11D-02  0.00D+00 EMaxC= 1.00D-01 BMatC= 1.18D+00 BMatP= 2.47D+00
 IDIUse=3 WtCom= 6.89D-01 WtEn= 3.11D-01
 Coeff-Com: -0.190D+01 0.290D+01
 Coeff-En:   0.000D+00 0.100D+01
 Coeff:     -0.131D+01 0.231D+01
 Gap=     0.003 Goal=   None    Shift=    0.000
 Gap=     0.013 Goal=   None    Shift=    0.000
 RMSDP=5.76D+00 MaxDP=1.99D+03 DE=-1.58D-01 OVMax= 5.67D-01

 Cycle   3  Pass 1  IDiag  1:
 Density matrix breaks symmetry, PCut= 1.00D-04
 Density has only Abelian symmetry.
 RMSU=  4.25D+00    CP:  3.00D+00  1.44D-01
 E= -1820.25979386562     Delta-E=       -0.464426852736 Rises=F Damp=F
 DIIS: error= 2.66D-02 at cycle   3 NSaved=   3.
 NSaved= 3 IEnMin= 3 EnMin= -1820.25979386562     IErMin= 3 ErrMin= 2.66D-02
 ErrMax= 2.66D-02  0.00D+00 EMaxC= 1.00D-01 BMatC= 5.44D-01 BMatP= 1.18D+00
 IDIUse=3 WtCom= 7.34D-01 WtEn= 2.66D-01
 Coeff-Com: -0.118D+01 0.183D+01 0.352D+00
 Coeff-En:   0.000D+00 0.000D+00 0.100D+01
 Coeff:     -0.866D+00 0.134D+01 0.524D+00
 Gap=     0.000 Goal=   None    Shift=    0.000
 Gap=     0.013 Goal=   None    Shift=    0.000
 RMSDP=3.25D+01 MaxDP=7.66D+03 DE=-4.64D-01 OVMax= 1.63D-01

 Cycle   4  Pass 1  IDiag  1:
 Density matrix breaks symmetry, PCut= 1.00D-04
 Density has only Abelian symmetry.
 RMSU=  2.14D+01    CP:  3.00D+00  3.00D+00  8.31D-02
 E= -1819.69852813138     Delta-E=        0.561265734240 Rises=F Damp=F
 DIIS: error= 8.66D-02 at cycle   4 NSaved=   4.
 NSaved= 4 IEnMin= 3 EnMin= -1820.25979386562     IErMin= 3 ErrMin= 2.66D-02
 ErrMax= 8.66D-02  0.00D+00 EMaxC= 1.00D-01 BMatC= 3.94D+00 BMatP= 5.44D-01
 IDIUse=2 WtCom= 0.00D+00 WtEn= 1.00D+00
 Coeff-En:   0.000D+00 0.000D+00 0.777D+00 0.223D+00
 Coeff:      0.000D+00 0.000D+00 0.777D+00 0.223D+00
 Gap=     0.057 Goal=   None    Shift=    0.000
 Gap=     0.110 Goal=   None    Shift=    0.000
 RMSDP=3.25D+01 MaxDP=7.66D+03 DE= 5.61D-01 OVMax= 1.85D-01

 Cycle   5  Pass 1  IDiag  1:
 Density matrix breaks symmetry, PCut= 1.00D-04
 Density has only Abelian symmetry.
 RMSU=  1.61D-01    CP:  3.00D+00  1.62D-01  1.18D+00  7.81D-04
 E= -1820.21505372216     Delta-E=       -0.516525590782 Rises=F Damp=F
 DIIS: error= 2.95D-02 at cycle   5 NSaved=   5.
 NSaved= 5 IEnMin= 3 EnMin= -1820.25979386562     IErMin= 3 ErrMin= 2.66D-02
 ErrMax= 2.95D-02  0.00D+00 EMaxC= 1.00D-01 BMatC= 9.29D-01 BMatP= 5.44D-01
 IDIUse=2 WtCom= 0.00D+00 WtEn= 1.00D+00
 EnCoef did     2 forward-backward iterations
 Coeff-En:   0.000D+00 0.000D+00 0.577D+00 0.131D+00 0.292D+00
 Coeff:      0.000D+00 0.000D+00 0.577D+00 0.131D+00 0.292D+00
 Gap=     0.038 Goal=   None    Shift=    0.000
 Gap=     0.056 Goal=   None    Shift=    0.000
 RMSDP=1.94D-01 MaxDP=1.06D+02 DE=-5.17D-01 OVMax= 9.45D-02

 Cycle   6  Pass 1  IDiag  1:
 Density matrix breaks symmetry, PCut= 1.00D-04
 Density has only Abelian symmetry.
 RMSU=  1.01D-02    CP:  3.00D+00  1.69D-01  1.22D+00  7.54D-04  1.18D+00
 E= -1820.34579713018     Delta-E=       -0.130743408022 Rises=F Damp=F
 DIIS: error= 1.92D-02 at cycle   6 NSaved=   6.
 NSaved= 6 IEnMin= 6 EnMin= -1820.34579713018     IErMin= 6 ErrMin= 1.92D-02
 ErrMax= 1.92D-02  0.00D+00 EMaxC= 1.00D-01 BMatC= 2.01D-01 BMatP= 5.44D-01
 IDIUse=3 WtCom= 8.08D-01 WtEn= 1.92D-01
 EnCoef did     1 forward-backward iterations
 Coeff-Com: -0.974D-01 0.122D+00 0.295D+00-0.121D-01 0.168D+00 0.524D+00
 Coeff-En:   0.000D+00 0.000D+00 0.239D+00 0.000D+00 0.666D-01 0.695D+00
 Coeff:     -0.787D-01 0.986D-01 0.284D+00-0.975D-02 0.149D+00 0.557D+00
 Gap=     0.074 Goal=   None    Shift=    0.000
 Gap=     0.084 Goal=   None    Shift=    0.000
 RMSDP=2.28D-01 MaxDP=1.25D+02 DE=-1.31D-01 OVMax= 5.89D-02

 Cycle   7  Pass 1  IDiag  1:
 Density matrix breaks symmetry, PCut= 1.00D-04
 Density has only Abelian symmetry.
 RMSU=  5.89D-03    CP:  3.00D+00  1.76D-01  1.27D+00  7.32D-04  1.36D+00
                    CP:  1.60D+00
 E= -1820.37246328809     Delta-E=       -0.026666157906 Rises=F Damp=F
 DIIS: error= 5.90D-03 at cycle   7 NSaved=   7.
 NSaved= 7 IEnMin= 7 EnMin= -1820.37246328809     IErMin= 7 ErrMin= 5.90D-03
 ErrMax= 5.90D-03  0.00D+00 EMaxC= 1.00D-01 BMatC= 1.79D-02 BMatP= 2.01D-01
 IDIUse=3 WtCom= 9.41D-01 WtEn= 5.90D-02
 Coeff-Com: -0.328D-01 0.361D-01-0.332D-01-0.282D-02-0.479D-01 0.206D+00
 Coeff-Com:  0.875D+00
 Coeff-En:   0.000D+00 0.000D+00 0.000D+00 0.000D+00 0.000D+00 0.148D+00
 Coeff-En:   0.852D+00
 Coeff:     -0.309D-01 0.340D-01-0.312D-01-0.265D-02-0.451D-01 0.202D+00
 Coeff:      0.874D+00
 Gap=     0.071 Goal=   None    Shift=    0.000
 Gap=     0.076 Goal=   None    Shift=    0.000
 RMSDP=1.40D-01 MaxDP=7.57D+01 DE=-2.67D-02 OVMax= 2.27D-02

 Cycle   8  Pass 1  IDiag  1:
 Density matrix breaks symmetry, PCut= 1.00D-04
 Density has only Abelian symmetry.
 RMSU=  3.21D-03    CP:  3.00D+00  1.80D-01  1.30D+00  7.46D-04  1.53D+00
                    CP:  2.05D+00  1.14D+00
 E= -1820.37507329765     Delta-E=       -0.002610009557 Rises=F Damp=F
 DIIS: error= 4.59D-04 at cycle   8 NSaved=   8.
 NSaved= 8 IEnMin= 8 EnMin= -1820.37507329765     IErMin= 8 ErrMin= 4.59D-04
 ErrMax= 4.59D-04  0.00D+00 EMaxC= 1.00D-01 BMatC= 3.39D-04 BMatP= 1.79D-02
 IDIUse=3 WtCom= 9.95D-01 WtEn= 4.59D-03
 Coeff-Com: -0.163D-01 0.173D-01-0.312D-01 0.107D-02-0.274D-01 0.466D-01
 Coeff-Com:  0.381D+00 0.629D+00
 Coeff-En:   0.000D+00 0.000D+00 0.000D+00 0.000D+00 0.000D+00 0.000D+00
 Coeff-En:   0.000D+00 0.100D+01
 Coeff:     -0.162D-01 0.172D-01-0.311D-01 0.107D-02-0.273D-01 0.464D-01
 Coeff:      0.379D+00 0.631D+00
 Gap=     0.071 Goal=   None    Shift=    0.000
 Gap=     0.077 Goal=   None    Shift=    0.000
 RMSDP=2.73D-02 MaxDP=1.48D+01 DE=-2.61D-03 OVMax= 1.23D-02

 Cycle   9  Pass 1  IDiag  1:
 Density matrix breaks symmetry, PCut= 1.00D-04
 Density has only Abelian symmetry.
 RMSU=  2.94D-04    CP:  3.00D+00  1.81D-01  1.31D+00  7.49D-04  1.57D+00
                    CP:  2.14D+00  1.17D+00  1.15D+00
 E= -1820.37517224989     Delta-E=       -0.000098952240 Rises=F Damp=F
 DIIS: error= 4.08D-04 at cycle   9 NSaved=   9.
 NSaved= 9 IEnMin= 9 EnMin= -1820.37517224989     IErMin= 9 ErrMin= 4.08D-04
 ErrMax= 4.08D-04  0.00D+00 EMaxC= 1.00D-01 BMatC= 1.15D-04 BMatP= 3.39D-04
 IDIUse=3 WtCom= 9.96D-01 WtEn= 4.08D-03
 Coeff-Com: -0.107D-01 0.122D-01-0.138D-01 0.122D-02-0.855D-02-0.836D-02
 Coeff-Com:  0.707D-01 0.411D+00 0.546D+00
 Coeff-En:   0.000D+00 0.000D+00 0.000D+00 0.000D+00 0.000D+00 0.000D+00
 Coeff-En:   0.000D+00 0.000D+00 0.100D+01
 Coeff:     -0.106D-01 0.121D-01-0.137D-01 0.122D-02-0.852D-02-0.833D-02
 Coeff:      0.704D-01 0.410D+00 0.548D+00
 Gap=     0.071 Goal=   None    Shift=    0.000
 Gap=     0.077 Goal=   None    Shift=    0.000
 RMSDP=1.11D-02 MaxDP=5.98D+00 DE=-9.90D-05 OVMax= 1.14D-02

 Cycle  10  Pass 1  IDiag  1:
 Density matrix breaks symmetry, PCut= 1.00D-04
 Density has only Abelian symmetry.
 RMSU=  2.56D-04    CP:  3.00D+00  1.82D-01  1.31D+00  7.48D-04  1.58D+00
                    CP:  2.17D+00  1.18D+00  1.41D+00  5.21D-01
 E= -1820.37523110512     Delta-E=       -0.000058855235 Rises=F Damp=F
 DIIS: error= 3.41D-04 at cycle  10 NSaved=  10.
 NSaved=10 IEnMin=10 EnMin= -1820.37523110512     IErMin=10 ErrMin= 3.41D-04
 ErrMax= 3.41D-04  0.00D+00 EMaxC= 1.00D-01 BMatC= 4.27D-05 BMatP= 1.15D-04
 IDIUse=3 WtCom= 9.97D-01 WtEn= 3.41D-03
 Coeff-Com: -0.742D-02 0.961D-02 0.220D-02 0.541D-03 0.332D-02-0.194D-01
 Coeff-Com: -0.784D-01 0.695D-01 0.386D+00 0.634D+00
 Coeff-En:   0.000D+00 0.000D+00 0.000D+00 0.000D+00 0.000D+00 0.000D+00
 Coeff-En:   0.000D+00 0.000D+00 0.000D+00 0.100D+01
 Coeff:     -0.739D-02 0.958D-02 0.220D-02 0.539D-03 0.331D-02-0.194D-01
 Coeff:     -0.781D-01 0.693D-01 0.384D+00 0.636D+00
 Gap=     0.071 Goal=   None    Shift=    0.000
 Gap=     0.077 Goal=   None    Shift=    0.000
 RMSDP=5.02D-03 MaxDP=2.70D+00 DE=-5.89D-05 OVMax= 1.22D-02

 Cycle  11  Pass 1  IDiag  1:
 Density matrix breaks symmetry, PCut= 1.00D-04
 Density has only Abelian symmetry.
 RMSU=  9.00D-05    CP:  3.00D+00  1.82D-01  1.31D+00  7.48D-04  1.59D+00
                    CP:  2.19D+00  1.18D+00  1.54D+00  3.84D-01  1.49D+00
 E= -1820.37527628002     Delta-E=       -0.000045174894 Rises=F Damp=F
 DIIS: error= 3.08D-04 at cycle  11 NSaved=  11.
 NSaved=11 IEnMin=11 EnMin= -1820.37527628002     IErMin=11 ErrMin= 3.08D-04
 ErrMax= 3.08D-04  0.00D+00 EMaxC= 1.00D-01 BMatC= 1.39D-05 BMatP= 4.27D-05
 IDIUse=3 WtCom= 9.97D-01 WtEn= 3.08D-03
 Coeff-Com:  0.306D-02-0.328D-02 0.121D-01 0.114D-04 0.592D-02 0.410D-02
 Coeff-Com: -0.458D-01-0.290D+00-0.367D+00-0.314D+00 0.199D+01
 Coeff-En:   0.000D+00 0.000D+00 0.000D+00 0.000D+00 0.000D+00 0.000D+00
 Coeff-En:   0.000D+00 0.000D+00 0.000D+00 0.000D+00 0.100D+01
 Coeff:      0.305D-02-0.327D-02 0.120D-01 0.113D-04 0.590D-02 0.409D-02
 Coeff:     -0.457D-01-0.289D+00-0.366D+00-0.313D+00 0.199D+01
 Gap=     0.072 Goal=   None    Shift=    0.000
 Gap=     0.077 Goal=   None    Shift=    0.000
 RMSDP=6.23D-03 MaxDP=3.24D+00 DE=-4.52D-05 OVMax= 3.22D-02

 Cycle  12  Pass 1  IDiag  1:
 Density matrix breaks symmetry, PCut= 1.00D-04
 Density has only Abelian symmetry.
 RMSU=  2.20D-04    CP:  3.00D+00  1.82D-01  1.32D+00  7.47D-04  1.60D+00
                    CP:  2.19D+00  1.19D+00  1.86D+00 -5.30D-01  3.00D+00
                    CP:  2.57D+00
 E= -1820.37535183670     Delta-E=       -0.000075556681 Rises=F Damp=F
 DIIS: error= 1.95D-04 at cycle  12 NSaved=  12.
 NSaved=12 IEnMin=12 EnMin= -1820.37535183670     IErMin=12 ErrMin= 1.95D-04
 ErrMax= 1.95D-04  0.00D+00 EMaxC= 1.00D-01 BMatC= 8.80D-06 BMatP= 1.39D-05
 IDIUse=3 WtCom= 9.98D-01 WtEn= 1.95D-03
 Coeff-Com:  0.631D-02-0.757D-02 0.786D-02-0.110D-03 0.321D-02 0.125D-01
 Coeff-Com:  0.201D-02-0.149D+00-0.300D+00-0.518D+00 0.935D+00 0.101D+01
 Coeff-En:   0.000D+00 0.000D+00 0.000D+00 0.000D+00 0.000D+00 0.000D+00
 Coeff-En:   0.000D+00 0.000D+00 0.000D+00 0.000D+00 0.000D+00 0.100D+01
 Coeff:      0.630D-02-0.756D-02 0.784D-02-0.110D-03 0.320D-02 0.125D-01
 Coeff:      0.201D-02-0.149D+00-0.299D+00-0.517D+00 0.934D+00 0.101D+01
 Gap=     0.072 Goal=   None    Shift=    0.000
 Gap=     0.077 Goal=   None    Shift=    0.000
 RMSDP=1.19D-03 MaxDP=4.41D-01 DE=-7.56D-05 OVMax= 2.17D-02

 Cycle  13  Pass 1  IDiag  1:
 Density matrix breaks symmetry, PCut= 1.00D-04
 Density has only Abelian symmetry.
 RMSU=  1.90D-04    CP:  3.00D+00  1.82D-01  1.32D+00  7.46D-04  1.60D+00
                    CP:  2.17D+00  1.19D+00  2.03D+00 -1.51D+00  3.00D+00
                    CP:  3.00D+00  2.95D+00
 E= -1820.37538315830     Delta-E=       -0.000031321602 Rises=F Damp=F
 DIIS: error= 1.16D-04 at cycle  13 NSaved=  13.
 NSaved=13 IEnMin=13 EnMin= -1820.37538315830     IErMin=13 ErrMin= 1.16D-04
 ErrMax= 1.16D-04  0.00D+00 EMaxC= 1.00D-01 BMatC= 5.80D-06 BMatP= 8.80D-06
 IDIUse=3 WtCom= 9.99D-01 WtEn= 1.16D-03
 Coeff-Com:  0.506D-02-0.616D-02 0.265D-02-0.121D-03 0.128D-02 0.791D-02
 Coeff-Com:  0.154D-01 0.368D-01-0.333D-01-0.294D+00-0.188D+00 0.717D+00
 Coeff-Com:  0.735D+00
 Coeff-En:   0.000D+00 0.000D+00 0.000D+00 0.000D+00 0.000D+00 0.000D+00
 Coeff-En:   0.000D+00 0.000D+00 0.000D+00 0.000D+00 0.000D+00 0.000D+00
 Coeff-En:   0.100D+01
 Coeff:      0.506D-02-0.615D-02 0.265D-02-0.121D-03 0.128D-02 0.790D-02
 Coeff:      0.154D-01 0.367D-01-0.332D-01-0.293D+00-0.188D+00 0.717D+00
 Coeff:      0.735D+00
 Gap=     0.072 Goal=   None    Shift=    0.000
 Gap=     0.077 Goal=   None    Shift=    0.000
 RMSDP=1.15D-03 MaxDP=5.79D-01 DE=-3.13D-05 OVMax= 1.30D-02

 Cycle  14  Pass 1  IDiag  1:
 Density matrix breaks symmetry, PCut= 1.00D-04
 Density has only Abelian symmetry.
 RMSU=  2.27D-04    CP:  3.00D+00  1.82D-01  1.32D+00  7.47D-04  1.60D+00
                    CP:  2.15D+00  1.19D+00  2.11D+00 -2.04D+00  3.00D+00
                    CP:  3.00D+00  3.00D+00  1.59D+00
 E= -1820.37539484487     Delta-E=       -0.000011686575 Rises=F Damp=F
 DIIS: error= 6.94D-05 at cycle  14 NSaved=  14.
 NSaved=14 IEnMin=14 EnMin= -1820.37539484487     IErMin=14 ErrMin= 6.94D-05
 ErrMax= 6.94D-05  0.00D+00 EMaxC= 1.00D-01 BMatC= 3.53D-06 BMatP= 5.80D-06
 IDIUse=1 WtCom= 1.00D+00 WtEn= 0.00D+00
 Coeff-Com:  0.147D-02-0.178D-02-0.227D-03-0.237D-03 0.901D-03-0.259D-02
 Coeff-Com: -0.217D-02 0.118D+00 0.174D+00 0.911D-01-0.631D+00-0.201D+00
 Coeff-Com:  0.572D+00 0.883D+00
 Coeff:      0.147D-02-0.178D-02-0.227D-03-0.237D-03 0.901D-03-0.259D-02
 Coeff:     -0.217D-02 0.118D+00 0.174D+00 0.911D-01-0.631D+00-0.201D+00
 Coeff:      0.572D+00 0.883D+00
 Gap=     0.072 Goal=   None    Shift=    0.000
 Gap=     0.077 Goal=   None    Shift=    0.000
 RMSDP=1.27D-03 MaxDP=6.36D-01 DE=-1.17D-05 OVMax= 9.39D-03

 Cycle  15  Pass 1  IDiag  1:
 Density matrix breaks symmetry, PCut= 1.00D-04
 Density has only Abelian symmetry.
 RMSU=  4.78D-05    CP:  3.00D+00  1.82D-01  1.32D+00  7.46D-04  1.60D+00
                    CP:  2.14D+00  1.20D+00  2.15D+00 -2.64D+00  3.00D+00
                    CP:  3.00D+00  3.00D+00  2.12D+00  1.94D+00
 E= -1820.37540018750     Delta-E=       -0.000005342625 Rises=F Damp=F
 DIIS: error= 3.47D-05 at cycle  15 NSaved=  15.
 NSaved=15 IEnMin=15 EnMin= -1820.37540018750     IErMin=15 ErrMin= 3.47D-05
 ErrMax= 3.47D-05  0.00D+00 EMaxC= 1.00D-01 BMatC= 8.36D-07 BMatP= 3.53D-06
 IDIUse=1 WtCom= 1.00D+00 WtEn= 0.00D+00
 Coeff-Com:  0.390D-03-0.446D-03-0.338D-03-0.130D-04 0.509D-03-0.447D-02
 Coeff-Com: -0.735D-02 0.570D-01 0.108D+00 0.123D+00-0.349D+00-0.343D+00
 Coeff-Com:  0.134D+00 0.569D+00 0.713D+00
 Coeff:      0.390D-03-0.446D-03-0.338D-03-0.130D-04 0.509D-03-0.447D-02
 Coeff:     -0.735D-02 0.570D-01 0.108D+00 0.123D+00-0.349D+00-0.343D+00
 Coeff:      0.134D+00 0.569D+00 0.713D+00
 Gap=     0.072 Goal=   None    Shift=    0.000
 Gap=     0.077 Goal=   None    Shift=    0.000
 RMSDP=2.92D-04 MaxDP=6.54D-02 DE=-5.34D-06 OVMax= 7.40D-03

 Cycle  16  Pass 1  IDiag  1:
 Density matrix breaks symmetry, PCut= 1.00D-04
 Density has only Abelian symmetry.
 RMSU=  8.52D-06    CP:  3.00D+00  1.82D-01  1.32D+00  7.46D-04  1.60D+00
                    CP:  2.13D+00  1.21D+00  2.21D+00 -2.99D+00  3.00D+00
                    CP:  3.00D+00  3.00D+00  2.51D+00  2.54D+00  1.17D+00
 E= -1820.37540188269     Delta-E=       -0.000001695195 Rises=F Damp=F
 DIIS: error= 9.84D-06 at cycle  16 NSaved=  16.
 NSaved=16 IEnMin=16 EnMin= -1820.37540188269     IErMin=16 ErrMin= 9.84D-06
 ErrMax= 9.84D-06  0.00D+00 EMaxC= 1.00D-01 BMatC= 7.15D-08 BMatP= 8.36D-07
 IDIUse=1 WtCom= 1.00D+00 WtEn= 0.00D+00
 Coeff-Com: -0.122D-03 0.136D-03 0.244D-03 0.170D-04-0.200D-04 0.337D-03
 Coeff-Com: -0.235D-02-0.178D-01-0.209D-01-0.528D-03 0.904D-01-0.118D-01
 Coeff-Com: -0.102D+00-0.825D-01-0.122D-01 0.116D+01
 Coeff:     -0.122D-03 0.136D-03 0.244D-03 0.170D-04-0.200D-04 0.337D-03
 Coeff:     -0.235D-02-0.178D-01-0.209D-01-0.528D-03 0.904D-01-0.118D-01
 Coeff:     -0.102D+00-0.825D-01-0.122D-01 0.116D+01
 Gap=     0.072 Goal=   None    Shift=    0.000
 Gap=     0.077 Goal=   None    Shift=    0.000
 RMSDP=8.10D-05 MaxDP=1.18D-02 DE=-1.70D-06 OVMax= 2.21D-03

 Cycle  17  Pass 1  IDiag  1:
 Density matrix breaks symmetry, PCut= 1.00D-04
 Density has only Abelian symmetry.
 RMSU=  2.71D-05    CP:  3.00D+00  1.82D-01  1.32D+00  7.46D-04  1.60D+00
                    CP:  2.13D+00  1.21D+00  2.22D+00 -3.00D+00  3.00D+00
                    CP:  3.00D+00  3.00D+00  2.63D+00  2.70D+00  1.22D+00
                    CP:  1.23D+00
 E= -1820.37540199363     Delta-E=       -0.000000110940 Rises=F Damp=F
 DIIS: error= 3.07D-06 at cycle  17 NSaved=  17.
 NSaved=17 IEnMin=17 EnMin= -1820.37540199363     IErMin=17 ErrMin= 3.07D-06
 ErrMax= 3.07D-06  0.00D+00 EMaxC= 1.00D-01 BMatC= 4.84D-09 BMatP= 7.15D-08
 IDIUse=1 WtCom= 1.00D+00 WtEn= 0.00D+00
 Coeff-Com: -0.147D-03 0.172D-03 0.152D-04 0.364D-05-0.145D-04 0.340D-03
 Coeff-Com:  0.900D-03-0.367D-02-0.784D-02-0.130D-01 0.326D-01 0.311D-01
 Coeff-Com: -0.660D-03-0.524D-01-0.595D-01-0.196D+00 0.127D+01
 Coeff:     -0.147D-03 0.172D-03 0.152D-04 0.364D-05-0.145D-04 0.340D-03
 Coeff:      0.900D-03-0.367D-02-0.784D-02-0.130D-01 0.326D-01 0.311D-01
 Coeff:     -0.660D-03-0.524D-01-0.595D-01-0.196D+00 0.127D+01
 Gap=     0.072 Goal=   None    Shift=    0.000
 Gap=     0.077 Goal=   None    Shift=    0.000
 RMSDP=7.67D-05 MaxDP=4.03D-02 DE=-1.11D-07 OVMax= 4.40D-05

 Cycle  18  Pass 1  IDiag  1:
 Density matrix breaks symmetry, PCut= 1.00D-04
 Density has only Abelian symmetry.
 RMSU=  1.26D-06    CP:  3.00D+00  1.82D-01  1.32D+00  7.46D-04  1.60D+00
                    CP:  2.13D+00  1.21D+00  2.22D+00 -3.00D+00  3.00D+00
                    CP:  3.00D+00  3.00D+00  2.63D+00  2.70D+00  1.24D+00
                    CP:  1.23D+00  1.05D+00
 E= -1820.37540200201     Delta-E=       -0.000000008376 Rises=F Damp=F
 DIIS: error= 1.26D-06 at cycle  18 NSaved=  18.
 NSaved=18 IEnMin=18 EnMin= -1820.37540200201     IErMin=18 ErrMin= 1.26D-06
 ErrMax= 1.26D-06  0.00D+00 EMaxC= 1.00D-01 BMatC= 1.13D-09 BMatP= 4.84D-09
 IDIUse=1 WtCom= 1.00D+00 WtEn= 0.00D+00
 Coeff-Com: -0.215D-04 0.264D-04-0.112D-03 0.233D-05-0.426D-04-0.801D-04
 Coeff-Com:  0.673D-03 0.358D-02 0.427D-02 0.548D-03-0.198D-01-0.278D-02
 Coeff-Com:  0.217D-01 0.195D-01 0.586D-02-0.180D+00-0.195D-01 0.117D+01
 Coeff:     -0.215D-04 0.264D-04-0.112D-03 0.233D-05-0.426D-04-0.801D-04
 Coeff:      0.673D-03 0.358D-02 0.427D-02 0.548D-03-0.198D-01-0.278D-02
 Coeff:      0.217D-01 0.195D-01 0.586D-02-0.180D+00-0.195D-01 0.117D+01
 Gap=     0.072 Goal=   None    Shift=    0.000
 Gap=     0.077 Goal=   None    Shift=    0.000
 RMSDP=3.45D-05 MaxDP=1.80D-02 DE=-8.38D-09 OVMax= 9.67D-05

 Cycle  19  Pass 1  IDiag  1:
 Density matrix breaks symmetry, PCut= 1.00D-04
 Density has only Abelian symmetry.
 RMSU=  1.23D-06    CP:  3.00D+00  1.82D-01  1.32D+00  7.46D-04  1.60D+00
                    CP:  2.13D+00  1.21D+00  2.22D+00 -3.00D+00  3.00D+00
                    CP:  3.00D+00  3.00D+00  2.63D+00  2.71D+00  1.24D+00
                    CP:  1.21D+00  1.08D+00  4.35D-01
 E= -1820.37540200115     Delta-E=        0.000000000858 Rises=F Damp=F
 DIIS: error= 2.52D-07 at cycle  19 NSaved=  19.
 NSaved=19 IEnMin=18 EnMin= -1820.37540200201     IErMin=19 ErrMin= 2.52D-07
 ErrMax= 2.52D-07  0.00D+00 EMaxC= 1.00D-01 BMatC= 5.68D-11 BMatP= 1.13D-09
 IDIUse=1 WtCom= 1.00D+00 WtEn= 0.00D+00
 Coeff-Com: -0.917D-05 0.113D-04 0.457D-05-0.279D-06 0.337D-05-0.289D-04
 Coeff-Com: -0.120D-03 0.510D-04 0.288D-03 0.877D-03-0.829D-04-0.185D-02
 Coeff-Com: -0.212D-02 0.185D-02 0.515D-02 0.197D-01-0.928D-01-0.440D-01
 Coeff-Com:  0.111D+01
 Coeff:     -0.917D-05 0.113D-04 0.457D-05-0.279D-06 0.337D-05-0.289D-04
 Coeff:     -0.120D-03 0.510D-04 0.288D-03 0.877D-03-0.829D-04-0.185D-02
 Coeff:     -0.212D-02 0.185D-02 0.515D-02 0.197D-01-0.928D-01-0.440D-01
 Coeff:      0.111D+01
 Gap=     0.072 Goal=   None    Shift=    0.000
 Gap=     0.077 Goal=   None    Shift=    0.000
 RMSDP=1.43D-05 MaxDP=7.65D-03 DE= 8.58D-10 OVMax= 4.91D-05

 Cycle  20  Pass 1  IDiag  1:
 Density matrix breaks symmetry, PCut= 1.00D-04
 Density has only Abelian symmetry.
 RMSU=  9.90D-08    CP:  3.00D+00  1.82D-01  1.32D+00  7.46D-04  1.60D+00
                    CP:  2.13D+00  1.21D+00  2.22D+00 -3.00D+00  3.00D+00
                    CP:  3.00D+00  3.00D+00  2.63D+00  2.71D+00  1.24D+00
                    CP:  1.19D+00  1.05D+00  3.90D-01  9.90D-01
 E= -1820.37540200405     Delta-E=       -0.000000002900 Rises=F Damp=F
 DIIS: error= 9.23D-08 at cycle  20 NSaved=  20.
 NSaved=20 IEnMin=20 EnMin= -1820.37540200405     IErMin=20 ErrMin= 9.23D-08
 ErrMax= 9.23D-08  0.00D+00 EMaxC= 1.00D-01 BMatC= 4.38D-12 BMatP= 5.68D-11
 IDIUse=1 WtCom= 1.00D+00 WtEn= 0.00D+00
 Coeff-Com: -0.297D-06 0.223D-06 0.306D-05-0.149D-06-0.133D-07 0.102D-05
 Coeff-Com: -0.351D-04-0.174D-03-0.203D-03 0.751D-04 0.714D-03-0.522D-04
 Coeff-Com: -0.115D-02-0.597D-03 0.410D-03 0.127D-01-0.128D-01-0.698D-01
 Coeff-Com:  0.102D+00 0.969D+00
 Coeff:     -0.297D-06 0.223D-06 0.306D-05-0.149D-06-0.133D-07 0.102D-05
 Coeff:     -0.351D-04-0.174D-03-0.203D-03 0.751D-04 0.714D-03-0.522D-04
 Coeff:     -0.115D-02-0.597D-03 0.410D-03 0.127D-01-0.128D-01-0.698D-01
 Coeff:      0.102D+00 0.969D+00
 Gap=     0.072 Goal=   None    Shift=    0.000
 Gap=     0.077 Goal=   None    Shift=    0.000
 RMSDP=7.40D-06 MaxDP=3.91D-03 DE=-2.90D-09 OVMax= 5.72D-06

 Cycle  21  Pass 1  IDiag  1:
 Density matrix breaks symmetry, PCut= 1.00D-04
 Density has only Abelian symmetry.
 Restarting incremental Fock formation.
 E= -1820.37540200150     Delta-E=        0.000000002550 Rises=F Damp=F
 DIIS: error= 1.80D-08 at cycle  21 NSaved=  20.
 NSaved=20 IEnMin=19 EnMin= -1820.37540200405     IErMin=20 ErrMin= 1.80D-08
 ErrMax= 1.80D-08  0.00D+00 EMaxC= 1.00D-01 BMatC= 2.43D-13 BMatP= 4.38D-12
 IDIUse=1 WtCom= 1.00D+00 WtEn= 0.00D+00
 Coeff-Com: -0.185D-08 0.333D-07-0.415D-07 0.350D-06 0.239D-05 0.655D-05
 Coeff-Com:  0.116D-05-0.243D-04-0.887D-04 0.472D-04 0.139D-03 0.143D-03
 Coeff-Com: -0.125D-03-0.267D-03-0.212D-02 0.773D-02 0.624D-02-0.920D-01
 Coeff-Com:  0.147D-01 0.107D+01
 Coeff:     -0.185D-08 0.333D-07-0.415D-07 0.350D-06 0.239D-05 0.655D-05
 Coeff:      0.116D-05-0.243D-04-0.887D-04 0.472D-04 0.139D-03 0.143D-03
 Coeff:     -0.125D-03-0.267D-03-0.212D-02 0.773D-02 0.624D-02-0.920D-01
 Coeff:      0.147D-01 0.107D+01
 Gap=     0.072 Goal=   None    Shift=    0.000
 Gap=     0.077 Goal=   None    Shift=    0.000
 RMSDP=9.76D-07 MaxDP=5.22D-04 DE= 2.55D-09 OVMax= 1.11D-06

 Cycle  22  Pass 1  IDiag  1:
 Density matrix breaks symmetry, PCut= 1.00D-04
 Density has only Abelian symmetry.
 RMSU=  2.05D-07    CP:  1.00D+00
 E= -1820.37540200212     Delta-E=       -0.000000000617 Rises=F Damp=F
 DIIS: error= 3.69D-09 at cycle  22 NSaved=  20.
 NSaved=20 IEnMin=18 EnMin= -1820.37540200405     IErMin=20 ErrMin= 3.69D-09
 ErrMax= 3.69D-09  0.00D+00 EMaxC= 1.00D-01 BMatC= 8.99D-15 BMatP= 2.43D-13
 IDIUse=1 WtCom= 1.00D+00 WtEn= 0.00D+00
 Coeff-Com:  0.122D-07-0.145D-06-0.794D-07-0.219D-06 0.152D-05 0.101D-04
 Coeff-Com:  0.137D-04 0.102D-04-0.559D-04-0.149D-04 0.276D-04 0.830D-04
 Coeff-Com:  0.306D-04-0.342D-03-0.702D-03 0.338D-02 0.504D-02-0.371D-01
 Coeff-Com: -0.168D+00 0.120D+01
 Coeff:      0.122D-07-0.145D-06-0.794D-07-0.219D-06 0.152D-05 0.101D-04
 Coeff:      0.137D-04 0.102D-04-0.559D-04-0.149D-04 0.276D-04 0.830D-04
 Coeff:      0.306D-04-0.342D-03-0.702D-03 0.338D-02 0.504D-02-0.371D-01
 Coeff:     -0.168D+00 0.120D+01
 Gap=     0.072 Goal=   None    Shift=    0.000
 Gap=     0.077 Goal=   None    Shift=    0.000
 RMSDP=3.27D-07 MaxDP=1.77D-04 DE=-6.17D-10 OVMax= 1.91D-07

 Cycle  23  Pass 1  IDiag  1:
 Density matrix breaks symmetry, PCut= 1.00D-04
 Density has only Abelian symmetry.
 RMSU=  4.99D-08    CP:  1.00D+00  9.78D-01
 E= -1820.37540200286     Delta-E=       -0.000000000741 Rises=F Damp=F
 DIIS: error= 1.65D-09 at cycle  23 NSaved=  20.
 NSaved=20 IEnMin=17 EnMin= -1820.37540200405     IErMin=20 ErrMin= 1.65D-09
 ErrMax= 1.65D-09  0.00D+00 EMaxC= 1.00D-01 BMatC= 9.58D-16 BMatP= 8.99D-15
 IDIUse=1 WtCom= 1.00D+00 WtEn= 0.00D+00
 Large coefficients: NSaved= 20 BigCof=    0.00 CofMax=   10.00 Det=-7.81D-16
 Inversion failed.  Reducing to 19 matrices.
 Large coefficients: NSaved= 19 BigCof=    0.00 CofMax=   10.00 Det=-8.79D-16
 Inversion failed.  Reducing to 18 matrices.
 Large coefficients: NSaved= 18 BigCof=    0.00 CofMax=   10.00 Det=-8.87D-16
 Inversion failed.  Reducing to 17 matrices.
 Large coefficients: NSaved= 17 BigCof=    0.00 CofMax=   10.00 Det=-9.02D-16
 Inversion failed.  Reducing to 16 matrices.
 Large coefficients: NSaved= 16 BigCof=    0.00 CofMax=   10.00 Det=-1.81D-15
 Inversion failed.  Reducing to 15 matrices.
 Coeff-Com: -0.162D-06-0.229D-05 0.177D-05 0.139D-05 0.734D-05-0.142D-04
 Coeff-Com: -0.582D-05 0.473D-04 0.254D-05-0.674D-03 0.164D-02 0.132D-02
 Coeff-Com:  0.104D-01-0.258D+00 0.125D+01
 Coeff:     -0.162D-06-0.229D-05 0.177D-05 0.139D-05 0.734D-05-0.142D-04
 Coeff:     -0.582D-05 0.473D-04 0.254D-05-0.674D-03 0.164D-02 0.132D-02
 Coeff:      0.104D-01-0.258D+00 0.125D+01
 Gap=     0.072 Goal=   None    Shift=    0.000
 Gap=     0.077 Goal=   None    Shift=    0.000
 RMSDP=4.28D-08 MaxDP=2.28D-05 DE=-7.41D-10 OVMax= 7.41D-08

 Cycle  24  Pass 1  IDiag  1:
 Density matrix breaks symmetry, PCut= 1.00D-04
 Density has only Abelian symmetry.
 RMSU=  1.69D-09    CP:  1.00D+00  9.29D-01  1.02D+00
 E= -1820.37540199935     Delta-E=        0.000000003508 Rises=F Damp=F
 DIIS: error= 5.85D-10 at cycle  24 NSaved=  16.
 NSaved=16 IEnMin=12 EnMin= -1820.37540200405     IErMin=16 ErrMin= 5.85D-10
 ErrMax= 5.85D-10  0.00D+00 EMaxC= 1.00D-01 BMatC= 1.40D-16 BMatP= 9.58D-16
 IDIUse=1 WtCom= 1.00D+00 WtEn= 0.00D+00
 Large coefficients: NSaved= 16 BigCof=    0.00 CofMax=   10.00 Det=-1.14D-16
 Inversion failed.  Reducing to 15 matrices.
 Coeff-Com:  0.195D-06-0.111D-05 0.878D-06-0.173D-05 0.458D-05-0.229D-05
 Coeff-Com: -0.121D-04 0.150D-04 0.131D-03-0.761D-03 0.887D-03 0.148D-03
 Coeff-Com: -0.277D-02-0.461D+00 0.146D+01
 Coeff:      0.195D-06-0.111D-05 0.878D-06-0.173D-05 0.458D-05-0.229D-05
 Coeff:     -0.121D-04 0.150D-04 0.131D-03-0.761D-03 0.887D-03 0.148D-03
 Coeff:     -0.277D-02-0.461D+00 0.146D+01
 Gap=     0.072 Goal=   None    Shift=    0.000
 Gap=     0.077 Goal=   None    Shift=    0.000
 RMSDP=2.16D-08 MaxDP=1.18D-05 DE= 3.51D-09 OVMax= 3.25D-08

 Cycle  25  Pass 1  IDiag  1:
 Density matrix breaks symmetry, PCut= 1.00D-04
 Density has only Abelian symmetry.
 RMSU=  4.84D-10    CP:  1.00D+00  9.27D-01  9.75D-01  1.22D+00
 E= -1820.37540200138     Delta-E=       -0.000000002032 Rises=F Damp=F
 DIIS: error= 2.66D-10 at cycle  25 NSaved=  16.
 NSaved=16 IEnMin=11 EnMin= -1820.37540200405     IErMin=16 ErrMin= 2.66D-10
 ErrMax= 2.66D-10  0.00D+00 EMaxC= 1.00D-01 BMatC= 3.26D-17 BMatP= 1.40D-16
 IDIUse=1 WtCom= 1.00D+00 WtEn= 0.00D+00
 Large coefficients: NSaved= 16 BigCof=    0.00 CofMax=   10.00 Det=-3.41D-17
 Inversion failed.  Reducing to 15 matrices.
 Coeff-Com: -0.441D-07 0.244D-06-0.111D-05 0.194D-05 0.100D-05-0.125D-04
 Coeff-Com:  0.199D-04 0.114D-03-0.531D-03 0.100D-02 0.326D-02 0.206D-01
 Coeff-Com: -0.276D+00 0.387D+00 0.864D+00
 Coeff:     -0.441D-07 0.244D-06-0.111D-05 0.194D-05 0.100D-05-0.125D-04
 Coeff:      0.199D-04 0.114D-03-0.531D-03 0.100D-02 0.326D-02 0.206D-01
 Coeff:     -0.276D+00 0.387D+00 0.864D+00
 Gap=     0.072 Goal=   None    Shift=    0.000
 Gap=     0.077 Goal=   None    Shift=    0.000
 RMSDP=1.50D-08 MaxDP=8.17D-06 DE=-2.03D-09 OVMax= 5.77D-09

 Cycle  26  Pass 1  IDiag  1:
 Density matrix breaks symmetry, PCut= 1.00D-04
 Density has only Abelian symmetry.
 RMSU=  8.95D-10    CP:  1.00D+00  9.20D-01  9.75D-01  7.18D-01  1.24D+00
 E= -1820.37540200257     Delta-E=       -0.000000001191 Rises=F Damp=F
 DIIS: error= 1.27D-10 at cycle  26 NSaved=  16.
 NSaved=16 IEnMin=10 EnMin= -1820.37540200405     IErMin=16 ErrMin= 1.27D-10
 ErrMax= 1.27D-10  0.00D+00 EMaxC= 1.00D-01 BMatC= 1.41D-17 BMatP= 3.26D-17
 IDIUse=1 WtCom= 1.00D+00 WtEn= 0.00D+00
 Large coefficients: NSaved= 16 BigCof=    0.00 CofMax=   10.00 Det=-2.10D-17
 Inversion failed.  Reducing to 15 matrices.
 Coeff-Com:  0.115D-06 0.448D-07-0.431D-07 0.724D-06-0.736D-05 0.171D-04
 Coeff-Com:  0.526D-04-0.246D-03 0.590D-03 0.197D-02 0.358D-02-0.778D-01
 Coeff-Com:  0.195D-01 0.507D+00 0.546D+00
 Coeff:      0.115D-06 0.448D-07-0.431D-07 0.724D-06-0.736D-05 0.171D-04
 Coeff:      0.526D-04-0.246D-03 0.590D-03 0.197D-02 0.358D-02-0.778D-01
 Coeff:      0.195D-01 0.507D+00 0.546D+00
 Gap=     0.072 Goal=   None    Shift=    0.000
 Gap=     0.077 Goal=   None    Shift=    0.000
 RMSDP=5.17D-09 MaxDP=2.80D-06 DE=-1.19D-09 OVMax= 1.70D-09

 Cycle  27  Pass 1  IDiag  1:
 Density matrix breaks symmetry, PCut= 1.00D-04
 Density has only Abelian symmetry.
 RMSU=  1.71D-10    CP:  1.00D+00  9.18D-01  9.62D-01  6.76D-01  1.19D+00
                    CP:  9.68D-01
 E= -1820.37540200249     Delta-E=        0.000000000088 Rises=F Damp=F
 DIIS: error= 1.32D-10 at cycle  27 NSaved=  16.
 NSaved=16 IEnMin= 9 EnMin= -1820.37540200405     IErMin=15 ErrMin= 1.27D-10
 ErrMax= 1.32D-10  0.00D+00 EMaxC= 1.00D-01 BMatC= 1.25D-18 BMatP= 1.41D-17
 IDIUse=1 WtCom= 1.00D+00 WtEn= 0.00D+00
 Large coefficients: NSaved= 16 BigCof=    0.00 CofMax=   10.00 Det=-4.92D-18
 Inversion failed.  Reducing to 15 matrices.
 Coeff-Com: -0.596D-07-0.205D-06 0.254D-06-0.564D-06 0.474D-05 0.405D-05
 Coeff-Com: -0.872D-04 0.102D-03 0.751D-03-0.719D-04-0.308D-02-0.272D-01
 Coeff-Com:  0.143D-01 0.182D+00 0.833D+00
 Coeff:     -0.596D-07-0.205D-06 0.254D-06-0.564D-06 0.474D-05 0.405D-05
 Coeff:     -0.872D-04 0.102D-03 0.751D-03-0.719D-04-0.308D-02-0.272D-01
 Coeff:      0.143D-01 0.182D+00 0.833D+00
 Gap=     0.072 Goal=   None    Shift=    0.000
 Gap=     0.077 Goal=   None    Shift=    0.000
 RMSDP=9.18D-09 MaxDP=5.00D-06 DE= 8.78D-11 OVMax= 1.40D-09

 Cycle  28  Pass 1  IDiag  1:
 Density matrix breaks symmetry, PCut= 1.00D-04
 Density has only Abelian symmetry.
 RMSU=  1.32D-10    CP:  1.00D+00  9.21D-01  9.73D-01  9.57D-01  7.90D-01
                    CP:  6.60D-01 -4.10D-01
 E= -1820.37540200255     Delta-E=       -0.000000000062 Rises=F Damp=F
 DIIS: error= 6.41D-11 at cycle  28 NSaved=  16.
 NSaved=16 IEnMin= 8 EnMin= -1820.37540200405     IErMin=16 ErrMin= 6.41D-11
 ErrMax= 6.41D-11  0.00D+00 EMaxC= 1.00D-01 BMatC= 3.62D-19 BMatP= 1.25D-18
 IDIUse=1 WtCom= 1.00D+00 WtEn= 0.00D+00
 Large coefficients: NSaved= 16 BigCof=    0.00 CofMax=   10.00 Det=-6.75D-19
 Inversion failed.  Reducing to 15 matrices.
 Coeff-Com: -0.902D-07 0.165D-06 0.117D-05-0.261D-05-0.811D-05 0.274D-04
 Coeff-Com: -0.331D-04-0.929D-04-0.133D-02 0.167D-01-0.207D-01-0.683D-01
 Coeff-Com:  0.501D-02 0.325D+00 0.744D+00
 Coeff:     -0.902D-07 0.165D-06 0.117D-05-0.261D-05-0.811D-05 0.274D-04
 Coeff:     -0.331D-04-0.929D-04-0.133D-02 0.167D-01-0.207D-01-0.683D-01
 Coeff:      0.501D-02 0.325D+00 0.744D+00
 Gap=     0.072 Goal=   None    Shift=    0.000
 Gap=     0.077 Goal=   None    Shift=    0.000
 RMSDP=3.78D-09 MaxDP=2.05D-06 DE=-6.18D-11 OVMax= 3.11D-09

 Cycle  29  Pass 1  IDiag  1:
 Density matrix breaks symmetry, PCut= 1.00D-04
 Density has only Abelian symmetry.
 RMSU=  9.11D-11    CP:  1.00D+00  9.23D-01  9.74D-01  1.07D+00  6.96D-01
                    CP:  3.78D-01 -6.80D-02  6.57D-01
 E= -1820.37540200300     Delta-E=       -0.000000000452 Rises=F Damp=F
 DIIS: error= 4.23D-11 at cycle  29 NSaved=  16.
 NSaved=16 IEnMin= 7 EnMin= -1820.37540200405     IErMin=16 ErrMin= 4.23D-11
 ErrMax= 4.23D-11  0.00D+00 EMaxC= 1.00D-01 BMatC= 9.59D-20 BMatP= 3.62D-19
 IDIUse=1 WtCom= 1.00D+00 WtEn= 0.00D+00
 Large coefficients: NSaved= 16 BigCof=    0.00 CofMax=   10.00 Det=-2.76D-19
 Inversion failed.  Reducing to 15 matrices.
 Coeff-Com:  0.756D-07 0.337D-06-0.143D-05-0.207D-05 0.988D-05-0.253D-04
 Coeff-Com: -0.109D-03-0.821D-04 0.567D-02-0.629D-02-0.308D-01-0.571D-02
 Coeff-Com:  0.442D-01 0.297D+00 0.696D+00
 Coeff:      0.756D-07 0.337D-06-0.143D-05-0.207D-05 0.988D-05-0.253D-04
 Coeff:     -0.109D-03-0.821D-04 0.567D-02-0.629D-02-0.308D-01-0.571D-02
 Coeff:      0.442D-01 0.297D+00 0.696D+00
 Gap=     0.072 Goal=   None    Shift=    0.000
 Gap=     0.077 Goal=   None    Shift=    0.000
 RMSDP=2.21D-09 MaxDP=1.18D-06 DE=-4.52D-10 OVMax= 7.45D-10

 Cycle  30  Pass 1  IDiag  1:
 Density matrix breaks symmetry, PCut= 1.00D-04
 Density has only Abelian symmetry.
 RMSU=  5.87D-11    CP:  1.00D+00  9.24D-01  9.82D-01  9.83D-01  8.10D-01
                    CP:  5.54D-01 -5.10D-01  6.61D-01  5.04D-01
 E= -1820.37540200207     Delta-E=        0.000000000925 Rises=F Damp=F
 DIIS: error= 2.22D-10 at cycle  30 NSaved=  16.
 NSaved=16 IEnMin= 6 EnMin= -1820.37540200405     IErMin=15 ErrMin= 4.23D-11
 ErrMax= 2.22D-10  0.00D+00 EMaxC= 1.00D-01 BMatC= 5.87D-19 BMatP= 9.59D-20
 IDIUse=1 WtCom= 1.00D+00 WtEn= 0.00D+00
 Large coefficients: NSaved= 16 BigCof=    0.00 CofMax=   10.00 Det=-2.36D-19
 Inversion failed.  Reducing to 15 matrices.
 Coeff-Com:  0.404D-06-0.124D-05-0.266D-05 0.931D-05-0.392D-04-0.165D-03
 Coeff-Com: -0.197D-04 0.601D-02-0.379D-02-0.372D-01-0.144D-01 0.283D-01
 Coeff-Com:  0.255D+00 0.700D+00 0.661D-01
 Coeff:      0.404D-06-0.124D-05-0.266D-05 0.931D-05-0.392D-04-0.165D-03
 Coeff:     -0.197D-04 0.601D-02-0.379D-02-0.372D-01-0.144D-01 0.283D-01
 Coeff:      0.255D+00 0.700D+00 0.661D-01
 Gap=     0.072 Goal=   None    Shift=    0.000
 Gap=     0.077 Goal=   None    Shift=    0.000
 RMSDP=5.97D-10 MaxDP=3.24D-07 DE= 9.25D-10 OVMax= 1.85D-10

 Density matrix breaks symmetry, PCut= 1.00D-04
 Density has only Abelian symmetry.
 SCF Done:  E(UB3LYP) =  -1820.37540200     A.U. after   30 cycles
            NFock= 30  Conv=0.60D-09     -V/T= 2.0026
 <Sx>= 0.0000 <Sy>= 0.0000 <Sz>= 2.0000 <S**2>= 6.0339 S= 2.0068
 <L.S>=  0.00000000000    
 KE= 1.815565124002D+03 PE=-6.193169673792D+03 EE= 1.640256572617D+03
 Annihilation of the first spin contaminant:
 S**2 before annihilation     6.0339,   after     6.0003
 Leave Link  502 at Mon Jul 22 16:50:14 2024, MaxMem=120795955200 cpu:            5483.2 elap:              50.7
 (Enter /gpfs/fs1/soft/improv/software/custom-built/gaussian/g16/l508.exe)
 QCSCF skips out because SCF is already converged.
 Leave Link  508 at Mon Jul 22 16:50:14 2024, MaxMem=120795955200 cpu:               0.2 elap:               0.0
 (Enter /gpfs/fs1/soft/improv/software/custom-built/gaussian/g16/l801.exe)
 DoSCS=F DFT=T ScalE2(SS,OS)=  1.000000  1.000000
 Range of M.O.s used for correlation:     1   446
 NBasis=   449 NAE=    56 NBE=    52 NFC=     0 NFV=     0
 NROrb=    446 NOA=    56 NOB=    52 NVA=   390 NVB=   394

 **** Warning!!: The largest alpha MO coefficient is  0.19586043D+03


 **** Warning!!: The smallest alpha delta epsilon is  0.71728693D-01


 **** Warning!!: The largest beta MO coefficient is  0.20262465D+03


 **** Warning!!: The smallest beta delta epsilon is  0.77164624D-01

 Leave Link  801 at Mon Jul 22 16:50:14 2024, MaxMem=120795955200 cpu:               0.4 elap:               0.0
 (Enter /gpfs/fs1/soft/improv/software/custom-built/gaussian/g16/l1101.exe)
 Using compressed storage, NAtomX=    13.
 Will process     14 centers per pass.
 R6Disp: Adding Grimme-D3 dispersion energy 1st derivatives to the gradient.
 Leave Link 1101 at Mon Jul 22 16:50:15 2024, MaxMem=120795955200 cpu:              59.0 elap:               0.6
 (Enter /gpfs/fs1/soft/improv/software/custom-built/gaussian/g16/l1102.exe)
 Symmetrizing basis deriv contribution to polar:
 IMax=3 JMax=2 DiffMx= 0.00D+00
 Leave Link 1102 at Mon Jul 22 16:50:15 2024, MaxMem=120795955200 cpu:               1.1 elap:               0.1
 (Enter /gpfs/fs1/soft/improv/software/custom-built/gaussian/g16/l1110.exe)
 Forming Gx(P) for the SCF density, NAtomX=    13.
 Integral derivatives from FoFJK, PRISM(SPDF).
 Do as many integral derivatives as possible in FoFJK.
 G2DrvN: MDV=  120795953673.
 Density matrix has lower than full symmetry, NOpUse=  8 NOpAll= 48.
 G2DrvN: will do    14 centers at a time, making    1 passes.
 Calling FoFCou, ICntrl=  3107 FMM=F I1Cent=   0 AccDes= 0.00D+00.
 FoFJK:  IHMeth= 1 ICntrl=    3107 DoSepK=F KAlg= 0 I1Cent=           0 FoldK=F
 IRaf=         0 NMat=       1 IRICut=       1 DoRegI=T DoRafI=F ISym2E= 1 IDoP0=0 IntGTp=1.
 FoFCou: FMM=F IPFlag=           0 FMFlag=      100000 FMFlg1=           0
         NFxFlg=           0 DoJE=F BraDBF=F KetDBF=F FulRan=T
         wScrn=  0.000000 ICntrl=      3107 IOpCl=  1 I1Cent=           0 NGrid=           0
         NMat0=    1 NMatS0=      1 NMatT0=    0 NMatD0=    1 NMtDS0=    0 NMtDT0=    0
 Petite list used in FoFCou.
 End of G2Drv F.D. properties file   721 does not exist.
 End of G2Drv F.D. properties file   722 does not exist.
 End of G2Drv F.D. properties file   788 does not exist.
 Leave Link 1110 at Mon Jul 22 16:50:24 2024, MaxMem=120795955200 cpu:            1023.8 elap:               8.3
 (Enter /gpfs/fs1/soft/improv/software/custom-built/gaussian/g16/l1002.exe)
 Minotr:  UHF open shell wavefunction.
          IDoAtm=1111111111111
          Direct CPHF calculation.
          Differentiating once with respect to electric field.
                with respect to dipole field.
          Differentiating once with respect to nuclear coordinates.
 Density matrix has lower than full symmetry, NOpUse=  8 NOpAll= 48.
          Using symmetry in CPHF.
          Requested convergence is 1.0D-08 RMS, and 1.0D-07 maximum.
          Secondary convergence is 1.0D-12 RMS, and 1.0D-12 maximum.
          NewPWx=T KeepS1=F KeepF1=F KeepIn=T MapXYZ=F SortEE=F KeepMc=T.
         4078 words used for storage of precomputed grid.
 Two-electron integrals replicated using symmetry.
          MDV=  120795955200 using IRadAn=       1.
          Solving linear equations simultaneously, MaxMat=     384.
 FoF2E skips out because all densities are zero.
 CalDSu exits because no D1Ps are significant.
 FoFJK:  IHMeth= 1 ICntrl=       0 DoSepK=F KAlg= 0 I1Cent=           0 FoldK=F
 IRaf= 930000000 NMat=      21 IRICut=      52 DoRegI=T DoRafI=T ISym2E= 2 IDoP0=3 IntGTp=2.
 FoFCou: FMM=F IPFlag=           0 FMFlag=      100000 FMFlg1=           0
         NFxFlg=           0 DoJE=F BraDBF=F KetDBF=F FulRan=T
         wScrn=  0.000000 ICntrl=         0 IOpCl=  1 I1Cent=           0 NGrid=           0
         NMat0=   21 NMatS0=     21 NMatT0=    0 NMatD0=   21 NMtDS0=    0 NMtDT0=    0
 Integrals replicated using symmetry in FoFCou.
 Raff kept on since  93.51% of shell-pairs survive, threshold=   0.20 IRatSp=94.
          There are    24 degrees of freedom in the 1st order CPHF.  IDoFFX=4 NUNeed=    24.
     24 vectors produced by pass  0 Test12= 1.76D-13 4.17D-09 XBig12= 1.52D+03 3.20D+01.
 AX will form    24 AO Fock derivatives at one time.
     24 vectors produced by pass  1 Test12= 1.76D-13 4.17D-09 XBig12= 4.16D+02 6.52D+00.
     24 vectors produced by pass  2 Test12= 1.76D-13 4.17D-09 XBig12= 8.96D+01 2.20D+00.
     24 vectors produced by pass  3 Test12= 1.76D-13 4.17D-09 XBig12= 6.65D+00 6.77D-01.
     24 vectors produced by pass  4 Test12= 1.76D-13 4.17D-09 XBig12= 3.69D-01 2.20D-01.
     24 vectors produced by pass  5 Test12= 1.76D-13 4.17D-09 XBig12= 5.36D-03 2.11D-02.
     24 vectors produced by pass  6 Test12= 1.76D-13 4.17D-09 XBig12= 8.69D-05 3.12D-03.
     24 vectors produced by pass  7 Test12= 1.76D-13 4.17D-09 XBig12= 1.86D-06 2.93D-04.
     24 vectors produced by pass  8 Test12= 1.76D-13 4.17D-09 XBig12= 2.63D-08 3.98D-05.
     20 vectors produced by pass  9 Test12= 1.76D-13 4.17D-09 XBig12= 3.12D-10 3.21D-06.
     10 vectors produced by pass 10 Test12= 1.76D-13 4.17D-09 XBig12= 3.56D-12 3.29D-07.
      4 vectors produced by pass 11 Test12= 1.76D-13 4.17D-09 XBig12= 3.02D-14 2.02D-08.
 InvSVY:  IOpt=1 It=  1 EMax= 2.84D-14
 Solved reduced A of dimension   250 with    24 vectors.
 FullF1:  Do perturbations      1 to      24.
 Isotropic polarizability for W=    0.000000      500.75 Bohr**3.
 End of Minotr F.D. properties file   721 does not exist.
 End of Minotr F.D. properties file   722 does not exist.
 End of Minotr F.D. properties file   788 does not exist.
 Leave Link 1002 at Mon Jul 22 16:51:59 2024, MaxMem=120795955200 cpu:           11628.5 elap:              95.2
 (Enter /gpfs/fs1/soft/improv/software/custom-built/gaussian/g16/l601.exe)
 Copying SCF densities to generalized density rwf, IOpCl= 1 IROHF=0.
 SCF density gives NOpUse=  8 NOpAll= 48.
 Marking SCF density as not fully symmetric.

 **********************************************************************

            Population analysis using the SCF Density.

 **********************************************************************

 Orbital symmetries:
 Alpha Orbitals:
       Occupied  (A1G) (A1G) (T1U) (T1U) (T1U) (T2G) (T1U) (T1U)
                 (T2G) (T1U) (T2G) (T2G) (T1U) (T1U) (T2G) (T2G)
                 (T1U) (A1G) (T1U) (T1U) (T1U) (T2G) (T1U) (T1U)
                 (T2G) (T1U) (T2G) (?A) (?A) (?A) (?B) (?B) (?B)
                 (?C) (?C) (?C) (?A) (?A) (?A) (?B) (?B) (?B) (?B)
                 (?B) (?B) (?C) (?C) (?C) (?C) (?C) (?B) (?B) (?B)
                 (?C) (A1G) (?A)
       Virtual   (T1U) (T1U) (T1U) (?A) (?A) (?A) (?A) (?D) (?D)
                 (?D) (?C) (?C) (?C) (?D) (?D) (?D) (?C) (?C) (?C)
                 (?C) (?C) (?C) (A1G) (?D) (?D) (?D) (?D) (?D)
                 (?D) (?D) (?D) (?D) (?A) (?A) (?C) (?C) (?C) (?A)
                 (?A) (?A) (?D) (?D) (?D) (?E) (?E) (?E) (?D) (?D)
                 (?D) (?D) (?D) (?D) (T1U) (T1U) (T1U) (EG) (EG)
                 (?E) (?E) (?E) (A1G) (A1G) (T1U) (T1U) (T1U) (A1G)
                 (?A) (?A) (?F) (?F) (?F) (?F) (?F) (?F) (?F) (?F)
                 (T1U) (?F) (?F) (?F) (?F) (?F) (?F) (?F) (?A)
                 (?A) (?A) (T1U) (T1U) (?A) (?A) (?F) (?F) (?F)
                 (A2G) (?F) (?F) (?F) (?F) (?F) (?F) (?F) (?F)
                 (?F) (A1G) (?F) (?F) (?F) (?F) (?F) (?F) (?F)
                 (?F) (?F) (?F) (?F) (?F) (A2U) (?F) (?F) (?F)
                 (?F) (?F) (?F) (?F) (?F) (?F) (?F) (?F) (?F) (?F)
                 (T2G) (T2G) (?F) (T2G) (A1G) (EU) (EU) (T1U) (T1U)
                 (T1U) (A2G) (T1G) (T1G) (T1G) (T2U) (T2U) (T2U)
                 (?F) (?F) (?F) (EG) (EG) (T1U) (T1U) (T1U) (T2U)
                 (T2U) (T2U) (?F) (?F) (?F) (A2U) (?F) (?F) (?F)
                 (?F) (?F) (?F) (?F) (?F) (?F) (?F) (?F) (?F) (?F)
                 (T1G) (T1G) (T1G) (?F) (?B) (?B) (?B) (T2G) (T2G)
                 (?B) (T2G) (?B) (?B) (?B) (?B) (?B) (T2G) (T2G)
                 (T2G) (?B) (?B) (?B) (A1G) (?F) (?F) (?F) (?F)
                 (?F) (?F) (?F) (?F) (?F) (T1U) (T1U) (?F) (?F)
                 (?F) (?F) (?F) (?F) (T1G) (?F) (?F) (?F) (T1G)
                 (T1G) (T1U) (?F) (?F) (?F) (EG) (EG) (?E) (?E)
                 (?E) (?F) (?F) (?F) (?E) (?E) (?E) (?F) (?F) (?F)
                 (?F) (?F) (?F) (?F) (?F) (?F) (A1G) (?F) (?F)
                 (?F) (?F) (?F) (?F) (?F) (?F) (?F) (?F) (?F) (?F)
                 (?F) (?F) (?F) (?F) (?F) (?F) (?F) (?F) (?F) (?F)
                 (?F) (?F) (?F) (?F) (?F) (?F) (?F) (T1G) (T2G)
                 (T2G) (T2G) (?F) (?F) (?F) (?F) (T1G) (?F) (T1G)
                 (?F) (?F) (T2G) (T2G) (T2G) (?F) (?F) (?F) (?F)
                 (?F) (?F) (?F) (?F) (?F) (?F) (?F) (?F) (?F) (?F)
                 (?F) (?F) (?F) (?F) (?F) (?F) (?F) (?F) (?F) (?F)
                 (?F) (?F) (?F) (?F) (?F) (?F) (?F) (?F) (?F) (?F)
                 (?F) (?F) (?F) (?F) (?F) (?F) (?F) (?F) (A2U)
                 (?F) (?F) (?F) (?F) (?F) (?F) (?F) (?F) (?F) (?F)
                 (?F) (?F) (?F) (?F) (?F) (?F) (?F) (?F) (?F) (?F)
                 (?F) (?F) (?F) (A1G) (?F) (?F) (?F) (A1G) (EG)
                 (EG) (T1U) (T1U) (T1U) (EG) (EG) (A1G) (T1U) (T1U)
                 (T1U) (T2G) (T2G) (T2G) (T1U) (T1U) (T1U) (T2G)
                 (T2G) (T2G) (A1G) (EG) (EG) (T1U) (T1U) (T1U)
                 (A1G)
 Beta  Orbitals:
       Occupied  (A1G) (A1G) (T1U) (T1U) (T1U) (T2G) (T1U) (T1U)
                 (T2G) (T1U) (T2G) (T2G) (T1U) (T1U) (T2G) (T1U)
                 (T2G) (A1G) (T1U) (T1U) (T1U) (T2G) (T1U) (T1U)
                 (T2G) (T1U) (T2G) (?A) (?B) (?B) (?A) (?B) (?A)
                 (?C) (?A) (?C) (?C) (?B) (?B) (?B) (?A) (?A) (?B)
                 (?B) (?B) (?C) (?C) (?C) (?B) (?B) (?B) (?C)
       Virtual   (A1G) (?C) (?C) (T1U) (T1U) (T1U) (T2G) (T2G)
                 (T2G) (?B) (?B) (?B) (?A) (?A) (?C) (?C) (?C)
                 (?C) (?C) (?C) (?C) (?A) (?B) (?B) (?B) (?B) (?B)
                 (?B) (?C) (?C) (?B) (?B) (?B) (?B) (?B) (?B) (?A)
                 (?A) (?C) (?C) (?C) (T2G) (?B) (?B) (?B) (T2G)
                 (T2G) (?C) (?C) (?C) (?B) (?B) (?B) (?B) (?B)
                 (?B) (?B) (?B) (?B) (EG) (EG) (?C) (?C) (?C) (A1G)
                 (A1G) (T1U) (T1U) (T1U) (?D) (?D) (?D) (?C) (?C)
                 (?C) (?E) (?E) (?E) (?E) (?E) (T1U) (?E) (?E)
                 (?E) (?E) (?C) (?C) (?C) (?D) (?D) (?D) (T1U)
                 (T1U) (?D) (?D) (?E) (?E) (?E) (?D) (?E) (?E)
                 (?E) (?C) (?C) (?C) (?C) (?C) (?C) (?D) (?E) (?E)
                 (?E) (?C) (?C) (?C) (?E) (?E) (?E) (?E) (?E) (?E)
                 (T1U) (?D) (?D) (?E) (?E) (?E) (?E) (?E) (?E)
                 (?D) (?D) (?C) (?C) (?C) (?C) (?C) (?C) (?D) (?F)
                 (T1U) (T1U) (?F) (?F) (?F) (T1G) (?C) (?C) (?C)
                 (?F) (?F) (?F) (T1G) (T1G) (?C) (?C) (?C) (?F)
                 (?F) (?F) (?F) (?F) (?F) (?C) (?C) (?C) (?F) (?F)
                 (A2U) (?F) (?F) (?F) (?F) (?F) (?F) (?F) (?F)
                 (?F) (?F) (?F) (T1G) (T1G) (T1G) (?F) (?F) (?F)
                 (?F) (?F) (?F) (?F) (?F) (?F) (?F) (?C) (?C) (?C)
                 (T2G) (T2G) (T2G) (?F) (?F) (?F) (T2G) (?F) (?F)
                 (?F) (?F) (?F) (?F) (?F) (?F) (?F) (T1U) (T1U)
                 (?F) (?F) (?F) (?F) (?F) (?F) (T1G) (?F) (?F)
                 (T1G) (?F) (T1G) (T1U) (?F) (?F) (?F) (T2G) (?F)
                 (T2G) (?F) (?F) (?F) (?F) (?F) (?F) (?F) (?F)
                 (?F) (?F) (?F) (?F) (?F) (?F) (?F) (?F) (?F) (?F)
                 (?F) (?F) (?F) (?F) (?F) (?F) (?F) (?F) (?F) (?F)
                 (?F) (?F) (?F) (?F) (?F) (?F) (?F) (?F) (?F) (?F)
                 (?F) (?F) (?F) (?F) (?F) (?F) (?F) (?F) (?F) (?F)
                 (?F) (?F) (?F) (?F) (?F) (?F) (?F) (?F) (?F) (?F)
                 (?F) (?F) (?F) (?F) (?F) (?F) (?F) (?F) (?F) (?F)
                 (?F) (?F) (?F) (?F) (?F) (?F) (?F) (?F) (?F) (?F)
                 (?F) (?F) (?F) (?F) (?F) (?F) (?F) (?F) (?F) (?F)
                 (?F) (?F) (?F) (?F) (?F) (?F) (?F) (?F) (?F) (?F)
                 (?F) (?F) (?F) (?F) (?F) (?F) (?F) (?F) (?F) (?F)
                 (A2U) (?F) (?F) (?F) (?F) (?F) (?F) (?F) (?F)
                 (?F) (?F) (?F) (?F) (?F) (?F) (?F) (?F) (?F) (?F)
                 (?F) (?F) (A1G) (?F) (?F) (?F) (T2G) (T2G) (T2G)
                 (T1U) (T1U) (T1U) (EG) (EG) (A1G) (T1U) (T1U)
                 (T1U) (T2G) (T2G) (T2G) (T1U) (T1U) (T1U) (T2G)
                 (T2G) (T2G) (A1G) (EG) (EG) (T1U) (T1U) (T1U)
                 (A1G)
 Unable to determine electronic state:  an orbital has unidentified symmetry.
 Alpha  occ. eigenvalues -- -255.67554 -29.67555 -25.54277 -25.52791 -25.52791
 Alpha  occ. eigenvalues --  -13.84290 -13.84289 -13.84289 -13.84287 -13.83820
 Alpha  occ. eigenvalues --  -13.83819  -9.71925  -9.71925  -9.71925  -9.71924
 Alpha  occ. eigenvalues --   -9.69937  -9.69937  -3.10032  -1.90211  -1.85648
 Alpha  occ. eigenvalues --   -1.85648  -0.42345  -0.42068  -0.42068  -0.41930
 Alpha  occ. eigenvalues --   -0.41603  -0.41555  -0.06474  -0.00924   0.01751
 Alpha  occ. eigenvalues --    0.03040   0.03205   0.03205   0.06768   0.06768
 Alpha  occ. eigenvalues --    0.08177   0.09396   0.10310   0.10443   0.11201
 Alpha  occ. eigenvalues --    0.11247   0.11247   0.13757   0.14077   0.14077
 Alpha  occ. eigenvalues --    0.15047   0.15047   0.15149   0.15430   0.15430
 Alpha  occ. eigenvalues --    0.16227   0.16591   0.16591   0.16836   0.26765
 Alpha  occ. eigenvalues --    0.32357
 Alpha virt. eigenvalues --    0.39530   0.39553   0.39553   0.41447   0.42936
 Alpha virt. eigenvalues --    0.43625   0.43907   0.47484   0.47490   0.47490
 Alpha virt. eigenvalues --    0.49197   0.49197   0.49436   0.51969   0.52146
 Alpha virt. eigenvalues --    0.52146   0.52236   0.52249   0.52249   0.52311
 Alpha virt. eigenvalues --    0.52363   0.52363   0.52565   0.52868   0.52970
 Alpha virt. eigenvalues --    0.52970   0.55028   0.55068   0.55068   0.57796
 Alpha virt. eigenvalues --    0.57796   0.57844   0.59114   0.59206   0.59682
 Alpha virt. eigenvalues --    0.59790   0.59790   0.62851   0.63544   0.63555
 Alpha virt. eigenvalues --    0.63662   0.63664   0.63664   0.65412   0.65412
 Alpha virt. eigenvalues --    0.65439   0.67875   0.67940   0.67940   0.67976
 Alpha virt. eigenvalues --    0.68008   0.68008   0.72002   0.72033   0.72033
 Alpha virt. eigenvalues --    0.73136   0.73154   0.74229   0.74232   0.74232
 Alpha virt. eigenvalues --    0.79018   0.82784   0.82919   0.82919   0.82996
 Alpha virt. eigenvalues --    0.93862   0.94848   0.94978   0.98309   0.98309
 Alpha virt. eigenvalues --    0.98376   0.99518   0.99814   0.99814   1.10858
 Alpha virt. eigenvalues --    1.10858   1.10877   1.10898   1.11585   1.11633
 Alpha virt. eigenvalues --    1.11633   1.14639   1.14819   1.14819   1.15367
 Alpha virt. eigenvalues --    1.15566   1.18133   1.25800   1.26006   1.26312
 Alpha virt. eigenvalues --    1.26486   1.27592   1.27592   1.27756   1.29117
 Alpha virt. eigenvalues --    1.33256   1.33256   1.33407   1.33407   1.33431
 Alpha virt. eigenvalues --    1.33617   1.35956   1.36151   1.36151   1.37654
 Alpha virt. eigenvalues --    1.38655   1.38668   1.38668   1.39836   1.39836
 Alpha virt. eigenvalues --    1.39886   1.41140   1.41368   1.41368   1.43322
 Alpha virt. eigenvalues --    1.43322   1.43423   1.43732   1.44341   1.44378
 Alpha virt. eigenvalues --    1.45812   1.45918   1.45918   1.46034   1.46109
 Alpha virt. eigenvalues --    1.46109   1.48671   1.48788   1.50375   1.50375
 Alpha virt. eigenvalues --    1.50383   1.55758   1.55758   1.55891   1.55970
 Alpha virt. eigenvalues --    1.61855   1.66865   1.67004   1.74699   1.75007
 Alpha virt. eigenvalues --    1.75007   1.78286   1.79783   1.79785   1.79785
 Alpha virt. eigenvalues --    1.82203   1.82203   1.82317   1.84241   1.84241
 Alpha virt. eigenvalues --    1.84616   1.85075   1.85136   1.88758   1.88758
 Alpha virt. eigenvalues --    1.88908   1.93439   1.93791   1.93791   1.95126
 Alpha virt. eigenvalues --    1.95126   1.95342   1.96884   1.98418   1.98465
 Alpha virt. eigenvalues --    1.98465   2.04752   2.04806   2.11467   2.18258
 Alpha virt. eigenvalues --    2.18406   2.18406   2.20691   2.21415   2.23151
[...]
     Eigenvalues ---    0.07392   0.08409   0.08410   0.09228   0.10654
     Eigenvalues ---    0.26116   0.26116   2.27296   2.27628   2.35128
     Eigenvalues ---    2.35332   2.35337   2.36460
 Angle between quadratic step and forces=  83.02 degrees.
 Linear search not attempted -- first point.
 B after Tr=     0.000006    0.000018   -0.000022
         Rot=    1.000000   -0.000001    0.000000    0.000000 Ang=  -0.00 deg.
 Variable       Old X    -DE/DX   Delta X   Delta X   Delta X     New X
                                 (Linear)    (Quad)   (Total)
    X1       -0.68553   0.00000   0.00000   0.00011   0.00012  -0.68541
    Y1       -0.72048  -0.00000   0.00000   0.00035   0.00037  -0.72012
    Z1        0.00034  -0.00001   0.00000  -0.00032  -0.00034   0.00000
    X2       -0.68462  -0.00000   0.00000   0.00000   0.00001  -0.68461
    Y2        3.11169   0.00001   0.00000   0.00032   0.00034   3.11204
    Z2       -0.00219   0.00000   0.00000  -0.00025  -0.00027  -0.00245
    X3        3.14664   0.00002   0.00000   0.00010   0.00010   3.14674
    Y3       -0.72131   0.00000   0.00000   0.00037   0.00039  -0.72092
    Z3       -0.00049   0.00000   0.00000  -0.00006  -0.00008  -0.00057
    X4       -0.68476   0.00001   0.00000   0.00001   0.00001  -0.68475
    Y4       -0.71738   0.00002   0.00000   0.00012   0.00014  -0.71724
    Z4        4.50806   0.00016   0.00000   0.00000  -0.00002   4.50804
    X5       -0.68639   0.00000   0.00000   0.00016   0.00017  -0.68622
    Y5       -4.55265  -0.00001   0.00000   0.00036   0.00038  -4.55227
    Z5        0.00234   0.00000   0.00000   0.00014   0.00012   0.00245
    X6       -4.51770  -0.00001   0.00000   0.00013   0.00013  -4.51757
    Y6       -0.71960  -0.00000   0.00000   0.00027   0.00028  -0.71931
    Z6        0.00049   0.00000   0.00000   0.00010   0.00008   0.00057
    X7       -0.68606   0.00000   0.00000  -0.00003  -0.00002  -0.68608
    Y7       -0.72277   0.00000   0.00000  -0.00025  -0.00023  -0.72300
    Z7       -4.50817  -0.00001   0.00000   0.00016   0.00013  -4.50804
    X8       -0.68421   0.00000   0.00000   0.00005   0.00006  -0.68415
    Y8        5.32190  -0.00001   0.00000   0.00032   0.00034   5.32224
    Z8       -0.00362  -0.00000   0.00000  -0.00023  -0.00025  -0.00387
    X9        5.35685  -0.00002   0.00000   0.00008   0.00009   5.35694
    Y9       -0.72157  -0.00000   0.00000   0.00018   0.00019  -0.72138
    Z9       -0.00093   0.00000   0.00000   0.00004   0.00002  -0.00090
   X10       -0.68381  -0.00001   0.00000  -0.00062  -0.00061  -0.68442
   Y10       -0.71390  -0.00002   0.00000  -0.00195  -0.00194  -0.71583
   Z10        6.72748  -0.00016   0.00000  -0.00013  -0.00016   6.72733
   X11       -0.68671  -0.00000   0.00000   0.00003   0.00003  -0.68668
   Y11       -6.76286   0.00001   0.00000   0.00037   0.00039  -6.76247
   Z11        0.00357   0.00000   0.00000   0.00032   0.00030   0.00386
   X12       -6.72792   0.00002   0.00000   0.00014   0.00015  -6.72777
   Y12       -0.71919   0.00000   0.00000   0.00032   0.00034  -0.71886
   Z12        0.00058   0.00000   0.00000   0.00034   0.00032   0.00089
   X13       -0.68618  -0.00000   0.00000  -0.00025  -0.00024  -0.68642
   Y13       -0.72344  -0.00000   0.00000  -0.00101  -0.00098  -0.72443
   Z13       -6.72748   0.00002   0.00000   0.00018   0.00015  -6.72732
         Item               Value     Threshold  Converged?
 Maximum Force            0.000161     0.000450     YES
 RMS     Force            0.000038     0.000300     YES
 Maximum Displacement     0.001938     0.001800     NO 
 RMS     Displacement     0.000421     0.001200     YES
 Predicted change in Energy=-3.745784D-08
 GradGradGradGradGradGradGradGradGradGradGradGradGradGradGradGradGradGrad

 Leave Link  103 at Mon Jul 22 18:01:49 2024, MaxMem=120795955200 cpu:               0.8 elap:               0.0
 (Enter /gpfs/fs1/soft/improv/software/custom-built/gaussian/g16/l9999.exe)

 ----------------------------------------------------------------------

 Electric dipole moment (input orientation):
 (Debye = 10**-18 statcoulomb cm , SI units = C m)
                  (au)            (Debye)         (10**-30 SI)
   Tot        0.184120D-03      0.467987D-03      0.156104D-02
   x          0.417020D-04      0.105996D-03      0.353564D-03
   y          0.769554D-04      0.195601D-03      0.652455D-03
   z         -0.161985D-03     -0.411724D-03     -0.137336D-02

 Dipole polarizability, Alpha (input orientation).
 (esu units = cm**3 , SI units = C**2 m**2 J**-1)
 Alpha(0;0):
               (au)            (10**-24 esu)      (10**-40 SI)
   iso        0.480809D+03      0.712485D+02      0.792747D+02
   aniso      0.897890D+02      0.133054D+02      0.148042D+02
   xx         0.510738D+03      0.756836D+02      0.842094D+02
   yx        -0.988380D-03     -0.146463D-03     -0.162962D-03
   yy         0.510739D+03      0.756837D+02      0.842095D+02
   zx        -0.219735D-01     -0.325614D-02     -0.362295D-02
   zy        -0.730048D-01     -0.108182D-01     -0.120369D-01
   zz         0.420950D+03      0.623783D+02      0.694052D+02

 ----------------------------------------------------------------------

 Dipole orientation:
    26         -0.63046441          0.61885890         -0.45670766
     6         -0.82313649         -2.85607988          1.14743452
     6          3.09697994          0.81294731          0.41164293
     6          0.39110177         -1.26797913         -4.42101977
     6         -0.43785471          4.09401572         -2.06035697
     6         -4.35806435          0.42500276         -1.32442880
     6         -1.65201407          2.50529821          3.50870496
     7         -0.93436665         -4.86026576          2.07257389
     7          5.24679400          0.92467479          0.91251489
     7          0.89453312         -2.19872306         -6.37194553
     7         -0.32658187          6.09829533         -2.98530000
     7         -6.50796408          0.31329740         -1.82493387
     7         -2.15474612          3.43349091          5.46089235

 Electric dipole moment (dipole orientation):
 (Debye = 10**-18 statcoulomb cm , SI units = C m)
                  (au)            (Debye)         (10**-30 SI)
   Tot        0.184120D-03      0.467987D-03      0.156104D-02
   x          0.000000D+00      0.000000D+00      0.000000D+00
   y          0.000000D+00      0.000000D+00      0.000000D+00
   z          0.184120D-03      0.467987D-03      0.156104D-02

 Dipole polarizability, Alpha (dipole orientation).
 (esu units = cm**3 , SI units = C**2 m**2 J**-1)
 Alpha(0;0):
               (au)            (10**-24 esu)      (10**-40 SI)
   iso        0.480809D+03      0.712485D+02      0.792747D+02
   aniso      0.897890D+02      0.133054D+02      0.148042D+02
   xx         0.506124D+03      0.749999D+02      0.834486D+02
   yx         0.852296D+01      0.126297D+01      0.140525D+01
   yy         0.494999D+03      0.733513D+02      0.816143D+02
   zx         0.178987D+02      0.265232D+01      0.295110D+01
   zy        -0.330591D+02     -0.489885D+01     -0.545071D+01
   zz         0.441304D+03      0.653945D+02      0.727611D+02

 ----------------------------------------------------------------------
 Unable to Open any file for archive entry.
 1\1\GINC-I814\Freq\UB3LYP\6-31+G(2df,p)\C6Fe1N6(4-,5)\HHARB\22-Jul-202
 4\0\\#P Geom=AllCheck Guess=TCheck SCRF=Check GenChk UB3LYP/6-31+G(2df
 ,p) Freq\\title\\-4,5\Fe,-0.3627692036,-0.3812632769,0.0001825459\C,-0
 .3622849025,1.6466378982,-0.0011570598\C,1.66512894,-0.3817011947,-0.0
 00259468\C,-0.3623587063,-0.3796187019,2.3855638276\C,-0.3632207324,-2
 .4091584395,0.0012369897\C,-2.3906658084,-0.3807934822,0.0002614911\C,
 -0.3630499246,-0.3824734957,-2.3856209198\N,-0.3620667656,2.8162289391
 ,-0.001916036\N,2.8347250286,-0.3818405731,-0.0004896562\N,-0.36185676
 46,-0.3777771253,3.5600303748\N,-0.3633908696,-3.5787521775,0.00188894
 51\N,-3.5602614256,-0.3805812872,0.0003057102\N,-0.3631086853,-0.38283
 00833,-3.5600267446\\Version=ES64L-G16RevC.02\State=5-A\HF=-1820.44861
 07\S2=6.051819\S2-1=0.\S2A=6.0005\RMSD=2.944e-09\RMSF=3.753e-05\ZeroPo
 int=0.045859\Thermal=0.0622591\ETot=-1820.3863516\HTot=-1820.3854074\G
 Tot=-1820.4481713\Dipole=0.0000417,0.000077,-0.000162\DipoleDeriv=-2.3
 573226,0.0005162,0.0002017,-0.0003314,-2.3573246,0.0004191,0.0003044,0
 .0002813,-1.6540537,0.3759215,0.0011787,-0.0000405,-0.0003818,0.132985
 6,0.0000696,-0.0000146,0.0009933,0.2330616,0.1328922,0.0004017,0.00001
 56,-0.0016288,0.375969,-0.000226,0.0008474,-0.0000704,0.2332189,0.0666
 23,-0.0007109,0.0004691,0.0007027,0.0665127,0.0017294,-0.0000065,0.000
 0392,0.0029329,0.3761715,0.001379,-0.0000408,-0.0003947,0.1327036,0.00
 00863,-0.000015,-0.0004236,0.2335121,0.1328053,0.0003595,0.0000072,-0.
 0010941,0.3761225,-0.0002267,-0.0008137,-0.0000739,0.2333546,0.0652506
 ,-0.0007062,-0.000171,0.0007043,0.065361,-0.0004067,-0.000029,-0.00003
 77,0.0031279,-0.3547651,-0.0008992,-0.0000113,0.0007329,-0.7210053,0.0
 001661,-0.0000265,-0.0000007,-0.3519368,-0.7209465,-0.000679,0.0000129
 ,0.0010241,-0.3547607,0.0000248,-0.000116,-0.0000224,-0.3519533,-0.320
 5534,0.000432,-0.0005583,-0.000433,-0.3205376,-0.0019844,-0.0001083,-0
 .0004611,-0.9385281,-0.35478,-0.0009442,-0.0000108,0.000706,-0.7208296
 ,0.0002271,-0.0000256,0.0002187,-0.351982,-0.7208978,-0.0007594,0.0000
 609,0.0008275,-0.3547834,0.0000253,0.0001045,-0.0000207,-0.351965,-0.3
 203985,0.0004318,0.000065,-0.0004337,-0.3204132,0.0000959,-0.0001009,-
 0.000422,-0.9387891\Polar=510.7382425,-0.0009884,510.739145,-0.0219735
 ,-0.0730048,420.949748\Quadrupole=3.8721933,3.8722594,-7.7444527,-0.00
 00619,-0.0032782,-0.0122031\PG=C01 [X(C6Fe1N6)]\NImag=0\\0.23337005,0.
 00000001,0.23336948,-0.00002204,-0.00010284,0.05157011,-0.04324865,0.0
 0002745,0.00000391,0.06946699,0.00000008,-0.07608556,0.00004293,0.0002
 0480,1.24040177,0.00000362,0.00004064,-0.01780709,-0.00000164,-0.00076
 915,0.05689034,-0.07608622,0.00000038,0.00001760,-0.00057033,0.0042449
 0,-0.00000382,1.24036636,-0.00002995,-0.04324791,0.00001560,0.01485378
 ,-0.00056050,-0.00000311,-0.00012902,0.06947172,0.00001394,0.00001483,
 -0.01780714,-0.00000917,-0.00000225,-0.00063488,-0.00023431,-0.0000071
 5,0.05689123,-0.01133030,0.00001119,-0.00000839,-0.00143413,-0.0000051
 3,0.00000405,-0.00153866,0.00000691,0.01106466,0.03408998,-0.00001129,
 -0.01133031,-0.00002923,0.00000258,-0.00153413,0.01106574,0.00000596,-
 0.00143502,-0.00000127,0.00000077,0.03409359,0.00000048,0.00000061,-0.
 01558939,-0.00000345,0.00208931,-0.00345803,0.00209080,0.00000252,-0.0
 0345057,0.00047835,0.00175772,1.16282915,-0.04324726,0.00002895,0.0000
 0394,0.00388115,-0.00001298,-0.00000101,-0.00055985,-0.01485442,0.0000
 0719,-0.00143660,-0.00000112,0.00000306,0.06946936,0.00000014,-0.07608
 751,0.00002456,-0.00001326,-0.00327400,0.00000216,-0.00424445,-0.00057
 039,0.00000215,-0.00000534,-0.00154721,-0.00209301,0.00015852,1.240383
 89,0.00000366,0.00003025,-0.01780711,-0.00000101,-0.00000047,-0.004223
 98,0.00000025,0.00000306,-0.00063468,-0.00000260,-0.01106328,-0.003437
 89,-0.00000161,-0.00065770,0.05688371,-0.07608719,0.00000073,-0.000001
 78,-0.00056014,-0.00424470,0.00000364,-0.00327403,0.00001268,0.0000020
 6,-0.00154149,0.00000451,-0.00209161,-0.00057009,0.00424431,-0.0000004
 5,1.24037094,-0.00002676,-0.04324793,0.00001563,-0.01485375,-0.0005696
 2,0.00000061,0.00001312,0.00388114,-0.00000465,-0.00000830,-0.00143597
 ,-0.00000395,0.01485448,-0.00055993,-0.00000068,-0.00019969,0.06947073
 ,0.00000090,0.00001489,-0.01780690,0.00000907,-0.00000140,-0.00063507,
 -0.00000195,-0.00000466,-0.00422396,-0.01106326,0.00000534,-0.00344509
 ,-0.00000728,0.00000124,-0.00063460,-0.00004521,-0.00000715,0.05688798
 ,-0.01132609,0.00001111,0.00000172,-0.00143472,-0.00000550,-0.00000380
 ,-0.00154526,-0.00000612,-0.01106503,-0.00199041,-0.00000002,-0.000000
 07,-0.00143652,-0.00000490,0.00000285,-0.00154193,0.00000473,0.0110635
 2,0.03402030,-0.00001128,-0.01132610,0.00000449,-0.00000041,-0.0015503
 2,-0.01106753,0.00000363,-0.00143532,0.00000152,-0.00000002,-0.0019904
 1,-0.00000005,0.00000190,-0.00153568,0.01105999,0.00000685,-0.00143564
 ,-0.00000510,0.00000007,0.03401928,-0.00000083,-0.00000356,-0.01557110
 ,0.00000274,-0.00209442,-0.00344274,-0.00209320,-0.00000500,-0.0034466
 0,0.00000053,0.00000191,-0.00275033,-0.00000377,0.00209173,-0.00345259
 ,0.00209281,0.00000146,-0.00344900,0.00005735,0.00034707,1.16327401,0.
 01102889,-0.00003280,-0.00000144,-0.02857169,-0.00019017,0.00000050,-0
 .00015852,-0.00218028,0.00000139,0.00075235,-0.00000042,0.00000467,-0.
 00141608,0.00000205,0.00000014,-0.00016054,0.00219103,-0.00000112,0.00
 075277,-0.00000018,-0.00000464,0.01694297,-0.00000182,-0.00009756,0.00
 000315,-0.00020887,-1.15651385,0.00073410,-0.00004269,0.00141231,-0.00
 000052,0.00000219,-0.00103351,0.00073389,0.00000470,0.00028757,0.00000
 106,0.00004140,0.00143164,-0.00000051,0.00000234,-0.00102983,-0.000731
 51,0.00020390,1.15531041,-0.00000121,0.00000259,0.00556940,0.00000037,
 0.00073491,-0.02537590,0.00000039,-0.00000004,0.00044145,-0.00000225,-
 0.00150449,0.00042498,0.00000017,-0.00000033,0.00071829,-0.00000005,-0
 .00000089,0.00043853,0.00000178,0.00150538,0.00042472,0.00000024,-0.00
 073929,0.01604766,-0.00009836,0.00000017,-0.00000024,0.00143201,-0.000
 04133,-0.00000003,-1.15647775,0.00013466,0.00022251,-0.00103244,-0.000
 00404,0.00073327,0.00141236,0.00004279,-0.00000013,0.00028759,-0.00000
 466,0.00000183,-0.00102947,-0.00000355,-0.00073210,0.00020996,0.002134
 80,-0.00000143,1.15527512,0.00003302,0.01102899,-0.00000413,-0.0021907
 3,-0.00016053,0.00000098,0.00011353,-0.02857616,0.00000168,-0.00000098
 ,0.00075263,-0.00000539,0.00218088,-0.00015846,0.,-0.00000177,-0.00141
 605,0.00000108,0.00000073,0.00075277,0.00000500,0.00090040,0.00021183,
 -0.00000032,-0.00012818,0.01694735,0.00000062,-0.00000366,0.00556936,0
 .00000111,0.00000066,0.00043840,0.00022330,0.00000138,-0.02537863,-0.0
 0150374,0.00000041,0.00042495,-0.00000136,0.00000021,0.00044134,-0.000
 00041,0.00000120,0.00071790,0.00150404,-0.00000163,0.00042490,-0.00000
 053,-0.00000052,-0.00002334,-0.00022431,0.00000015,0.01605046,0.003047
 94,-0.00000810,0.00000801,0.00052137,0.00000288,-0.00000242,-0.0001418
 5,0.00000144,-0.00172404,-0.01428521,0.00000351,-0.00047795,0.00052264
 ,0.00000247,-0.00000007,-0.00014143,0.00000493,0.00172217,0.00002549,0
 .00000075,-0.00000092,-0.00012890,-0.00000035,0.00000292,0.00065534,-0
 .00000225,0.00070026,0.00914536,0.00000808,0.00304794,0.00002902,-0.00
 000368,-0.00014223,-0.00172640,-0.00000211,0.00052188,-0.00000309,-0.0
 0000496,-0.01428800,-0.00175355,-0.00000272,-0.00014089,0.00172007,-0.
 00000324,0.00052218,-0.00000545,-0.00000074,0.00002549,-0.00000327,0.0
 0000343,0.00065773,0.00070171,0.00000401,-0.00012919,-0.00000095,0.000
 00073,0.00914806,-0.00000063,-0.00000056,0.01426819,0.00000153,-0.0001
 5590,-0.00145306,-0.00015571,-0.00000424,-0.00145558,-0.00047195,-0.00
 173290,-1.13130909,-0.00000268,0.00015582,-0.00146010,0.00015579,-0.00
 000001,-0.00145752,-0.00000027,-0.00000123,-0.00108796,-0.00000155,0.0
 0168201,0.00063273,0.00168236,0.00000290,0.00063399,0.00047379,0.00173
 877,1.12351578,0.01102920,-0.00003313,-0.00000142,-0.00141602,0.000001
 94,0.00000014,-0.00016060,0.00219122,-0.00000084,0.00075297,0.00000005
 ,-0.00000488,-0.02857375,-0.00014347,0.00000045,-0.00015849,-0.0021808
 4,0.00000111,0.00075300,-0.00000021,0.00000491,0.00066639,0.00000048,-
 0.00000006,0.00021174,-0.00090059,0.00000045,-0.00012962,0.00000290,0.
 00000217,0.01694481,-0.00000119,-0.00009917,0.00000420,0.00000490,0.00
 028765,-0.00000212,0.00004130,0.00143247,-0.00000072,0.00000311,-0.001
 02989,-0.00073195,-0.00016348,-1.15649434,0.00063049,-0.00004271,0.001
 41267,-0.00000071,0.00000293,-0.00102944,0.00073329,0.00000039,-0.0014
 9986,0.00000144,-0.00213493,0.00020969,0.00000036,-0.00000197,0.000650
 99,-0.00168297,0.00015772,1.15529276,-0.00000118,0.00000225,0.00556915
 ,0.00000017,0.00000014,0.00071726,0.00000049,-0.00000111,0.00043824,0.
 00000131,0.00150257,0.00042500,0.00000032,0.00063001,-0.02537421,-0.00
 000017,-0.00000027,0.00044123,-0.00000178,-0.00150149,0.00042516,-0.00
 000006,0.00000083,0.00008894,0.00000117,0.00000002,-0.00002312,-0.0000
 0194,-0.00069776,0.00063607,0.00000027,-0.00063423,0.01604613,-0.00009
 862,0.00000210,0.00000060,0.00141266,0.00004249,-0.00000034,0.00028760
 ,-0.00000456,-0.00000198,-0.00103153,-0.00000125,-0.00073266,0.0014320
 2,-0.00004148,-0.00000023,-1.15648166,0.00020300,0.00004375,-0.0010292
 3,-0.00000176,0.00073262,0.00021163,-0.00213486,0.00000147,-0.00149986
 ,-0.00000056,0.00000065,0.00065347,-0.00000169,-0.00168267,0.00020982,
 0.00213498,-0.00000113,1.15527957,0.00003286,0.01102904,-0.00000411,0.
 00218032,-0.00015856,0.00000047,-0.00000218,-0.00141604,0.00000108,0.0
 0000130,0.00075275,0.00000413,-0.00219143,-0.00016058,0.00000052,0.000
 18462,-0.02857543,0.00000168,-0.00000039,0.00075292,-0.00000452,-0.000
 90043,0.00021001,-0.00000012,-0.00000039,0.00066639,-0.00000031,-0.000
 00406,-0.00012935,-0.00000086,0.00090067,0.00021161,-0.00000019,-0.000
 19808,0.01694664,0.00000060,-0.00000366,0.00556915,-0.00000143,0.00000
 069,0.00044138,0.00000034,0.00000121,0.00071764,0.00150303,-0.00000314
 ,0.00042489,0.00000103,0.00000018,0.00043831,0.00004176,0.00000140,-0.
 02537686,-0.00150308,0.00000193,0.00042513,0.00000051,-0.00000004,-0.0
 0002332,-0.00000015,-0.00000031,0.00008894,-0.00069902,0.00000389,0.00
 063473,-0.00000048,-0.00000013,-0.00002306,-0.00004299,0.00000013,0.01
 604878,0.00304660,-0.00000807,-0.00000047,0.00052149,0.00000270,0.0000
 0110,-0.00014089,0.00000369,0.00172363,0.00002549,0.00000075,-0.000000
 01,0.00052262,0.00000263,-0.00000126,-0.00014155,0.00000269,-0.0017235
 6,-0.01421792,0.00000422,-0.00005550,-0.00012923,-0.00000124,-0.000002
 33,0.00065375,-0.00000350,-0.00070009,0.00025540,0.,-0.00000017,-0.000
 12945,-0.00000107,0.00000252,0.00065413,-0.00000282,0.00069986,0.00907
 956,0.00000809,0.00304659,0.00000074,-0.00000313,-0.00014012,0.0017236
 3,-0.00000237,0.00052184,-0.00000161,-0.00000074,0.00002549,-0.0000002
 7,-0.00000328,-0.00014247,-0.00172331,-0.00000299,0.00052221,0.0000007
 4,-0.00000424,-0.01421771,-0.00033819,0.00000308,0.00065311,-0.0007005
 4,0.00000065,-0.00012925,0.00000271,0.,0.00025540,-0.00000085,0.000003
 25,0.00065485,0.00069922,0.00000168,-0.00012938,-0.00000215,0.,0.00907
 945,0.00000207,0.00000821,0.01427337,-0.00000222,0.00015495,-0.0014566
 4,0.00015582,0.00000155,-0.00145650,0.00000026,0.00000061,-0.00108860,
 0.00000200,-0.00015701,-0.00145650,-0.00015638,-0.00000268,-0.00145665
 ,-0.00005724,-0.00034337,-1.13177360,0.00000190,-0.00168265,0.00063586
 ,-0.00168276,-0.00000166,0.00063485,-0.00000080,-0.00000298,-0.0020981
 9,-0.00000183,0.00168306,0.00063321,0.00168290,0.00000210,0.00063430,0
 .00005627,0.00033987,1.12397511\\-0.00000075,0.00000026,0.00001458,0.0
 0000359,-0.00000602,-0.00000253,-0.00001590,-0.00000282,-0.00000166,-0
 .00000583,-0.00002303,-0.00016131,-0.00000318,0.00000931,-0.00000024,0
 .00001401,0.00000272,-0.00000150,-0.00000181,-0.00000260,0.00001288,-0
 .00000181,0.00000904,0.00000029,0.00001850,0.00000354,-0.00000020,0.00
 000526,0.00001811,0.00016051,0.00000274,-0.00001161,-0.00000093,-0.000
 01636,-0.00000153,-0.00000147,0.00000155,0.00000464,-0.00001845\\\@
 The archive entry for this job was punched.


 FROM AN ANONYMOUS WRITER, ON PERSPECTIVE:

 MAN, DESPITE HIS ARTISTIC PRETENSIONS, HIS SOPHISTICATION AND MANY 
 ACCOMPLISHMENTS, OWES THE FACT OF HIS EXISTENCE TO A SIX-INCH LAYER OF 
 TOPSOIL AND THE FACT THAT IT RAINS.
 Job cpu time:       0 days  7 hours 41 minutes 54.7 seconds.
 Elapsed time:       0 days  0 hours  3 minutes 45.1 seconds.
 File lengths (MBytes):  RWF=    493 Int=      0 D2E=      0 Chk=     48 Scr=      1
 Normal termination of Gaussian 16 at Mon Jul 22 18:01:49 2024.
