 Entering Gaussian System, Link 0=g16
 Input=Fe_CN6_minus3_LS.com
 Output=Fe_CN6_minus3_LS.log
 Initial command:
 /gpfs/fs1/soft/improv/software/custom-built/gaussian/g16/l1.exe "/scratch/Gau-3035780.inp" -scrdir="/scratch/"
 Default CPUs for threads: 0-127
 Default linda workers: i817.lcrc.anl.gov
 Default is to use 128 SMP processors on each worker.
 Entering Link 1 = /gpfs/fs1/soft/improv/software/custom-built/gaussian/g16/l1.exe PID=   3035781.
  
 Copyright (c) 1988-2021, Gaussian, Inc.  All Rights Reserved.
  
 This is part of the Gaussian(R) 16 program.  It is based on
 the Gaussian(R) 09 system (copyright 2009, Gaussian, Inc.),
 the Gaussian(R) 03 system (copyright 2003, Gaussian, Inc.),
 the Gaussian(R) 98 system (copyright 1998, Gaussian, Inc.),
 the Gaussian(R) 94 system (copyright 1995, Gaussian, Inc.),
 the Gaussian 92(TM) system (copyright 1992, Gaussian, Inc.),
 the Gaussian 90(TM) system (copyright 1990, Gaussian, Inc.),
 the Gaussian 88(TM) system (copyright 1988, Gaussian, Inc.),
 the Gaussian 86(TM) system (copyright 1986, Carnegie Mellon
 University), and the Gaussian 82(TM) system (copyright 1983,
 Carnegie Mellon University). Gaussian is a federally registered
 trademark of Gaussian, Inc.
  
 This software contains proprietary and confidential information,
 including trade secrets, belonging to Gaussian, Inc.
  
 This software is provided under written license and may be
 used, copied, transmitted, or stored only in accord with that
 written license.
  
 The following legend is applicable only to US Government
 contracts under FAR:
  
                    RESTRICTED RIGHTS LEGEND
  
 Use, reproduction and disclosure by the US Government is
 subject to restrictions as set forth in subparagraphs (a)
 and (c) of the Commercial Computer Software - Restricted
 Rights clause in FAR 52.227-19.
  
 Gaussian, Inc.
 340 Quinnipiac St., Bldg. 40, Wallingford CT 06492
  
  
 ---------------------------------------------------------------
 Warning -- This program may not be used in any manner that
 competes with the business of Gaussian, Inc. or will provide
 assistance to any competitor of Gaussian, Inc.  The licensee
 of this program is prohibited from giving any competitor of
 Gaussian, Inc. access to this program.  By using this program,
 the user acknowledges that Gaussian, Inc. is engaged in the
 business of creating and licensing software in the field of
 computational chemistry and represents and warrants to the
 licensee that it is not a competitor of Gaussian, Inc. and that
 it will not use this program in any manner prohibited above.
 ---------------------------------------------------------------
  

 Cite this work as:
 Gaussian 16, Revision C.02,
 M. J. Frisch, G. W. Trucks, H. B. Schlegel, G. E. Scuseria, 
 M. A. Robb, J. R. Cheeseman, G. Scalmani, V. Barone, 
 G. A. Petersson, H. Nakatsuji, X. Li, M. Caricato, A. V. Marenich, 
 J. Bloino, B. G. Janesko, R. Gomperts, B. Mennucci, H. P. Hratchian, 
 J. V. Ortiz, A. F. Izmaylov, J. L. Sonnenberg, D. Williams-Young, 
 F. Ding, F. Lipparini, F. Egidi, J. Goings, B. Peng, A. Petrone, 
 T. Henderson, D. Ranasinghe, V. G. Zakrzewski, J. Gao, N. Rega, 
 G. Zheng, W. Liang, M. Hada, M. Ehara, K. Toyota, R. Fukuda, 
 J. Hasegawa, M. Ishida, T. Nakajima, Y. Honda, O. Kitao, H. Nakai, 
 T. Vreven, K. Throssell, J. A. Montgomery, Jr., J. E. Peralta, 
 F. Ogliaro, M. J. Bearpark, J. J. Heyd, E. N. Brothers, K. N. Kudin, 
 V. N. Staroverov, T. A. Keith, R. Kobayashi, J. Normand, 
 K. Raghavachari, A. P. Rendell, J. C. Burant, S. S. Iyengar, 
 J. Tomasi, M. Cossi, J. M. Millam, M. Klene, C. Adamo, R. Cammi, 
 J. W. Ochterski, R. L. Martin, K. Morokuma, O. Farkas, 
 J. B. Foresman, and D. J. Fox, Gaussian, Inc., Wallingford CT, 2019.
 
 ******************************************
 Gaussian 16:  ES64L-G16RevC.02  7-Dec-2021
                22-Jul-2024 
 ******************************************
 %chk=Fe_CN6_minus3_LS
 SetSPE:  set environment variable "OMP_PROC_BIND" = "true"
 SetSPE:  set environment variable "OMP_PLACES" = "{0},{1},{2},{3},{4},{5},{6},{7},{8},{9},{10},{11},{12},{13},{14},{15},{16},{17},{18},{19},{20},{21},{22},{23},{24},{25},{26},{27},{28},{29},{30},{31},{32},{33},{34},{35},{36},{37},{38},{39},{40},{41},{42},{43},{44},{45},{46},{47},{48},{49},{50},{51},{52},{53},{54},{55},{56},{57},{58},{59},{60},{61},{62},{63},{64},{65},{66},{67},{68},{69},{70},{71},{72},{73},{74},{75},{76},{77},{78},{79},{80},{81},{82},{83},{84},{85},{86},{87},{88},{89},{90},{91},{92},{93},{94},{95},{96},{97},{98},{99},{100},{101},{102},{103},{104},{105},{106},{107},{108},{109},{110},{111},{112},{113},{114},{115},{116},{117},{118},{119},{120},{121},{122},{123},{124},{125},{126},{127}"
 SetLPE:    new flags="-opt 'Tsnet.Node.lindarsharg: ssh'  -nodelist 'i817.lcrc.anl.gov' -env GAUSS_MDEF=120795955200 -env GAUSS_EXEDIR="/gpfs/fs1/soft/improv/software/custom-built/gaussian/g16/bsd:/gpfs/fs1/soft/improv/software/custom-built/gaussian/g16" -env "OMP_PROC_BIND=true" -env "OMP_PLACES={0},{1},{2},{3},{4},{5},{6},{7},{8},{9},{10},{11},{12},{13},{14},{15},{16},{17},{18},{19},{20},{21},{22},{23},{24},{25},{26},{27},{28},{29},{30},{31},{32},{33},{34},{35},{36},{37},{38},{39},{40},{41},{42},{43},{44},{45},{46},{47},{48},{49},{50},{51},{52},{53},{54},{55},{56},{57},{58},{59},{60},{61},{62},{63},{64},{65},{66},{67},{68},{69},{70},{71},{72},{73},{74},{75},{76},{77},{78},{79},{80},{81},{82},{83},{84},{85},{86},{87},{88},{89},{90},{91},{92},{93},{94},{95},{96},{97},{98},{99},{100},{101},{102},{103},{104},{105},{106},{107},{108},{109},{110},{111},{112},{113},{114},{115},{116},{117},{118},{119},{120},{121},{122},{123},{124},{125},{126},{127}" -env GAUSS_ADEF="0,1,2,3,4,5,6,7,8,9,10,11,12,13,14,15,16,17,18,19,20,21,22,23,24,25,26,27,28,29,30,31,32,33,34,35,36,37,38,39,40,41,42,43,44,45,46,47,48,49,50,51,52,53,54,55,56,57,58,59,60,61,62,63,64,65,66,67,68,69,70,71,72,73,74,75,76,77,78,79,80,81,82,83,84,85,86,87,88,89,90,91,92,93,94,95,96,97,98,99,100,101,102,103,104,105,106,107,108,109,110,111,112,113,114,115,116,117,118,119,120,121,122,123,124,125,126,127""
 Will use up to    1 processors via Linda.
 ----------------------------------------------------------------------
 #p B3LYP 6-31+G(2df,p) empiricaldispersion=gd3 opt=(cartesian,calcall,
 maxcycles=500) freq scf=(maxcycles=500,xqc,maxconventional=50)
 ----------------------------------------------------------------------
 1/6=500,10=4,18=10,26=3,38=1/1,3;
 2/12=2,17=6,18=5,29=2,40=1/2;
 3/5=1,6=6,7=114,11=2,25=1,30=1,71=2,74=-5,124=31,140=1/1,2,3;
 4//1;
 5/5=2,7=500,8=3,13=1,38=5,85=50/2,8;
 8/6=4,10=90,11=11/1;
 11/6=1,8=1,9=11,15=111,16=1/1,2,10;
 10/6=1/2;
 6/7=2,8=2,9=2,10=2,18=1,28=1/1;
 7/7=1,10=1,25=1/1,2,3,16;
 1/6=500,10=4,18=10,26=3/3(3);
 2/29=1/2;
 7/7=1,8=1,9=1,25=1,44=-1/16;
 99/12=1/99;
 2/29=1/2;
 3/5=1,6=6,7=114,11=2,25=1,30=1,71=2,74=-5,124=31,140=1/1,2,3;
 4/5=5,16=3,69=1/1;
 5/5=2,7=500,8=3,13=1,38=5,85=50/2,8;
 8/6=4,10=90,11=11/1;
 11/6=1,8=1,9=11,15=111,16=1/1,2,10;
 10/6=1/2;
 7/7=1,10=1,25=1/1,2,3,16;
 1/6=500,10=4,18=10,26=3/3(-8);
 2/29=1/2;
 6/7=2,8=2,9=2,10=2,18=1,19=2,28=1/1;
 7/7=1,8=1,9=1,25=1,44=-1/16;
 99/12=1/99;
 Leave Link    1 at Mon Jul 22 16:49:18 2024, MaxMem=           0 cpu:               5.7 elap:               0.1
 (Enter /gpfs/fs1/soft/improv/software/custom-built/gaussian/g16/l101.exe)
 -----
 title
 -----
 Symbolic Z-matrix:
 Charge = -3 Multiplicity = 2
 Fe                   -0.36271  -0.38107   0. 
 C                    -0.36271   1.54893   0. 
 C                     1.56729  -0.38107   0. 
 C                    -0.36271  -0.38107   1.93 
 C                    -0.36271  -2.31107   0. 
 C                    -2.29271  -0.38107   0. 
 C                    -0.36271  -0.38107  -1.93 
 N                    -0.36271   2.69553   0. 
 N                     2.71389  -0.38107   0. 
 N                    -0.36271  -0.38107   3.0766 
 N                    -0.36271  -3.45767   0. 
 N                    -3.43931  -0.38107   0. 
 N                    -0.36271  -0.38107  -3.0766 
 
 ITRead=  0  0  0  0  0  0  0  0  0  0  0  0  0
 MicOpt= -1 -1 -1 -1 -1 -1 -1 -1 -1 -1 -1 -1 -1
 NAtoms=     13 NQM=       13 NQMF=       0 NMMI=      0 NMMIF=      0
                NMic=       0 NMicF=      0.
                    Isotopes and Nuclear Properties:
 (Nuclear quadrupole moments (NQMom) in fm**2, nuclear magnetic moments (NMagM)
  in nuclear magnetons)

  Atom         1           2           3           4           5           6           7           8           9          10
 IAtWgt=          56          12          12          12          12          12          12          14          14          14
 AtmWgt=  55.9349393  12.0000000  12.0000000  12.0000000  12.0000000  12.0000000  12.0000000  14.0030740  14.0030740  14.0030740
 NucSpn=           0           0           0           0           0           0           0           2           2           2
 AtZEff=  -0.0000000  -0.0000000  -0.0000000  -0.0000000  -0.0000000  -0.0000000  -0.0000000  -0.0000000  -0.0000000  -0.0000000
 NQMom=    0.0000000   0.0000000   0.0000000   0.0000000   0.0000000   0.0000000   0.0000000   2.0440000   2.0440000   2.0440000
 NMagM=    0.0000000   0.0000000   0.0000000   0.0000000   0.0000000   0.0000000   0.0000000   0.4037610   0.4037610   0.4037610
 AtZNuc=  26.0000000   6.0000000   6.0000000   6.0000000   6.0000000   6.0000000   6.0000000   7.0000000   7.0000000   7.0000000

  Atom        11          12          13
 IAtWgt=          14          14          14
 AtmWgt=  14.0030740  14.0030740  14.0030740
 NucSpn=           2           2           2
 AtZEff=  -0.0000000  -0.0000000  -0.0000000
 NQMom=    2.0440000   2.0440000   2.0440000
 NMagM=    0.4037610   0.4037610   0.4037610
 AtZNuc=   7.0000000   7.0000000   7.0000000
 Leave Link  101 at Mon Jul 22 16:49:18 2024, MaxMem=120795955200 cpu:               0.3 elap:               0.0
 (Enter /gpfs/fs1/soft/improv/software/custom-built/gaussian/g16/l103.exe)

 GradGradGradGradGradGradGradGradGradGradGradGradGradGradGradGradGradGrad
 Berny optimization.
 Initialization pass.
 No Z-matrix variables, so optimization will use Cartesian coordinates.
 Trust Radius=3.00D-01 FncErr=1.00D-07 GrdErr=1.00D-06 EigMax=2.50D+02 EigMin=1.00D-04
 Number of steps in this run=    100 maximum allowed number of steps=    100.
 GradGradGradGradGradGradGradGradGradGradGradGradGradGradGradGradGradGrad

 Leave Link  103 at Mon Jul 22 16:49:18 2024, MaxMem=120795955200 cpu:               0.4 elap:               0.0
 (Enter /gpfs/fs1/soft/improv/software/custom-built/gaussian/g16/l202.exe)
 ---------------------------------------------------------------------------------------------------
                            Z-MATRIX (ANGSTROMS AND DEGREES)
   CD    Cent   Atom    N1       Length/X        N2       Alpha/Y        N3        Beta/Z          J
 ---------------------------------------------------------------------------------------------------
      1      1  Fe       0  -0.362706         -0.381071          0.000000
      2      2  C        0  -0.362706          1.548929          0.000000
      3      3  C        0   1.567294         -0.381071          0.000000
      4      4  C        0  -0.362706         -0.381071          1.930000
      5      5  C        0  -0.362706         -2.311071          0.000000
      6      6  C        0  -2.292706         -0.381071          0.000000
      7      7  C        0  -0.362706         -0.381071         -1.930000
      8      8  N        0  -0.362706          2.695529         -0.000000
      9      9  N        0   2.713894         -0.381071          0.000000
     10     10  N        0  -0.362706         -0.381071          3.076600
     11     11  N        0  -0.362706         -3.457671          0.000000
     12     12  N        0  -3.439306         -0.381071          0.000000
     13     13  N        0  -0.362706         -0.381071         -3.076600
 ---------------------------------------------------------------------------------------------------
                         Z-Matrix orientation:                         
 ---------------------------------------------------------------------
 Center     Atomic      Atomic             Coordinates (Angstroms)
 Number     Number       Type             X           Y           Z
 ---------------------------------------------------------------------
      1         26           0       -0.362706   -0.381071    0.000000
      2          6           0       -0.362706    1.548929    0.000000
      3          6           0        1.567294   -0.381071    0.000000
      4          6           0       -0.362706   -0.381071    1.930000
      5          6           0       -0.362706   -2.311071    0.000000
      6          6           0       -2.292706   -0.381071    0.000000
      7          6           0       -0.362706   -0.381071   -1.930000
      8          7           0       -0.362706    2.695529   -0.000000
      9          7           0        2.713894   -0.381071    0.000000
     10          7           0       -0.362706   -0.381071    3.076600
     11          7           0       -0.362706   -3.457671    0.000000
     12          7           0       -3.439306   -0.381071    0.000000
     13          7           0       -0.362706   -0.381071   -3.076600
 ---------------------------------------------------------------------
                    Distance matrix (angstroms):
                    1          2          3          4          5
     1  Fe   0.000000
     2  C    1.930000   0.000000
     3  C    1.930000   2.729432   0.000000
     4  C    1.930000   2.729432   2.729432   0.000000
     5  C    1.930000   3.860000   2.729432   2.729432   0.000000
     6  C    1.930000   2.729432   3.860000   2.729432   2.729432
     7  C    1.930000   2.729432   2.729432   3.860000   2.729432
     8  N    3.076600   1.146600   3.631855   3.631855   5.006600
     9  N    3.076600   3.631855   1.146600   3.631855   3.631855
    10  N    3.076600   3.631855   3.631855   1.146600   3.631855
    11  N    3.076600   5.006600   3.631855   3.631855   1.146600
    12  N    3.076600   3.631855   5.006600   3.631855   3.631855
    13  N    3.076600   3.631855   3.631855   5.006600   3.631855
                    6          7          8          9         10
     6  C    0.000000
     7  C    2.729432   0.000000
     8  N    3.631855   3.631855   0.000000
     9  N    5.006600   3.631855   4.350969   0.000000
    10  N    3.631855   5.006600   4.350969   4.350969   0.000000
    11  N    3.631855   3.631855   6.153200   4.350969   4.350969
    12  N    1.146600   3.631855   4.350969   6.153200   4.350969
    13  N    3.631855   1.146600   4.350969   4.350969   6.153200
                   11         12         13
    11  N    0.000000
    12  N    4.350969   0.000000
    13  N    4.350969   4.350969   0.000000
 Stoichiometry    C6FeN6(3-,2)
 Framework group  OH[O(Fe),3C4(NC.CN)]
 Deg. of freedom     2
 Full point group                 OH      NOp  48
 Largest Abelian subgroup         D2H     NOp   8
 Largest concise Abelian subgroup D2H     NOp   8
                         Standard orientation:                         
 ---------------------------------------------------------------------
 Center     Atomic      Atomic             Coordinates (Angstroms)
 Number     Number       Type             X           Y           Z
 ---------------------------------------------------------------------
      1         26           0        0.000000    0.000000    0.000000
      2          6           0        0.000000    0.000000    1.930000
      3          6           0        0.000000    1.930000   -0.000000
      4          6           0        1.930000    0.000000    0.000000
      5          6           0        0.000000   -0.000000   -1.930000
      6          6           0        0.000000   -1.930000    0.000000
      7          6           0       -1.930000    0.000000   -0.000000
      8          7           0        0.000000    0.000000    3.076600
      9          7           0        0.000000    3.076600   -0.000000
     10          7           0        3.076600    0.000000    0.000000
     11          7           0        0.000000   -0.000000   -3.076600
     12          7           0        0.000000   -3.076600    0.000000
     13          7           0       -3.076600    0.000000   -0.000000
 ---------------------------------------------------------------------
 Rotational constants (GHZ):           0.7128277           0.7128277           0.7128277
 Leave Link  202 at Mon Jul 22 16:49:18 2024, MaxMem=120795955200 cpu:               1.3 elap:               0.0
 (Enter /gpfs/fs1/soft/improv/software/custom-built/gaussian/g16/l301.exe)
 Standard basis: 6-31+G(2df,p) (6D, 7F)
 Ernie: Thresh=  0.10000D-02 Tol=  0.10000D-05 Strict=F.
 There are   117 symmetry adapted cartesian basis functions of AG  symmetry.
 There are    44 symmetry adapted cartesian basis functions of B1G symmetry.
 There are    44 symmetry adapted cartesian basis functions of B2G symmetry.
 There are    44 symmetry adapted cartesian basis functions of B3G symmetry.
 There are    20 symmetry adapted cartesian basis functions of AU  symmetry.
 There are    76 symmetry adapted cartesian basis functions of B1U symmetry.
 There are    76 symmetry adapted cartesian basis functions of B2U symmetry.
 There are    76 symmetry adapted cartesian basis functions of B3U symmetry.
 There are   108 symmetry adapted basis functions of AG  symmetry.
 There are    39 symmetry adapted basis functions of B1G symmetry.
 There are    39 symmetry adapted basis functions of B2G symmetry.
 There are    39 symmetry adapted basis functions of B3G symmetry.
 There are    20 symmetry adapted basis functions of AU  symmetry.
 There are    68 symmetry adapted basis functions of B1U symmetry.
 There are    68 symmetry adapted basis functions of B2U symmetry.
 There are    68 symmetry adapted basis functions of B3U symmetry.
   449 basis functions,   718 primitive gaussians,   497 cartesian basis functions
    54 alpha electrons       53 beta electrons
       nuclear repulsion energy       916.9876679413 Hartrees.
 IExCor=  402 DFT=T Ex+Corr=B3LYP ExCW=0 ScaHFX=  0.200000
 ScaDFX=  0.800000  0.720000  1.000000  0.810000 ScalE2=  1.000000  1.000000
 IRadAn=      5 IRanWt=     -1 IRanGd=            0 ICorTp=0 IEmpDi=131
 NAtoms=   13 NActive=   13 NUniq=    3 SFac= 4.00D+00 NAtFMM=   60 NAOKFM=F Big=F
 Integral buffers will be    131072 words long.
 Raffenetti 2 integral format.
 Two-electron integral symmetry is turned on.
 R6Disp:  Grimme-D3 Dispersion energy=       -0.0150927704 Hartrees.
 Nuclear repulsion after empirical dispersion term =      916.9725751708 Hartrees.
 Leave Link  301 at Mon Jul 22 16:49:18 2024, MaxMem=120795955200 cpu:               0.4 elap:               0.1
 (Enter /gpfs/fs1/soft/improv/software/custom-built/gaussian/g16/l302.exe)
 NPDir=0 NMtPBC=     1 NCelOv=     1 NCel=       1 NClECP=     1 NCelD=      1
         NCelK=      1 NCelE2=     1 NClLst=     1 CellRange=     0.0.
 One-electron integrals computed using PRISM.
 One-electron integral symmetry used in STVInt
 NBasis=   449 RedAO= T EigKep=  3.68D-06  NBF=   108    39    39    39    20    68    68    68
 NBsUse=   446 1.00D-06 EigRej=  6.93D-08 NBFU=   108    39    39    39    20    67    67    67
 Precomputing XC quadrature grid using
 IXCGrd= 4 IRadAn=           5 IRanWt=          -1 IRanGd=           0 AccXCQ= 0.00D+00.
 Generated NRdTot=       0 NPtTot=           0 NUsed=           0 NTot=          32
 NSgBfM=   495   495   495   495   495 MxSgAt=    13 MxSgA2=    13.
 Leave Link  302 at Mon Jul 22 16:49:19 2024, MaxMem=120795955200 cpu:              64.9 elap:               0.6
 (Enter /gpfs/fs1/soft/improv/software/custom-built/gaussian/g16/l303.exe)
 DipDrv:  MaxL=1.
 Leave Link  303 at Mon Jul 22 16:49:19 2024, MaxMem=120795955200 cpu:               1.3 elap:               0.1
 (Enter /gpfs/fs1/soft/improv/software/custom-built/gaussian/g16/l401.exe)
 ExpMin= 1.26D-02 ExpMax= 6.11D+04 ExpMxC= 9.18D+03 IAcc=3 IRadAn=         5 AccDes= 0.00D+00
 Harris functional with IExCor=  402 and IRadAn=       5 diagonalized for initial guess.
 HarFok:  IExCor=  402 AccDes= 0.00D+00 IRadAn=         5 IDoV= 1 UseB2=F ITyADJ=14
 ICtDFT=  3500011 ScaDFX=  1.000000  1.000000  1.000000  1.000000
 FoFCou: FMM=F IPFlag=           0 FMFlag=      100000 FMFlg1=           0
         NFxFlg=           0 DoJE=T BraDBF=F KetDBF=T FulRan=T
         wScrn=  0.000000 ICntrl=       500 IOpCl=  0 I1Cent=   200000004 NGrid=           0
         NMat0=    1 NMatS0=      1 NMatT0=    0 NMatD0=    1 NMtDS0=    0 NMtDT0=    0
 Petite list used in FoFCou.
 Harris En= -1821.50856190514    
 JPrj=0 DoOrth=F DoCkMO=F.
 Initial guess orbital symmetries:
 Alpha Orbitals:
       Occupied  (A1G) (A1G) (T1U) (T1U) (T1U) (A1G) (T1U) (T1U)
                 (T1U) (EG) (EG) (A1G) (T1U) (T1U) (T1U) (EG) (EG)
                 (A1G) (T1U) (T1U) (T1U) (A1G) (T1U) (T1U) (T1U)
                 (EG) (EG) (A1G) (EG) (EG) (T1U) (T1U) (T1U) (T2G)
                 (T2G) (T2G) (A1G) (T1U) (T1U) (T1U) (EG) (EG)
                 (T2U) (T2U) (T2U) (T1G) (T1G) (T1G) (T1U) (T1U)
                 (T1U) (T2G) (T2G) (T2G)
       Virtual   (EG) (EG) (T1U) (T1U) (T1U) (T2G) (T2G) (T2G)
                 (T2U) (T2U) (T2U) (T1G) (T1G) (T1G) (A1G) (T1U)
                 (T1U) (T1U) (A1G) (EG) (EG) (T2G) (T2G) (T2G)
                 (T1U) (T1U) (T1U) (T2U) (T2U) (T2U) (A1G) (EG)
                 (EG) (T1G) (T1G) (T1G) (T1U) (T1U) (T1U) (A1G)
                 (T1U) (T1U) (T1U) (T2G) (T2G) (T2G) (EG) (EG)
                 (T2U) (T2U) (T2U) (T1U) (T1U) (T1U) (T1U) (T1U)
                 (T1U) (EG) (EG) (T1G) (T1G) (T1G) (A1G) (T1U)
                 (T1U) (T1U) (A1G) (A1G) (T1U) (T1U) (T1U) (T2G)
                 (T2G) (T2G) (EG) (EG) (T1U) (T1U) (T1U) (A2U)
                 (T2U) (T2U) (T2U) (EG) (EG) (T2G) (T2G) (T2G)
                 (A1G) (EU) (EU) (EG) (EG) (A2G) (T1U) (T1U) (T1U)
                 (T2U) (T2U) (T2U) (T2G) (T2G) (T2G) (T1G) (T1G)
                 (T1G) (T1U) (T1U) (T1U) (T2G) (T2G) (T2G) (A1G)
                 (T2U) (T2U) (T2U) (A2U) (T2U) (T2U) (T2U) (T1U)
                 (T1U) (T1U) (EG) (EG) (T1U) (T1U) (T1U) (EG) (EG)
                 (A1G) (T1G) (T1G) (T1G) (T2G) (T2G) (T2G) (A1G)
                 (EU) (EU) (T1U) (T1U) (T1U) (T1G) (T1G) (T1G)
                 (A2G) (T2U) (T2U) (T2U) (T2G) (T2G) (T2G) (EG)
                 (EG) (T1U) (T1U) (T1U) (T2U) (T2U) (T2U) (T2G)
                 (T2G) (T2G) (A2U) (T1U) (T1U) (T1U) (EG) (EG)
                 (A1G) (T1U) (T1U) (T1U) (EG) (EG) (EG) (EG) (T1G)
                 (T1G) (T1G) (A1G) (T1U) (T1U) (T1U) (T2U) (T2U)
                 (T2U) (T1U) (T1U) (T1U) (T2G) (T2G) (T2G) (A1G)
                 (EG) (EG) (T1U) (T1U) (T1U) (A1G) (T1G) (T1G)
                 (T1G) (T2U) (T2U) (T2U) (T2G) (T2G) (T2G) (EU)
                 (EU) (T2G) (T2G) (T2G) (A2G) (T2U) (T2U) (T2U)
                 (T1U) (T1U) (T1U) (EG) (EG) (A2U) (T1U) (T1U)
                 (T1U) (EG) (EG) (T1G) (T1G) (T1G) (T2U) (T2U)
                 (T2U) (T2G) (T2G) (T2G) (T1U) (T1U) (T1U) (T2G)
                 (T2G) (T2G) (A1G) (T1U) (T1U) (T1U) (T2U) (T2U)
                 (T2U) (T1G) (T1G) (T1G) (T2G) (T2G) (T2G) (EG)
                 (EG) (T1U) (T1U) (T1U) (T2U) (T2U) (T2U) (EG)
                 (EG) (T1U) (T1U) (T1U) (T1G) (T1G) (T1G) (A1G)
                 (A2U) (EU) (EU) (A2G) (T2G) (T2G) (T2G) (T2U)
                 (T2U) (T2U) (EG) (EG) (A2U) (T1U) (T1U) (T1U)
                 (A1G) (T2G) (T2G) (T2G) (EU) (EU) (A2G) (T2U)
                 (T2U) (T2U) (EG) (EG) (A2U) (EU) (EU) (T2U) (T2U)
                 (T2U) (T2G) (T2G) (T2G) (T1G) (T1G) (T1G) (A2G)
                 (T1U) (T1U) (T1U) (T2G) (T2G) (T2G) (EG) (EG)
                 (T2U) (T2U) (T2U) (T1U) (T1U) (T1U) (T2G) (T2G)
                 (T2G) (EG) (EG) (A1G) (T1G) (T1G) (T1G) (A2U)
                 (EG) (EG) (T1U) (T1U) (T1U) (T2U) (T2U) (T2U)
                 (T2G) (T2G) (T2G) (T1U) (T1U) (T1U) (T2U) (T2U)
                 (T2U) (T1U) (T1U) (T1U) (T1G) (T1G) (T1G) (A1G)
                 (A1G) (EG) (EG) (T1U) (T1U) (T1U) (EG) (EG) (A1G)
                 (T1U) (T1U) (T1U) (EG) (EG) (A1G) (T1U) (T1U)
                 (T1U) (A1G) (EG) (EG) (A1G) (EG) (EG) (T1U) (T1U)
                 (T1U) (A1G)
 Beta  Orbitals:
       Occupied  (A1G) (A1G) (T1U) (T1U) (T1U) (A1G) (T1U) (T1U)
                 (T1U) (EG) (EG) (A1G) (T1U) (T1U) (T1U) (EG) (EG)
                 (A1G) (T1U) (T1U) (T1U) (A1G) (T1U) (T1U) (T1U)
                 (EG) (EG) (A1G) (EG) (EG) (T1U) (T1U) (T1U) (T2G)
                 (T2G) (T2G) (A1G) (T1U) (T1U) (T1U) (EG) (EG)
                 (T2U) (T2U) (T2U) (T1G) (T1G) (T1G) (T1U) (T1U)
                 (T1U) (T2G) (T2G)
       Virtual   (T2G) (EG) (EG) (T1U) (T1U) (T1U) (T2G) (T2G)
                 (T2G) (T2U) (T2U) (T2U) (T1G) (T1G) (T1G) (A1G)
                 (T1U) (T1U) (T1U) (A1G) (EG) (EG) (T2G) (T2G)
                 (T2G) (T1U) (T1U) (T1U) (T2U) (T2U) (T2U) (A1G)
                 (EG) (EG) (T1G) (T1G) (T1G) (T1U) (T1U) (T1U)
                 (A1G) (T1U) (T1U) (T1U) (T2G) (T2G) (T2G) (EG)
                 (EG) (T2U) (T2U) (T2U) (T1U) (T1U) (T1U) (T1U)
                 (T1U) (T1U) (EG) (EG) (T1G) (T1G) (T1G) (A1G)
                 (T1U) (T1U) (T1U) (A1G) (A1G) (T1U) (T1U) (T1U)
                 (T2G) (T2G) (T2G) (EG) (EG) (T1U) (T1U) (T1U)
                 (A2U) (T2U) (T2U) (T2U) (EG) (EG) (T2G) (T2G)
                 (T2G) (A1G) (EU) (EU) (EG) (EG) (A2G) (T1U) (T1U)
                 (T1U) (T2U) (T2U) (T2U) (T2G) (T2G) (T2G) (T1G)
                 (T1G) (T1G) (T1U) (T1U) (T1U) (T2G) (T2G) (T2G)
                 (A1G) (T2U) (T2U) (T2U) (A2U) (T2U) (T2U) (T2U)
                 (T1U) (T1U) (T1U) (EG) (EG) (T1U) (T1U) (T1U)
                 (EG) (EG) (A1G) (T1G) (T1G) (T1G) (T2G) (T2G)
                 (T2G) (A1G) (EU) (EU) (T1U) (T1U) (T1U) (T1G)
                 (T1G) (T1G) (A2G) (T2U) (T2U) (T2U) (T2G) (T2G)
                 (T2G) (EG) (EG) (T1U) (T1U) (T1U) (T2U) (T2U)
                 (T2U) (T2G) (T2G) (T2G) (A2U) (T1U) (T1U) (T1U)
                 (EG) (EG) (A1G) (T1U) (T1U) (T1U) (EG) (EG) (EG)
                 (EG) (T1G) (T1G) (T1G) (A1G) (T1U) (T1U) (T1U)
                 (T2U) (T2U) (T2U) (T1U) (T1U) (T1U) (T2G) (T2G)
                 (T2G) (A1G) (EG) (EG) (T1U) (T1U) (T1U) (A1G)
                 (T1G) (T1G) (T1G) (T2U) (T2U) (T2U) (T2G) (T2G)
                 (T2G) (EU) (EU) (T2G) (T2G) (T2G) (A2G) (T2U)
                 (T2U) (T2U) (T1U) (T1U) (T1U) (EG) (EG) (A2U)
                 (T1U) (T1U) (T1U) (EG) (EG) (T1G) (T1G) (T1G)
                 (T2U) (T2U) (T2U) (T2G) (T2G) (T2G) (T1U) (T1U)
                 (T1U) (T2G) (T2G) (T2G) (A1G) (T1U) (T1U) (T1U)
                 (T2U) (T2U) (T2U) (T1G) (T1G) (T1G) (T2G) (T2G)
                 (T2G) (EG) (EG) (T1U) (T1U) (T1U) (T2U) (T2U)
                 (T2U) (EG) (EG) (T1U) (T1U) (T1U) (T1G) (T1G)
                 (T1G) (A1G) (A2U) (EU) (EU) (A2G) (T2G) (T2G)
                 (T2G) (T2U) (T2U) (T2U) (EG) (EG) (A2U) (T1U)
                 (T1U) (T1U) (A1G) (T2G) (T2G) (T2G) (EU) (EU)
                 (A2G) (T2U) (T2U) (T2U) (EG) (EG) (A2U) (EU) (EU)
                 (T2U) (T2U) (T2U) (T2G) (T2G) (T2G) (T1G) (T1G)
                 (T1G) (A2G) (T1U) (T1U) (T1U) (T2G) (T2G) (T2G)
                 (EG) (EG) (T2U) (T2U) (T2U) (T1U) (T1U) (T1U)
                 (T2G) (T2G) (T2G) (EG) (EG) (A1G) (T1G) (T1G)
                 (T1G) (A2U) (EG) (EG) (T1U) (T1U) (T1U) (T2U)
                 (T2U) (T2U) (T2G) (T2G) (T2G) (T1U) (T1U) (T1U)
                 (T2U) (T2U) (T2U) (T1U) (T1U) (T1U) (T1G) (T1G)
                 (T1G) (A1G) (A1G) (EG) (EG) (T1U) (T1U) (T1U)
                 (EG) (EG) (A1G) (T1U) (T1U) (T1U) (EG) (EG) (A1G)
                 (T1U) (T1U) (T1U) (A1G) (EG) (EG) (A1G) (EG) (EG)
                 (T1U) (T1U) (T1U) (A1G)
 Initial guess <Sx>= 0.0000 <Sy>= 0.0000 <Sz>= 0.5000 <S**2>= 0.7500 S= 0.5000
 Leave Link  401 at Mon Jul 22 16:49:19 2024, MaxMem=120795955200 cpu:              59.0 elap:               0.6
 (Enter /gpfs/fs1/soft/improv/software/custom-built/gaussian/g16/l502.exe)
 Integral symmetry usage will be decided dynamically.
 UHF open shell SCF:
 Using DIIS extrapolation, IDIIS=  1040.
 NGot=120795955200 LenX=120795381861 LenY=120795134355
 Requested convergence on RMS density matrix=1.00D-08 within  50 cycles.
 Requested convergence on MAX density matrix=1.00D-06.
 Requested convergence on             energy=1.00D-06.
 No special actions if energy rises.
 Fock matrices will be formed incrementally for  20 cycles.

 Cycle   1  Pass 1  IDiag  1:
 Density matrix breaks symmetry, PCut= 1.00D-04
 Density has only Abelian symmetry.
 FoFJK:  IHMeth= 1 ICntrl=       0 DoSepK=F KAlg= 0 I1Cent=           0 FoldK=F
 IRaf= 930000000 NMat=       1 IRICut=       1 DoRegI=T DoRafI=F ISym2E= 1 IDoP0=0 IntGTp=1.
 FoFCou: FMM=F IPFlag=           0 FMFlag=      100000 FMFlg1=           0
         NFxFlg=           0 DoJE=F BraDBF=F KetDBF=F FulRan=T
         wScrn=  0.000000 ICntrl=         0 IOpCl=  1 I1Cent=           0 NGrid=           0
         NMat0=    1 NMatS0=      1 NMatT0=    0 NMatD0=    1 NMtDS0=    0 NMtDT0=    0
 Petite list used in FoFCou.
 E= -1819.99715562454    
 DIIS: error= 7.43D-02 at cycle   1 NSaved=   1.
 NSaved= 1 IEnMin= 1 EnMin= -1819.99715562454     IErMin= 1 ErrMin= 7.43D-02
 ErrMax= 7.43D-02  0.00D+00 EMaxC= 1.00D-01 BMatC= 4.86D+00 BMatP= 4.86D+00
 IDIUse=3 WtCom= 2.57D-01 WtEn= 7.43D-01
 Coeff-Com:  0.100D+01
 Coeff-En:   0.100D+01
 Coeff:      0.100D+01
 Gap=     0.012 Goal=   None    Shift=    0.000
 Gap=    -0.367 Goal=   None    Shift=    0.000
 GapD=   -0.367 DampG=0.250 DampE=0.250 DampFc=0.1250 IDamp=-1.
 Damping current iteration by 1.25D-01
 RMSDP=1.06D-01 MaxDP=1.46D+01              OVMax= 9.95D-01

 Cycle   2  Pass 1  IDiag  1:
 Density matrix breaks symmetry, PCut= 1.00D-04
 Density has only Abelian symmetry.
 RMSU=  1.17D-02    CP:  1.30D+00
 E= -1820.20376310779     Delta-E=       -0.206607483248 Rises=F Damp=T
 DIIS: error= 2.99D-02 at cycle   2 NSaved=   2.
 NSaved= 2 IEnMin= 2 EnMin= -1820.20376310779     IErMin= 2 ErrMin= 2.99D-02
 ErrMax= 2.99D-02  0.00D+00 EMaxC= 1.00D-01 BMatC= 1.16D+00 BMatP= 4.86D+00
 IDIUse=3 WtCom= 7.01D-01 WtEn= 2.99D-01
 Coeff-Com: -0.530D+00 0.153D+01
 Coeff-En:   0.000D+00 0.100D+01
 Coeff:     -0.372D+00 0.137D+01
 Gap=     0.155 Goal=   None    Shift=    0.000
 Gap=     0.001 Goal=   None    Shift=    0.000
 RMSDP=3.58D+00 MaxDP=1.96D+03 DE=-2.07D-01 OVMax= 6.56D-01

 Cycle   3  Pass 1  IDiag  1:
 Density matrix breaks symmetry, PCut= 1.00D-04
 Density has only Abelian symmetry.
 RMSU=  3.56D+00    CP:  3.00D+00  3.00D+00
 E= -1820.07181554535     Delta-E=        0.131947562440 Rises=F Damp=F
 DIIS: error= 6.79D-02 at cycle   3 NSaved=   3.
 NSaved= 3 IEnMin= 2 EnMin= -1820.20376310779     IErMin= 2 ErrMin= 2.99D-02
 ErrMax= 6.79D-02  0.00D+00 EMaxC= 1.00D-01 BMatC= 2.72D+00 BMatP= 1.16D+00
 IDIUse=2 WtCom= 0.00D+00 WtEn= 1.00D+00
 Coeff-En:   0.000D+00 0.599D+00 0.401D+00
 Coeff:      0.000D+00 0.599D+00 0.401D+00
 Gap=     0.201 Goal=   None    Shift=    0.000
 Gap=    -0.195 Goal=   None    Shift=    0.000
 RMSDP=3.58D+00 MaxDP=1.96D+03 DE= 1.32D-01 OVMax= 8.81D-01

 Cycle   4  Pass 1  IDiag  1:
 Density matrix breaks symmetry, PCut= 1.00D-04
 Density has only Abelian symmetry.
 RMSU=  1.20D-02    CP:  1.05D+00  9.60D-01  2.60D-04
 E= -1816.06839780152     Delta-E=        4.003417743823 Rises=F Damp=F
 DIIS: error= 2.48D-01 at cycle   4 NSaved=   4.
 NSaved= 4 IEnMin= 2 EnMin= -1820.20376310779     IErMin= 2 ErrMin= 2.99D-02
 ErrMax= 2.48D-01  0.00D+00 EMaxC= 1.00D-01 BMatC= 3.42D+01 BMatP= 1.16D+00
 IDIUse=2 WtCom= 0.00D+00 WtEn= 1.00D+00
 EnCoef did   100 forward-backward iterations
 Coeff-En:   0.336D+00 0.729D-02 0.472D+00 0.185D+00
 Coeff:      0.336D+00 0.729D-02 0.472D+00 0.185D+00
 Gap=     0.188 Goal=   None    Shift=    0.000
 Gap=    -0.016 Goal=   None    Shift=    0.000
 RMSDP=1.13D-02 MaxDP=3.19D+00 DE= 4.00D+00 OVMax= 9.84D-01

 Cycle   5  Pass 1  IDiag  1:
 Density matrix breaks symmetry, PCut= 1.00D-04
 Density has only Abelian symmetry.
 RMSU=  4.61D-03    CP:  8.57D-01  3.50D-01 -5.46D-04  5.47D-01
 E= -1820.44833068918     Delta-E=       -4.379932887658 Rises=F Damp=F
 DIIS: error= 5.16D-02 at cycle   5 NSaved=   5.
 NSaved= 5 IEnMin= 5 EnMin= -1820.44833068918     IErMin= 2 ErrMin= 2.99D-02
 ErrMax= 5.16D-02  0.00D+00 EMaxC= 1.00D-01 BMatC= 1.84D+00 BMatP= 1.16D+00
 IDIUse=2 WtCom= 0.00D+00 WtEn= 1.00D+00
 EnCoef did     5 forward-backward iterations
 Coeff-En:   0.455D-01 0.000D+00 0.322D+00 0.000D+00 0.632D+00
 Coeff:      0.455D-01 0.000D+00 0.322D+00 0.000D+00 0.632D+00
 Gap=     0.135 Goal=   None    Shift=    0.000
 Gap=     0.031 Goal=   None    Shift=    0.000
 RMSDP=4.19D-03 MaxDP=7.30D-01 DE=-4.38D+00 OVMax= 2.43D-01

 Cycle   6  Pass 1  IDiag  1:
 Density matrix breaks symmetry, PCut= 1.00D-04
 Density has only Abelian symmetry.
 RMSU=  2.08D-03    CP:  8.51D-01  1.69D-01 -3.31D-04  3.09D-01  9.46D-01
 E= -1820.44608873677     Delta-E=        0.002241952417 Rises=F Damp=F
 DIIS: error= 6.07D-02 at cycle   6 NSaved=   6.
 NSaved= 6 IEnMin= 5 EnMin= -1820.44833068918     IErMin= 2 ErrMin= 2.99D-02
 ErrMax= 6.07D-02  0.00D+00 EMaxC= 1.00D-01 BMatC= 2.00D+00 BMatP= 1.16D+00
 IDIUse=2 WtCom= 0.00D+00 WtEn= 1.00D+00
 Coeff-En:   0.000D+00 0.000D+00 0.000D+00 0.000D+00 0.501D+00 0.499D+00
 Coeff:      0.000D+00 0.000D+00 0.000D+00 0.000D+00 0.501D+00 0.499D+00
 Gap=     0.098 Goal=   None    Shift=    0.000
 Gap=     0.063 Goal=   None    Shift=    0.000
 RMSDP=6.74D-03 MaxDP=6.26D-01 DE= 2.24D-03 OVMax= 1.70D-01

 Cycle   7  Pass 1  IDiag  1:
 Density matrix breaks symmetry, PCut= 1.00D-04
 Density has only Abelian symmetry.
 RMSU=  1.84D-03    CP:  9.50D-01  6.45D-01 -6.93D-04  4.02D-01  1.33D+00
                    CP:  7.19D-01
 E= -1820.70262567898     Delta-E=       -0.256536942214 Rises=F Damp=F
 DIIS: error= 7.89D-03 at cycle   7 NSaved=   7.
 NSaved= 7 IEnMin= 7 EnMin= -1820.70262567898     IErMin= 7 ErrMin= 7.89D-03
 ErrMax= 7.89D-03  0.00D+00 EMaxC= 1.00D-01 BMatC= 5.65D-02 BMatP= 1.16D+00
 IDIUse=3 WtCom= 9.21D-01 WtEn= 7.89D-02
 Coeff-Com: -0.212D+00 0.290D+00 0.265D-01-0.184D-01 0.199D+00 0.287D+00
 Coeff-Com:  0.427D+00
 Coeff-En:   0.000D+00 0.000D+00 0.000D+00 0.000D+00 0.000D+00 0.000D+00
 Coeff-En:   0.100D+01
 Coeff:     -0.195D+00 0.267D+00 0.244D-01-0.170D-01 0.184D+00 0.264D+00
 Coeff:      0.473D+00
 Gap=     0.132 Goal=   None    Shift=    0.000
 Gap=     0.105 Goal=   None    Shift=    0.000
 RMSDP=2.63D-03 MaxDP=2.73D-01 DE=-2.57D-01 OVMax= 3.05D-02

 Cycle   8  Pass 1  IDiag  1:
 Density matrix breaks symmetry, PCut= 1.00D-04
 Density has only Abelian symmetry.
 RMSU=  8.69D-04    CP:  9.08D-01  4.79D-01 -6.86D-04  4.04D-01  1.23D+00
                    CP:  4.88D-01  4.40D-01
 E= -1820.71010634581     Delta-E=       -0.007480666826 Rises=F Damp=F
 DIIS: error= 6.37D-03 at cycle   8 NSaved=   8.
 NSaved= 8 IEnMin= 8 EnMin= -1820.71010634581     IErMin= 8 ErrMin= 6.37D-03
 ErrMax= 6.37D-03  0.00D+00 EMaxC= 1.00D-01 BMatC= 3.31D-02 BMatP= 5.65D-02
 IDIUse=3 WtCom= 9.36D-01 WtEn= 6.37D-02
 Coeff-Com: -0.130D+00 0.182D+00-0.202D-01-0.459D-02-0.123D-01 0.141D+00
 Coeff-Com:  0.407D+00 0.437D+00
 Coeff-En:   0.000D+00 0.000D+00 0.000D+00 0.000D+00 0.000D+00 0.000D+00
 Coeff-En:   0.320D+00 0.680D+00
 Coeff:     -0.122D+00 0.171D+00-0.189D-01-0.430D-02-0.115D-01 0.132D+00
 Coeff:      0.401D+00 0.452D+00
 Gap=     0.123 Goal=   None    Shift=    0.000
 Gap=     0.103 Goal=   None    Shift=    0.000
 RMSDP=7.07D-04 MaxDP=8.45D-02 DE=-7.48D-03 OVMax= 2.52D-02

 Cycle   9  Pass 1  IDiag  1:
 Density matrix breaks symmetry, PCut= 1.00D-04
 Density has only Abelian symmetry.
 RMSU=  1.92D-04    CP:  9.01D-01  4.55D-01 -6.29D-04  4.09D-01  1.19D+00
                    CP:  5.99D-01  4.84D-01  4.44D-01
 E= -1820.71684836347     Delta-E=       -0.006742017660 Rises=F Damp=F
 DIIS: error= 1.86D-03 at cycle   9 NSaved=   9.
 NSaved= 9 IEnMin= 9 EnMin= -1820.71684836347     IErMin= 9 ErrMin= 1.86D-03
 ErrMax= 1.86D-03  0.00D+00 EMaxC= 1.00D-01 BMatC= 2.45D-03 BMatP= 3.31D-02
 IDIUse=3 WtCom= 9.81D-01 WtEn= 1.86D-02
 Coeff-Com: -0.334D-01 0.397D-01 0.431D-03-0.115D-03-0.158D-01 0.110D-01
 Coeff-Com:  0.534D-01 0.210D+00 0.734D+00
 Coeff-En:   0.000D+00 0.000D+00 0.000D+00 0.000D+00 0.000D+00 0.000D+00
 Coeff-En:   0.000D+00 0.785D-01 0.922D+00
 Coeff:     -0.328D-01 0.390D-01 0.423D-03-0.113D-03-0.155D-01 0.108D-01
 Coeff:      0.524D-01 0.208D+00 0.738D+00
 Gap=     0.125 Goal=   None    Shift=    0.000
 Gap=     0.104 Goal=   None    Shift=    0.000
 RMSDP=2.01D-04 MaxDP=2.14D-02 DE=-6.74D-03 OVMax= 8.27D-03

 Cycle  10  Pass 1  IDiag  1:
 Density matrix breaks symmetry, PCut= 1.00D-04
 Density has only Abelian symmetry.
 RMSU=  1.06D-04    CP:  9.03D-01  4.66D-01 -6.40D-04  4.08D-01  1.20D+00
                    CP:  5.99D-01  4.73D-01  5.10D-01  7.46D-01
 E= -1820.71731326219     Delta-E=       -0.000464898720 Rises=F Damp=F
 DIIS: error= 4.47D-04 at cycle  10 NSaved=  10.
 NSaved=10 IEnMin=10 EnMin= -1820.71731326219     IErMin=10 ErrMin= 4.47D-04
 ErrMax= 4.47D-04  0.00D+00 EMaxC= 1.00D-01 BMatC= 2.00D-04 BMatP= 2.45D-03
 IDIUse=3 WtCom= 9.96D-01 WtEn= 4.47D-03
 Coeff-Com: -0.121D-01 0.119D-01 0.314D-02 0.162D-03-0.860D-02-0.112D-04
 Coeff-Com: -0.659D-02 0.648D-01 0.356D+00 0.591D+00
 Coeff-En:   0.000D+00 0.000D+00 0.000D+00 0.000D+00 0.000D+00 0.000D+00
 Coeff-En:   0.000D+00 0.000D+00 0.518D-01 0.948D+00
 Coeff:     -0.120D-01 0.118D-01 0.313D-02 0.161D-03-0.856D-02-0.111D-04
 Coeff:     -0.656D-02 0.645D-01 0.355D+00 0.593D+00
 Gap=     0.125 Goal=   None    Shift=    0.000
 Gap=     0.104 Goal=   None    Shift=    0.000
 RMSDP=9.39D-05 MaxDP=1.01D-02 DE=-4.65D-04 OVMax= 1.72D-03

 Cycle  11  Pass 1  IDiag  1:
 Density matrix breaks symmetry, PCut= 1.00D-04
 Density has only Abelian symmetry.
 RMSU=  5.33D-05    CP:  9.02D-01  4.63D-01 -6.33D-04  4.09D-01  1.20D+00
                    CP:  6.07D-01  4.57D-01  5.39D-01  7.88D-01  6.90D-01
 E= -1820.71735125918     Delta-E=       -0.000037996991 Rises=F Damp=F
 DIIS: error= 2.63D-04 at cycle  11 NSaved=  11.
 NSaved=11 IEnMin=11 EnMin= -1820.71735125918     IErMin=11 ErrMin= 2.63D-04
 ErrMax= 2.63D-04  0.00D+00 EMaxC= 1.00D-01 BMatC= 5.38D-05 BMatP= 2.00D-04
 IDIUse=3 WtCom= 9.97D-01 WtEn= 2.63D-03
 Coeff-Com:  0.335D-02-0.446D-02 0.143D-02 0.113D-03-0.423D-02-0.468D-02
 Coeff-Com: -0.440D-02 0.378D-02 0.704D-01 0.310D+00 0.629D+00
 Coeff-En:   0.000D+00 0.000D+00 0.000D+00 0.000D+00 0.000D+00 0.000D+00
 Coeff-En:   0.000D+00 0.000D+00 0.000D+00 0.000D+00 0.100D+01
 Coeff:      0.334D-02-0.445D-02 0.143D-02 0.112D-03-0.422D-02-0.466D-02
 Coeff:     -0.439D-02 0.377D-02 0.702D-01 0.309D+00 0.630D+00
 Gap=     0.125 Goal=   None    Shift=    0.000
 Gap=     0.104 Goal=   None    Shift=    0.000
 RMSDP=3.85D-05 MaxDP=4.27D-03 DE=-3.80D-05 OVMax= 1.03D-03

 Cycle  12  Pass 1  IDiag  1:
 Density matrix breaks symmetry, PCut= 1.00D-04
 Density has only Abelian symmetry.
 RMSU=  1.69D-05    CP:  9.02D-01  4.62D-01 -6.31D-04  4.09D-01  1.20D+00
                    CP:  6.06D-01  4.70D-01  5.18D-01  7.80D-01  6.57D-01
                    CP:  7.77D-01
 E= -1820.71736100136     Delta-E=       -0.000009742187 Rises=F Damp=F
 DIIS: error= 7.24D-05 at cycle  12 NSaved=  12.
 NSaved=12 IEnMin=12 EnMin= -1820.71736100136     IErMin=12 ErrMin= 7.24D-05
 ErrMax= 7.24D-05  0.00D+00 EMaxC= 1.00D-01 BMatC= 6.38D-06 BMatP= 5.38D-05
 IDIUse=1 WtCom= 1.00D+00 WtEn= 0.00D+00
 Coeff-Com:  0.527D-03-0.527D-03 0.668D-03 0.837D-05-0.139D-02-0.343D-03
 Coeff-Com: -0.359D-02-0.127D-01-0.300D-01 0.507D-01 0.360D+00 0.637D+00
 Coeff:      0.527D-03-0.527D-03 0.668D-03 0.837D-05-0.139D-02-0.343D-03
 Coeff:     -0.359D-02-0.127D-01-0.300D-01 0.507D-01 0.360D+00 0.637D+00
 Gap=     0.125 Goal=   None    Shift=    0.000
 Gap=     0.104 Goal=   None    Shift=    0.000
 RMSDP=1.48D-05 MaxDP=1.78D-03 DE=-9.74D-06 OVMax= 4.05D-04

 Cycle  13  Pass 1  IDiag  1:
 Density matrix breaks symmetry, PCut= 1.00D-04
 Density has only Abelian symmetry.
 RMSU=  5.14D-06    CP:  9.02D-01  4.62D-01 -6.31D-04  4.09D-01  1.20D+00
                    CP:  6.08D-01  4.67D-01  5.25D-01  7.76D-01  7.09D-01
                    CP:  9.01D-01  8.02D-01
 E= -1820.71736245362     Delta-E=       -0.000001452253 Rises=F Damp=F
 DIIS: error= 4.11D-05 at cycle  13 NSaved=  13.
 NSaved=13 IEnMin=13 EnMin= -1820.71736245362     IErMin=13 ErrMin= 4.11D-05
 ErrMax= 4.11D-05  0.00D+00 EMaxC= 1.00D-01 BMatC= 1.23D-06 BMatP= 6.38D-06
 IDIUse=1 WtCom= 1.00D+00 WtEn= 0.00D+00
 Coeff-Com: -0.261D-03 0.367D-03 0.410D-03-0.133D-04-0.549D-03 0.349D-03
 Coeff-Com: -0.234D-02-0.700D-02-0.208D-01 0.266D-02 0.140D+00 0.354D+00
 Coeff-Com:  0.533D+00
 Coeff:     -0.261D-03 0.367D-03 0.410D-03-0.133D-04-0.549D-03 0.349D-03
 Coeff:     -0.234D-02-0.700D-02-0.208D-01 0.266D-02 0.140D+00 0.354D+00
 Coeff:      0.533D+00
 Gap=     0.125 Goal=   None    Shift=    0.000
 Gap=     0.104 Goal=   None    Shift=    0.000
 RMSDP=9.20D-06 MaxDP=1.22D-03 DE=-1.45D-06 OVMax= 1.59D-04

 Cycle  14  Pass 1  IDiag  1:
 Density matrix breaks symmetry, PCut= 1.00D-04
 Density has only Abelian symmetry.
 RMSU=  4.45D-06    CP:  9.02D-01  4.63D-01 -6.31D-04  4.09D-01  1.20D+00
                    CP:  6.09D-01  4.66D-01  5.21D-01  7.88D-01  7.21D-01
                    CP:  8.56D-01  7.06D-01  4.99D-01
 E= -1820.71736259288     Delta-E=       -0.000000139263 Rises=F Damp=F
 DIIS: error= 3.43D-05 at cycle  14 NSaved=  14.
 NSaved=14 IEnMin=14 EnMin= -1820.71736259288     IErMin=14 ErrMin= 3.43D-05
 ErrMax= 3.43D-05  0.00D+00 EMaxC= 1.00D-01 BMatC= 7.21D-07 BMatP= 1.23D-06
 IDIUse=1 WtCom= 1.00D+00 WtEn= 0.00D+00
 Coeff-Com: -0.540D-04 0.617D-04 0.935D-04-0.948D-05 0.251D-04 0.259D-03
 Coeff-Com: -0.490D-03 0.893D-04-0.356D-02-0.183D-01-0.446D-01 0.798D-02
 Coeff-Com:  0.386D+00 0.673D+00
 Coeff:     -0.540D-04 0.617D-04 0.935D-04-0.948D-05 0.251D-04 0.259D-03
 Coeff:     -0.490D-03 0.893D-04-0.356D-02-0.183D-01-0.446D-01 0.798D-02
 Coeff:      0.386D+00 0.673D+00
 Gap=     0.125 Goal=   None    Shift=    0.000
 Gap=     0.104 Goal=   None    Shift=    0.000
 RMSDP=4.55D-06 MaxDP=4.90D-04 DE=-1.39D-07 OVMax= 1.26D-04

 Cycle  15  Pass 1  IDiag  1:
 Density matrix breaks symmetry, PCut= 1.00D-04
 Density has only Abelian symmetry.
 RMSU=  1.52D-06    CP:  9.02D-01  4.63D-01 -6.31D-04  4.09D-01  1.20D+00
                    CP:  6.09D-01  4.67D-01  5.24D-01  7.81D-01  7.13D-01
                    CP:  8.82D-01  7.88D-01  7.25D-01  6.75D-01
 E= -1820.71736272035     Delta-E=       -0.000000127468 Rises=F Damp=F
 DIIS: error= 1.27D-05 at cycle  15 NSaved=  15.
 NSaved=15 IEnMin=15 EnMin= -1820.71736272035     IErMin=15 ErrMin= 1.27D-05
 ErrMax= 1.27D-05  0.00D+00 EMaxC= 1.00D-01 BMatC= 8.23D-08 BMatP= 7.21D-07
 IDIUse=1 WtCom= 1.00D+00 WtEn= 0.00D+00
 Coeff-Com:  0.594D-04-0.760D-04 0.955D-05-0.150D-05 0.464D-04 0.625D-04
 Coeff-Com:  0.691D-04 0.132D-02 0.237D-02-0.724D-02-0.415D-01-0.534D-01
 Coeff-Com:  0.725D-01 0.281D+00 0.745D+00
 Coeff:      0.594D-04-0.760D-04 0.955D-05-0.150D-05 0.464D-04 0.625D-04
 Coeff:      0.691D-04 0.132D-02 0.237D-02-0.724D-02-0.415D-01-0.534D-01
 Coeff:      0.725D-01 0.281D+00 0.745D+00
 Gap=     0.125 Goal=   None    Shift=    0.000
 Gap=     0.104 Goal=   None    Shift=    0.000
 RMSDP=1.76D-06 MaxDP=2.13D-04 DE=-1.27D-07 OVMax= 4.52D-05

 Cycle  16  Pass 1  IDiag  1:
 Density matrix breaks symmetry, PCut= 1.00D-04
 Density has only Abelian symmetry.
 RMSU=  6.97D-07    CP:  9.02D-01  4.63D-01 -6.31D-04  4.09D-01  1.20D+00
                    CP:  6.09D-01  4.67D-01  5.23D-01  7.82D-01  7.15D-01
                    CP:  8.74D-01  7.80D-01  7.45D-01  8.06D-01  8.16D-01
 E= -1820.71736273803     Delta-E=       -0.000000017679 Rises=F Damp=F
 DIIS: error= 2.16D-06 at cycle  16 NSaved=  16.
 NSaved=16 IEnMin=16 EnMin= -1820.71736273803     IErMin=16 ErrMin= 2.16D-06
 ErrMax= 2.16D-06  0.00D+00 EMaxC= 1.00D-01 BMatC= 2.45D-09 BMatP= 8.23D-08
 IDIUse=1 WtCom= 1.00D+00 WtEn= 0.00D+00
 Coeff-Com: -0.142D-04 0.130D-04-0.112D-04 0.205D-05 0.178D-04-0.129D-04
 Coeff-Com:  0.110D-03 0.339D-03 0.176D-02 0.170D-02-0.306D-02-0.167D-01
 Coeff-Com: -0.573D-01-0.694D-01 0.205D+00 0.938D+00
 Coeff:     -0.142D-04 0.130D-04-0.112D-04 0.205D-05 0.178D-04-0.129D-04
 Coeff:      0.110D-03 0.339D-03 0.176D-02 0.170D-02-0.306D-02-0.167D-01
 Coeff:     -0.573D-01-0.694D-01 0.205D+00 0.938D+00
 Gap=     0.125 Goal=   None    Shift=    0.000
 Gap=     0.104 Goal=   None    Shift=    0.000
 RMSDP=6.42D-07 MaxDP=6.32D-05 DE=-1.77D-08 OVMax= 2.12D-05

 Cycle  17  Pass 1  IDiag  1:
 Density matrix breaks symmetry, PCut= 1.00D-04
 Density has only Abelian symmetry.
 RMSU=  1.55D-07    CP:  9.02D-01  4.63D-01 -6.31D-04  4.09D-01  1.20D+00
                    CP:  6.09D-01  4.67D-01  5.24D-01  7.81D-01  7.15D-01
                    CP:  8.74D-01  7.83D-01  7.51D-01  8.13D-01  9.97D-01
                    CP:  9.96D-01
 E= -1820.71736273945     Delta-E=       -0.000000001427 Rises=F Damp=F
 DIIS: error= 1.99D-06 at cycle  17 NSaved=  17.
 NSaved=17 IEnMin=17 EnMin= -1820.71736273945     IErMin=17 ErrMin= 1.99D-06
 ErrMax= 1.99D-06  0.00D+00 EMaxC= 1.00D-01 BMatC= 2.20D-09 BMatP= 2.45D-09
 IDIUse=1 WtCom= 1.00D+00 WtEn= 0.00D+00
 Coeff-Com:  0.202D-04-0.210D-04-0.966D-05 0.193D-06 0.177D-04-0.373D-04
 Coeff-Com:  0.483D-04-0.132D-03-0.152D-03 0.910D-03 0.432D-02 0.376D-02
 Coeff-Com: -0.182D-01-0.443D-01-0.452D-01 0.166D+00 0.933D+00
 Coeff:      0.202D-04-0.210D-04-0.966D-05 0.193D-06 0.177D-04-0.373D-04
 Coeff:      0.483D-04-0.132D-03-0.152D-03 0.910D-03 0.432D-02 0.376D-02
 Coeff:     -0.182D-01-0.443D-01-0.452D-01 0.166D+00 0.933D+00
 Gap=     0.125 Goal=   None    Shift=    0.000
 Gap=     0.104 Goal=   None    Shift=    0.000
 RMSDP=1.32D-07 MaxDP=1.79D-05 DE=-1.43D-09 OVMax= 7.81D-06

 Cycle  18  Pass 1  IDiag  1:
 Density matrix breaks symmetry, PCut= 1.00D-04
 Density has only Abelian symmetry.
 RMSU=  5.82D-08    CP:  9.02D-01  4.63D-01 -6.31D-04  4.09D-01  1.20D+00
                    CP:  6.09D-01  4.67D-01  5.24D-01  7.81D-01  7.15D-01
                    CP:  8.74D-01  7.84D-01  7.56D-01  8.20D-01  1.00D+00
                    CP:  1.06D+00  1.06D+00
 E= -1820.71736273999     Delta-E=       -0.000000000539 Rises=F Damp=F
 DIIS: error= 3.60D-07 at cycle  18 NSaved=  18.
 NSaved=18 IEnMin=18 EnMin= -1820.71736273999     IErMin=18 ErrMin= 3.60D-07
 ErrMax= 3.60D-07  0.00D+00 EMaxC= 1.00D-01 BMatC= 8.61D-11 BMatP= 2.20D-09
 IDIUse=1 WtCom= 1.00D+00 WtEn= 0.00D+00
 Coeff-Com: -0.581D-05 0.605D-05-0.138D-06-0.267D-06-0.849D-05 0.153D-04
 Coeff-Com: -0.188D-04 0.118D-05-0.221D-03-0.351D-03-0.876D-04 0.146D-02
 Coeff-Com:  0.115D-01 0.212D-01-0.188D-01-0.203D+00-0.268D+00 0.146D+01
 Coeff:     -0.581D-05 0.605D-05-0.138D-06-0.267D-06-0.849D-05 0.153D-04
 Coeff:     -0.188D-04 0.118D-05-0.221D-03-0.351D-03-0.876D-04 0.146D-02
 Coeff:      0.115D-01 0.212D-01-0.188D-01-0.203D+00-0.268D+00 0.146D+01
 Gap=     0.125 Goal=   None    Shift=    0.000
 Gap=     0.104 Goal=   None    Shift=    0.000
 RMSDP=8.84D-08 MaxDP=1.03D-05 DE=-5.39D-10 OVMax= 4.11D-06

 Cycle  19  Pass 1  IDiag  1:
 Density matrix breaks symmetry, PCut= 1.00D-04
 Density has only Abelian symmetry.
 RMSU=  1.82D-08    CP:  9.02D-01  4.63D-01 -6.31D-04  4.09D-01  1.20D+00
                    CP:  6.09D-01  4.67D-01  5.24D-01  7.81D-01  7.15D-01
                    CP:  8.74D-01  7.85D-01  7.58D-01  8.22D-01  1.01D+00
                    CP:  1.06D+00  1.25D+00  1.50D+00
 E= -1820.71736274009     Delta-E=       -0.000000000104 Rises=F Damp=F
 DIIS: error= 8.82D-08 at cycle  19 NSaved=  19.
 NSaved=19 IEnMin=19 EnMin= -1820.71736274009     IErMin=19 ErrMin= 8.82D-08
 ErrMax= 8.82D-08  0.00D+00 EMaxC= 1.00D-01 BMatC= 2.36D-12 BMatP= 8.61D-11
 IDIUse=1 WtCom= 1.00D+00 WtEn= 0.00D+00
 Coeff-Com: -0.178D-05 0.198D-05 0.377D-06-0.362D-07-0.136D-05 0.226D-05
 Coeff-Com: -0.401D-05 0.193D-05-0.264D-05-0.771D-04-0.300D-03-0.418D-03
 Coeff-Com:  0.119D-02 0.297D-02 0.342D-02-0.864D-02-0.488D-01-0.969D-01
 Coeff-Com:  0.115D+01
 Coeff:     -0.178D-05 0.198D-05 0.377D-06-0.362D-07-0.136D-05 0.226D-05
 Coeff:     -0.401D-05 0.193D-05-0.264D-05-0.771D-04-0.300D-03-0.418D-03
 Coeff:      0.119D-02 0.297D-02 0.342D-02-0.864D-02-0.488D-01-0.969D-01
 Coeff:      0.115D+01
 Gap=     0.125 Goal=   None    Shift=    0.000
 Gap=     0.104 Goal=   None    Shift=    0.000
 RMSDP=1.96D-08 MaxDP=2.14D-06 DE=-1.04D-10 OVMax= 7.91D-07

 Cycle  20  Pass 1  IDiag  1:
 Density matrix breaks symmetry, PCut= 1.00D-04
 Density has only Abelian symmetry.
 RMSU=  4.52D-09    CP:  9.02D-01  4.63D-01 -6.31D-04  4.09D-01  1.20D+00
                    CP:  6.09D-01  4.67D-01  5.24D-01  7.81D-01  7.15D-01
                    CP:  8.75D-01  7.85D-01  7.58D-01  8.23D-01  1.01D+00
                    CP:  1.07D+00  1.27D+00  1.61D+00  1.23D+00
 E= -1820.71736274005     Delta-E=        0.000000000049 Rises=F Damp=F
 DIIS: error= 2.48D-08 at cycle  20 NSaved=  20.
 NSaved=20 IEnMin=19 EnMin= -1820.71736274009     IErMin=20 ErrMin= 2.48D-08
 ErrMax= 2.48D-08  0.00D+00 EMaxC= 1.00D-01 BMatC= 4.10D-13 BMatP= 2.36D-12
 IDIUse=1 WtCom= 1.00D+00 WtEn= 0.00D+00
 Coeff-Com:  0.221D-06-0.227D-06 0.191D-06-0.825D-08 0.473D-06-0.606D-06
 Coeff-Com:  0.572D-06-0.146D-05 0.869D-05 0.873D-05-0.804D-05 0.400D-04
 Coeff-Com: -0.334D-03-0.938D-03 0.363D-03 0.923D-02 0.166D-01-0.619D-01
 Coeff-Com: -0.124D+00 0.116D+01
 Coeff:      0.221D-06-0.227D-06 0.191D-06-0.825D-08 0.473D-06-0.606D-06
 Coeff:      0.572D-06-0.146D-05 0.869D-05 0.873D-05-0.804D-05 0.400D-04
 Coeff:     -0.334D-03-0.938D-03 0.363D-03 0.923D-02 0.166D-01-0.619D-01
 Coeff:     -0.124D+00 0.116D+01
 Gap=     0.125 Goal=   None    Shift=    0.000
 Gap=     0.104 Goal=   None    Shift=    0.000
 RMSDP=3.12D-09 MaxDP=3.55D-07 DE= 4.87D-11 OVMax= 1.91D-07

 Density matrix breaks symmetry, PCut= 1.00D-04
 Density has only Abelian symmetry.
 SCF Done:  E(UB3LYP) =  -1820.71736274     A.U. after   20 cycles
            NFock= 20  Conv=0.31D-08     -V/T= 2.0033
 <Sx>= 0.0000 <Sy>= 0.0000 <Sz>= 0.5000 <S**2>= 0.7608 S= 0.5054
 <L.S>=  0.00000000000    
 KE= 1.814699554082D+03 PE=-6.184860377547D+03 EE= 1.632470885555D+03
 Annihilation of the first spin contaminant:
 S**2 before annihilation     0.7608,   after     0.7501
 Leave Link  502 at Mon Jul 22 16:49:53 2024, MaxMem=120795955200 cpu:            3643.6 elap:              33.6
 (Enter /gpfs/fs1/soft/improv/software/custom-built/gaussian/g16/l508.exe)
 QCSCF skips out because SCF is already converged.
 Leave Link  508 at Mon Jul 22 16:49:53 2024, MaxMem=120795955200 cpu:               0.2 elap:               0.0
 (Enter /gpfs/fs1/soft/improv/software/custom-built/gaussian/g16/l801.exe)
 DoSCS=F DFT=T ScalE2(SS,OS)=  1.000000  1.000000
 Range of M.O.s used for correlation:     1   446
 NBasis=   449 NAE=    54 NBE=    53 NFC=     0 NFV=     0
 NROrb=    446 NOA=    54 NOB=    53 NVA=   392 NVB=   393

 **** Warning!!: The largest alpha MO coefficient is  0.20359622D+03


 **** Warning!!: The largest beta MO coefficient is  0.20464383D+03

 Leave Link  801 at Mon Jul 22 16:49:53 2024, MaxMem=120795955200 cpu:               0.4 elap:               0.0
 (Enter /gpfs/fs1/soft/improv/software/custom-built/gaussian/g16/l1101.exe)
 Using compressed storage, NAtomX=    13.
 Will process     14 centers per pass.
 R6Disp: Adding Grimme-D3 dispersion energy 1st derivatives to the gradient.
 Leave Link 1101 at Mon Jul 22 16:49:54 2024, MaxMem=120795955200 cpu:              59.3 elap:               0.6
 (Enter /gpfs/fs1/soft/improv/software/custom-built/gaussian/g16/l1102.exe)
 Symmetrizing basis deriv contribution to polar:
 IMax=3 JMax=2 DiffMx= 0.00D+00
 Leave Link 1102 at Mon Jul 22 16:49:54 2024, MaxMem=120795955200 cpu:               1.1 elap:               0.1
 (Enter /gpfs/fs1/soft/improv/software/custom-built/gaussian/g16/l1110.exe)
 Forming Gx(P) for the SCF density, NAtomX=    13.
 Integral derivatives from FoFJK, PRISM(SPDF).
 Do as many integral derivatives as possible in FoFJK.
 G2DrvN: MDV=  120795953673.
 Density matrix has lower than full symmetry, NOpUse=  8 NOpAll= 48.
 G2DrvN: will do    14 centers at a time, making    1 passes.
 Calling FoFCou, ICntrl=  3107 FMM=F I1Cent=   0 AccDes= 0.00D+00.
 FoFJK:  IHMeth= 1 ICntrl=    3107 DoSepK=F KAlg= 0 I1Cent=           0 FoldK=F
 IRaf=         0 NMat=       1 IRICut=       1 DoRegI=T DoRafI=F ISym2E= 1 IDoP0=0 IntGTp=1.
 FoFCou: FMM=F IPFlag=           0 FMFlag=      100000 FMFlg1=           0
         NFxFlg=           0 DoJE=F BraDBF=F KetDBF=F FulRan=T
         wScrn=  0.000000 ICntrl=      3107 IOpCl=  1 I1Cent=           0 NGrid=           0
         NMat0=    1 NMatS0=      1 NMatT0=    0 NMatD0=    1 NMtDS0=    0 NMtDT0=    0
 Petite list used in FoFCou.
 End of G2Drv F.D. properties file   721 does not exist.
 End of G2Drv F.D. properties file   722 does not exist.
 End of G2Drv F.D. properties file   788 does not exist.
 Leave Link 1110 at Mon Jul 22 16:50:02 2024, MaxMem=120795955200 cpu:            1024.8 elap:               8.3
 (Enter /gpfs/fs1/soft/improv/software/custom-built/gaussian/g16/l1002.exe)
 Minotr:  UHF open shell wavefunction.
          IDoAtm=1111111111111
          Direct CPHF calculation.
          Differentiating once with respect to electric field.
                with respect to dipole field.
          Differentiating once with respect to nuclear coordinates.
 Density matrix has lower than full symmetry, NOpUse=  8 NOpAll= 48.
          Using symmetry in CPHF.
          Requested convergence is 1.0D-08 RMS, and 1.0D-07 maximum.
          Secondary convergence is 1.0D-12 RMS, and 1.0D-12 maximum.
          NewPWx=T KeepS1=F KeepF1=F KeepIn=T MapXYZ=F SortEE=F KeepMc=T.
         4078 words used for storage of precomputed grid.
 Two-electron integrals replicated using symmetry.
          MDV=  120795955200 using IRadAn=       1.
          Solving linear equations simultaneously, MaxMat=     384.
 FoF2E skips out because all densities are zero.
 CalDSu exits because no D1Ps are significant.
 FoFJK:  IHMeth= 1 ICntrl=       0 DoSepK=F KAlg= 0 I1Cent=           0 FoldK=F
 IRaf= 930000000 NMat=      21 IRICut=      52 DoRegI=T DoRafI=T ISym2E= 2 IDoP0=3 IntGTp=2.
 FoFCou: FMM=F IPFlag=           0 FMFlag=      100000 FMFlg1=           0
         NFxFlg=           0 DoJE=F BraDBF=F KetDBF=F FulRan=T
         wScrn=  0.000000 ICntrl=         0 IOpCl=  1 I1Cent=           0 NGrid=           0
         NMat0=   21 NMatS0=     21 NMatT0=    0 NMatD0=   21 NMtDS0=    0 NMtDT0=    0
 Integrals replicated using symmetry in FoFCou.
 Raff kept on since  91.84% of shell-pairs survive, threshold=   0.20 IRatSp=92.
          There are    24 degrees of freedom in the 1st order CPHF.  IDoFFX=4 NUNeed=    24.
     24 vectors produced by pass  0 Test12= 1.75D-13 4.17D-09 XBig12= 3.00D+02 4.93D+00.
 AX will form    24 AO Fock derivatives at one time.
     24 vectors produced by pass  1 Test12= 1.75D-13 4.17D-09 XBig12= 1.27D+02 2.30D+00.
     24 vectors produced by pass  2 Test12= 1.75D-13 4.17D-09 XBig12= 2.55D+01 6.74D-01.
     24 vectors produced by pass  3 Test12= 1.75D-13 4.17D-09 XBig12= 1.82D+00 1.85D-01.
     24 vectors produced by pass  4 Test12= 1.75D-13 4.17D-09 XBig12= 5.03D-02 4.14D-02.
     24 vectors produced by pass  5 Test12= 1.75D-13 4.17D-09 XBig12= 1.68D-03 6.33D-03.
     24 vectors produced by pass  6 Test12= 1.75D-13 4.17D-09 XBig12= 5.18D-05 9.25D-04.
     24 vectors produced by pass  7 Test12= 1.75D-13 4.17D-09 XBig12= 1.74D-06 2.03D-04.
     22 vectors produced by pass  8 Test12= 1.75D-13 4.17D-09 XBig12= 2.62D-08 2.57D-05.
     15 vectors produced by pass  9 Test12= 1.75D-13 4.17D-09 XBig12= 3.42D-10 2.43D-06.
      7 vectors produced by pass 10 Test12= 1.75D-13 4.17D-09 XBig12= 3.25D-12 2.30D-07.
      3 vectors produced by pass 11 Test12= 1.75D-13 4.17D-09 XBig12= 4.52D-14 2.22D-08.
 InvSVY:  IOpt=1 It=  1 EMax= 1.42D-14
 Solved reduced A of dimension   239 with    24 vectors.
 FullF1:  Do perturbations      1 to      24.
 Isotropic polarizability for W=    0.000000      154.87 Bohr**3.
 End of Minotr F.D. properties file   721 does not exist.
 End of Minotr F.D. properties file   722 does not exist.
 End of Minotr F.D. properties file   788 does not exist.
 Leave Link 1002 at Mon Jul 22 16:51:34 2024, MaxMem=120795955200 cpu:           11107.8 elap:              91.1
 (Enter /gpfs/fs1/soft/improv/software/custom-built/gaussian/g16/l601.exe)
 Copying SCF densities to generalized density rwf, IOpCl= 1 IROHF=0.
 SCF density gives NOpUse=  8 NOpAll= 48.
 Marking SCF density as not fully symmetric.

 **********************************************************************

            Population analysis using the SCF Density.

 **********************************************************************

 Orbital symmetries:
 Alpha Orbitals:
       Occupied  (A1G) (A1G) (T1U) (T1U) (T1U) (T2G) (T1U) (T1U)
                 (T2G) (T1U) (T2G) (T2G) (T1U) (T1U) (T2G) (T1U)
                 (T2G) (?A) (T1U) (T1U) (T1U) (T2G) (T1U) (T1U)
                 (T2G) (T1U) (T2G) (?A) (?A) (?B) (?B) (?A) (?B)
                 (?C) (?C) (?C) (?A) (?A) (?B) (?B) (?B) (?A) (?B)
                 (?B) (?B) (?C) (?C) (?C) (?C) (?B) (?B) (?B) (?C)
                 (?C)
       Virtual   (A1G) (?D) (?D) (?D) (?A) (?A) (?A) (?A) (?A)
                 (?D) (?D) (?D) (?C) (?C) (?C) (?C) (?C) (?C) (?C)
                 (?D) (?D) (?D) (?C) (?C) (?A) (?D) (?D) (?D) (?D)
                 (?D) (?D) (?D) (?D) (?D) (?A) (?A) (?C) (?C) (?C)
                 (?A) (?D) (?D) (?D) (?A) (?A) (?C) (?C) (?C) (?D)
                 (?D) (?D) (?D) (?D) (?D) (?D) (?D) (?D) (?A) (?A)
                 (?C) (?C) (?C) (?E) (T1U) (T1U) (?A) (T1U) (?E)
                 (?E) (?E) (?C) (?C) (?C) (?F) (?F) (?F) (?F) (?F)
                 (?F) (?F) (?F) (?F) (?F) (?C) (?C) (?C) (?E) (?E)
                 (?E) (?F) (?E) (?F) (?E) (?F) (?F) (?F) (?E) (?F)
                 (?F) (?C) (?F) (?C) (?C) (?C) (?C) (?C) (?E) (?F)
                 (?F) (?F) (?C) (?C) (?C) (?F) (?F) (?F) (?F) (?F)
                 (?F) (?F) (?E) (?E) (?F) (?F) (?F) (?F) (?F) (?F)
                 (?E) (?E) (?C) (?C) (?C) (?C) (?C) (?C) (?E) (?E)
                 (?F) (?F) (?F) (?F) (?F) (?E) (?C) (?C) (?C) (?F)
                 (?F) (?F) (?C) (?E) (?E) (?C) (?C) (?F) (?F) (?F)
                 (?F) (?F) (?F) (?C) (?C) (?C) (A2U) (?F) (?F)
                 (?F) (?E) (?E) (?E) (?F) (?F) (?F) (?E) (?E) (?E)
                 (?E) (?C) (?C) (?C) (?E) (?F) (?F) (?F) (?C) (?F)
                 (?F) (?F) (?F) (?F) (?F) (?C) (?C) (T2G) (T2G)
                 (T2G) (?F) (?F) (?F) (T2G) (?F) (?F) (?F) (?F)
                 (?F) (?F) (?F) (?F) (?F) (T1U) (T1U) (?F) (?F)
                 (?F) (?F) (?F) (?F) (T1G) (?F) (?F) (T1G) (?F)
                 (T1G) (T1U) (?F) (?F) (?F) (T2G) (T2G) (?F) (?F)
                 (?F) (?F) (?F) (?F) (?F) (?F) (?F) (?F) (?F) (?F)
                 (?F) (?F) (?F) (?F) (?F) (?F) (?F) (?F) (?F) (?F)
                 (?F) (?F) (?F) (?F) (?F) (?F) (?F) (?F) (?F) (?F)
                 (?F) (?F) (?F) (?F) (?F) (?F) (?F) (?F) (?F) (?F)
                 (?F) (?F) (?F) (?F) (?F) (?F) (?F) (?F) (?F) (?F)
                 (?F) (?F) (?F) (?F) (?F) (?F) (?F) (?F) (?F) (?F)
                 (?F) (?F) (?F) (?F) (?F) (?F) (T2U) (T2U) (T2U)
                 (?F) (?F) (?F) (?F) (?F) (?F) (?F) (?F) (?F) (?F)
                 (?F) (?F) (?F) (?F) (?F) (?F) (?F) (?F) (?F) (?F)
                 (?F) (?F) (?F) (?F) (?F) (?F) (?F) (?F) (?F) (?F)
                 (?F) (?F) (?F) (?F) (?F) (A2U) (?F) (?F) (?F)
                 (?F) (?F) (?F) (?F) (?F) (?F) (?F) (?F) (?F) (?F)
                 (?F) (?F) (?F) (?F) (?F) (?F) (?F) (?F) (?F) (?F)
                 (?F) (?F) (?F) (?F) (?F) (?F) (?F) (T1U) (T1U)
                 (T1U) (?F) (?F) (A1G) (T1U) (T1U) (T1U) (T2G)
                 (T2G) (T2G) (T1U) (T1U) (T1U) (T2G) (T2G) (T2G)
                 (A1G) (EG) (EG) (T1U) (T1U) (T1U) (A1G)
 Beta  Orbitals:
       Occupied  (A1G) (A1G) (T1U) (T1U) (T1U) (T2G) (T1U) (T1U)
                 (T2G) (T1U) (T2G) (T2G) (T1U) (T1U) (T2G) (T1U)
                 (T2G) (A1G) (T1U) (T1U) (T1U) (T2G) (T1U) (T1U)
                 (T2G) (T1U) (T2G) (?A) (?A) (?B) (?B) (?B) (?A)
                 (?C) (?C) (?C) (?A) (?A) (?B) (?B) (?B) (?A) (?B)
                 (?B) (?B) (?C) (?C) (?C) (?B) (?B) (?B) (?C) (?C)
       Virtual   (A1G) (?C) (?B) (?B) (?B) (?A) (?A) (?A) (?A)
                 (?B) (?B) (?B) (?A) (?C) (?C) (?C) (?C) (?C) (?C)
                 (?B) (?B) (?B) (?C) (?C) (?C) (?A) (?B) (?B) (?B)
                 (?B) (?B) (?B) (?B) (?B) (?B) (?A) (?A) (?C) (?C)
                 (?C) (?A) (?B) (?B) (?B) (?A) (?A) (?C) (?C) (?C)
                 (?B) (?B) (?B) (?B) (?B) (?B) (?B) (?B) (?B) (?A)
                 (?A) (?C) (?C) (?C) (?D) (T1U) (T1U) (?A) (T1U)
                 (?D) (?D) (?D) (?C) (?C) (?C) (?E) (?E) (?E) (?E)
                 (?E) (?F) (?E) (?E) (?E) (?E) (?C) (?C) (?C) (?D)
                 (?D) (?D) (?F) (?D) (?F) (?D) (?E) (?E) (?E) (?D)
                 (?E) (?E) (?E) (?C) (?C) (?C) (?C) (?C) (?C) (?D)
                 (?E) (?E) (?E) (?C) (?C) (?C) (?E) (?E) (?E) (?E)
                 (?E) (?E) (?F) (?D) (?D) (?E) (?E) (?E) (?E) (?E)
                 (?E) (?D) (?D) (?C) (?C) (?C) (?C) (?C) (?D) (?C)
                 (?F) (?F) (?F) (?E) (?E) (?E) (?F) (?C) (?C) (?C)
                 (?E) (?E) (?E) (?F) (?F) (?C) (?C) (?C) (?E) (?E)
                 (?E) (?E) (?E) (?E) (?C) (?C) (?C) (?E) (?E) (A2U)
                 (?E) (?F) (?F) (?F) (?E) (?E) (?E) (?F) (?F) (?F)
                 (?F) (?C) (?C) (?C) (?F) (?E) (?E) (?E) (?E) (?E)
                 (?E) (?E) (?E) (?E) (?C) (?C) (?C) (T2G) (T2G)
                 (T2G) (?E) (?E) (?E) (A1G) (?F) (?F) (?F) (?F)
                 (?F) (?F) (?F) (?F) (?F) (T1U) (T1U) (?F) (?F)
                 (?F) (?F) (?F) (?F) (T1G) (T2U) (T2U) (T1G) (T2U)
                 (T1G) (T1U) (?F) (?F) (?F) (EG) (?F) (EG) (?F)
                 (?F) (?F) (?F) (?F) (?F) (?F) (?F) (?F) (?F) (?F)
                 (?F) (?F) (?F) (?F) (?F) (?F) (?F) (?F) (?F) (?F)
                 (?F) (?F) (?F) (?F) (?F) (?F) (?F) (?F) (?F) (?F)
                 (?F) (?F) (?F) (?F) (?F) (?F) (?F) (?F) (?F) (?F)
                 (?F) (?F) (?F) (?F) (?F) (?F) (?F) (T2G) (T2G)
                 (T2G) (?F) (?F) (?F) (?F) (?F) (?F) (?F) (?F)
                 (?F) (?F) (?F) (?F) (?F) (?F) (?F) (?F) (?F) (?F)
                 (?F) (?F) (?F) (?F) (?F) (?F) (?F) (?F) (?F) (?F)
                 (?F) (?F) (?F) (?F) (?F) (?F) (?F) (?F) (?F) (?F)
                 (?F) (?F) (?F) (?F) (?F) (?F) (?F) (?F) (?F) (?F)
                 (?F) (?F) (?F) (T2G) (T2G) (T2G) (?F) (A2U) (?F)
                 (?F) (T1U) (T1U) (T1U) (?F) (?F) (?F) (?F) (?F)
                 (?F) (?F) (?F) (?F) (?F) (?F) (?F) (?F) (?F) (?F)
                 (?F) (?F) (?F) (?F) (?F) (?F) (?F) (?F) (?F) (T1U)
                 (T1U) (T1U) (EG) (EG) (A1G) (T1U) (T1U) (T1U)
                 (T2G) (T2G) (T2G) (T1U) (T1U) (T1U) (T2G) (T2G)
                 (T2G) (A1G) (EG) (EG) (T1U) (T1U) (T1U) (A1G)
 Unable to determine electronic state:  an orbital has unidentified symmetry.
 Alpha  occ. eigenvalues -- -255.75248 -29.73364 -25.60276 -25.60276 -25.57779
 Alpha  occ. eigenvalues --  -13.92050 -13.92049 -13.92049 -13.92047 -13.90718
 Alpha  occ. eigenvalues --  -13.90718  -9.79996  -9.79996  -9.79996  -9.79996
 Alpha  occ. eigenvalues --   -9.78957  -9.78957  -3.11843  -1.90519  -1.90519
 Alpha  occ. eigenvalues --   -1.85182  -0.50083  -0.49852  -0.49852  -0.49715
 Alpha  occ. eigenvalues --   -0.48642  -0.48632  -0.13268  -0.04942  -0.04309
 Alpha  occ. eigenvalues --   -0.04309  -0.03631  -0.03214   0.00091   0.02105
 Alpha  occ. eigenvalues --    0.02105   0.02916   0.03135   0.03635   0.03635
 Alpha  occ. eigenvalues --    0.04148   0.04444   0.06195   0.06572   0.06572
 Alpha  occ. eigenvalues --    0.07185   0.07931   0.07931   0.08522   0.09157
 Alpha  occ. eigenvalues --    0.09157   0.09604   0.12348   0.12348
 Alpha virt. eigenvalues --    0.24807   0.32231   0.32231   0.32407   0.34434
 Alpha virt. eigenvalues --    0.34791   0.36315   0.37122   0.38939   0.39618
 Alpha virt. eigenvalues --    0.39618   0.39640   0.41546   0.42668   0.42668
 Alpha virt. eigenvalues --    0.44274   0.44420   0.44461   0.44461   0.44568
 Alpha virt. eigenvalues --    0.44568   0.44581   0.44591   0.44591   0.44854
 Alpha virt. eigenvalues --    0.45007   0.45255   0.45255   0.47280   0.47448
 Alpha virt. eigenvalues --    0.47448   0.51009   0.51009   0.51256   0.51296
 Alpha virt. eigenvalues --    0.51316   0.52055   0.52578   0.52578   0.55452
 Alpha virt. eigenvalues --    0.56064   0.56064   0.56248   0.56768   0.56993
 Alpha virt. eigenvalues --    0.57797   0.58005   0.58005   0.60212   0.60262
 Alpha virt. eigenvalues --    0.60262   0.60752   0.60898   0.60898   0.64347
 Alpha virt. eigenvalues --    0.64347   0.64467   0.65307   0.65568   0.67044
 Alpha virt. eigenvalues --    0.67394   0.67394   0.71689   0.75109   0.75109
 Alpha virt. eigenvalues --    0.75140   0.75443   0.87247   0.87439   0.87491
 Alpha virt. eigenvalues --    0.90914   0.91184   0.91184   0.92690   0.92690
 Alpha virt. eigenvalues --    0.93611   1.03436   1.03436   1.03634   1.03902
 Alpha virt. eigenvalues --    1.04011   1.04011   1.04169   1.06999   1.07223
 Alpha virt. eigenvalues --    1.07223   1.08247   1.08666   1.10638   1.18111
 Alpha virt. eigenvalues --    1.18639   1.18732   1.19101   1.19929   1.19929
 Alpha virt. eigenvalues --    1.20457   1.21631   1.25792   1.25792   1.26088
 Alpha virt. eigenvalues --    1.26142   1.26278   1.26278   1.28156   1.28630
 Alpha virt. eigenvalues --    1.28630   1.30670   1.31030   1.31030   1.31162
 Alpha virt. eigenvalues --    1.32076   1.32457   1.32457   1.33781   1.34060
 Alpha virt. eigenvalues --    1.34060   1.35870   1.35870   1.36384   1.36576
 Alpha virt. eigenvalues --    1.36915   1.37548   1.38395   1.38395   1.38794
 Alpha virt. eigenvalues --    1.38869   1.38869   1.39033   1.41049   1.41624
 Alpha virt. eigenvalues --    1.42626   1.43234   1.43234   1.48576   1.48576
 Alpha virt. eigenvalues --    1.48602   1.48746   1.54420   1.59239   1.59835
 Alpha virt. eigenvalues --    1.67733   1.67733   1.68022   1.70836   1.71982
 Alpha virt. eigenvalues --    1.72610   1.72610   1.74673   1.74673   1.75212
 Alpha virt. eigenvalues --    1.76733   1.77518   1.77777   1.77874   1.77874
 Alpha virt. eigenvalues --    1.81222   1.81222   1.81877   1.86692   1.86746
 Alpha virt. eigenvalues --    1.86746   1.87662   1.87662   1.87888   1.90673
 Alpha virt. eigenvalues --    1.91009   1.91009   1.91926   1.97527   1.97872
 Alpha virt. eigenvalues --    2.04344   2.11229   2.11229   2.11888   2.14338
 Alpha virt. eigenvalues --    2.15156   2.15727   2.16274   2.18200   2.18964
 Alpha virt. eigenvalues --    2.18964   2.28290   2.44221   2.44221   2.44623
 Alpha virt. eigenvalues --    2.55328   2.56317   2.56317   2.56662   2.56662
 Alpha virt. eigenvalues --    2.56871   2.57263   2.57415   2.57415   2.63810
 Alpha virt. eigenvalues --    2.64426   2.65126   2.73659   2.73659   2.73805
 Alpha virt. eigenvalues --    3.01889   3.21057   3.21131   3.21485   3.21485
 Alpha virt. eigenvalues --    3.21498   3.21498   3.22462   3.22836   3.22836
 Alpha virt. eigenvalues --    3.25902   3.26647   3.30207   3.30207   3.30987
 Alpha virt. eigenvalues --    3.32494   3.32494   3.32583   3.33000   3.34193
 Alpha virt. eigenvalues --    3.34193   3.34982   3.35231   3.35680   3.45410
 Alpha virt. eigenvalues --    3.50942   3.50942   3.52745   3.56131   3.57129
 Alpha virt. eigenvalues --    3.57160   3.58097   3.58097   3.77044   3.77044
 Alpha virt. eigenvalues --    3.77171   3.77229   3.77854   3.77854   3.78517
 Alpha virt. eigenvalues --    3.78973   3.78973   4.06043   4.06267   4.06469
 Alpha virt. eigenvalues --    4.06469   4.06595   4.06595   4.07399   4.07402
 Alpha virt. eigenvalues --    4.07642   4.08241   4.08241   4.08403   4.08403
 Alpha virt. eigenvalues --    4.13343   4.13916   4.13916   4.16760   4.16932
 Alpha virt. eigenvalues --    4.21234   4.21234   4.21997   4.22911   4.23359
 Alpha virt. eigenvalues --    4.23359   4.31407   4.32056   4.32056   4.32148
 Alpha virt. eigenvalues --    4.32564   4.35066   4.35766   4.35766   4.44932
 Alpha virt. eigenvalues --    4.50035   4.54100   4.54952   4.55265   4.55996
 Alpha virt. eigenvalues --    4.55996   4.57234   4.57487   4.57487   4.58787
 Alpha virt. eigenvalues --    4.59004   4.59904   4.60742   4.60742   4.60808
 Alpha virt. eigenvalues --    4.61802   4.62816   4.62816   4.63855   4.63995
 Alpha virt. eigenvalues --    4.64339   4.65142   4.67794   4.67893   4.67893
 Alpha virt. eigenvalues --    4.69013   4.69153   4.69756   4.75795   4.81152
 Alpha virt. eigenvalues --    4.81477   4.81477   4.81903   4.82436   4.86962
 Alpha virt. eigenvalues --    4.86962   4.87671   4.88783   4.90117   4.90117
 Alpha virt. eigenvalues --    4.91493   4.91579   4.91579   4.91836   4.97145
 Alpha virt. eigenvalues --    4.97145   4.97394   4.99700   5.00267   5.01894
 Alpha virt. eigenvalues --    5.01894   5.01959   5.11388   5.11388   5.11862
 Alpha virt. eigenvalues --    5.18162   5.18580   5.18580   5.18809   5.19014
 Alpha virt. eigenvalues --    5.28169   5.30916   5.32711   5.34280   5.34280
 Alpha virt. eigenvalues --    5.43812   5.43812   5.44801   5.45251   5.45318
 Alpha virt. eigenvalues --    5.50100   5.50100   5.51015   5.78238   5.78238
 Alpha virt. eigenvalues --    5.78923   5.79613   5.80401   5.80401   5.95999
 Alpha virt. eigenvalues --    5.95999   5.96382   5.99469   5.99552   5.99552
 Alpha virt. eigenvalues --    6.02457   6.02991   6.03853   6.03853   6.21731
 Alpha virt. eigenvalues --    6.36770   6.37453   6.51994   6.51994   6.53391
 Alpha virt. eigenvalues --    6.92699   6.93226   7.87490  11.72662  11.72662
 Alpha virt. eigenvalues --   11.73925  11.78207  11.78773  11.80320  12.47923
 Alpha virt. eigenvalues --   12.47923  12.48937  13.44798  13.46099  13.46882
 Alpha virt. eigenvalues --   24.31410  24.83094  24.83528  28.91023  28.91023
 Alpha virt. eigenvalues --   28.91791  41.65888
  Beta  occ. eigenvalues -- -255.75222 -29.71352 -25.58128 -25.58128 -25.57085
  Beta  occ. eigenvalues --  -13.91974 -13.91973 -13.91973 -13.91971 -13.90734
  Beta  occ. eigenvalues --  -13.90733  -9.80077  -9.80077  -9.80077  -9.80077
  Beta  occ. eigenvalues --   -9.79006  -9.79006  -3.06762  -1.83519  -1.83519
  Beta  occ. eigenvalues --   -1.83174  -0.49970  -0.49730  -0.49730  -0.49592
  Beta  occ. eigenvalues --   -0.48694  -0.48678  -0.13217  -0.04592  -0.04328
  Beta  occ. eigenvalues --   -0.04328  -0.03393  -0.03132   0.02480   0.02480
  Beta  occ. eigenvalues --    0.03027   0.03060   0.03514   0.03747   0.03747
  Beta  occ. eigenvalues --    0.04102   0.04910   0.06194   0.06746   0.06746
  Beta  occ. eigenvalues --    0.07583   0.07923   0.07923   0.09183   0.09183
  Beta  occ. eigenvalues --    0.09461   0.14374   0.14374
  Beta virt. eigenvalues --    0.24808   0.26416   0.32233   0.32233   0.32404
  Beta virt. eigenvalues --    0.34624   0.34909   0.36328   0.38280   0.39608
  Beta virt. eigenvalues --    0.39608   0.39626   0.41200   0.42968   0.42968
  Beta virt. eigenvalues --    0.44231   0.44386   0.44464   0.44464   0.44474
  Beta virt. eigenvalues --    0.44575   0.44575   0.44579   0.44579   0.44793
  Beta virt. eigenvalues --    0.44866   0.44929   0.45204   0.45204   0.47242
  Beta virt. eigenvalues --    0.47448   0.47448   0.51032   0.51032   0.51250
  Beta virt. eigenvalues --    0.51323   0.51343   0.52031   0.52479   0.52479
  Beta virt. eigenvalues --    0.55492   0.56080   0.56080   0.56246   0.56789
  Beta virt. eigenvalues --    0.57028   0.58019   0.58022   0.58022   0.60210
  Beta virt. eigenvalues --    0.60333   0.60333   0.60753   0.60899   0.60899
  Beta virt. eigenvalues --    0.64348   0.64348   0.64444   0.65351   0.65579
  Beta virt. eigenvalues --    0.67169   0.67384   0.67384   0.71789   0.75137
  Beta virt. eigenvalues --    0.75137   0.75151   0.75432   0.87358   0.87440
  Beta virt. eigenvalues --    0.87774   0.91266   0.91266   0.91547   0.93311
  Beta virt. eigenvalues --    0.93311   0.93741   1.03497   1.03497   1.03671
  Beta virt. eigenvalues --    1.03878   1.03926   1.03926   1.04087   1.06920
  Beta virt. eigenvalues --    1.07182   1.07182   1.08278   1.08836   1.10576
  Beta virt. eigenvalues --    1.18140   1.18674   1.18727   1.19068   1.19969
  Beta virt. eigenvalues --    1.19969   1.20446   1.21673   1.25849   1.25849
  Beta virt. eigenvalues --    1.26109   1.26414   1.26414   1.26920   1.28114
  Beta virt. eigenvalues --    1.28589   1.28589   1.30869   1.31067   1.31067
  Beta virt. eigenvalues --    1.31118   1.32308   1.32483   1.32483   1.33749
  Beta virt. eigenvalues --    1.34177   1.34177   1.35923   1.35923   1.36378
  Beta virt. eigenvalues --    1.36843   1.36942   1.37570   1.38720   1.38720
  Beta virt. eigenvalues --    1.38780   1.38893   1.38893   1.39033   1.41232
  Beta virt. eigenvalues --    1.41654   1.42771   1.43201   1.43201   1.48662
  Beta virt. eigenvalues --    1.48662   1.48951   1.49075   1.54420   1.59197
  Beta virt. eigenvalues --    1.59779   1.68095   1.68146   1.68146   1.70761
  Beta virt. eigenvalues --    1.72086   1.72560   1.72560   1.74676   1.74676
  Beta virt. eigenvalues --    1.75157   1.77568   1.77727   1.78122   1.78122
  Beta virt. eigenvalues --    1.78339   1.81247   1.81247   1.81848   1.86687
  Beta virt. eigenvalues --    1.87242   1.87242   1.87583   1.87583   1.87903
  Beta virt. eigenvalues --    1.91131   1.91131   1.91685   1.91911   1.97426
  Beta virt. eigenvalues --    1.97951   2.04506   2.11431   2.11431   2.11936
  Beta virt. eigenvalues --    2.14632   2.15284   2.15811   2.16844   2.18289
  Beta virt. eigenvalues --    2.18896   2.18896   2.28489   2.44358   2.44358
  Beta virt. eigenvalues --    2.44742   2.56462   2.56462   2.56846   2.57298
  Beta virt. eigenvalues --    2.57509   2.57509   2.58318   2.58318   2.59389
  Beta virt. eigenvalues --    2.63860   2.64441   2.65116   2.74308   2.74337
  Beta virt. eigenvalues --    2.74337   3.02387   3.20879   3.20947   3.21343
  Beta virt. eigenvalues --    3.21343   3.21385   3.21385   3.22341   3.22755
  Beta virt. eigenvalues --    3.22755   3.25829   3.26563   3.30158   3.30158
  Beta virt. eigenvalues --    3.30935   3.32550   3.32654   3.32654   3.32906
  Beta virt. eigenvalues --    3.34285   3.34285   3.34893   3.35155   3.35572
  Beta virt. eigenvalues --    3.45736   3.51880   3.51880   3.52956   3.56477
  Beta virt. eigenvalues --    3.57445   3.58040   3.58054   3.58054   3.77105
  Beta virt. eigenvalues --    3.77430   3.77430   3.77532   3.77989   3.77989
  Beta virt. eigenvalues --    3.78557   3.78975   3.78975   4.06268   4.06485
  Beta virt. eigenvalues --    4.06682   4.06682   4.06683   4.06683   4.07596
  Beta virt. eigenvalues --    4.07636   4.07872   4.08264   4.08264   4.08446
  Beta virt. eigenvalues --    4.08446   4.13412   4.13903   4.13903   4.16939
  Beta virt. eigenvalues --    4.17862   4.21661   4.21661   4.22070   4.22835
  Beta virt. eigenvalues --    4.23381   4.23381   4.31365   4.31996   4.31996
  Beta virt. eigenvalues --    4.32115   4.32487   4.35022   4.35646   4.35646
  Beta virt. eigenvalues --    4.45100   4.49883   4.54254   4.54970   4.55430
  Beta virt. eigenvalues --    4.56329   4.56329   4.57318   4.57788   4.57788
  Beta virt. eigenvalues --    4.58735   4.59213   4.60273   4.60848   4.61259
  Beta virt. eigenvalues --    4.61259   4.61913   4.63146   4.63146   4.64090
  Beta virt. eigenvalues --    4.64147   4.64412   4.65112   4.67859   4.68123
  Beta virt. eigenvalues --    4.68123   4.68970   4.69284   4.69788   4.77256
  Beta virt. eigenvalues --    4.81086   4.81490   4.81490   4.81857   4.82397
  Beta virt. eigenvalues --    4.86999   4.86999   4.87961   4.89859   4.90295
  Beta virt. eigenvalues --    4.90295   4.91374   4.91630   4.91630   4.91810
  Beta virt. eigenvalues --    4.98272   4.98272   4.98493   4.99824   5.00204
  Beta virt. eigenvalues --    5.02083   5.02786   5.02786   5.11971   5.11971
  Beta virt. eigenvalues --    5.12313   5.19067   5.19067   5.19200   5.19274
  Beta virt. eigenvalues --    5.20099   5.28558   5.33987   5.34152   5.34538
  Beta virt. eigenvalues --    5.34538   5.43969   5.43969   5.44853   5.45447
  Beta virt. eigenvalues --    5.45859   5.51403   5.52711   5.52711   5.79217
  Beta virt. eigenvalues --    5.79217   5.79707   5.79951   5.80407   5.80407
  Beta virt. eigenvalues --    5.96503   5.97279   5.97279   6.00044   6.00044
  Beta virt. eigenvalues --    6.00069   6.03430   6.03464   6.04059   6.04059
  Beta virt. eigenvalues --    6.22439   6.36850   6.37570   6.52156   6.52156
  Beta virt. eigenvalues --    6.53418   6.92621   6.93288   7.88429  11.72797
  Beta virt. eigenvalues --   11.72797  11.73889  11.78370  11.78888  11.80339
  Beta virt. eigenvalues --   12.47854  12.47854  12.48877  13.44831  13.46005
  Beta virt. eigenvalues --   13.46824  24.31725  24.83118  24.83557  28.91049
  Beta virt. eigenvalues --   28.91049  28.91775  41.67084
          Condensed to atoms (all electrons):
               1          2          3          4          5          6
     1  Fe  32.403108  -1.429197  -1.429197  -1.553504  -1.429197  -1.429197
     2  C   -1.429197   8.523278  -0.015738  -0.029561  -1.311058  -0.015738
     3  C   -1.429197  -0.015738   8.523278  -0.029561  -0.015738  -1.311058
     4  C   -1.553504  -0.029561  -0.029561   8.796277  -0.029561  -0.029561
     5  C   -1.429197  -1.311058  -0.015738  -0.029561   8.523278  -0.015738
     6  C   -1.429197  -0.015738  -1.311058  -0.029561  -0.015738   8.523278
     7  C   -1.553504  -0.029561  -0.029561  -1.457784  -0.029561  -0.029561
     8  N    0.227825   0.497234  -0.023216  -0.026029   0.050630  -0.023216
     9  N    0.227825  -0.023216   0.497234  -0.026029  -0.023216   0.050630
    10  N    0.274511  -0.027985  -0.027985   0.466807  -0.027985  -0.027985
    11  N    0.227825   0.050630  -0.023216  -0.026029   0.497234  -0.023216
    12  N    0.227825  -0.023216   0.050630  -0.026029  -0.023216   0.497234
    13  N    0.274511  -0.027985  -0.027985   0.055409  -0.027985  -0.027985
               7          8          9         10         11         12
     1  Fe  -1.553504   0.227825   0.227825   0.274511   0.227825   0.227825
     2  C   -0.029561   0.497234  -0.023216  -0.027985   0.050630  -0.023216
     3  C   -0.029561  -0.023216   0.497234  -0.027985  -0.023216   0.050630
     4  C   -1.457784  -0.026029  -0.026029   0.466807  -0.026029  -0.026029
     5  C   -0.029561   0.050630  -0.023216  -0.027985   0.497234  -0.023216
     6  C   -0.029561  -0.023216   0.050630  -0.027985  -0.023216   0.497234
     7  C    8.796277  -0.026029  -0.026029   0.055409  -0.026029  -0.026029
     8  N   -0.026029   6.829478   0.005391   0.006987  -0.000304   0.005391
     9  N   -0.026029   0.005391   6.829478   0.006987   0.005391  -0.000304
    10  N    0.055409   0.006987   0.006987   6.844922   0.006987   0.006987
    11  N   -0.026029  -0.000304   0.005391   0.006987   6.829478   0.005391
    12  N   -0.026029   0.005391  -0.000304   0.006987   0.005391   6.829478
    13  N    0.466807   0.006987   0.006987  -0.000354   0.006987   0.006987
              13
     1  Fe   0.274511
     2  C   -0.027985
     3  C   -0.027985
     4  C    0.055409
     5  C   -0.027985
     6  C   -0.027985
     7  C    0.466807
     8  N    0.006987
     9  N    0.006987
    10  N   -0.000354
    11  N    0.006987
[...]
     Eigenvalues ---    0.06127   0.06132   0.07262   0.08424   0.08424
     Eigenvalues ---    0.08577   0.09180   0.13348   0.13350   0.30059
     Eigenvalues ---    0.30060   0.31914   2.29874   2.30978   2.31868
     Eigenvalues ---    2.31917   2.32544   2.34205
 Angle between quadratic step and forces=  77.22 degrees.
 Linear search not attempted -- first point.
 B after Tr=    -0.000018    0.000012    0.000007
         Rot=    1.000000   -0.000000    0.000000   -0.000000 Ang=  -0.00 deg.
 Variable       Old X    -DE/DX   Delta X   Delta X   Delta X     New X
                                 (Linear)    (Quad)   (Total)
    X1       -0.68506  -0.00000   0.00000  -0.00033  -0.00035  -0.68541
    Y1       -0.72033   0.00001   0.00000   0.00020   0.00021  -0.72012
    Z1       -0.00014   0.00000   0.00000   0.00013   0.00014  -0.00000
    X2       -0.68582  -0.00001   0.00000   0.00026   0.00024  -0.68558
    Y2        3.04180   0.00008   0.00000   0.00047   0.00048   3.04228
    Z2        0.00005   0.00001   0.00000   0.00002   0.00003   0.00008
    X3        3.07703   0.00002   0.00000  -0.00003  -0.00005   3.07699
    Y3       -0.71963  -0.00000   0.00000  -0.00034  -0.00032  -0.71995
    Z3       -0.00007   0.00000   0.00000   0.00010   0.00011   0.00004
    X4       -0.68511   0.00000   0.00000  -0.00031  -0.00033  -0.68544
    Y4       -0.72048   0.00000   0.00000   0.00029   0.00030  -0.72018
    Z4        3.75331   0.00003   0.00000   0.00038   0.00039   3.75370
    X5       -0.68514  -0.00004   0.00000  -0.00010  -0.00011  -0.68525
    Y5       -4.48242  -0.00013   0.00000  -0.00011  -0.00010  -4.48252
    Z5       -0.00012   0.00001   0.00000   0.00004   0.00004  -0.00008
    X6       -4.44726  -0.00004   0.00000  -0.00054  -0.00056  -4.44782
    Y6       -0.72024   0.00000   0.00000  -0.00006  -0.00005  -0.72029
    Z6       -0.00009  -0.00000   0.00000   0.00004   0.00004  -0.00004
    X7       -0.68498   0.00000   0.00000  -0.00039  -0.00040  -0.68538
    Y7       -0.72021   0.00000   0.00000   0.00014   0.00015  -0.72006
    Z7       -3.75355  -0.00004   0.00000  -0.00016  -0.00015  -3.75370
    X8       -0.68691   0.00001   0.00000   0.00124   0.00121  -0.68569
    Y8        5.25466  -0.00005   0.00000   0.00042   0.00044   5.25510
    Z8        0.00038  -0.00000   0.00000  -0.00026  -0.00025   0.00013
    X9        5.28985   0.00001   0.00000  -0.00002  -0.00004   5.28980
    Y9       -0.71911  -0.00000   0.00000  -0.00076  -0.00074  -0.71985
    Z9       -0.00000  -0.00000   0.00000   0.00007   0.00008   0.00007
   X10       -0.68514   0.00000   0.00000  -0.00029  -0.00031  -0.68545
   Y10       -0.72044  -0.00000   0.00000   0.00022   0.00024  -0.72021
   Z10        5.96850  -0.00001   0.00000   0.00037   0.00038   5.96888
   X11       -0.68689   0.00003   0.00000   0.00176   0.00175  -0.68515
   Y11       -6.69532   0.00009   0.00000  -0.00003  -0.00002  -6.69534
   Z11        0.00043  -0.00001   0.00000  -0.00056  -0.00056  -0.00013
   X12       -6.66009   0.00001   0.00000  -0.00053  -0.00055  -6.66063
   Y12       -0.71979  -0.00001   0.00000  -0.00061  -0.00061  -0.72039
   Z12        0.00005  -0.00000   0.00000  -0.00013  -0.00012  -0.00008
   X13       -0.68488   0.00000   0.00000  -0.00048  -0.00050  -0.68538
   Y13       -0.72006  -0.00000   0.00000   0.00002   0.00003  -0.72003
   Z13       -5.96874   0.00001   0.00000  -0.00014  -0.00013  -5.96888
         Item               Value     Threshold  Converged?
 Maximum Force            0.000127     0.000450     YES
 RMS     Force            0.000033     0.000300     YES
 Maximum Displacement     0.001745     0.001800     YES
 RMS     Displacement     0.000463     0.001200     YES
 Predicted change in Energy=-6.599118D-08
 Optimization completed.
    -- Stationary point found.
 GradGradGradGradGradGradGradGradGradGradGradGradGradGradGradGradGradGrad

 Leave Link  103 at Mon Jul 22 17:14:54 2024, MaxMem=120795955200 cpu:               0.6 elap:               0.0
 (Enter /gpfs/fs1/soft/improv/software/custom-built/gaussian/g16/l9999.exe)

 ----------------------------------------------------------------------

 Electric dipole moment (input orientation):
 (Debye = 10**-18 statcoulomb cm , SI units = C m)
                  (au)            (Debye)         (10**-30 SI)
   Tot        0.873264D-03      0.221962D-02      0.740384D-02
   x          0.771485D-03      0.196092D-02      0.654092D-02
   y         -0.319600D-03     -0.812342D-03     -0.270968D-02
   z         -0.255454D-03     -0.649300D-03     -0.216583D-02

 Dipole polarizability, Alpha (input orientation).
 (esu units = cm**3 , SI units = C**2 m**2 J**-1)
 Alpha(0;0):
               (au)            (10**-24 esu)      (10**-40 SI)
   iso        0.160397D+03      0.237683D+02      0.264458D+02
   aniso      0.323280D+01      0.479051D+00      0.533017D+00
   xx         0.161472D+03      0.239277D+02      0.266231D+02
   yx         0.344628D-02      0.510687D-03      0.568216D-03
   yy         0.161476D+03      0.239283D+02      0.266239D+02
   zx        -0.153001D-02     -0.226724D-03     -0.252265D-03
   zy        -0.202318D-02     -0.299805D-03     -0.333578D-03
   zz         0.158241D+03      0.234490D+02      0.260905D+02

 ----------------------------------------------------------------------

 Dipole orientation:
    26         -0.45170738          0.81699983         -0.34155008
     6          0.48925804         -2.55500409         -1.71915269
     6          1.03891468         -0.12469309          2.98179591
     6          2.86422211          2.19085068         -1.43952922
     6         -1.39281062          4.18925336          1.03524202
     6         -1.94205836          1.75805698         -3.66530802
     6         -3.76759781         -0.55681695          0.75645790
     7          1.04267508         -4.53815771         -2.53007765
     7          1.91572648         -0.67867745          4.93649531
     7          4.82122166          3.00154294         -2.08757297
     7         -1.94658444          6.17347402          1.84341452
     7         -2.81845832          2.31124205         -5.62043658
     7         -5.72452852         -1.36769507          1.40450388

 Electric dipole moment (dipole orientation):
 (Debye = 10**-18 statcoulomb cm , SI units = C m)
                  (au)            (Debye)         (10**-30 SI)
   Tot        0.873264D-03      0.221962D-02      0.740384D-02
   x          0.000000D+00      0.000000D+00      0.000000D+00
   y          0.000000D+00      0.000000D+00      0.000000D+00
   z          0.873264D-03      0.221962D-02      0.740384D-02

 Dipole polarizability, Alpha (dipole orientation).
 (esu units = cm**3 , SI units = C**2 m**2 J**-1)
 Alpha(0;0):
               (au)            (10**-24 esu)      (10**-40 SI)
   iso        0.160397D+03      0.237683D+02      0.264458D+02
   aniso      0.323280D+01      0.479051D+00      0.533017D+00
   xx         0.158950D+03      0.235539D+02      0.262072D+02
   yx        -0.104542D+01     -0.154916D+00     -0.172367D+00
   yy         0.161046D+03      0.238645D+02      0.265529D+02
   zx         0.834567D+00      0.123670D+00      0.137602D+00
   zy         0.343997D+00      0.509751D-01      0.567174D-01
   zz         0.161194D+03      0.238865D+02      0.265774D+02

 ----------------------------------------------------------------------
 Unable to Open any file for archive entry.
 1\1\GINC-I817\Freq\UB3LYP\6-31+G(2df,p)\C6Fe1N6(3-,2)\HHARB\22-Jul-202
 4\0\\#P Geom=AllCheck Guess=TCheck SCRF=Check GenChk UB3LYP/6-31+G(2df
 ,p) Freq\\title\\-3,2\Fe,-0.3625198495,-0.3811814065,-0.0000738651\C,-
 0.3629224945,1.6096515297,0.0000250792\C,1.6282957218,-0.3808116858,-0
 .0000350982\C,-0.3625462095,-0.3812627608,1.9861681592\C,-0.3625580473
 ,-2.3719940166,-0.0000634282\C,-2.3533870122,-0.3811338882,-0.00004526
 07\C,-0.3624763253,-0.38111663,-1.9862954918\N,-0.3634953951,2.7806486
 864,0.0002017896\N,2.7992666176,-0.3805343448,-0.000000505\N,-0.362562
 0181,-0.3812425077,3.1583918214\N,-0.3634879681,-3.5430114677,0.000225
 7969\N,-3.5243664004,-0.3808944651,0.0000243167\N,-0.3624204393,-0.381
 0400429,-3.158523314\\Version=ES64L-G16RevC.02\State=2-A\HF=-1820.7302
 345\S2=0.761988\S2-1=0.\S2A=0.750128\RMSD=2.915e-09\RMSF=3.300e-05\Zer
 oPoint=0.0487628\Thermal=0.0636564\ETot=-1820.6665781\HTot=-1820.66563
 39\GTot=-1820.7237869\Dipole=0.0007715,-0.0003196,-0.0002555\DipoleDer
 iv=0.6285812,0.0000576,-0.0000265,-0.0000779,0.6285752,0.000009,-0.000
 0314,-0.0000397,-0.14955,-0.0151532,-0.0001107,0.0000125,-0.0000044,0.
 1256729,-0.0000064,0.0000099,0.0000274,0.1171358,0.1257105,0.0000257,-
 0.0000062,0.0000608,-0.0151446,0.0000055,0.0000005,0.0000036,0.117321,
 0.0779087,0.0000024,0.0000444,0.0000033,0.0778965,-0.0001167,0.0000511
 ,-0.0000309,0.5299593,-0.0151829,0.0001433,0.0000126,-0.0000086,0.1256
 47,0.0000393,0.00001,-0.0000468,0.1173636,0.125573,0.0000423,0.0000291
 ,-0.0000814,-0.0152155,0.0000055,-0.0000192,0.0000035,0.11718,0.077915
 9,0.0000023,-0.0000946,0.0000034,0.077932,0.0000626,-0.0000492,0.00001
 52,0.5300971,-0.4332551,0.0002345,-0.0000027,0.0000643,-1.1071751,-0.0
 000046,-0.0000027,-0.0000704,-0.4470925,-1.1072501,-0.0000663,0.000008
 8,-0.0001333,-0.4332944,-0.0000018,-0.0000156,-0.0000022,-0.447131,-0.
 4622228,0.0000013,-0.0000112,0.0000008,-0.4622138,0.0000223,-0.0000526
 ,0.000061,-1.2954759,-0.4332782,-0.0002892,-0.0000027,0.0000769,-1.107
 2108,-0.0000331,-0.0000028,0.000093,-0.4471361,-1.1071115,-0.0000442,-
 0.000017,0.0000954,-0.4332294,-0.0000018,0.0000249,-0.0000022,-0.44709
 94,-0.4622355,0.0000013,0.0000536,0.0000008,-0.4622401,0.0000203,0.000
 077,-0.0000114,-1.295572\Polar=161.4720695,0.0034463,161.4763415,-0.00
 153,-0.0020232,158.2414164\Quadrupole=1.01512,1.0145437,-2.0296638,-0.
 0022953,0.0010984,0.0015211\PG=C01 [X(C6Fe1N6)]\NImag=0\\0.26974164,0.
 00000228,0.26975508,0.00000484,-0.00000161,0.28174607,-0.03022776,0.00
 001365,-0.00000201,0.05445823,0.00000670,-0.06969346,-0.00000111,-0.00
 055307,1.22768908,-0.00000196,-0.00000319,-0.04868202,0.00000161,0.000
 17024,0.08090661,-0.06969915,-0.00000914,-0.00000064,-0.00084635,0.000
 42463,-0.00000021,1.22788978,-0.00000810,-0.03022750,0.00000013,0.0097
 1122,-0.00083931,-0.00000125,0.00027219,0.05442198,-0.00000120,-0.0000
 0003,-0.04868854,0.00000084,-0.00000015,0.00168272,0.00003311,-0.00000
 200,0.08088534,-0.04910660,-0.00000035,-0.00000035,0.00088773,0.000000
 77,-0.00000208,-0.00279694,-0.00000149,0.02071462,0.08149460,0.0000006
 1,-0.04910557,0.00000301,0.00000050,-0.00279701,0.02071185,-0.00000093
 ,0.00088654,-0.00000403,-0.00000091,0.08149412,-0.00000112,-0.00000130
 ,-0.06110271,-0.00000081,0.00179383,-0.00270635,0.00179411,0.00000086,
 -0.00270835,-0.00001378,0.00002203,1.21629203,-0.03022380,-0.00001591,
 -0.00000202,-0.00091871,0.00000186,0.00000106,-0.00084349,-0.00971212,
 0.00000171,0.00088997,-0.00000053,-0.00000177,0.05446249,-0.00000036,-
 0.06969667,0.00000007,0.00000233,-0.01158345,0.00000048,-0.00042448,-0
 .00084156,0.00000055,0.00000028,-0.00279697,-0.00179438,0.00088825,1.2
 2753400,-0.00000199,0.00000746,-0.04869608,0.00000106,-0.00000018,0.00
 051485,0.00000076,0.00000167,0.00169161,-0.00000146,-0.02071216,-0.002
 70848,0.00000158,-0.00027624,0.08092509,-0.06968313,0.00000382,-0.0000
 0098,-0.00084216,-0.00042402,0.00000071,-0.01158226,-0.00000327,0.0000
 0070,-0.00279663,0.00000017,-0.00179447,-0.00083934,0.00042296,-0.0000
 0029,1.22781319,0.00000968,-0.03022585,0.00000014,-0.00971084,-0.00084
 540,-0.00000018,0.00000052,-0.00091860,0.00000047,0.00000167,0.0008878
 2,0.00000121,0.00970377,-0.00084508,0.00000061,-0.00023256,0.05443882,
 0.00000140,-0.00000002,-0.04868925,-0.00000083,0.00000048,0.00168471,0
 .00000108,0.00000049,0.00051345,-0.02071206,-0.00000516,-0.00270728,-0
 .00000171,-0.00000009,0.00169777,-0.00006582,-0.00000201,0.08088690,-0
 .04910792,-0.00000036,-0.00000068,0.00088719,0.00000081,0.00000199,-0.
 00279507,0.00000023,-0.02071569,0.00156143,0.00000064,0.00000081,0.000
 88574,0.00000024,0.00000139,-0.00279555,-0.00000002,0.02071307,0.08150
 017,0.00000061,-0.04910888,-0.00000527,0.00000183,-0.00279488,-0.02071
 338,-0.00000063,0.00088867,0.00000446,0.00000066,0.00156268,-0.0000001
 8,-0.00000185,-0.00279565,0.02071362,-0.00000016,0.00088736,0.00000557
 ,-0.00000091,0.08149852,-0.00000143,0.00000031,-0.06110923,0.00000113,
 -0.00179471,-0.00270767,-0.00179447,-0.00000060,-0.00270904,-0.0000003
 1,0.00000156,-0.01403277,0.00000209,0.00179425,-0.00270949,0.00179401,
 -0.00000094,-0.00270700,-0.00005007,-0.00007229,1.21626474,0.00805514,
 0.00000032,0.00000030,-0.02505783,0.00054406,-0.00000088,-0.00005821,-
 0.00120542,-0.00000027,-0.00005533,-0.00000051,0.00000116,0.00001057,0
 .00000111,-0.00000018,-0.00006097,0.00120305,0.00000028,-0.00005493,-0
 .00000063,-0.00000115,0.01580652,0.00000679,-0.00622661,-0.00000354,0.
 00053535,-1.13836751,-0.00016447,-0.00115826,0.00079929,0.00000014,0.0
 0000003,0.00106696,-0.00265769,0.00000156,-0.00125518,-0.00000038,0.00
 115753,0.00079929,-0.00000028,-0.00000039,0.00106566,0.00265827,-0.000
 54166,1.14242910,0.00000023,0.00000031,0.01302918,-0.00000089,-0.00016
 906,-0.03164508,-0.00000006,0.00000037,-0.00023918,0.00000060,-0.00312
 579,0.00010904,-0.00000020,-0.00000054,-0.00078353,0.00000010,0.000000
 35,-0.00024033,-0.00000056,0.00312654,0.00011021,0.00000080,0.00016783
 ,0.01783834,-0.00622827,-0.00000288,-0.00000116,0.00080061,-0.00115719
 ,0.00000011,-1.13856329,-0.00026040,-0.00003273,0.00106691,0.00000036,
 -0.00265807,0.00080066,0.00115713,-0.00000022,-0.00125522,-0.00000074,
 -0.00000050,0.00106598,0.00000008,0.00265860,0.00044326,0.00196514,0.0
 0000015,1.14262742,-0.00000191,0.00805587,0.00000011,-0.00120382,-0.00
 006023,0.00000018,-0.00026243,-0.02502920,0.00000086,0.00000032,-0.000
 05486,-0.00000066,0.00120434,-0.00005884,-0.00000022,-0.00000035,0.000
 01067,-0.00000005,0.00000014,-0.00005530,0.00000064,0.00070676,0.00044
 484,0.,0.00026316,0.01577708,-0.00000008,-0.00000005,0.01303139,-0.000
 00009,0.00000002,-0.00023950,-0.00003349,0.00000090,-0.03162042,-0.003
 12666,0.00000089,0.00010974,-0.00000019,0.00000004,-0.00024122,-0.0000
 0024,-0.00000008,-0.00078326,0.00312689,-0.00000089,0.00011002,0.00000
 010,0.00000002,0.00025415,0.00003369,-0.00000080,0.01781239,0.01232438
 ,0.00000001,0.00000052,0.00002463,0.00000010,0.00000024,0.00030391,0.0
 0000011,-0.00310477,-0.03127044,-0.00000011,0.00001453,0.00002442,-0.0
 0000020,0.00000027,0.00030404,-0.00000008,0.00310427,-0.00088460,-0.00
 000008,0.00000005,0.00020426,-0.00000012,-0.00000026,0.00044273,0.0000
 0006,0.00099204,0.01752813,0.00000004,0.01232406,0.00000112,0.00000009
 ,0.00030379,-0.00310424,-0.00000005,0.00002490,0.00000077,-0.00000014,
 -0.03127029,-0.00002124,-0.00000024,0.00030410,0.00310440,0.,0.0000247
 4,0.00000096,-0.00000006,-0.00088482,-0.00000029,-0.00000013,0.0004427
 0,0.00099201,0.,0.00020417,-0.00000005,0.00000024,0.01752838,0.0000010
 0,-0.00000022,-0.00844960,0.00000112,-0.00227299,0.00110704,-0.0022732
 4,-0.00000090,0.00110740,0.00001375,-0.00001882,-1.13121353,0.00000139
 ,0.00227338,0.00110769,0.00227267,-0.00000076,0.00110739,0.00000005,0.
 00000052,0.00044994,-0.00000120,0.00287935,0.00048640,0.00287961,0.000
 00065,0.00048610,-0.00001438,0.00001893,1.13580902,0.00805450,0.000005
 22,0.00000030,0.00001067,-0.00000238,-0.00000018,-0.00005746,0.0012069
 8,-0.00000079,-0.00005585,0.00000095,0.00000176,-0.02507258,-0.0008892
 5,-0.00000083,-0.00006176,-0.00120037,0.00000079,-0.00005448,0.0000010
 7,-0.00000175,0.00011782,-0.00000141,0.00000003,0.00044274,-0.00070591
 ,0.00000017,0.00020441,0.00000018,-0.00000160,0.01582224,-0.00001440,-
 0.00623035,0.00000532,-0.00000089,-0.00125521,-0.00000037,0.00115819,0
 .00079961,-0.00000019,-0.00000035,0.00106659,0.00265798,-0.00086491,-1
 .13820930,0.00026611,-0.00115567,0.00080086,0.00000023,0.00000007,0.00
 106621,-0.00265837,0.00000094,-0.00208649,-0.00000012,-0.00196527,0.00
 044372,-0.00000003,0.00000009,0.00044272,-0.00287964,0.00087760,1.1422
 7523,0.00000023,-0.00000320,0.01303189,-0.00000020,0.00000078,-0.00078
 348,-0.00000026,-0.00000044,-0.00023995,0.00000128,0.00312564,0.000109
 20,-0.00000084,0.00027543,-0.03166363,0.00000031,-0.00000042,-0.000243
 28,-0.00000124,-0.00312697,0.00011075,0.00000003,0.00000037,0.00034068
 ,0.00000028,-0.00000003,0.00025410,-0.00000037,-0.00099227,0.00048657,
 0.00000075,-0.00027051,0.01785669,-0.00622418,0.00000332,0.00000132,0.
 00079889,0.00115777,-0.00000011,-0.00125514,0.00000016,-0.00000039,0.0
 0106573,-0.00000016,0.00265775,0.00079903,-0.00115797,0.00000024,-1.13
 850413,0.00022580,0.00006466,0.00106663,0.00000013,-0.00265796,0.00044
 553,-0.00196463,-0.00000017,-0.00208655,-0.00000045,0.00000002,0.00044
 285,0.00000007,-0.00287932,0.00044572,0.00196472,-0.00000030,1.1425630
 4,-0.00000200,0.00805448,0.00000011,0.00120372,-0.00006008,-0.00000004
 ,0.00000052,0.00001058,-0.00000004,-0.00000043,-0.00005521,-0.00000057
 ,-0.00120414,-0.00005941,0.,0.00023148,-0.02503942,0.00000087,-0.00000
 026,-0.00005517,0.00000055,-0.00070779,0.00044494,0.00000003,0.0000004
 2,0.00011782,0.,-0.00000002,0.00020423,0.00000046,0.00070718,0.0004437
 5,-0.00000006,-0.00022863,0.01578935,-0.00000021,-0.00000005,0.0130300
 2,0.00000014,-0.00000012,-0.00023961,0.00000004,-0.00000008,-0.0007832
 7,0.00312598,0.00000109,0.00010954,0.00000023,0.00000018,-0.00024243,0
 .00006580,0.00000091,-0.03162689,-0.00312639,-0.00000109,0.00010975,-0
 .00000012,0.00000011,0.00025456,0.00000017,0.,0.00034065,-0.00099206,-
 0.00000017,0.00048614,-0.00000020,-0.00000013,0.00025507,-0.00006518,-
 0.00000081,0.01782061,0.01232514,0.00000001,0.00000057,0.00002485,-0.0
 0000004,-0.00000030,0.00030367,-0.00000010,0.00310485,-0.00088458,-0.0
 0000008,-0.00000009,0.00002504,-0.00000006,-0.00000035,0.00030393,0.00
 000013,-0.00310463,-0.03127459,-0.00000012,0.00005127,0.00020416,0.000
 00008,0.00000023,0.00044302,0.00000011,-0.00099216,0.00035128,0.,0.000
 00015,0.00020403,-0.00000012,0.00000034,0.00044257,-0.00000006,0.00099
 178,0.01753148,0.00000004,0.01232540,0.00000151,-0.00000005,0.00030369
 ,0.00310437,-0.00000013,0.00002461,-0.00000082,-0.00000007,-0.00088478
 ,0.00000011,-0.00000010,0.00030402,-0.00310470,0.00000008,0.00002480,-
 0.00000100,-0.00000014,-0.03127439,0.00007160,-0.00000010,0.00044301,-
 0.00099193,0.00000019,0.00020426,0.00000002,0.,0.00035132,0.00000003,0
 .00000014,0.00044267,0.00099168,-0.00000012,0.00020415,0.00000013,0.00
 000024,0.01753124,0.00000029,0.00000159,-0.00845112,-0.00000106,0.0022
 7297,0.00110779,0.00227328,0.00000083,0.00110824,0.00000047,-0.0000001
 2,0.00044993,-0.00000133,-0.00227312,0.00110786,-0.00227250,0.00000069
 ,0.00110707,0.00005042,0.00006935,-1.13118019,0.00000113,-0.00287974,0
 .00048557,-0.00287993,-0.00000070,0.00048586,-0.00000007,0.00000006,-0
 .00297054,0.00000154,0.00287971,0.00048539,0.00287943,-0.00000051,0.00
 048586,-0.00005166,-0.00007101,1.13577830\\0.00000283,-0.00000889,-0.0
 0000048,0.00000947,-0.00008084,-0.00000641,-0.00002438,0.00000106,-0.0
 0000062,-0.00000145,-0.00000484,-0.00003411,0.00003800,0.00012683,-0.0
 0001189,0.00003696,-0.00000315,0.00000051,-0.00000010,-0.00000165,0.00
 004425,-0.00001074,0.00005181,0.00000378,-0.00000854,0.00000290,0.0000
 0031,-0.00000079,0.00000261,0.00000779,-0.00002696,-0.00009323,0.00000
 943,-0.00001427,0.00000550,0.00000194,-0.00000002,0.00000189,-0.000014
 50\\\@
 The archive entry for this job was punched.


 Standing in the middle of the road is very dangerous;
 you get knocked down by the traffic from both sides.
                                -- Margaret Thatcher
 Job cpu time:       0 days  7 hours 49 minutes 16.3 seconds.
 Elapsed time:       0 days  0 hours  3 minutes 47.7 seconds.
 File lengths (MBytes):  RWF=    490 Int=      0 D2E=      0 Chk=     48 Scr=      1
 Normal termination of Gaussian 16 at Mon Jul 22 17:14:54 2024.
