31
Fe_CN6_minus2_HS.log	Energy: -1430167.2233838
Fe         0.14133       -0.16111        0.06570
C         -0.44499       -1.47160        1.46719
C          0.84724        1.05373        1.49903
C          2.23132       -1.22238       -0.09320
C          0.70325        1.16324       -1.33353
C         -0.59677       -1.36426       -1.36189
C         -1.96886        0.92491        0.20241
N         -0.79701       -2.24525        2.28494
N          1.25148        1.77277        2.34199
N          3.29280       -1.73238       -0.19384
N          1.03392        1.95017       -2.14759
N         -1.04576       -2.06784       -2.19518
N         -3.01177        1.48044        0.23768
H         -4.55408        3.63856       -1.15650
H         -4.37741        2.54634       -0.09596
H          1.79978        4.86968       -2.29499
H          1.55779        3.49281       -2.91678
H          0.24329        3.33412        4.72249
H          1.34942        2.85432        3.78031
H          4.96321       -2.10338       -0.63386
H          5.95005       -1.34114       -1.52454
H         -1.65458       -3.60459        3.09861
H         -2.71736       -4.56145        2.55567
H         -3.61303       -2.42694       -3.74008
H         -2.17767       -2.81544       -3.38138
O          1.20423        3.43215        4.59545
O          1.83712        4.43102       -3.16390
O          5.91445       -2.15320       -0.98846
O         -2.22765       -4.38703        3.37930
O         -2.94158       -3.08982       -3.98161
O         -5.05366        3.22920       -0.42792
