31
Fe_CN6_minus3_LS.log	Energy: -1430351.2755506
Fe         0.11748        0.27672        0.08084
C         -0.78903        1.76398        0.98197
C         -1.36663        0.23900       -1.20166
C          1.10984        1.58034       -0.99797
C          1.00589       -1.21056       -0.84166
C          1.58000        0.29517        1.38839
C         -0.86049       -1.05509        1.13883
N         -1.34486        2.65250        1.52566
N         -2.26220        0.20172       -1.97036
N          1.71182        2.34667       -1.66458
N          1.52709       -2.10233       -1.41372
N          2.44539        0.29580        2.19157
N         -1.44120       -1.86483        1.77237
H         -1.43122       -4.86456        1.87310
H         -1.90809       -3.48284        2.32869
H          0.79627       -3.95675       -3.66063
H          1.73683       -3.42534       -2.57493
H         -4.74834       -1.46581       -2.17995
H         -3.79080       -0.37344       -2.66310
H          2.90882        2.93270       -2.83490
H          3.93791        2.16501       -3.66856
H         -2.65704        3.77672        1.92571
H         -4.06872        3.89948        1.34701
H          3.14610       -1.34587        4.60464
H          3.38787       -0.21013        3.60703
O         -4.66430       -0.82267       -2.90499
O          1.68169       -4.13133       -3.29775
O          3.63712        3.07840       -3.52220
O         -3.50373        4.32336        2.01585
O          3.78631       -0.63338        4.43523
O         -2.04883       -4.46783        2.51138
