31
Fe_CN6_minus3_HS.log	Energy: -1430289.7953230
Fe         0.09200        0.12663       -0.07877
C         -1.47516        0.12264       -1.65409
C          1.21454       -1.45620       -1.16114
C          1.21155        1.70397       -1.16371
C          1.65864        0.12925        1.49677
C         -1.06320        1.66517        1.03242
C         -1.03213       -1.45659        1.00973
N         -2.33180        0.13768       -2.46610
N          1.80033       -2.32059       -1.71165
N          1.83293        2.54173       -1.71632
N          2.51429        0.11215        2.30979
N         -1.70317        2.45650        1.63043
N         -1.65456       -2.29477        1.56064
H         -4.24032       -3.80351        1.18826
H         -2.94922       -3.47013        1.94182
H          5.09342       -1.35921        2.84186
H          4.01887       -0.32160        3.17902
H          1.85895       -5.33624       -1.77698
H          2.34270       -3.95097       -2.21549
H          3.13502        3.70727       -2.11355
H          4.45068        4.00592       -1.38944
H         -3.86113        0.53416       -3.30962
H         -4.99835        1.47761       -2.90747
H         -3.98209        2.49676        3.60698
H         -2.92860        3.17100        2.72325
O          2.51320       -4.93332       -2.37325
O          4.89236       -0.69352        3.52184
O          3.95435        4.29339       -2.17490
O         -4.75627        0.87316       -3.62996
O         -3.67026        3.38774        3.37280
O         -3.76132       -4.06769        1.99244
