31
Fe_CN6_minus2_LS.log	Energy: -1430221.5347864
Fe         0.07938       -0.11197        0.07010
C         -1.28362       -0.11826        1.46508
C          1.09206        1.23897        1.04602
C          1.05266       -1.52850        0.99311
C          1.44482       -0.10563       -1.32239
C         -0.94902       -1.44265       -0.91725
C         -0.89331        1.30152       -0.85551
N         -2.12278       -0.12492        2.30880
N          1.71158        2.07070        1.62969
N          1.65109       -2.39093        1.55343
N          2.28567       -0.10374       -2.16450
N         -1.58666       -2.24600       -1.52074
N         -1.49308        2.16452       -1.41407
H         -3.71553        2.29109       -3.29079
H         -2.61188        2.87726       -2.39230
H          4.81010        1.27403       -2.60860
H          3.67943        0.28736       -2.95042
H          1.84739        4.97611        1.60919
H          2.24243        3.56381        2.07612
H          2.85271       -3.46106        1.90265
H          4.19891       -3.75545        1.21686
H         -3.51561        0.23830        3.10848
H         -4.67274        1.19832        2.77751
H         -4.18294       -3.52683       -1.21986
H         -2.83759       -3.24367       -1.91212
O          2.46586        4.57101        2.24180
O          4.59112        0.64281       -3.31604
O          3.69464       -4.07438        1.98551
O         -4.43092        0.57425        3.48381
O         -3.70553       -3.81538       -2.01715
O         -3.37278        3.16818       -3.04568
