19
Fe_2_X3LYP.log	Energy: -1080323.3990854
Fe         0.00004        0.00002       -0.00002
O         -1.43046        0.13437       -1.45413
H         -2.35414       -0.17422       -1.38745
O          0.56021       -1.82939       -0.71982
H          1.26899       -2.39887       -0.36459
O          1.34912        0.90203       -1.24303
H          1.51554        1.86092       -1.31850
O          1.43017       -0.13445        1.45442
H          1.31648       -0.51931        2.34427
O         -0.56004        1.82952        0.71963
H         -1.26844        2.39921        0.36402
O         -1.34907       -0.90212        1.24296
H         -1.51548       -1.86101        1.31834
H         -1.94645       -0.45423        1.87175
H          0.16887       -2.29597       -1.48272
H         -1.31701        0.51864       -2.34430
H         -0.16909        2.29590        1.48288
H          1.94653        0.45407       -1.87174
H          2.35374        0.17463        1.38847
