19
Fe_2_OPBE.log	Energy: -1080462.7720383
Fe        -0.00005        0.00001        0.00003
O          1.34995        0.02721        1.57692
H          1.42443        0.71035        2.26725
O          1.35503        1.04257       -1.17770
H          1.22657        1.32476       -2.10109
O          0.80775       -1.79501       -0.65994
H          0.52408       -2.69039       -0.40184
O         -1.35015       -0.02808       -1.57673
H         -2.03249        0.63958       -1.77018
O         -1.35505       -1.04211        1.17810
H         -1.22677       -1.32333        2.10180
O         -0.80741        1.79541        0.65929
H         -0.52319        2.69052        0.40088
H         -1.54369        1.90641        1.28727
H          2.24271        1.34474       -0.91407
H          2.03158       -0.64116        1.77044
H         -2.24255       -1.34483        0.91455
H          1.54381       -1.90534       -1.28830
H         -1.42420       -0.71144       -2.26689
