19
V_2_B3LYP.log	Energy: -880077.1907500
V         -0.00000        0.00000        0.00000
O         -1.42410        0.00688       -1.61821
H         -2.22260        0.54959       -1.67838
O         -1.12718       -1.55194        0.98362
H         -0.91421       -1.96862        1.83025
O          1.16298       -1.49563       -1.02818
H          1.87940       -1.33371       -1.65770
O          1.42412       -0.00690        1.61819
H          1.38400        0.53041        2.42158
O          1.12716        1.55196       -0.98362
H          0.91425        1.96855       -1.83029
O         -1.16298        1.49564        1.02819
H         -1.87935        1.33372        1.65775
H         -1.06618        2.45475        0.94767
H         -1.94121       -1.96297        0.66087
H         -1.38398       -0.53050       -2.42155
H          1.94111        1.96309       -0.66080
H          1.06614       -2.45474       -0.94771
H          2.22264       -0.54958        1.67830
