13
Fe_CN6_minus2_LS.log	Energy: -1430311.8675669
Fe         0.16971       -0.10235        0.14478
C         -1.22545       -0.33787        1.51564
C          1.03626        1.27753        1.25314
C          1.27390       -1.49589        0.99391
C          1.54948        0.13256       -1.24183
C         -0.72519       -1.46436       -0.96214
C         -0.92299        1.29116       -0.71652
N         -2.07184       -0.47703        2.32097
N          1.54290        2.11348        1.90779
N          1.94535       -2.32411        1.49145
N          2.36813        0.27443       -2.07490
N         -1.27923       -2.26989       -1.61669
N         -1.57933        2.11858       -1.23561
