31
Properties=species:S:1:pos:R:3 Fe_CN6_minus2_LS.log=T Energy:=T -1430311.8675669=T pbc="F F F"
Fe       0.00792591      -0.00425159       0.00650126
C       -1.38723409      -0.23977159       1.37736126
C        0.87447591       1.37562841       1.11486126
C        1.11211591      -1.39779159       0.85563126
C        1.38769591       0.23065841      -1.38010874
C       -0.88697409      -1.36626159      -1.10041874
C       -1.08477409       1.38925841      -0.85479874
N       -2.23362409      -0.37893159       2.18269126
N        1.38111591       2.21157841       1.76951126
N        1.78356591      -2.22601159       1.35317126
N        2.20634591       0.37252841      -2.21317874
N       -1.44101409      -2.17179159      -1.75496874
N       -1.74111409       2.21667841      -1.37388874
H       -2.23362409      -0.37893159       3.78269126
O       -2.23362409      -0.37893159       4.73269126
H       -1.31388383      -0.37893159       4.49483025
H        1.38111591       2.21157841       3.36951126
O        1.38111591       2.21157841       4.31951126
H        2.30085617       2.21157841       4.08165025
H        1.78356591      -2.22601159       2.95317126
O        1.78356591      -2.22601159       3.90317126
H        2.70330617      -2.22601159       3.66531025
H        2.20634591       0.37252841      -0.61317874
O        2.20634591       0.37252841       0.33682126
H        3.12608617       0.37252841       0.09896025
H       -1.44101409      -2.17179159      -0.15496874
O       -1.44101409      -2.17179159       0.79503126
H       -0.52127383      -2.17179159       0.55717025
H       -1.74111409       2.21667841       0.22611126
O       -1.74111409       2.21667841       1.17611126
H       -0.82137383       2.21667841       0.93825025
