 Entering Gaussian System, Link 0=g16
 Input=Mn_2_B3LYP.com
 Output=Mn_2_B3LYP.log
 Initial command:
 /gpfs/fs1/soft/improv/software/custom-built/gaussian/g16/l1.exe "/scratch/Gau-183798.inp" -scrdir="/scratch/"
 Default CPUs for threads: 0-127
 Default linda workers: i036.lcrc.anl.gov
 Default is to use 128 SMP processors on each worker.
 Entering Link 1 = /gpfs/fs1/soft/improv/software/custom-built/gaussian/g16/l1.exe PID=    183799.
  
 Copyright (c) 1988-2021, Gaussian, Inc.  All Rights Reserved.
  
 This is part of the Gaussian(R) 16 program.  It is based on
 the Gaussian(R) 09 system (copyright 2009, Gaussian, Inc.),
 the Gaussian(R) 03 system (copyright 2003, Gaussian, Inc.),
 the Gaussian(R) 98 system (copyright 1998, Gaussian, Inc.),
 the Gaussian(R) 94 system (copyright 1995, Gaussian, Inc.),
 the Gaussian 92(TM) system (copyright 1992, Gaussian, Inc.),
 the Gaussian 90(TM) system (copyright 1990, Gaussian, Inc.),
 the Gaussian 88(TM) system (copyright 1988, Gaussian, Inc.),
 the Gaussian 86(TM) system (copyright 1986, Carnegie Mellon
 University), and the Gaussian 82(TM) system (copyright 1983,
 Carnegie Mellon University). Gaussian is a federally registered
 trademark of Gaussian, Inc.
  
 This software contains proprietary and confidential information,
 including trade secrets, belonging to Gaussian, Inc.
  
 This software is provided under written license and may be
 used, copied, transmitted, or stored only in accord with that
 written license.
  
 The following legend is applicable only to US Government
 contracts under FAR:
  
                    RESTRICTED RIGHTS LEGEND
  
 Use, reproduction and disclosure by the US Government is
 subject to restrictions as set forth in subparagraphs (a)
 and (c) of the Commercial Computer Software - Restricted
 Rights clause in FAR 52.227-19.
  
 Gaussian, Inc.
 340 Quinnipiac St., Bldg. 40, Wallingford CT 06492
  
  
 ---------------------------------------------------------------
 Warning -- This program may not be used in any manner that
 competes with the business of Gaussian, Inc. or will provide
 assistance to any competitor of Gaussian, Inc.  The licensee
 of this program is prohibited from giving any competitor of
 Gaussian, Inc. access to this program.  By using this program,
 the user acknowledges that Gaussian, Inc. is engaged in the
 business of creating and licensing software in the field of
 computational chemistry and represents and warrants to the
 licensee that it is not a competitor of Gaussian, Inc. and that
 it will not use this program in any manner prohibited above.
 ---------------------------------------------------------------
  

 Cite this work as:
 Gaussian 16, Revision C.02,
 M. J. Frisch, G. W. Trucks, H. B. Schlegel, G. E. Scuseria, 
 M. A. Robb, J. R. Cheeseman, G. Scalmani, V. Barone, 
 G. A. Petersson, H. Nakatsuji, X. Li, M. Caricato, A. V. Marenich, 
 J. Bloino, B. G. Janesko, R. Gomperts, B. Mennucci, H. P. Hratchian, 
 J. V. Ortiz, A. F. Izmaylov, J. L. Sonnenberg, D. Williams-Young, 
 F. Ding, F. Lipparini, F. Egidi, J. Goings, B. Peng, A. Petrone, 
 T. Henderson, D. Ranasinghe, V. G. Zakrzewski, J. Gao, N. Rega, 
 G. Zheng, W. Liang, M. Hada, M. Ehara, K. Toyota, R. Fukuda, 
 J. Hasegawa, M. Ishida, T. Nakajima, Y. Honda, O. Kitao, H. Nakai, 
 T. Vreven, K. Throssell, J. A. Montgomery, Jr., J. E. Peralta, 
 F. Ogliaro, M. J. Bearpark, J. J. Heyd, E. N. Brothers, K. N. Kudin, 
 V. N. Staroverov, T. A. Keith, R. Kobayashi, J. Normand, 
 K. Raghavachari, A. P. Rendell, J. C. Burant, S. S. Iyengar, 
 J. Tomasi, M. Cossi, J. M. Millam, M. Klene, C. Adamo, R. Cammi, 
 J. W. Ochterski, R. L. Martin, K. Morokuma, O. Farkas, 
 J. B. Foresman, and D. J. Fox, Gaussian, Inc., Wallingford CT, 2019.
 
 ******************************************
 Gaussian 16:  ES64L-G16RevC.02  7-Dec-2021
                23-May-2024 
 ******************************************
 %chk=Mn_2_B3LYP.chk
 SetSPE:  set environment variable "OMP_PROC_BIND" = "true"
 SetSPE:  set environment variable "OMP_PLACES" = "{0},{1},{2},{3},{4},{5},{6},{7},{8},{9},{10},{11},{12},{13},{14},{15},{16},{17},{18},{19},{20},{21},{22},{23},{24},{25},{26},{27},{28},{29},{30},{31},{32},{33},{34},{35},{36},{37},{38},{39},{40},{41},{42},{43},{44},{45},{46},{47},{48},{49},{50},{51},{52},{53},{54},{55},{56},{57},{58},{59},{60},{61},{62},{63},{64},{65},{66},{67},{68},{69},{70},{71},{72},{73},{74},{75},{76},{77},{78},{79},{80},{81},{82},{83},{84},{85},{86},{87},{88},{89},{90},{91},{92},{93},{94},{95},{96},{97},{98},{99},{100},{101},{102},{103},{104},{105},{106},{107},{108},{109},{110},{111},{112},{113},{114},{115},{116},{117},{118},{119},{120},{121},{122},{123},{124},{125},{126},{127}"
 SetLPE:    new flags="-opt 'Tsnet.Node.lindarsharg: ssh'  -nodelist 'i036.lcrc.anl.gov' -env GAUSS_MDEF=26843545600 -env GAUSS_EXEDIR="/gpfs/fs1/soft/improv/software/custom-built/gaussian/g16/bsd:/gpfs/fs1/soft/improv/software/custom-built/gaussian/g16" -env "OMP_PROC_BIND=true" -env "OMP_PLACES={0},{1},{2},{3},{4},{5},{6},{7},{8},{9},{10},{11},{12},{13},{14},{15},{16},{17},{18},{19},{20},{21},{22},{23},{24},{25},{26},{27},{28},{29},{30},{31},{32},{33},{34},{35},{36},{37},{38},{39},{40},{41},{42},{43},{44},{45},{46},{47},{48},{49},{50},{51},{52},{53},{54},{55},{56},{57},{58},{59},{60},{61},{62},{63},{64},{65},{66},{67},{68},{69},{70},{71},{72},{73},{74},{75},{76},{77},{78},{79},{80},{81},{82},{83},{84},{85},{86},{87},{88},{89},{90},{91},{92},{93},{94},{95},{96},{97},{98},{99},{100},{101},{102},{103},{104},{105},{106},{107},{108},{109},{110},{111},{112},{113},{114},{115},{116},{117},{118},{119},{120},{121},{122},{123},{124},{125},{126},{127}" -env GAUSS_ADEF="0,1,2,3,4,5,6,7,8,9,10,11,12,13,14,15,16,17,18,19,20,21,22,23,24,25,26,27,28,29,30,31,32,33,34,35,36,37,38,39,40,41,42,43,44,45,46,47,48,49,50,51,52,53,54,55,56,57,58,59,60,61,62,63,64,65,66,67,68,69,70,71,72,73,74,75,76,77,78,79,80,81,82,83,84,85,86,87,88,89,90,91,92,93,94,95,96,97,98,99,100,101,102,103,104,105,106,107,108,109,110,111,112,113,114,115,116,117,118,119,120,121,122,123,124,125,126,127""
 Will use up to    1 processors via Linda.
 ----------------------------------------------------------------------
 #p B3LYP empiricaldispersion=gd3 6-31+G(2df,p) opt=(cartesian,calcall,
 maxcycles=500) freq scf=(maxcycles=500,xqc,maxconventional=50)
 ----------------------------------------------------------------------
 1/6=500,10=4,18=10,26=3,38=1/1,3;
 2/12=2,17=6,18=5,29=2,40=1/2;
 3/5=1,6=6,7=114,11=2,25=1,30=1,71=2,74=-5,124=31,140=1/1,2,3;
 4//1;
 5/5=2,7=500,8=3,13=1,38=5,85=50/2,8;
 8/6=4,10=90,11=11/1;
 11/6=1,8=1,9=11,15=111,16=1/1,2,10;
 10/6=1/2;
 6/7=2,8=2,9=2,10=2,18=1,28=1/1;
 7/7=1,10=1,25=1/1,2,3,16;
 1/6=500,10=4,18=10,26=3/3(3);
 2/29=1/2;
 7/7=1,8=1,9=1,25=1,44=-1/16;
 99/12=1/99;
 2/29=1/2;
 3/5=1,6=6,7=114,11=2,25=1,30=1,71=2,74=-5,124=31,140=1/1,2,3;
 4/5=5,16=3,69=1/1;
 5/5=2,7=500,8=3,13=1,38=5,85=50/2,8;
 8/6=4,10=90,11=11/1;
 11/6=1,8=1,9=11,15=111,16=1/1,2,10;
 10/6=1/2;
 7/7=1,10=1,25=1/1,2,3,16;
 1/6=500,10=4,18=10,26=3/3(-8);
 2/29=1/2;
 6/7=2,8=2,9=2,10=2,18=1,19=2,28=1/1;
 7/7=1,8=1,9=1,25=1,44=-1/16;
 99/12=1/99;
 Leave Link    1 at Thu May 23 12:33:43 2024, MaxMem=           0 cpu:               4.7 elap:               0.1
 (Enter /gpfs/fs1/soft/improv/software/custom-built/gaussian/g16/l101.exe)
 -----
 Title
 -----
 Symbolic Z-matrix:
 Charge =  2 Multiplicity = 6
 Mn                   -0.79304   0.81881  -0.09491 
 O                    -1.20497   2.57394  -0.35687 
 H                    -2.12106   2.64974  -0.63312 
 O                     0.99012   1.19063  -0.05794 
 H                     1.42696   0.5998    0.55971 
 O                    -0.81752   1.03069   1.71365 
 H                    -1.02108   0.1906    2.13133 
 O                    -0.38507  -0.93351   0.17118 
 H                    -1.15682  -1.47369  -0.01433 
 O                    -2.57341   0.45178  -0.12186 
 H                    -2.77756  -0.08744  -0.88929 
 O                    -0.76966   0.60461  -1.90111 
 H                     0.09872   0.83457  -2.23949 
 H                    -0.96534  -0.30999  -2.11742 
 H                     1.12208   2.09943   0.22124 
 H                    -1.07671   3.0584    0.46184 
 H                    -2.81407  -0.02398   0.6765 
 H                     0.0422    1.33615   2.01181 
 H                    -0.11532  -1.06446   1.08312 
 
 ITRead=  0  0  0  0  0  0  0  0  0  0  0  0  0  0  0  0  0  0  0
 MicOpt= -1 -1 -1 -1 -1 -1 -1 -1 -1 -1 -1 -1 -1 -1 -1 -1 -1 -1 -1
 NAtoms=     19 NQM=       19 NQMF=       0 NMMI=      0 NMMIF=      0
                NMic=       0 NMicF=      0.
                    Isotopes and Nuclear Properties:
 (Nuclear quadrupole moments (NQMom) in fm**2, nuclear magnetic moments (NMagM)
  in nuclear magnetons)

  Atom         1           2           3           4           5           6           7           8           9          10
 IAtWgt=          55          16           1          16           1          16           1          16           1          16
 AtmWgt=  54.9380463  15.9949146   1.0078250  15.9949146   1.0078250  15.9949146   1.0078250  15.9949146   1.0078250  15.9949146
 NucSpn=           5           0           1           0           1           0           1           0           1           0
 AtZEff=  -0.0000000  -0.0000000  -0.0000000  -0.0000000  -0.0000000  -0.0000000  -0.0000000  -0.0000000  -0.0000000  -0.0000000
 NQMom=   33.0000000   0.0000000   0.0000000   0.0000000   0.0000000   0.0000000   0.0000000   0.0000000   0.0000000   0.0000000
 NMagM=    3.4532000   0.0000000   2.7928460   0.0000000   2.7928460   0.0000000   2.7928460   0.0000000   2.7928460   0.0000000
 AtZNuc=  25.0000000   8.0000000   1.0000000   8.0000000   1.0000000   8.0000000   1.0000000   8.0000000   1.0000000   8.0000000

  Atom        11          12          13          14          15          16          17          18          19
 IAtWgt=           1          16           1           1           1           1           1           1           1
 AtmWgt=   1.0078250  15.9949146   1.0078250   1.0078250   1.0078250   1.0078250   1.0078250   1.0078250   1.0078250
 NucSpn=           1           0           1           1           1           1           1           1           1
 AtZEff=  -0.0000000  -0.0000000  -0.0000000  -0.0000000  -0.0000000  -0.0000000  -0.0000000  -0.0000000  -0.0000000
 NQMom=    0.0000000   0.0000000   0.0000000   0.0000000   0.0000000   0.0000000   0.0000000   0.0000000   0.0000000
 NMagM=    2.7928460   0.0000000   2.7928460   2.7928460   2.7928460   2.7928460   2.7928460   2.7928460   2.7928460
 AtZNuc=   1.0000000   8.0000000   1.0000000   1.0000000   1.0000000   1.0000000   1.0000000   1.0000000   1.0000000
 Leave Link  101 at Thu May 23 12:33:43 2024, MaxMem= 26843545600 cpu:               0.4 elap:               0.0
 (Enter /gpfs/fs1/soft/improv/software/custom-built/gaussian/g16/l103.exe)

 GradGradGradGradGradGradGradGradGradGradGradGradGradGradGradGradGradGrad
 Berny optimization.
 Initialization pass.
 No Z-matrix variables, so optimization will use Cartesian coordinates.
 Trust Radius=3.00D-01 FncErr=1.00D-07 GrdErr=1.00D-06 EigMax=2.50D+02 EigMin=1.00D-04
 Number of steps in this run=    114 maximum allowed number of steps=    114.
 GradGradGradGradGradGradGradGradGradGradGradGradGradGradGradGradGradGrad

 Leave Link  103 at Thu May 23 12:33:43 2024, MaxMem= 26843545600 cpu:               0.4 elap:               0.0
 (Enter /gpfs/fs1/soft/improv/software/custom-built/gaussian/g16/l202.exe)
 ---------------------------------------------------------------------------------------------------
                            Z-MATRIX (ANGSTROMS AND DEGREES)
   CD    Cent   Atom    N1       Length/X        N2       Alpha/Y        N3        Beta/Z          J
 ---------------------------------------------------------------------------------------------------
      1      1  Mn       0  -0.793037          0.818805         -0.094905
      2      2  O        0  -1.204971          2.573941         -0.356874
      3      3  H        0  -2.121063          2.649743         -0.633122
      4      4  O        0   0.990122          1.190635         -0.057941
      5      5  H        0   1.426962          0.599798          0.559707
      6      6  O        0  -0.817519          1.030691          1.713650
      7      7  H        0  -1.021079          0.190602          2.131326
      8      8  O        0  -0.385068         -0.933506          0.171177
      9      9  H        0  -1.156817         -1.473692         -0.014327
     10     10  O        0  -2.573405          0.451778         -0.121857
     11     11  H        0  -2.777557         -0.087440         -0.889285
     12     12  O        0  -0.769659          0.604612         -1.901109
     13     13  H        0   0.098725          0.834573         -2.239490
     14     14  H        0  -0.965336         -0.309994         -2.117418
     15     15  H        0   1.122081          2.099426          0.221242
     16     16  H        0  -1.076711          3.058396          0.461841
     17     17  H        0  -2.814074         -0.023981          0.676500
     18     18  H        0   0.042204          1.336153          2.011809
     19     19  H        0  -0.115315         -1.064459          1.083123
 ---------------------------------------------------------------------------------------------------
                         Z-Matrix orientation:                         
 ---------------------------------------------------------------------
 Center     Atomic      Atomic             Coordinates (Angstroms)
 Number     Number       Type             X           Y           Z
 ---------------------------------------------------------------------
      1         25           0       -0.793037    0.818805   -0.094905
      2          8           0       -1.204971    2.573941   -0.356874
      3          1           0       -2.121063    2.649743   -0.633122
      4          8           0        0.990122    1.190635   -0.057941
      5          1           0        1.426962    0.599798    0.559707
      6          8           0       -0.817519    1.030691    1.713650
      7          1           0       -1.021079    0.190602    2.131326
      8          8           0       -0.385068   -0.933506    0.171177
      9          1           0       -1.156817   -1.473692   -0.014327
     10          8           0       -2.573405    0.451778   -0.121857
     11          1           0       -2.777557   -0.087440   -0.889285
     12          8           0       -0.769659    0.604612   -1.901109
     13          1           0        0.098725    0.834573   -2.239490
     14          1           0       -0.965336   -0.309994   -2.117418
     15          1           0        1.122081    2.099426    0.221242
     16          1           0       -1.076711    3.058396    0.461841
     17          1           0       -2.814074   -0.023981    0.676500
     18          1           0        0.042204    1.336153    2.011809
     19          1           0       -0.115315   -1.064459    1.083123
 ---------------------------------------------------------------------
                    Distance matrix (angstroms):
                    1          2          3          4          5
     1  Mn   0.000000
     2  O    1.821762   0.000000
     3  H    2.325008   0.959835   0.000000
     4  O    1.821889   2.611767   3.484150   0.000000
     5  H    2.324839   3.415322   4.267739   0.959899   0.000000
     6  O    1.821090   2.611285   3.134947   2.536076   2.560263
     7  H    2.324381   3.450400   3.859988   3.136540   2.937743
     8  O    1.818745   3.640503   4.062050   2.540791   2.405292
     9  H    2.322579   4.062387   4.279649   3.421971   3.362259
    10  O    1.818006   2.536025   2.301533   3.639880   4.060711
    11  H    2.321775   3.136788   2.826442   4.064482   4.499984
    12  O    1.819010   2.540161   2.759827   2.614866   3.298603
    13  H    2.322657   2.875634   3.286750   2.383386   3.107223
    14  H    2.322591   3.387332   3.506977   3.212032   3.703756
    15  H    2.325429   2.444290   3.398642   0.959822   1.567289
    16  H    2.325125   0.959918   1.567358   2.833814   3.510364
    17  H    2.321626   3.225876   3.056824   4.060370   4.288255
    18  H    2.324547   2.949275   3.660724   2.281137   2.137375
    19  H    2.322443   4.061883   4.556733   2.758526   2.328591
                    6          7          8          9         10
     6  O    0.000000
     7  H    0.960021   0.000000
     8  O    2.534622   2.347406   0.000000
     9  H    3.061530   2.718847   0.960108   0.000000
    10  O    2.605257   2.748593   2.606473   2.392848   0.000000
    11  H    3.444886   3.505227   2.750347   2.305222   0.959885
    12  O    3.640099   4.061422   2.609231   2.833582   2.538227
    13  H    4.062670   4.557707   3.028445   3.443229   3.430916
    14  H    4.061572   4.278496   2.441955   2.411193   2.673658
    15  H    2.670492   3.447487   3.387136   4.244531   4.060675
    16  H    2.397039   3.318813   4.061790   4.557738   3.061904
    17  H    2.484803   2.318921   2.642472   2.307685   0.960023
    18  H    0.959858   1.567527   2.953276   3.665802   3.489421
    19  H    2.297892   1.869309   0.959980   1.567353   3.129403
                   11         12         13         14         15
    11  H    0.000000
    12  O    2.352526   0.000000
    13  H    3.308498   0.959935   0.000000
    14  H    2.200452   0.959991   1.567533   0.000000
    15  H    4.606825   3.212091   2.949969   3.953725   0.000000
    16  H    3.822919   3.420362   3.691102   4.243941   2.410850
    17  H    1.567497   3.349453   4.210050   3.362383   4.495491
    18  H    4.288824   4.062660   4.281159   4.558009   2.225950
    19  H    3.454344   3.481323   3.833001   3.396353   3.504877
                   16         17         18         19
    16  H    0.000000
    17  H    3.544793   0.000000
    18  H    2.573032   3.433851   0.000000
    19  H    4.278809   2.920828   2.578800   0.000000
 Stoichiometry    H12MnO6(2+,6)
 Framework group  C1[X(H12MnO6)]
 Deg. of freedom    51
 Full point group                 C1      NOp   1
 Largest Abelian subgroup         C1      NOp   1
 Largest concise Abelian subgroup C1      NOp   1
                         Standard orientation:                         
 ---------------------------------------------------------------------
 Center     Atomic      Atomic             Coordinates (Angstroms)
 Number     Number       Type             X           Y           Z
 ---------------------------------------------------------------------
      1         25           0       -0.020445   -0.030121    0.009875
      2          8           0       -0.320808   -1.687588   -0.683958
      3          1           0       -1.137042   -1.679899   -1.188920
      4          8           0        1.254655   -0.678279    1.138277
      5          1           0        1.943361   -0.019749    1.254154
      6          8           0        1.298207    0.294245   -1.203513
      7          1           0        1.382040    1.240910   -1.339297
      8          8           0        0.280486    1.626554    0.697409
      9          1           0       -0.431358    2.215648    0.436540
     10          8           0       -1.285904    0.615907   -1.124325
     11          1           0       -2.034842    0.938661   -0.618064
     12          8           0       -1.338362   -0.351446    1.221751
     13          1           0       -0.971739   -0.815561    1.977832
     14          1           0       -1.717277    0.481861    1.510897
     15          1           0        1.635399   -1.477016    0.766376
     16          1           0        0.408515   -1.930884   -1.258706
     17          1           0       -0.915243    1.335169   -1.640964
     18          1           0        2.129003   -0.056571   -0.874826
     19          1           0        1.114126    1.965325    0.362984
 ---------------------------------------------------------------------
 Rotational constants (GHZ):           2.0396948           1.9739407           1.9252755
 Leave Link  202 at Thu May 23 12:33:43 2024, MaxMem= 26843545600 cpu:               0.5 elap:               0.0
 (Enter /gpfs/fs1/soft/improv/software/custom-built/gaussian/g16/l301.exe)
 Standard basis: 6-31+G(2df,p) (6D, 7F)
 Ernie: Thresh=  0.10000D-02 Tol=  0.10000D-05 Strict=F.
 There are   347 symmetry adapted cartesian basis functions of A   symmetry.
 There are   317 symmetry adapted basis functions of A   symmetry.
   317 basis functions,   514 primitive gaussians,   347 cartesian basis functions
    44 alpha electrons       39 beta electrons
       nuclear repulsion energy       751.0997080055 Hartrees.
 IExCor=  402 DFT=T Ex+Corr=B3LYP ExCW=0 ScaHFX=  0.200000
 ScaDFX=  0.800000  0.720000  1.000000  0.810000 ScalE2=  1.000000  1.000000
 IRadAn=      5 IRanWt=     -1 IRanGd=            0 ICorTp=0 IEmpDi=131
 NAtoms=   19 NActive=   19 NUniq=   19 SFac= 1.00D+00 NAtFMM=   60 NAOKFM=F Big=F
 Integral buffers will be    131072 words long.
 Raffenetti 2 integral format.
 Two-electron integral symmetry is turned on.
 R6Disp:  Grimme-D3 Dispersion energy=       -0.0221512023 Hartrees.
 Nuclear repulsion after empirical dispersion term =      751.0775568032 Hartrees.
 Leave Link  301 at Thu May 23 12:33:43 2024, MaxMem= 26843545600 cpu:               0.4 elap:               0.0
 (Enter /gpfs/fs1/soft/improv/software/custom-built/gaussian/g16/l302.exe)
 NPDir=0 NMtPBC=     1 NCelOv=     1 NCel=       1 NClECP=     1 NCelD=      1
         NCelK=      1 NCelE2=     1 NClLst=     1 CellRange=     0.0.
 One-electron integrals computed using PRISM.
 One-electron integral symmetry used in STVInt
 NBasis=   317 RedAO= T EigKep=  1.52D-05  NBF=   317
 NBsUse=   317 1.00D-06 EigRej= -1.00D+00 NBFU=   317
 Precomputing XC quadrature grid using
 IXCGrd= 4 IRadAn=           5 IRanWt=          -1 IRanGd=           0 AccXCQ= 0.00D+00.
 Generated NRdTot=       0 NPtTot=           0 NUsed=           0 NTot=          32
 NSgBfM=   347   346   347   347   347 MxSgAt=    19 MxSgA2=    19.
 Leave Link  302 at Thu May 23 12:33:44 2024, MaxMem= 26843545600 cpu:              21.9 elap:               0.3
 (Enter /gpfs/fs1/soft/improv/software/custom-built/gaussian/g16/l303.exe)
 DipDrv:  MaxL=1.
 Leave Link  303 at Thu May 23 12:33:44 2024, MaxMem= 26843545600 cpu:               1.0 elap:               0.0
 (Enter /gpfs/fs1/soft/improv/software/custom-built/gaussian/g16/l401.exe)
 ExpMin= 1.19D-02 ExpMax= 5.63D+04 ExpMxC= 8.46D+03 IAcc=3 IRadAn=         5 AccDes= 0.00D+00
 Harris functional with IExCor=  402 and IRadAn=       5 diagonalized for initial guess.
 HarFok:  IExCor=  402 AccDes= 0.00D+00 IRadAn=         5 IDoV= 1 UseB2=F ITyADJ=14
 ICtDFT=  3500011 ScaDFX=  1.000000  1.000000  1.000000  1.000000
 FoFCou: FMM=F IPFlag=           0 FMFlag=      100000 FMFlg1=           0
         NFxFlg=           0 DoJE=T BraDBF=F KetDBF=T FulRan=T
         wScrn=  0.000000 ICntrl=       500 IOpCl=  0 I1Cent=   200000004 NGrid=           0
         NMat0=    1 NMatS0=      1 NMatT0=    0 NMatD0=    1 NMtDS0=    0 NMtDT0=    0
 Petite list used in FoFCou.
 Harris En= -1608.97846674902    
 JPrj=0 DoOrth=F DoCkMO=F.
 Initial guess <Sx>= 0.0000 <Sy>= 0.0000 <Sz>= 2.5000 <S**2>= 8.7500 S= 2.5000
 Leave Link  401 at Thu May 23 12:33:44 2024, MaxMem= 26843545600 cpu:              38.1 elap:               0.4
 (Enter /gpfs/fs1/soft/improv/software/custom-built/gaussian/g16/l502.exe)
 Integral symmetry usage will be decided dynamically.
 UHF open shell SCF:
 Using DIIS extrapolation, IDIIS=  1040.
 NGot= 26843545600 LenX= 26843256607 LenY= 26843135757
 Requested convergence on RMS density matrix=1.00D-08 within  50 cycles.
 Requested convergence on MAX density matrix=1.00D-06.
 Requested convergence on             energy=1.00D-06.
 No special actions if energy rises.
 Fock matrices will be formed incrementally for  20 cycles.

 Cycle   1  Pass 1  IDiag  1:
 FoFJK:  IHMeth= 1 ICntrl=       0 DoSepK=F KAlg= 0 I1Cent=           0 FoldK=F
 IRaf= 990000000 NMat=       1 IRICut=       1 DoRegI=T DoRafI=F ISym2E= 0 IDoP0=0 IntGTp=1.
 FoFCou: FMM=F IPFlag=           0 FMFlag=      100000 FMFlg1=           0
         NFxFlg=           0 DoJE=F BraDBF=F KetDBF=F FulRan=T
         wScrn=  0.000000 ICntrl=         0 IOpCl=  1 I1Cent=           0 NGrid=           0
         NMat0=    1 NMatS0=      1 NMatT0=    0 NMatD0=    1 NMtDS0=    0 NMtDT0=    0
 Symmetry not used in FoFCou.
 E= -1608.29923862295    
 DIIS: error= 3.13D-02 at cycle   1 NSaved=   1.
 NSaved= 1 IEnMin= 1 EnMin= -1608.29923862295     IErMin= 1 ErrMin= 3.13D-02
 ErrMax= 3.13D-02  0.00D+00 EMaxC= 1.00D-01 BMatC= 3.38D+00 BMatP= 3.38D+00
 IDIUse=3 WtCom= 6.87D-01 WtEn= 3.13D-01
 Coeff-Com:  0.100D+01
 Coeff-En:   0.100D+01
 Coeff:      0.100D+01
 Gap=     0.110 Goal=   None    Shift=    0.000
 Gap=    -0.093 Goal=   None    Shift=    0.000
 GapD=   -0.093 DampG=0.250 DampE=0.250 DampFc=0.1250 IDamp=-1.
 Damping current iteration by 1.25D-01
 RMSDP=1.70D-02 MaxDP=2.93D+00              OVMax= 7.85D-01

 Cycle   2  Pass 1  IDiag  1:
 RMSU=  2.03D-03    CP:  9.75D-01
 E= -1608.38486403995     Delta-E=       -0.085625417001 Rises=F Damp=T
 DIIS: error= 2.05D-02 at cycle   2 NSaved=   2.
 NSaved= 2 IEnMin= 2 EnMin= -1608.38486403995     IErMin= 2 ErrMin= 2.05D-02
 ErrMax= 2.05D-02  0.00D+00 EMaxC= 1.00D-01 BMatC= 1.08D+00 BMatP= 3.38D+00
 IDIUse=3 WtCom= 7.95D-01 WtEn= 2.05D-01
 Coeff-Com: -0.655D+00 0.165D+01
 Coeff-En:   0.188D+00 0.812D+00
 Coeff:     -0.482D+00 0.148D+01
 Gap=     0.011 Goal=   None    Shift=    0.000
 Gap=    -0.115 Goal=   None    Shift=    0.000
 RMSDP=2.38D-02 MaxDP=3.56D+00 DE=-8.56D-02 OVMax= 9.92D-01

 Cycle   3  Pass 1  IDiag  1:
 RMSU=  2.38D-02    CP:  9.86D-01  1.04D+00
 E= -1608.34872438308     Delta-E=        0.036139656874 Rises=F Damp=F
 DIIS: error= 2.95D-02 at cycle   3 NSaved=   3.
 NSaved= 3 IEnMin= 2 EnMin= -1608.38486403995     IErMin= 2 ErrMin= 2.05D-02
 ErrMax= 2.95D-02  0.00D+00 EMaxC= 1.00D-01 BMatC= 2.59D+00 BMatP= 1.08D+00
 IDIUse=2 WtCom= 0.00D+00 WtEn= 1.00D+00
 Coeff-En:   0.000D+00 0.532D+00 0.468D+00
 Coeff:      0.000D+00 0.532D+00 0.468D+00
 Gap=     0.334 Goal=   None    Shift=    0.000
 Gap=     0.348 Goal=   None    Shift=    0.000
 RMSDP=2.72D-02 MaxDP=4.33D+00 DE= 3.61D-02 OVMax= 9.35D-01

 Cycle   4  Pass 1  IDiag  1:
 RMSU=  7.55D-03    CP:  7.57D-01  3.00D+00 -1.85D-02
 E= -1607.95092480077     Delta-E=        0.397799582308 Rises=F Damp=F
 DIIS: error= 6.43D-02 at cycle   4 NSaved=   4.
 NSaved= 4 IEnMin= 2 EnMin= -1608.38486403995     IErMin= 2 ErrMin= 2.05D-02
 ErrMax= 6.43D-02  0.00D+00 EMaxC= 1.00D-01 BMatC= 6.23D+00 BMatP= 1.08D+00
 IDIUse=2 WtCom= 0.00D+00 WtEn= 1.00D+00
 EnCoef did     2 forward-backward iterations
 Coeff-En:   0.210D+00 0.000D+00 0.444D+00 0.346D+00
 Coeff:      0.210D+00 0.000D+00 0.444D+00 0.346D+00
 Gap=     0.058 Goal=   None    Shift=    0.000
 Gap=     0.308 Goal=   None    Shift=    0.000
 RMSDP=5.57D-03 MaxDP=3.85D-01 DE= 3.98D-01 OVMax= 1.88D-01

 Cycle   5  Pass 1  IDiag  1:
 RMSU=  5.06D-03    CP:  6.98D-01  3.00D+00 -1.01D-02  7.62D-01
 E= -1608.78945904099     Delta-E=       -0.838534240225 Rises=F Damp=F
 DIIS: error= 1.00D-02 at cycle   5 NSaved=   5.
 NSaved= 5 IEnMin= 5 EnMin= -1608.78945904099     IErMin= 5 ErrMin= 1.00D-02
 ErrMax= 1.00D-02  0.00D+00 EMaxC= 1.00D-01 BMatC= 3.39D-01 BMatP= 1.08D+00
 IDIUse=3 WtCom= 9.00D-01 WtEn= 1.00D-01
 Coeff-Com: -0.282D+00 0.421D+00 0.237D+00-0.114D+00 0.738D+00
 Coeff-En:   0.000D+00 0.000D+00 0.171D+00 0.000D+00 0.829D+00
 Coeff:     -0.254D+00 0.379D+00 0.231D+00-0.102D+00 0.747D+00
 Gap=     0.028 Goal=   None    Shift=    0.000
 Gap=     0.356 Goal=   None    Shift=    0.000
 RMSDP=1.45D-03 MaxDP=7.11D-02 DE=-8.39D-01 OVMax= 4.27D-02

 Cycle   6  Pass 1  IDiag  1:
 RMSU=  8.63D-04    CP:  6.89D-01  3.00D+00  8.40D-04  6.94D-01  1.20D+00
 E= -1608.84770858712     Delta-E=       -0.058249546124 Rises=F Damp=F
 DIIS: error= 3.02D-03 at cycle   6 NSaved=   6.
 NSaved= 6 IEnMin= 6 EnMin= -1608.84770858712     IErMin= 6 ErrMin= 3.02D-03
 ErrMax= 3.02D-03  0.00D+00 EMaxC= 1.00D-01 BMatC= 1.91D-02 BMatP= 3.39D-01
 IDIUse=3 WtCom= 9.70D-01 WtEn= 3.02D-02
 Coeff-Com: -0.962D-01 0.164D+00 0.757D-01-0.434D-01 0.735D-01 0.826D+00
 Coeff-En:   0.000D+00 0.000D+00 0.000D+00 0.000D+00 0.000D+00 0.100D+01
 Coeff:     -0.933D-01 0.159D+00 0.734D-01-0.421D-01 0.713D-01 0.832D+00
 Gap=     0.049 Goal=   None    Shift=    0.000
 Gap=     0.313 Goal=   None    Shift=    0.000
 RMSDP=3.97D-04 MaxDP=2.69D-02 DE=-5.82D-02 OVMax= 1.47D-02

 Cycle   7  Pass 1  IDiag  1:
 RMSU=  2.95D-04    CP:  6.89D-01  3.00D+00  3.58D-03  6.84D-01  1.22D+00
                    CP:  1.25D+00
 E= -1608.85063458326     Delta-E=       -0.002925996141 Rises=F Damp=F
 DIIS: error= 1.01D-03 at cycle   7 NSaved=   7.
 NSaved= 7 IEnMin= 7 EnMin= -1608.85063458326     IErMin= 7 ErrMin= 1.01D-03
 ErrMax= 1.01D-03  0.00D+00 EMaxC= 1.00D-01 BMatC= 5.35D-03 BMatP= 1.91D-02
 IDIUse=3 WtCom= 9.90D-01 WtEn= 1.01D-02
 Coeff-Com:  0.266D-01-0.170D-01-0.120D-01 0.757D-02-0.208D+00 0.512D+00
 Coeff-Com:  0.691D+00
 Coeff-En:   0.000D+00 0.000D+00 0.000D+00 0.000D+00 0.000D+00 0.000D+00
 Coeff-En:   0.100D+01
 Coeff:      0.263D-01-0.168D-01-0.119D-01 0.749D-02-0.206D+00 0.507D+00
 Coeff:      0.694D+00
 Gap=     0.065 Goal=   None    Shift=    0.000
 Gap=     0.312 Goal=   None    Shift=    0.000
 RMSDP=2.64D-04 MaxDP=1.29D-02 DE=-2.93D-03 OVMax= 1.16D-02

 Cycle   8  Pass 1  IDiag  1:
 RMSU=  2.02D-04    CP:  6.88D-01  3.00D+00  5.23D-03  6.78D-01  1.23D+00
                    CP:  1.39D+00  1.26D+00
 E= -1608.85161662854     Delta-E=       -0.000982045281 Rises=F Damp=F
 DIIS: error= 2.61D-04 at cycle   8 NSaved=   8.
 NSaved= 8 IEnMin= 8 EnMin= -1608.85161662854     IErMin= 8 ErrMin= 2.61D-04
 ErrMax= 2.61D-04  0.00D+00 EMaxC= 1.00D-01 BMatC= 1.61D-04 BMatP= 5.35D-03
 IDIUse=3 WtCom= 9.97D-01 WtEn= 2.61D-03
 Coeff-Com:  0.607D-02-0.425D-02-0.873D-03 0.393D-03-0.265D-01 0.149D-01
 Coeff-Com:  0.136D+00 0.874D+00
 Coeff-En:   0.000D+00 0.000D+00 0.000D+00 0.000D+00 0.000D+00 0.000D+00
 Coeff-En:   0.000D+00 0.100D+01
 Coeff:      0.606D-02-0.424D-02-0.871D-03 0.392D-03-0.264D-01 0.149D-01
 Coeff:      0.136D+00 0.875D+00
 Gap=     0.065 Goal=   None    Shift=    0.000
 Gap=     0.313 Goal=   None    Shift=    0.000
 RMSDP=1.25D-04 MaxDP=8.97D-03 DE=-9.82D-04 OVMax= 9.47D-03

 Cycle   9  Pass 1  IDiag  1:
 RMSU=  7.61D-05    CP:  6.87D-01  3.00D+00  5.59D-03  6.76D-01  1.24D+00
                    CP:  1.36D+00  1.46D+00  1.29D+00
 E= -1608.85164722958     Delta-E=       -0.000030601039 Rises=F Damp=F
 DIIS: error= 1.10D-04 at cycle   9 NSaved=   9.
 NSaved= 9 IEnMin= 9 EnMin= -1608.85164722958     IErMin= 9 ErrMin= 1.10D-04
 ErrMax= 1.10D-04  0.00D+00 EMaxC= 1.00D-01 BMatC= 3.69D-05 BMatP= 1.61D-04
 IDIUse=3 WtCom= 9.99D-01 WtEn= 1.10D-03
 Coeff-Com:  0.189D-02-0.143D-02 0.241D-03-0.167D-03-0.519D-02-0.180D-01
 Coeff-Com:  0.159D-01 0.232D+00 0.774D+00
 Coeff-En:   0.000D+00 0.000D+00 0.000D+00 0.000D+00 0.000D+00 0.000D+00
 Coeff-En:   0.000D+00 0.000D+00 0.100D+01
 Coeff:      0.189D-02-0.143D-02 0.241D-03-0.167D-03-0.518D-02-0.180D-01
 Coeff:      0.159D-01 0.232D+00 0.775D+00
 Gap=     0.064 Goal=   None    Shift=    0.000
 Gap=     0.312 Goal=   None    Shift=    0.000
 RMSDP=6.61D-05 MaxDP=5.21D-03 DE=-3.06D-05 OVMax= 5.58D-03

 Cycle  10  Pass 1  IDiag  1:
 RMSU=  2.73D-05    CP:  6.87D-01  3.00D+00  6.00D-03  6.76D-01  1.24D+00
                    CP:  1.37D+00  1.58D+00  1.45D+00  1.42D+00
 E= -1608.85165837214     Delta-E=       -0.000011142559 Rises=F Damp=F
 DIIS: error= 3.71D-05 at cycle  10 NSaved=  10.
 NSaved=10 IEnMin=10 EnMin= -1608.85165837214     IErMin=10 ErrMin= 3.71D-05
 ErrMax= 3.71D-05  0.00D+00 EMaxC= 1.00D-01 BMatC= 3.43D-06 BMatP= 3.69D-05
 IDIUse=1 WtCom= 1.00D+00 WtEn= 0.00D+00
 Coeff-Com:  0.323D-03-0.142D-03 0.123D-03 0.111D-04-0.196D-02-0.267D-02
 Coeff-Com: -0.466D-03-0.261D-01 0.111D+00 0.920D+00
 Coeff:      0.323D-03-0.142D-03 0.123D-03 0.111D-04-0.196D-02-0.267D-02
 Coeff:     -0.466D-03-0.261D-01 0.111D+00 0.920D+00
 Gap=     0.064 Goal=   None    Shift=    0.000
 Gap=     0.312 Goal=   None    Shift=    0.000
 RMSDP=5.11D-05 MaxDP=4.23D-03 DE=-1.11D-05 OVMax= 4.54D-03

 Cycle  11  Pass 1  IDiag  1:
 RMSU=  5.78D-06    CP:  6.87D-01  3.00D+00  6.30D-03  6.76D-01  1.24D+00
                    CP:  1.37D+00  1.67D+00  1.58D+00  1.79D+00  1.64D+00
 E= -1608.85166130794     Delta-E=       -0.000002935803 Rises=F Damp=F
 DIIS: error= 1.75D-05 at cycle  11 NSaved=  11.
 NSaved=11 IEnMin=11 EnMin= -1608.85166130794     IErMin=11 ErrMin= 1.75D-05
 ErrMax= 1.75D-05  0.00D+00 EMaxC= 1.00D-01 BMatC= 5.30D-07 BMatP= 3.43D-06
 IDIUse=1 WtCom= 1.00D+00 WtEn= 0.00D+00
 Coeff-Com: -0.235D-03 0.337D-03 0.365D-04 0.303D-04-0.261D-03 0.171D-02
 Coeff-Com: -0.194D-02-0.511D-01-0.881D-01 0.417D+00 0.722D+00
 Coeff:     -0.235D-03 0.337D-03 0.365D-04 0.303D-04-0.261D-03 0.171D-02
 Coeff:     -0.194D-02-0.511D-01-0.881D-01 0.417D+00 0.722D+00
 Gap=     0.064 Goal=   None    Shift=    0.000
 Gap=     0.312 Goal=   None    Shift=    0.000
 RMSDP=3.26D-05 MaxDP=2.67D-03 DE=-2.94D-06 OVMax= 2.90D-03

 Cycle  12  Pass 1  IDiag  1:
 RMSU=  2.58D-06    CP:  6.87D-01  3.00D+00  6.49D-03  6.77D-01  1.24D+00
                    CP:  1.37D+00  1.73D+00  1.67D+00  2.02D+00  2.07D+00
                    CP:  1.46D+00
 E= -1608.85166233405     Delta-E=       -0.000001026111 Rises=F Damp=F
 DIIS: error= 1.03D-05 at cycle  12 NSaved=  12.
 NSaved=12 IEnMin=12 EnMin= -1608.85166233405     IErMin=12 ErrMin= 1.03D-05
 ErrMax= 1.03D-05  0.00D+00 EMaxC= 1.00D-01 BMatC= 1.88D-07 BMatP= 5.30D-07
 IDIUse=1 WtCom= 1.00D+00 WtEn= 0.00D+00
 Coeff-Com: -0.380D-03 0.385D-03 0.764D-04-0.448D-04 0.127D-02 0.427D-03
 Coeff-Com: -0.118D-02-0.931D-02-0.654D-01-0.147D+00 0.335D+00 0.886D+00
 Coeff:     -0.380D-03 0.385D-03 0.764D-04-0.448D-04 0.127D-02 0.427D-03
 Coeff:     -0.118D-02-0.931D-02-0.654D-01-0.147D+00 0.335D+00 0.886D+00
 Gap=     0.064 Goal=   None    Shift=    0.000
 Gap=     0.312 Goal=   None    Shift=    0.000
 RMSDP=2.88D-05 MaxDP=2.35D-03 DE=-1.03D-06 OVMax= 2.54D-03

 Cycle  13  Pass 1  IDiag  1:
 RMSU=  1.41D-06    CP:  6.87D-01  3.00D+00  6.66D-03  6.77D-01  1.24D+00
                    CP:  1.37D+00  1.78D+00  1.74D+00  2.22D+00  2.45D+00
                    CP:  2.02D+00  1.59D+00
 E= -1608.85166284225     Delta-E=       -0.000000508204 Rises=F Damp=F
 DIIS: error= 4.94D-06 at cycle  13 NSaved=  13.
 NSaved=13 IEnMin=13 EnMin= -1608.85166284225     IErMin=13 ErrMin= 4.94D-06
 ErrMax= 4.94D-06  0.00D+00 EMaxC= 1.00D-01 BMatC= 3.92D-08 BMatP= 1.88D-07
 IDIUse=1 WtCom= 1.00D+00 WtEn= 0.00D+00
 Coeff-Com: -0.141D-03 0.999D-04 0.465D-04-0.428D-04 0.797D-03-0.110D-02
 Coeff-Com: -0.227D-03 0.111D-01 0.139D-01-0.142D+00-0.142D+00 0.134D+00
 Coeff-Com:  0.113D+01
 Coeff:     -0.141D-03 0.999D-04 0.465D-04-0.428D-04 0.797D-03-0.110D-02
 Coeff:     -0.227D-03 0.111D-01 0.139D-01-0.142D+00-0.142D+00 0.134D+00
 Coeff:      0.113D+01
 Gap=     0.064 Goal=   None    Shift=    0.000
 Gap=     0.312 Goal=   None    Shift=    0.000
 RMSDP=1.96D-05 MaxDP=1.59D-03 DE=-5.08D-07 OVMax= 1.73D-03

 Cycle  14  Pass 1  IDiag  1:
 RMSU=  5.41D-07    CP:  6.87D-01  3.00D+00  6.78D-03  6.77D-01  1.24D+00
                    CP:  1.36D+00  1.81D+00  1.80D+00  2.36D+00  2.70D+00
                    CP:  2.45D+00  2.18D+00  1.54D+00
 E= -1608.85166298024     Delta-E=       -0.000000137982 Rises=F Damp=F
 DIIS: error= 1.23D-06 at cycle  14 NSaved=  14.
 NSaved=14 IEnMin=14 EnMin= -1608.85166298024     IErMin=14 ErrMin= 1.23D-06
 ErrMax= 1.23D-06  0.00D+00 EMaxC= 1.00D-01 BMatC= 4.02D-09 BMatP= 3.92D-08
 IDIUse=1 WtCom= 1.00D+00 WtEn= 0.00D+00
 Coeff-Com: -0.165D-04 0.745D-05 0.340D-05-0.868D-05 0.638D-04-0.317D-03
 Coeff-Com:  0.437D-05 0.229D-02 0.122D-01-0.118D-01-0.852D-01-0.109D+00
 Coeff-Com:  0.320D+00 0.872D+00
 Coeff:     -0.165D-04 0.745D-05 0.340D-05-0.868D-05 0.638D-04-0.317D-03
 Coeff:      0.437D-05 0.229D-02 0.122D-01-0.118D-01-0.852D-01-0.109D+00
 Coeff:      0.320D+00 0.872D+00
 Gap=     0.064 Goal=   None    Shift=    0.000
 Gap=     0.312 Goal=   None    Shift=    0.000
 RMSDP=5.32D-06 MaxDP=4.24D-04 DE=-1.38D-07 OVMax= 4.66D-04

 Cycle  15  Pass 1  IDiag  1:
 RMSU=  1.98D-07    CP:  6.87D-01  3.00D+00  6.81D-03  6.77D-01  1.24D+00
                    CP:  1.36D+00  1.82D+00  1.81D+00  2.39D+00  2.77D+00
                    CP:  2.56D+00  2.36D+00  1.81D+00  1.12D+00
 E= -1608.85166298912     Delta-E=       -0.000000008888 Rises=F Damp=F
 DIIS: error= 7.01D-07 at cycle  15 NSaved=  15.
 NSaved=15 IEnMin=15 EnMin= -1608.85166298912     IErMin=15 ErrMin= 7.01D-07
 ErrMax= 7.01D-07  0.00D+00 EMaxC= 1.00D-01 BMatC= 1.47D-09 BMatP= 4.02D-09
 IDIUse=1 WtCom= 1.00D+00 WtEn= 0.00D+00
 Coeff-Com:  0.161D-05-0.378D-05-0.131D-05-0.243D-05-0.270D-04-0.564D-04
 Coeff-Com:  0.581D-05 0.103D-03 0.555D-02 0.512D-02-0.344D-01-0.736D-01
 Coeff-Com:  0.697D-01 0.498D+00 0.530D+00
 Coeff:      0.161D-05-0.378D-05-0.131D-05-0.243D-05-0.270D-04-0.564D-04
 Coeff:      0.581D-05 0.103D-03 0.555D-02 0.512D-02-0.344D-01-0.736D-01
 Coeff:      0.697D-01 0.498D+00 0.530D+00
 Gap=     0.064 Goal=   None    Shift=    0.000
 Gap=     0.312 Goal=   None    Shift=    0.000
 RMSDP=9.21D-07 MaxDP=7.27D-05 DE=-8.89D-09 OVMax= 8.00D-05

 Cycle  16  Pass 1  IDiag  1:
 RMSU=  6.73D-08    CP:  6.87D-01  3.00D+00  6.82D-03  6.77D-01  1.24D+00
                    CP:  1.36D+00  1.82D+00  1.81D+00  2.40D+00  2.78D+00
                    CP:  2.58D+00  2.40D+00  1.86D+00  1.21D+00  9.59D-01
 E= -1608.85166298965     Delta-E=       -0.000000000521 Rises=F Damp=F
 DIIS: error= 1.27D-07 at cycle  16 NSaved=  16.
 NSaved=16 IEnMin=16 EnMin= -1608.85166298965     IErMin=16 ErrMin= 1.27D-07
 ErrMax= 1.27D-07  0.00D+00 EMaxC= 1.00D-01 BMatC= 5.12D-11 BMatP= 1.47D-09
 IDIUse=1 WtCom= 1.00D+00 WtEn= 0.00D+00
 Coeff-Com:  0.328D-05-0.378D-05-0.123D-05-0.159D-07-0.134D-04 0.454D-04
 Coeff-Com: -0.495D-06-0.336D-03-0.757D-04 0.150D-02 0.223D-02-0.379D-02
 Coeff-Com: -0.212D-01 0.188D-01 0.144D+00 0.859D+00
 Coeff:      0.328D-05-0.378D-05-0.123D-05-0.159D-07-0.134D-04 0.454D-04
 Coeff:     -0.495D-06-0.336D-03-0.757D-04 0.150D-02 0.223D-02-0.379D-02
 Coeff:     -0.212D-01 0.188D-01 0.144D+00 0.859D+00
 Gap=     0.064 Goal=   None    Shift=    0.000
 Gap=     0.312 Goal=   None    Shift=    0.000
 RMSDP=2.37D-07 MaxDP=1.77D-05 DE=-5.21D-10 OVMax= 2.00D-05

 Cycle  17  Pass 1  IDiag  1:
 RMSU=  3.28D-08    CP:  6.87D-01  3.00D+00  6.82D-03  6.77D-01  1.24D+00
                    CP:  1.36D+00  1.82D+00  1.81D+00  2.40D+00  2.79D+00
                    CP:  2.59D+00  2.41D+00  1.88D+00  1.25D+00  1.07D+00
                    CP:  1.06D+00
 E= -1608.85166298968     Delta-E=       -0.000000000037 Rises=F Damp=F
 DIIS: error= 2.93D-08 at cycle  17 NSaved=  17.
 NSaved=17 IEnMin=17 EnMin= -1608.85166298968     IErMin=17 ErrMin= 2.93D-08
 ErrMax= 2.93D-08  0.00D+00 EMaxC= 1.00D-01 BMatC= 3.06D-12 BMatP= 5.12D-11
 IDIUse=1 WtCom= 1.00D+00 WtEn= 0.00D+00
 Coeff-Com:  0.707D-06-0.420D-06-0.360D-06 0.259D-06-0.241D-05 0.191D-04
 Coeff-Com:  0.759D-05-0.717D-04-0.517D-03-0.127D-03 0.340D-02 0.568D-02
 Coeff-Com: -0.840D-02-0.399D-01-0.329D-01 0.931D-01 0.980D+00
 Coeff:      0.707D-06-0.420D-06-0.360D-06 0.259D-06-0.241D-05 0.191D-04
 Coeff:      0.759D-05-0.717D-04-0.517D-03-0.127D-03 0.340D-02 0.568D-02
 Coeff:     -0.840D-02-0.399D-01-0.329D-01 0.931D-01 0.980D+00
 Gap=     0.064 Goal=   None    Shift=    0.000
 Gap=     0.312 Goal=   None    Shift=    0.000
 RMSDP=3.79D-08 MaxDP=2.30D-06 DE=-3.68D-11 OVMax= 2.26D-06

 Cycle  18  Pass 1  IDiag  1:
 RMSU=  9.78D-09    CP:  6.87D-01  3.00D+00  6.82D-03  6.77D-01  1.24D+00
                    CP:  1.36D+00  1.82D+00  1.81D+00  2.40D+00  2.79D+00
                    CP:  2.59D+00  2.41D+00  1.89D+00  1.27D+00  1.13D+00
                    CP:  1.22D+00  1.43D+00
 E= -1608.85166298967     Delta-E=        0.000000000015 Rises=F Damp=F
 DIIS: error= 1.02D-08 at cycle  18 NSaved=  18.
 NSaved=18 IEnMin=17 EnMin= -1608.85166298968     IErMin=18 ErrMin= 1.02D-08
 ErrMax= 1.02D-08  0.00D+00 EMaxC= 1.00D-01 BMatC= 3.22D-13 BMatP= 3.06D-12
 IDIUse=1 WtCom= 1.00D+00 WtEn= 0.00D+00
 Coeff-Com: -0.447D-07 0.124D-06 0.109D-06 0.425D-07 0.387D-06-0.114D-05
 Coeff-Com:  0.407D-05 0.314D-04-0.673D-04-0.123D-03 0.244D-03 0.962D-03
 Coeff-Com:  0.405D-03-0.658D-02-0.162D-01-0.593D-01 0.154D+00 0.926D+00
 Coeff:     -0.447D-07 0.124D-06 0.109D-06 0.425D-07 0.387D-06-0.114D-05
 Coeff:      0.407D-05 0.314D-04-0.673D-04-0.123D-03 0.244D-03 0.962D-03
 Coeff:      0.405D-03-0.658D-02-0.162D-01-0.593D-01 0.154D+00 0.926D+00
 Gap=     0.064 Goal=   None    Shift=    0.000
 Gap=     0.312 Goal=   None    Shift=    0.000
 RMSDP=1.87D-08 MaxDP=1.21D-06 DE= 1.55D-11 OVMax= 1.28D-06

 Cycle  19  Pass 1  IDiag  1:
 RMSU=  3.44D-09    CP:  6.87D-01  3.00D+00  6.82D-03  6.77D-01  1.24D+00
                    CP:  1.36D+00  1.82D+00  1.81D+00  2.40D+00  2.79D+00
                    CP:  2.59D+00  2.41D+00  1.89D+00  1.27D+00  1.15D+00
                    CP:  1.27D+00  1.73D+00  1.63D+00
 E= -1608.85166298969     Delta-E=       -0.000000000026 Rises=F Damp=F
 DIIS: error= 7.73D-09 at cycle  19 NSaved=  19.
 NSaved=19 IEnMin=19 EnMin= -1608.85166298969     IErMin=19 ErrMin= 7.73D-09
 ErrMax= 7.73D-09  0.00D+00 EMaxC= 1.00D-01 BMatC= 1.76D-13 BMatP= 3.22D-13
 IDIUse=1 WtCom= 1.00D+00 WtEn= 0.00D+00
 Coeff-Com: -0.883D-07 0.104D-06 0.113D-06-0.291D-08 0.473D-06-0.309D-05
 Coeff-Com:  0.154D-05 0.277D-04 0.193D-04-0.594D-04-0.258D-03-0.103D-03
 Coeff-Com:  0.113D-02 0.770D-03-0.530D-02-0.437D-01-0.223D-01 0.512D+00
 Coeff-Com:  0.557D+00
 Coeff:     -0.883D-07 0.104D-06 0.113D-06-0.291D-08 0.473D-06-0.309D-05
 Coeff:      0.154D-05 0.277D-04 0.193D-04-0.594D-04-0.258D-03-0.103D-03
 Coeff:      0.113D-02 0.770D-03-0.530D-02-0.437D-01-0.223D-01 0.512D+00
 Coeff:      0.557D+00
 Gap=     0.064 Goal=   None    Shift=    0.000
 Gap=     0.312 Goal=   None    Shift=    0.000
 RMSDP=7.38D-09 MaxDP=4.90D-07 DE=-2.64D-11 OVMax= 5.18D-07

 SCF Done:  E(UB3LYP) =  -1608.85166299     A.U. after   19 cycles
            NFock= 19  Conv=0.74D-08     -V/T= 2.0008
 <Sx>= 0.0000 <Sy>= 0.0000 <Sz>= 2.5000 <S**2>= 8.7529 S= 2.5005
 <L.S>=  0.00000000000    
 KE= 1.607594427460D+03 PE=-5.292236912992D+03 EE= 1.324713265740D+03
 Annihilation of the first spin contaminant:
 S**2 before annihilation     8.7529,   after     8.7500
 Leave Link  502 at Thu May 23 12:34:15 2024, MaxMem= 26843545600 cpu:            3546.0 elap:              31.2
 (Enter /gpfs/fs1/soft/improv/software/custom-built/gaussian/g16/l508.exe)
 QCSCF skips out because SCF is already converged.
 Leave Link  508 at Thu May 23 12:34:15 2024, MaxMem= 26843545600 cpu:               0.2 elap:               0.0
 (Enter /gpfs/fs1/soft/improv/software/custom-built/gaussian/g16/l801.exe)
 DoSCS=F DFT=T ScalE2(SS,OS)=  1.000000  1.000000
 Range of M.O.s used for correlation:     1   317
 NBasis=   317 NAE=    44 NBE=    39 NFC=     0 NFV=     0
 NROrb=    317 NOA=    44 NOB=    39 NVA=   273 NVB=   278

 **** Warning!!: The largest alpha MO coefficient is  0.75482749D+02


 **** Warning!!: The smallest alpha delta epsilon is  0.63947604D-01


 **** Warning!!: The largest beta MO coefficient is  0.80165674D+02

 Leave Link  801 at Thu May 23 12:34:15 2024, MaxMem= 26843545600 cpu:               0.4 elap:               0.0
 (Enter /gpfs/fs1/soft/improv/software/custom-built/gaussian/g16/l1101.exe)
 Using compressed storage, NAtomX=    19.
 Will process     20 centers per pass.
 R6Disp: Adding Grimme-D3 dispersion energy 1st derivatives to the gradient.
 Leave Link 1101 at Thu May 23 12:34:16 2024, MaxMem= 26843545600 cpu:              51.3 elap:               0.5
 (Enter /gpfs/fs1/soft/improv/software/custom-built/gaussian/g16/l1102.exe)
 Symmetrizing basis deriv contribution to polar:
 IMax=3 JMax=2 DiffMx= 0.00D+00
 Leave Link 1102 at Thu May 23 12:34:16 2024, MaxMem= 26843545600 cpu:               0.9 elap:               0.0
 (Enter /gpfs/fs1/soft/improv/software/custom-built/gaussian/g16/l1110.exe)
 Forming Gx(P) for the SCF density, NAtomX=    19.
 Integral derivatives from FoFJK, PRISM(SPDF).
 Do as many integral derivatives as possible in FoFJK.
 G2DrvN: MDV=   26843543431.
 G2DrvN: will do    20 centers at a time, making    1 passes.
 Calling FoFCou, ICntrl=  3107 FMM=F I1Cent=   0 AccDes= 0.00D+00.
 FoFJK:  IHMeth= 1 ICntrl=    3107 DoSepK=F KAlg= 0 I1Cent=           0 FoldK=F
 IRaf=         0 NMat=       1 IRICut=       1 DoRegI=T DoRafI=F ISym2E= 0 IDoP0=0 IntGTp=1.
 FoFCou: FMM=F IPFlag=           0 FMFlag=      100000 FMFlg1=           0
         NFxFlg=           0 DoJE=F BraDBF=F KetDBF=F FulRan=T
         wScrn=  0.000000 ICntrl=      3107 IOpCl=  1 I1Cent=           0 NGrid=           0
         NMat0=    1 NMatS0=      1 NMatT0=    0 NMatD0=    1 NMtDS0=    0 NMtDT0=    0
 Symmetry not used in FoFCou.
 End of G2Drv F.D. properties file   721 does not exist.
 End of G2Drv F.D. properties file   722 does not exist.
 End of G2Drv F.D. properties file   788 does not exist.
 Leave Link 1110 at Thu May 23 12:34:31 2024, MaxMem= 26843545600 cpu:            1852.2 elap:              14.8
 (Enter /gpfs/fs1/soft/improv/software/custom-built/gaussian/g16/l1002.exe)
 Minotr:  UHF open shell wavefunction.
          IDoAtm=1111111111111111111
          Direct CPHF calculation.
          Differentiating once with respect to electric field.
                with respect to dipole field.
          Differentiating once with respect to nuclear coordinates.
          Requested convergence is 1.0D-08 RMS, and 1.0D-07 maximum.
          Secondary convergence is 1.0D-12 RMS, and 1.0D-12 maximum.
          NewPWx=T KeepS1=F KeepF1=F KeepIn=T MapXYZ=F SortEE=F KeepMc=T.
         6034 words used for storage of precomputed grid.
 Two-electron integrals replicated using symmetry.
          MDV=   26843545600 using IRadAn=       1.
          Solving linear equations simultaneously, MaxMat=     384.
 FoF2E skips out because all densities are zero.
 CalDSu exits because no D1Ps are significant.
 FoFJK:  IHMeth= 1 ICntrl=       0 DoSepK=F KAlg= 0 I1Cent=           0 FoldK=F
 IRaf= 990000000 NMat=      57 IRICut=     142 DoRegI=T DoRafI=T ISym2E= 2 IDoP0=3 IntGTp=2.
 FoFCou: FMM=F IPFlag=           0 FMFlag=      100000 FMFlg1=           0
         NFxFlg=           0 DoJE=F BraDBF=F KetDBF=F FulRan=T
         wScrn=  0.000000 ICntrl=         0 IOpCl=  1 I1Cent=           0 NGrid=           0
         NMat0=   57 NMatS0=     57 NMatT0=    0 NMatD0=   57 NMtDS0=    0 NMtDT0=    0
 Integrals replicated using symmetry in FoFCou.
 Raff kept on since  98.34% of shell-pairs survive, threshold=   0.20 IRatSp=98.
          There are    60 degrees of freedom in the 1st order CPHF.  IDoFFX=6 NUNeed=     3.
     57 vectors produced by pass  0 Test12= 3.81D-14 1.67D-09 XBig12= 7.76D+01 2.34D+00.
 AX will form    57 AO Fock derivatives at one time.
     57 vectors produced by pass  1 Test12= 3.81D-14 1.67D-09 XBig12= 6.02D+00 6.63D-01.
     57 vectors produced by pass  2 Test12= 3.81D-14 1.67D-09 XBig12= 9.54D-02 5.25D-02.
     57 vectors produced by pass  3 Test12= 3.81D-14 1.67D-09 XBig12= 1.00D-03 4.78D-03.
     57 vectors produced by pass  4 Test12= 3.81D-14 1.67D-09 XBig12= 1.18D-05 3.99D-04.
     57 vectors produced by pass  5 Test12= 3.81D-14 1.67D-09 XBig12= 8.82D-08 3.58D-05.
     45 vectors produced by pass  6 Test12= 3.81D-14 1.67D-09 XBig12= 3.85D-10 2.03D-06.
     11 vectors produced by pass  7 Test12= 3.81D-14 1.67D-09 XBig12= 1.03D-12 1.20D-07.
      3 vectors produced by pass  8 Test12= 3.81D-14 1.67D-09 XBig12= 2.64D-15 5.01D-09.
 InvSVY:  IOpt=1 It=  1 EMax= 3.55D-15
 Solved reduced A of dimension   401 with    60 vectors.
 FullF1:  Do perturbations      1 to       3.
 Isotropic polarizability for W=    0.000000       56.99 Bohr**3.
 End of Minotr F.D. properties file   721 does not exist.
 End of Minotr F.D. properties file   722 does not exist.
 End of Minotr F.D. properties file   788 does not exist.
 Leave Link 1002 at Thu May 23 12:35:36 2024, MaxMem= 26843545600 cpu:            7909.7 elap:              65.3
 (Enter /gpfs/fs1/soft/improv/software/custom-built/gaussian/g16/l601.exe)
 Copying SCF densities to generalized density rwf, IOpCl= 1 IROHF=0.

 **********************************************************************

            Population analysis using the SCF Density.

 **********************************************************************

 Orbital symmetries:
 Alpha Orbitals:
       Occupied  (A) (A) (A) (A) (A) (A) (A) (A) (A) (A) (A) (A)
                 (A) (A) (A) (A) (A) (A) (A) (A) (A) (A) (A) (A)
                 (A) (A) (A) (A) (A) (A) (A) (A) (A) (A) (A) (A)
                 (A) (A) (A) (A) (A) (A) (A) (A)
       Virtual   (A) (A) (A) (A) (A) (A) (A) (A) (A) (A) (A) (A)
                 (A) (A) (A) (A) (A) (A) (A) (A) (A) (A) (A) (A)
                 (A) (A) (A) (A) (A) (A) (A) (A) (A) (A) (A) (A)
                 (A) (A) (A) (A) (A) (A) (A) (A) (A) (A) (A) (A)
                 (A) (A) (A) (A) (A) (A) (A) (A) (A) (A) (A) (A)
                 (A) (A) (A) (A) (A) (A) (A) (A) (A) (A) (A) (A)
                 (A) (A) (A) (A) (A) (A) (A) (A) (A) (A) (A) (A)
                 (A) (A) (A) (A) (A) (A) (A) (A) (A) (A) (A) (A)
                 (A) (A) (A) (A) (A) (A) (A) (A) (A) (A) (A) (A)
                 (A) (A) (A) (A) (A) (A) (A) (A) (A) (A) (A) (A)
                 (A) (A) (A) (A) (A) (A) (A) (A) (A) (A) (A) (A)
                 (A) (A) (A) (A) (A) (A) (A) (A) (A) (A) (A) (A)
                 (A) (A) (A) (A) (A) (A) (A) (A) (A) (A) (A) (A)
                 (A) (A) (A) (A) (A) (A) (A) (A) (A) (A) (A) (A)
                 (A) (A) (A) (A) (A) (A) (A) (A) (A) (A) (A) (A)
                 (A) (A) (A) (A) (A) (A) (A) (A) (A) (A) (A) (A)
                 (A) (A) (A) (A) (A) (A) (A) (A) (A) (A) (A) (A)
                 (A) (A) (A) (A) (A) (A) (A) (A) (A) (A) (A) (A)
                 (A) (A) (A) (A) (A) (A) (A) (A) (A) (A) (A) (A)
                 (A) (A) (A) (A) (A) (A) (A) (A) (A) (A) (A) (A)
                 (A) (A) (A) (A) (A) (A) (A) (A) (A) (A) (A) (A)
                 (A) (A) (A) (A) (A) (A) (A) (A) (A) (A) (A) (A)
                 (A) (A) (A) (A) (A) (A) (A) (A) (A)
 Beta  Orbitals:
       Occupied  (A) (A) (A) (A) (A) (A) (A) (A) (A) (A) (A) (A)
                 (A) (A) (A) (A) (A) (A) (A) (A) (A) (A) (A) (A)
                 (A) (A) (A) (A) (A) (A) (A) (A) (A) (A) (A) (A)
                 (A) (A) (A)
       Virtual   (A) (A) (A) (A) (A) (A) (A) (A) (A) (A) (A) (A)
                 (A) (A) (A) (A) (A) (A) (A) (A) (A) (A) (A) (A)
                 (A) (A) (A) (A) (A) (A) (A) (A) (A) (A) (A) (A)
                 (A) (A) (A) (A) (A) (A) (A) (A) (A) (A) (A) (A)
                 (A) (A) (A) (A) (A) (A) (A) (A) (A) (A) (A) (A)
                 (A) (A) (A) (A) (A) (A) (A) (A) (A) (A) (A) (A)
                 (A) (A) (A) (A) (A) (A) (A) (A) (A) (A) (A) (A)
                 (A) (A) (A) (A) (A) (A) (A) (A) (A) (A) (A) (A)
                 (A) (A) (A) (A) (A) (A) (A) (A) (A) (A) (A) (A)
                 (A) (A) (A) (A) (A) (A) (A) (A) (A) (A) (A) (A)
                 (A) (A) (A) (A) (A) (A) (A) (A) (A) (A) (A) (A)
                 (A) (A) (A) (A) (A) (A) (A) (A) (A) (A) (A) (A)
                 (A) (A) (A) (A) (A) (A) (A) (A) (A) (A) (A) (A)
                 (A) (A) (A) (A) (A) (A) (A) (A) (A) (A) (A) (A)
                 (A) (A) (A) (A) (A) (A) (A) (A) (A) (A) (A) (A)
                 (A) (A) (A) (A) (A) (A) (A) (A) (A) (A) (A) (A)
                 (A) (A) (A) (A) (A) (A) (A) (A) (A) (A) (A) (A)
                 (A) (A) (A) (A) (A) (A) (A) (A) (A) (A) (A) (A)
                 (A) (A) (A) (A) (A) (A) (A) (A) (A) (A) (A) (A)
                 (A) (A) (A) (A) (A) (A) (A) (A) (A) (A) (A) (A)
                 (A) (A) (A) (A) (A) (A) (A) (A) (A) (A) (A) (A)
                 (A) (A) (A) (A) (A) (A) (A) (A) (A) (A) (A) (A)
                 (A) (A) (A) (A) (A) (A) (A) (A) (A) (A) (A) (A)
                 (A) (A)
 The electronic state is 6-A.
 Alpha  occ. eigenvalues -- -235.68324 -27.57673 -23.64779 -23.64742 -23.64700
 Alpha  occ. eigenvalues --  -19.55662 -19.55652 -19.54638 -19.54301 -19.51993
 Alpha  occ. eigenvalues --  -19.51230  -3.52959  -2.40316  -2.40146  -2.40018
 Alpha  occ. eigenvalues --   -1.46179  -1.43865  -1.43246  -1.42696  -1.40635
 Alpha  occ. eigenvalues --   -1.39802  -0.98791  -0.97241  -0.95541  -0.94771
 Alpha  occ. eigenvalues --   -0.92809  -0.91520  -0.87244  -0.86041  -0.85328
 Alpha  occ. eigenvalues --   -0.82299  -0.81717  -0.79335  -0.78936  -0.75822
 Alpha  occ. eigenvalues --   -0.74701  -0.73159  -0.71442  -0.70190  -0.57686
 Alpha  occ. eigenvalues --   -0.56987  -0.55803  -0.44629  -0.44430
 Alpha virt. eigenvalues --   -0.38035  -0.32825  -0.30574  -0.29262  -0.25544
 Alpha virt. eigenvalues --   -0.24443  -0.23506  -0.23237  -0.20404  -0.18965
 Alpha virt. eigenvalues --   -0.18406  -0.18165  -0.17107  -0.15824  -0.15163
 Alpha virt. eigenvalues --   -0.14950  -0.13460  -0.12655  -0.12438  -0.11785
 Alpha virt. eigenvalues --   -0.10000  -0.09728  -0.07835  -0.07522  -0.07271
 Alpha virt. eigenvalues --   -0.06509  -0.04776  -0.03254  -0.02480  -0.02271
 Alpha virt. eigenvalues --   -0.01379  -0.00836  -0.00051   0.00624   0.02206
 Alpha virt. eigenvalues --    0.04232   0.04872   0.05806   0.06451   0.07357
 Alpha virt. eigenvalues --    0.08528   0.09070   0.09532   0.10794   0.10933
 Alpha virt. eigenvalues --    0.14454   0.14920   0.19085   0.20265   0.25505
 Alpha virt. eigenvalues --    0.26485   0.26996   0.27747   0.41475   0.42615
 Alpha virt. eigenvalues --    0.44006   0.46056   0.48154   0.49076   0.50866
 Alpha virt. eigenvalues --    0.51992   0.53006   0.53488   0.53787   0.54313
 Alpha virt. eigenvalues --    0.56586   0.58692   0.59611   0.60194   0.60843
 Alpha virt. eigenvalues --    0.63065   0.63899   0.64783   0.66555   0.70780
 Alpha virt. eigenvalues --    0.71203   0.72350   0.72972   0.74022   0.74285
 Alpha virt. eigenvalues --    0.74810   0.77125   0.79578   0.80083   0.81172
 Alpha virt. eigenvalues --    0.82225   0.86109   0.86322   0.90134   0.90648
 Alpha virt. eigenvalues --    0.92891   0.94538   0.98326   0.99291   1.01030
 Alpha virt. eigenvalues --    1.01709   1.05503   1.06174   1.07196   1.09358
 Alpha virt. eigenvalues --    1.10598   1.11466   1.12775   1.27603   1.28524
 Alpha virt. eigenvalues --    1.33446   1.35406   1.38055   1.40129   1.44101
 Alpha virt. eigenvalues --    1.44797   1.46087   1.46478   1.48960   1.50464
 Alpha virt. eigenvalues --    1.54825   1.56044   1.58348   1.61939   1.63671
 Alpha virt. eigenvalues --    1.67767   1.73813   1.78584   1.88380   1.90226
 Alpha virt. eigenvalues --    1.92065   1.94238   1.95557   1.97840   2.01610
 Alpha virt. eigenvalues --    2.03104   2.04165   2.06747   2.08110   2.14345
 Alpha virt. eigenvalues --    2.20398   2.21489   2.27141   2.30539   2.32431
 Alpha virt. eigenvalues --    2.33402   2.39260   2.40659   2.44521   2.47870
 Alpha virt. eigenvalues --    2.49707   2.51199   2.56650   2.57665   2.58481
 Alpha virt. eigenvalues --    2.60339   2.61083   2.63321   2.63559   2.65922
 Alpha virt. eigenvalues --    2.66836   2.68334   2.70645   2.71809   2.74279
 Alpha virt. eigenvalues --    2.76587   2.77522   2.78373   2.80204   2.81919
 Alpha virt. eigenvalues --    2.87806   2.94905   2.96431   3.08806   3.10748
 Alpha virt. eigenvalues --    3.16908   3.52660   3.54670   3.67363   3.68715
 Alpha virt. eigenvalues --    3.69978   3.72804   3.73315   3.75389   3.77099
 Alpha virt. eigenvalues --    3.78568   3.81168   3.82605   3.83316   3.86288
 Alpha virt. eigenvalues --    3.88874   3.90020   3.91464   3.92794   3.93593
 Alpha virt. eigenvalues --    3.96182   3.97626   3.99365   4.02574   4.04648
 Alpha virt. eigenvalues --    4.11768   4.13969   4.14964   4.16635   4.21225
 Alpha virt. eigenvalues --    4.22593   4.27580   4.31493   4.34865   4.35529
 Alpha virt. eigenvalues --    4.41609   4.43434   4.44313   4.47129   4.47544
 Alpha virt. eigenvalues --    4.55783   4.58802   4.59715   4.61712   4.62932
 Alpha virt. eigenvalues --    4.64553   4.65972   4.72836   4.81624   4.87426
 Alpha virt. eigenvalues --    4.89619   4.90833   4.93412   4.96428   5.06509
 Alpha virt. eigenvalues --    5.06967   5.07760   5.09504   5.09981   5.11560
 Alpha virt. eigenvalues --    5.12744   5.15171   5.15979   5.19714   5.25902
 Alpha virt. eigenvalues --    5.26295   5.27842   5.31020   5.33887   5.34722
 Alpha virt. eigenvalues --    5.36240   5.39751   5.43010   5.44242   5.45669
 Alpha virt. eigenvalues --    5.47172   5.49564   5.52693   5.53100   5.55176
 Alpha virt. eigenvalues --    5.56546   5.58527   5.60137   5.60613   5.62552
 Alpha virt. eigenvalues --    5.65570   5.66195   5.84611   5.85019   6.24795
 Alpha virt. eigenvalues --    7.14231   7.16907   7.18154   7.26275   7.29612
 Alpha virt. eigenvalues --    7.44787  13.49716  13.52023  13.52598  14.11632
 Alpha virt. eigenvalues --   14.17582  14.22000  24.63830
  Beta  occ. eigenvalues -- -235.68226 -27.49744 -23.58191 -23.58141 -23.58096
  Beta  occ. eigenvalues --  -19.55457 -19.55446 -19.54423 -19.54086 -19.51755
  Beta  occ. eigenvalues --  -19.50994  -3.31944  -2.18360  -2.18161  -2.18032
  Beta  occ. eigenvalues --   -1.45644  -1.43333  -1.42700  -1.42136  -1.40035
  Beta  occ. eigenvalues --   -1.39206  -0.98230  -0.96686  -0.95155  -0.94363
  Beta  occ. eigenvalues --   -0.92346  -0.91133  -0.86116  -0.83836  -0.82414
  Beta  occ. eigenvalues --   -0.81103  -0.80566  -0.77817  -0.77618  -0.74690
  Beta  occ. eigenvalues --   -0.73268  -0.71939  -0.70243  -0.69237
  Beta virt. eigenvalues --   -0.38019  -0.33197  -0.32366  -0.30573  -0.30307
  Beta virt. eigenvalues --   -0.29111  -0.28743  -0.25486  -0.25069  -0.23290
  Beta virt. eigenvalues --   -0.22892  -0.20305  -0.18975  -0.18221  -0.17896
  Beta virt. eigenvalues --   -0.17503  -0.16498  -0.16464  -0.15451  -0.14931
  Beta virt. eigenvalues --   -0.14519  -0.13222  -0.12364  -0.11966  -0.11157
  Beta virt. eigenvalues --   -0.09741  -0.09436  -0.07432  -0.07180  -0.06941
  Beta virt. eigenvalues --   -0.06101  -0.04529  -0.03105  -0.02181  -0.01504
  Beta virt. eigenvalues --   -0.00845  -0.00404   0.00098   0.00873   0.02439
  Beta virt. eigenvalues --    0.04516   0.05334   0.06007   0.06913   0.07847
  Beta virt. eigenvalues --    0.09064   0.09669   0.10209   0.11588   0.12619
  Beta virt. eigenvalues --    0.15815   0.16469   0.21956   0.22366   0.26640
  Beta virt. eigenvalues --    0.27006   0.27837   0.29553   0.41955   0.43162
  Beta virt. eigenvalues --    0.44720   0.46893   0.48892   0.49512   0.51604
  Beta virt. eigenvalues --    0.52778   0.53432   0.53902   0.54579   0.55200
  Beta virt. eigenvalues --    0.56897   0.59226   0.60250   0.60869   0.61212
  Beta virt. eigenvalues --    0.63354   0.64255   0.65140   0.66884   0.71520
  Beta virt. eigenvalues --    0.71729   0.73078   0.73387   0.74396   0.74962
  Beta virt. eigenvalues --    0.75396   0.77832   0.80168   0.80695   0.81681
  Beta virt. eigenvalues --    0.82711   0.86941   0.87066   0.91301   0.91926
  Beta virt. eigenvalues --    0.94057   0.95868   0.99268   1.00752   1.01552
  Beta virt. eigenvalues --    1.02986   1.06200   1.07666   1.08655   1.10838
  Beta virt. eigenvalues --    1.12154   1.13256   1.14609   1.30740   1.31321
  Beta virt. eigenvalues --    1.35526   1.37552   1.40057   1.43134   1.46849
  Beta virt. eigenvalues --    1.47818   1.49128   1.49712   1.52616   1.53823
  Beta virt. eigenvalues --    1.57137   1.59026   1.62334   1.64642   1.66457
  Beta virt. eigenvalues --    1.68739   1.76164   1.80593   1.88889   1.90832
  Beta virt. eigenvalues --    1.92787   1.95000   1.96108   1.98536   2.02441
  Beta virt. eigenvalues --    2.04466   2.05067   2.07386   2.08610   2.15274
  Beta virt. eigenvalues --    2.21149   2.22379   2.27884   2.31871   2.33909
  Beta virt. eigenvalues --    2.34870   2.41045   2.42242   2.46670   2.49286
  Beta virt. eigenvalues --    2.51166   2.53246   2.58249   2.59243   2.59566
  Beta virt. eigenvalues --    2.61119   2.61927   2.64460   2.64802   2.66861
  Beta virt. eigenvalues --    2.67894   2.69042   2.71636   2.72854   2.76673
  Beta virt. eigenvalues --    2.78222   2.79227   2.80237   2.81880   2.83019
  Beta virt. eigenvalues --    2.88327   2.95948   2.97253   3.13076   3.14874
  Beta virt. eigenvalues --    3.20478   3.57309   3.59307   3.70618   3.72319
  Beta virt. eigenvalues --    3.73446   3.76583   3.77634   3.79613   3.81323
  Beta virt. eigenvalues --    3.81768   3.84299   3.84457   3.85675   3.88317
  Beta virt. eigenvalues --    3.92158   3.92890   3.93464   3.94466   3.97044
  Beta virt. eigenvalues --    3.98374   4.00025   4.01441   4.04069   4.05552
  Beta virt. eigenvalues --    4.12987   4.15152   4.16600   4.18480   4.22711
  Beta virt. eigenvalues --    4.23741   4.29049   4.38045   4.39409   4.44057
  Beta virt. eigenvalues --    4.44538   4.48439   4.49491   4.52046   4.52910
  Beta virt. eigenvalues --    4.58215   4.62069   4.62242   4.63743   4.66975
  Beta virt. eigenvalues --    4.68063   4.69020   4.79166   4.82901   4.89637
  Beta virt. eigenvalues --    4.91236   4.91957   4.94589   4.98054   5.06980
  Beta virt. eigenvalues --    5.07961   5.08146   5.09906   5.10608   5.12291
  Beta virt. eigenvalues --    5.13409   5.16163   5.17485   5.23195   5.28142
  Beta virt. eigenvalues --    5.28854   5.29755   5.33299   5.35386   5.36572
  Beta virt. eigenvalues --    5.37690   5.42131   5.44651   5.45519   5.47300
  Beta virt. eigenvalues --    5.49101   5.50836   5.54304   5.54788   5.56525
  Beta virt. eigenvalues --    5.58001   5.59849   5.62016   5.62622   5.63381
  Beta virt. eigenvalues --    5.66271   5.66799   5.85853   5.86201   6.27081
  Beta virt. eigenvalues --    7.14904   7.17589   7.18838   7.26812   7.30148
  Beta virt. eigenvalues --    7.45234  13.50038  13.52339  13.52917  14.11947
  Beta virt. eigenvalues --   14.17889  14.22268  24.71286
          Condensed to atoms (all electrons):
               1          2          3          4          5          6
     1  Mn  24.347830  -0.073159  -0.022989  -0.058602  -0.023068  -0.100118
     2  O   -0.073159   8.491777   0.313613  -0.093639   0.000116  -0.107265
     3  H   -0.022989   0.313613   0.291985   0.000486  -0.000009   0.005404
     4  O   -0.058602  -0.093639   0.000486   8.456726   0.310091  -0.101282
     5  H   -0.023068   0.000116  -0.000009   0.310091   0.321622   0.006051
     6  O   -0.100118  -0.107265   0.005404  -0.101282   0.006051   8.507744
     7  H   -0.013657   0.000851  -0.000064   0.001349  -0.000471   0.299485
     8  O   -0.101091   0.080434  -0.001564  -0.095314   0.005715  -0.127898
     9  H   -0.016241  -0.001475  -0.000014   0.000325  -0.000169   0.003363
    10  O   -0.065747  -0.102822   0.002023   0.061224  -0.001739  -0.096420
    11  H   -0.015125   0.003619  -0.000382  -0.001083   0.000015  -0.000543
    12  O   -0.091363  -0.102719   0.007617  -0.093644   0.001770   0.084409
    13  H   -0.023470   0.004927  -0.000179   0.001970  -0.000137  -0.001564
    14  H   -0.006777   0.001621  -0.000085   0.003500  -0.000003  -0.001750
    15  H   -0.018613   0.003097  -0.000105   0.317549  -0.026649  -0.004321
    16  H   -0.015811   0.303136  -0.017115   0.002781  -0.000079   0.001129
    17  H   -0.024787   0.001228  -0.000061  -0.001406  -0.000018   0.003785
    18  H   -0.015988   0.002778  -0.000021   0.003190  -0.000659   0.304365
    19  H   -0.016565  -0.002086   0.000017   0.003198   0.000414   0.003449
               7          8          9         10         11         12
     1  Mn  -0.013657  -0.101091  -0.016241  -0.065747  -0.015125  -0.091363
     2  O    0.000851   0.080434  -0.001475  -0.102822   0.003619  -0.102719
     3  H   -0.000064  -0.001564  -0.000014   0.002023  -0.000382   0.007617
     4  O    0.001349  -0.095314   0.000325   0.061224  -0.001083  -0.093644
     5  H   -0.000471   0.005715  -0.000169  -0.001739   0.000015   0.001770
     6  O    0.299485  -0.127898   0.003363  -0.096420  -0.000543   0.084409
     7  H    0.333546   0.001809  -0.000615   0.004489  -0.000018  -0.002542
     8  O    0.001809   8.486198   0.307684  -0.066427  -0.004371  -0.101900
     9  H   -0.000615   0.307684   0.313241  -0.000127   0.000557   0.002496
    10  O    0.004489  -0.066427  -0.000127   8.460673   0.311936  -0.112484
    11  H   -0.000018  -0.004371   0.000557   0.311936   0.314207   0.002823
    12  O   -0.002542  -0.101900   0.002496  -0.112484   0.002823   8.513985
    13  H    0.000019   0.005601  -0.000065   0.001480  -0.000208   0.312602
    14  H   -0.000024   0.000798   0.000342   0.000799   0.001971   0.294872
    15  H    0.000130  -0.000565  -0.000017  -0.001062   0.000005   0.002997
    16  H   -0.000200  -0.001432   0.000013   0.005302  -0.000024   0.000264
    17  H    0.000872   0.003148  -0.000823   0.315130  -0.026004   0.000258
    18  H   -0.020177   0.003736   0.000004  -0.000081  -0.000010  -0.001731
    19  H    0.004342   0.301728  -0.019992   0.000742   0.000131   0.001350
              13         14         15         16         17         18
     1  Mn  -0.023470  -0.006777  -0.018613  -0.015811  -0.024787  -0.015988
     2  O    0.004927   0.001621   0.003097   0.303136   0.001228   0.002778
     3  H   -0.000179  -0.000085  -0.000105  -0.017115  -0.000061  -0.000021
     4  O    0.001970   0.003500   0.317549   0.002781  -0.001406   0.003190
     5  H   -0.000137  -0.000003  -0.026649  -0.000079  -0.000018  -0.000659
     6  O   -0.001564  -0.001750  -0.004321   0.001129   0.003785   0.304365
     7  H    0.000019  -0.000024   0.000130  -0.000200   0.000872  -0.020177
     8  O    0.005601   0.000798  -0.000565  -0.001432   0.003148   0.003736
     9  H   -0.000065   0.000342  -0.000017   0.000013  -0.000823   0.000004
    10  O    0.001480   0.000799  -0.001062   0.005302   0.315130  -0.000081
    11  H   -0.000208   0.001971   0.000005  -0.000024  -0.026004  -0.000010
    12  O    0.312602   0.294872   0.002997   0.000264   0.000258  -0.001731
    13  H    0.288535  -0.017520  -0.000260  -0.000040  -0.000018  -0.000015
    14  H   -0.017520   0.335088  -0.000018  -0.000020  -0.000139   0.000015
    15  H   -0.000260  -0.000018   0.304959   0.000300   0.000014   0.000322
    16  H   -0.000040  -0.000020   0.000300   0.321614  -0.000010  -0.000218
    17  H   -0.000018  -0.000139   0.000014  -0.000010   0.320029  -0.000192
    18  H   -0.000015   0.000015   0.000322  -0.000218  -0.000192   0.312684
    19  H   -0.000073  -0.000227   0.000013  -0.000035  -0.000408  -0.000533
              19
     1  Mn  -0.016565
     2  O   -0.002086
     3  H    0.000017
     4  O    0.003198
     5  H    0.000414
     6  O    0.003449
     7  H    0.004342
     8  O    0.301728
     9  H   -0.019992
    10  O    0.000742
    11  H    0.000131
    12  O    0.001350
    13  H   -0.000073
    14  H   -0.000227
    15  H    0.000013
    16  H   -0.000035
    17  H   -0.000408
    18  H   -0.000533
    19  H    0.332286
          Atomic-Atomic Spin Densities.
               1          2          3          4          5          6
     1  Mn   5.281935  -0.085081  -0.004689  -0.098086  -0.005581  -0.130108
     2  O   -0.085081   0.302952  -0.012851  -0.044204   0.000155  -0.057651
     3  H   -0.004689  -0.012851   0.015475   0.000131   0.000022   0.003863
     4  O   -0.098086  -0.044204   0.000131   0.268928  -0.007781  -0.051765
     5  H   -0.005581   0.000155   0.000022  -0.007781   0.016232   0.005107
     6  O   -0.130108  -0.057651   0.003863  -0.051765   0.005107   0.333014
     7  H   -0.000816   0.001228  -0.000031   0.000889  -0.000212  -0.018747
     8  O   -0.115832   0.065408  -0.001543  -0.049112   0.003622  -0.064440
     9  H   -0.001166  -0.001636  -0.000010   0.000679  -0.000239   0.000952
    10  O   -0.100240  -0.047564   0.004569   0.056452  -0.001511  -0.053868
    11  H   -0.003874   0.000954  -0.000187  -0.001125   0.000008   0.000247
    12  O   -0.094851  -0.078114   0.007409  -0.044943   0.001676   0.070000
    13  H   -0.004007   0.006302  -0.000162   0.004089  -0.000159  -0.001549
    14  H   -0.006026   0.000830  -0.000098   0.001354  -0.000029  -0.001534
    15  H   -0.004338   0.004163  -0.000153  -0.005681  -0.001764   0.001800
    16  H   -0.006033  -0.008184  -0.000607   0.002947  -0.000082   0.004493
    17  H   -0.005990   0.001634  -0.000205  -0.001374  -0.000008   0.002573
    18  H    0.001085   0.002080  -0.000051   0.008251   0.000682  -0.019710
    19  H   -0.001966  -0.001870   0.000015   0.002884   0.000390   0.007808
               7          8          9         10         11         12
     1  Mn  -0.000816  -0.115832  -0.001166  -0.100240  -0.003874  -0.094851
     2  O    0.001228   0.065408  -0.001636  -0.047564   0.000954  -0.078114
     3  H   -0.000031  -0.001543  -0.000010   0.004569  -0.000187   0.007409
     4  O    0.000889  -0.049112   0.000679   0.056452  -0.001125  -0.044943
     5  H   -0.000212   0.003622  -0.000239  -0.001511   0.000008   0.001676
     6  O   -0.018747  -0.064440   0.000952  -0.053868   0.000247   0.070000
     7  H    0.022174   0.006906  -0.000424   0.003290  -0.000107  -0.002062
     8  O    0.006906   0.315397  -0.014286  -0.043596   0.002139  -0.066560
     9  H   -0.000424  -0.014286   0.020809   0.006772   0.000372   0.002332
    10  O    0.003290  -0.043596   0.006772   0.273867  -0.007870  -0.050401
    11  H   -0.000107   0.002139   0.000372  -0.007870   0.018113   0.004214
    12  O   -0.002062  -0.066560   0.002332  -0.050401   0.004214   0.324575
    13  H    0.000016   0.004766  -0.000107   0.000083  -0.000206  -0.013839
    14  H   -0.000013   0.004898   0.000228   0.003572   0.000674  -0.010622
    15  H   -0.000076   0.000142   0.000029  -0.001012   0.000011   0.000520
    16  H   -0.000270  -0.001237   0.000013   0.001808  -0.000002   0.000173
    17  H    0.000499   0.004505   0.000377  -0.005046  -0.001864  -0.000167
    18  H   -0.000428   0.001677  -0.000036   0.000810   0.000029  -0.001834
    19  H    0.002513  -0.018587  -0.000813   0.001057  -0.000071   0.001137
              13         14         15         16         17         18
     1  Mn  -0.004007  -0.006026  -0.004338  -0.006033  -0.005990   0.001085
     2  O    0.006302   0.000830   0.004163  -0.008184   0.001634   0.002080
     3  H   -0.000162  -0.000098  -0.000153  -0.000607  -0.000205  -0.000051
     4  O    0.004089   0.001354  -0.005681   0.002947  -0.001374   0.008251
     5  H   -0.000159  -0.000029  -0.001764  -0.000082  -0.000008   0.000682
     6  O   -0.001549  -0.001534   0.001800   0.004493   0.002573  -0.019710
     7  H    0.000016  -0.000013  -0.000076  -0.000270   0.000499  -0.000428
     8  O    0.004766   0.004898   0.000142  -0.001237   0.004505   0.001677
     9  H   -0.000107   0.000228   0.000029   0.000013   0.000377  -0.000036
    10  O    0.000083   0.003572  -0.001012   0.001808  -0.005046   0.000810
    11  H   -0.000206   0.000674   0.000011  -0.000002  -0.001864   0.000029
    12  O   -0.013839  -0.010622   0.000520   0.000173  -0.000167  -0.001834
    13  H    0.015788  -0.000522  -0.000177  -0.000051   0.000026  -0.000010
    14  H   -0.000522   0.017025   0.000005   0.000027  -0.000118   0.000016
    15  H   -0.000177   0.000005   0.015573   0.000209   0.000007   0.000401
    16  H   -0.000051   0.000027   0.000209   0.015353  -0.000041   0.000055
    17  H    0.000026  -0.000118   0.000007  -0.000041   0.014774  -0.000212
    18  H   -0.000010   0.000016   0.000401   0.000055  -0.000212   0.024375
    19  H   -0.000040  -0.000264  -0.000081  -0.000018  -0.000207  -0.000334
              19
     1  Mn  -0.001966
     2  O   -0.001870
     3  H    0.000015
     4  O    0.002884
     5  H    0.000390
     6  O    0.007808
     7  H    0.002513
     8  O   -0.018587
     9  H   -0.000813
    10  O    0.001057
    11  H   -0.000071
    12  O    0.001137
    13  H   -0.000040
    14  H   -0.000264
    15  H   -0.000081
    16  H   -0.000018
    17  H   -0.000207
    18  H   -0.000334
    19  H    0.023612
 Mulliken charges and spin densities:
               1          2
     1  Mn   1.355341   4.614337
     2  O   -0.724030   0.048551
     3  H    0.421443   0.010898
     4  O   -0.717419   0.042534
     5  H    0.407208   0.010528
     6  O   -0.678024   0.030486
     7  H    0.390878   0.014327
     8  O   -0.696289   0.034268
     9  H    0.411513   0.013847
    10  O   -0.716890   0.041173
    11  H    0.412506   0.011457
    12  O   -0.719060   0.048642
    13  H    0.428418   0.010241
    14  H    0.387556   0.009402
    15  H    0.422224   0.009580
    16  H    0.400444   0.008552
    17  H    0.409401   0.009163
    18  H    0.412532   0.016846
    19  H    0.392248   0.015168
 Sum of Mulliken charges =   2.00000   5.00000
 Mulliken charges and spin densities with hydrogens summed into heavy atoms:
               1          2
     1  Mn   1.355341   4.614337
     2  O    0.097857   0.068001
     4  O    0.112013   0.062642
     6  O    0.125386   0.061659
     8  O    0.107471   0.063283
    10  O    0.105018   0.061793
    12  O    0.096914   0.068286
 APT charges:
               1
     1  Mn   1.355909
     2  O   -0.557963
     3  H    0.349536
     4  O   -0.495654
     5  H    0.298193
     6  O   -0.450242
     7  H    0.271450
     8  O   -0.459355
     9  H    0.285803
    10  O   -0.490752
    11  H    0.302364
    12  O   -0.545304
    13  H    0.351274
    14  H    0.303765
    15  H    0.311447
    16  H    0.316212
    17  H    0.298444
    18  H    0.282009
    19  H    0.272865
 Sum of APT charges =   2.00000
 APT charges with hydrogens summed into heavy atoms:
               1
     1  Mn   1.355909
     2  O    0.107785
     4  O    0.113986
     6  O    0.103217
     8  O    0.099313
    10  O    0.110056
    12  O    0.109735
 Electronic spatial extent (au):  <R**2>=            860.7276
 Charge=              2.0000 electrons
 Dipole moment (field-independent basis, Debye):
    X=              2.2619    Y=              3.6174    Z=             -0.9715  Tot=              4.3756
 Quadrupole moment (field-independent basis, Debye-Ang):
   XX=            -22.3023   YY=            -25.5987   ZZ=            -35.4381
   XY=             -4.2116   XZ=             -1.5018   YZ=             -0.9494
 Traceless Quadrupole moment (field-independent basis, Debye-Ang):
   XX=              5.4774   YY=              2.1810   ZZ=             -7.6584
   XY=             -4.2116   XZ=             -1.5018   YZ=             -0.9494
 Octapole moment (field-independent basis, Debye-Ang**2):
  XXX=             16.9717  YYY=             16.2978  ZZZ=              4.5910  XYY=              4.0233
  XXY=              8.5191  XXZ=              2.9731  XZZ=             -7.4111  YZZ=             -2.9481
  YYZ=            -13.4453  XYZ=             -2.9563
 Hexadecapole moment (field-independent basis, Debye-Ang**3):
 XXXX=           -221.1358 YYYY=           -232.8110 ZZZZ=           -253.2682 XXXY=            -18.9530
 XXXZ=              3.8141 YYYX=            -11.6103 YYYZ=              2.8271 ZZZX=            -13.9590
 ZZZY=            -12.3546 XXYY=            -62.8491 XXZZ=            -78.1770 YYZZ=            -67.8265
 XXYZ=              4.8698 YYXZ=              0.3569 ZZXY=              2.5047
 N-N= 7.510775568032D+02 E-N=-5.292236912212D+03  KE= 1.607594427460D+03
  Exact polarizability:      59.572      -0.754      57.921      -0.805      -0.530      53.468
 Approx polarizability:      76.714      -1.368      74.909      -1.418      -0.990      67.752
                          Isotropic Fermi Contact Couplings
        Atom                 a.u.       MegaHertz       Gauss      10(-4) cm-1
     1  Mn(55)             0.11756      25.98916       9.27358       8.66905
     2  O(17)              0.16183     -19.62048      -7.00107      -6.54469
     3  H(1)               0.00442       3.95047       1.40962       1.31773
     4  O(17)              0.17295     -20.96865      -7.48214      -6.99439
     5  H(1)               0.00450       4.02009       1.43447       1.34096
     6  O(17)              0.19319     -23.42231      -8.35766      -7.81284
     7  H(1)               0.00484       4.32786       1.54429       1.44362
     8  O(17)              0.18484     -22.40927      -7.99618      -7.47493
     9  H(1)               0.00506       4.52667       1.61523       1.50994
    10  O(17)              0.17247     -20.90970      -7.46110      -6.97473
    11  H(1)               0.00500       4.46743       1.59409       1.49017
    12  O(17)              0.16311     -19.77505      -7.05623      -6.59625
    13  H(1)               0.00421       3.76213       1.34242       1.25491
    14  H(1)               0.00429       3.83238       1.36749       1.27834
    15  H(1)               0.00452       4.04040       1.44171       1.34773
    16  H(1)               0.00409       3.65667       1.30479       1.21973
    17  H(1)               0.00432       3.86426       1.37886       1.28898
    18  H(1)               0.00565       5.05219       1.80275       1.68523
    19  H(1)               0.00496       4.43496       1.58250       1.47934
 --------------------------------------------------------
       Center         ----  Spin Dipole Couplings  ----
                      3XX-RR        3YY-RR        3ZZ-RR
 --------------------------------------------------------
     1   Atom       -0.004044     -0.003419      0.007463
     2   Atom       -0.188952      0.280343     -0.091391
     3   Atom       -0.009955      0.023667     -0.013711
     4   Atom        0.022360     -0.119173      0.096813
     5   Atom        0.063142     -0.051605     -0.011536
     6   Atom        0.037617     -0.165658      0.128041
     7   Atom        0.001420      0.001165     -0.002584
     8   Atom       -0.174312      0.183104     -0.008792
     9   Atom       -0.046026      0.098821     -0.052795
    10   Atom        0.058055     -0.114278      0.056223
    11   Atom        0.072495     -0.030605     -0.041890
    12   Atom        0.132912     -0.141998      0.009086
    13   Atom       -0.028302     -0.037375      0.065677
    14   Atom        0.030020     -0.039026      0.009006
    15   Atom        0.024932      0.013864     -0.038796
    16   Atom       -0.043395      0.050714     -0.007319
    17   Atom       -0.031184      0.003635      0.027549
    18   Atom        0.088891     -0.056816     -0.032075
    19   Atom       -0.011006      0.063915     -0.052909
 --------------------------------------------------------
                        XY            XZ            YZ
 --------------------------------------------------------
     1   Atom        0.023075      0.008070      0.006300
     2   Atom        0.088257      0.017985      0.097150
     3   Atom        0.054102      0.047089      0.059057
     4   Atom       -0.111327      0.187754     -0.128518
     5   Atom        0.006733      0.075250      0.000605
     6   Atom        0.046985     -0.224912     -0.020751
     7   Atom        0.054133     -0.058482     -0.052828
     8   Atom        0.068368      0.045429      0.190905
     9   Atom       -0.032730     -0.002399      0.028442
    10   Atom       -0.079477      0.237576     -0.057328
    11   Atom       -0.062420      0.033119     -0.016825
    12   Atom        0.129609     -0.202260     -0.039901
    13   Atom        0.018724     -0.051936     -0.053594
    14   Atom       -0.031864     -0.079632      0.025876
[...]
    16  H   -0.000001  -0.000001  -0.000049   0.312825  -0.000001  -0.000048
    17  H   -0.000001  -0.000048   0.000000  -0.000001   0.312797  -0.000001
    18  H    0.000000   0.000000  -0.000048  -0.000048  -0.000001   0.312769
    19  H   -0.000001  -0.000001  -0.000001   0.000000  -0.000048  -0.000048
              19
     1  Mn  -0.001994
     2  O   -0.000293
     3  H    0.000000
     4  O    0.000871
     5  H   -0.000049
     6  O    0.002891
     7  H   -0.000048
     8  O    0.294531
     9  H   -0.015966
    10  O    0.000871
    11  H   -0.000001
    12  O    0.000647
    13  H   -0.000001
    14  H   -0.000001
    15  H   -0.000001
    16  H    0.000000
    17  H   -0.000048
    18  H   -0.000048
    19  H    0.312769
          Atomic-Atomic Spin Densities.
               1          2          3          4          5          6
     1  Mn   5.188868  -0.054577   0.002178  -0.054609   0.002181  -0.054600
     2  O   -0.054577   0.110508  -0.004793  -0.011754   0.000180  -0.011727
     3  H    0.002178  -0.004793   0.003576   0.000430  -0.000001   0.000179
     4  O   -0.054609  -0.011754   0.000430   0.110576  -0.004798  -0.011772
     5  H    0.002181   0.000180  -0.000001  -0.004798   0.003581   0.000430
     6  O   -0.054600  -0.011727   0.000179  -0.011772   0.000430   0.110585
     7  H    0.002177   0.000428  -0.000001   0.000180  -0.000001  -0.004794
     8  O   -0.054586   0.009429  -0.000123  -0.011741   0.000826  -0.011740
     9  H    0.002178  -0.000123   0.000000   0.000428  -0.000019   0.000180
    10  O   -0.054583  -0.011743   0.000429   0.009432  -0.000123  -0.011791
    11  H    0.002181   0.000827  -0.000020  -0.000123   0.000000   0.000431
    12  O   -0.054565  -0.011769   0.000829  -0.011730   0.000429   0.009436
    13  H    0.002178   0.000431  -0.000020   0.000825  -0.000020  -0.000123
    14  H    0.002181   0.000430  -0.000020   0.000180  -0.000001  -0.000123
    15  H    0.002180   0.000828  -0.000020  -0.004797   0.000613   0.000431
    16  H    0.002182  -0.004799   0.000614   0.000431  -0.000001   0.000824
    17  H    0.002181   0.000180  -0.000001  -0.000123   0.000000   0.000433
    18  H    0.002181   0.000428  -0.000001   0.000828  -0.000020  -0.004798
    19  H    0.002182  -0.000123   0.000000   0.000431  -0.000020   0.000826
               7          8          9         10         11         12
     1  Mn   0.002177  -0.054586   0.002178  -0.054583   0.002181  -0.054565
     2  O    0.000428   0.009429  -0.000123  -0.011743   0.000827  -0.011769
     3  H   -0.000001  -0.000123   0.000000   0.000429  -0.000020   0.000829
     4  O    0.000180  -0.011741   0.000428   0.009432  -0.000123  -0.011730
     5  H   -0.000001   0.000826  -0.000019  -0.000123   0.000000   0.000429
     6  O   -0.004794  -0.011740   0.000180  -0.011791   0.000431   0.009436
     7  H    0.003576   0.000429  -0.000001   0.000831  -0.000020  -0.000123
     8  O    0.000429   0.110530  -0.004796  -0.011728   0.000180  -0.011786
     9  H   -0.000001  -0.004796   0.003581   0.000430  -0.000001   0.000831
    10  O    0.000831  -0.011728   0.000430   0.110540  -0.004800  -0.011738
    11  H   -0.000020   0.000180  -0.000001  -0.004800   0.003583   0.000430
    12  O   -0.000123  -0.011786   0.000831  -0.011738   0.000430   0.110511
    13  H    0.000000   0.000432  -0.000020   0.000179  -0.000001  -0.004797
    14  H    0.000000   0.000431  -0.000020   0.000826  -0.000020  -0.004800
    15  H   -0.000001   0.000180  -0.000001  -0.000123   0.000000   0.000428
    16  H   -0.000019  -0.000123   0.000000   0.000430  -0.000020   0.000180
    17  H   -0.000020   0.000826  -0.000020  -0.004800   0.000614   0.000428
    18  H    0.000613   0.000429  -0.000001   0.000180  -0.000001  -0.000123
    19  H   -0.000019  -0.004798   0.000613   0.000428  -0.000001   0.000180
              13         14         15         16         17         18
     1  Mn   0.002178   0.002181   0.002180   0.002182   0.002181   0.002181
     2  O    0.000431   0.000430   0.000828  -0.004799   0.000180   0.000428
     3  H   -0.000020  -0.000020  -0.000020   0.000614  -0.000001  -0.000001
     4  O    0.000825   0.000180  -0.004797   0.000431  -0.000123   0.000828
     5  H   -0.000020  -0.000001   0.000613  -0.000001   0.000000  -0.000020
     6  O   -0.000123  -0.000123   0.000431   0.000824   0.000433  -0.004798
     7  H    0.000000   0.000000  -0.000001  -0.000019  -0.000020   0.000613
     8  O    0.000432   0.000431   0.000180  -0.000123   0.000826   0.000429
     9  H   -0.000020  -0.000020  -0.000001   0.000000  -0.000020  -0.000001
    10  O    0.000179   0.000826  -0.000123   0.000430  -0.004800   0.000180
    11  H   -0.000001  -0.000020   0.000000  -0.000020   0.000614  -0.000001
    12  O   -0.004797  -0.004800   0.000428   0.000180   0.000428  -0.000123
    13  H    0.003580   0.000614  -0.000019  -0.000001  -0.000001   0.000000
    14  H    0.000614   0.003581  -0.000001  -0.000001  -0.000019   0.000000
    15  H   -0.000019  -0.000001   0.003578  -0.000020   0.000000  -0.000020
    16  H   -0.000001  -0.000001  -0.000020   0.003583  -0.000001  -0.000019
    17  H   -0.000001  -0.000019   0.000000  -0.000001   0.003582  -0.000001
    18  H    0.000000   0.000000  -0.000020  -0.000019  -0.000001   0.003580
    19  H   -0.000001  -0.000001  -0.000001   0.000000  -0.000020  -0.000020
              19
     1  Mn   0.002182
     2  O   -0.000123
     3  H    0.000000
     4  O    0.000431
     5  H   -0.000020
     6  O    0.000826
     7  H   -0.000019
     8  O   -0.004798
     9  H    0.000613
    10  O    0.000428
    11  H   -0.000001
    12  O    0.000180
    13  H   -0.000001
    14  H   -0.000001
    15  H   -0.000001
    16  H    0.000000
    17  H   -0.000020
    18  H   -0.000020
    19  H    0.003582
 Mulliken charges and spin densities:
               1          2
     1  Mn   1.276658   4.887508
     2  O   -0.691099   0.012261
     3  H    0.405818   0.003235
     4  O   -0.690982   0.012294
     5  H    0.405824   0.003237
     6  O   -0.691056   0.012287
     7  H    0.405776   0.003234
     8  O   -0.691110   0.012271
     9  H    0.405856   0.003240
    10  O   -0.691084   0.012278
    11  H    0.405855   0.003239
    12  O   -0.691216   0.012253
    13  H    0.405795   0.003236
    14  H    0.405812   0.003237
    15  H    0.405808   0.003236
    16  H    0.405799   0.003238
    17  H    0.405866   0.003239
    18  H    0.405813   0.003236
    19  H    0.405869   0.003239
 Sum of Mulliken charges =   2.00000   5.00000
 Mulliken charges and spin densities with hydrogens summed into heavy atoms:
               1          2
     1  Mn   1.276658   4.887508
     2  O    0.120518   0.018735
     4  O    0.120650   0.018767
     6  O    0.120533   0.018757
     8  O    0.120615   0.018749
    10  O    0.120636   0.018757
    12  O    0.120391   0.018727
 Electronic spatial extent (au):  <R**2>=           1213.6290
 Charge=              2.0000 electrons
 Dipole moment (field-independent basis, Debye):
    X=              0.0011    Y=             -0.0004    Z=              0.0052  Tot=              0.0054
 Quadrupole moment (field-independent basis, Debye-Ang):
   XX=            -15.6856   YY=            -15.6974   ZZ=            -15.6948
   XY=             -0.0111   XZ=              0.0028   YZ=             -0.0068
 Traceless Quadrupole moment (field-independent basis, Debye-Ang):
   XX=              0.0070   YY=             -0.0048   ZZ=             -0.0022
   XY=             -0.0111   XZ=              0.0028   YZ=             -0.0068
 Octapole moment (field-independent basis, Debye-Ang**2):
  XXX=              0.0509  YYY=             -0.0316  ZZZ=             -0.0203  XYY=             -0.0075
  XXY=              0.0287  XXZ=              0.0174  XZZ=             -0.0323  YZZ=              0.0010
  YYZ=              0.0502  XYZ=              0.0093
 Hexadecapole moment (field-independent basis, Debye-Ang**3):
 XXXX=           -254.7930 YYYY=           -187.3120 ZZZZ=           -242.9195 XXXY=             19.7129
 XXXZ=             19.3199 YYYX=            -51.0860 YYYZ=             24.5543 ZZZX=              5.6770
 ZZZY=            -17.8525 XXYY=            -78.0409 XXZZ=            -22.2698 YYZZ=            -89.7396
 XXYZ=             -6.7700 YYXZ=            -24.9600 ZZXY=             31.2600
 N-N= 6.281271076873D+02 E-N=-5.046605331579D+03  KE= 1.604608886549D+03
                          Isotropic Fermi Contact Couplings
        Atom                 a.u.       MegaHertz       Gauss      10(-4) cm-1
     1  Mn(55)             0.38296      84.66192      30.20948      28.24018
     2  O(17)              0.08839     -10.71595      -3.82372      -3.57445
     3  H(1)               0.00143       1.27733       0.45578       0.42607
     4  O(17)              0.08839     -10.71631      -3.82385      -3.57458
     5  H(1)               0.00143       1.27790       0.45599       0.42626
     6  O(17)              0.08840     -10.71764      -3.82432      -3.57502
     7  H(1)               0.00143       1.27666       0.45554       0.42585
     8  O(17)              0.08840     -10.71811      -3.82449      -3.57518
     9  H(1)               0.00143       1.27814       0.45607       0.42634
    10  O(17)              0.08840     -10.71703      -3.82410      -3.57482
    11  H(1)               0.00143       1.27850       0.45620       0.42646
    12  O(17)              0.08838     -10.71554      -3.82357      -3.57432
    13  H(1)               0.00143       1.27766       0.45590       0.42618
    14  H(1)               0.00143       1.27827       0.45612       0.42638
    15  H(1)               0.00143       1.27801       0.45603       0.42630
    16  H(1)               0.00143       1.27819       0.45609       0.42636
    17  H(1)               0.00143       1.27864       0.45625       0.42651
    18  H(1)               0.00143       1.27766       0.45590       0.42618
    19  H(1)               0.00143       1.27846       0.45619       0.42645
 --------------------------------------------------------
       Center         ----  Spin Dipole Couplings  ----
                      3XX-RR        3YY-RR        3ZZ-RR
 --------------------------------------------------------
     1   Atom        0.000143     -0.000000     -0.000143
     2   Atom       -0.041211      0.107510     -0.066299
     3   Atom       -0.006086      0.022151     -0.016065
     4   Atom        0.048514     -0.096937      0.048422
     5   Atom       -0.000624     -0.015406      0.016030
     6   Atom       -0.007096     -0.010824      0.017920
     7   Atom        0.027530     -0.016826     -0.010705
     8   Atom       -0.041195      0.107856     -0.066660
     9   Atom       -0.028782      0.059571     -0.030789
    10   Atom        0.048524     -0.096616      0.048093
    11   Atom       -0.000672     -0.015404      0.016076
    12   Atom       -0.007261     -0.010862      0.018123
    13   Atom        0.027462     -0.016810     -0.010652
    14   Atom       -0.018069     -0.021980      0.040050
    15   Atom        0.026090     -0.027585      0.001495
    16   Atom       -0.028756      0.059563     -0.030807
    17   Atom        0.026293     -0.027622      0.001329
    18   Atom       -0.018027     -0.022004      0.040031
    19   Atom       -0.006251      0.022303     -0.016052
 --------------------------------------------------------
                        XY            XZ            YZ
 --------------------------------------------------------
     1   Atom        0.000116      0.000013      0.000026
     2   Atom       -0.078345      0.017862      0.054477
     3   Atom       -0.036102     -0.020707      0.027354
     4   Atom        0.040960      0.097595      0.002716
     5   Atom        0.020054      0.038755      0.026863
     6   Atom        0.037165     -0.115629     -0.057094
     7   Atom        0.030478     -0.032618     -0.017449
     8   Atom       -0.077953      0.018004      0.054428
     9   Atom       -0.014254     -0.001200     -0.002324
    10   Atom        0.041235      0.097702      0.002665
    11   Atom        0.020032      0.038724      0.026890
    12   Atom        0.037216     -0.115542     -0.057161
    13   Atom        0.030458     -0.032633     -0.017471
    14   Atom        0.011810     -0.028310     -0.026917
    15   Atom       -0.012051      0.044122     -0.007733
    16   Atom       -0.014260     -0.001230     -0.002124
    17   Atom       -0.011978      0.044070     -0.007631
    18   Atom        0.011823     -0.028365     -0.026889
    19   Atom       -0.036034     -0.020636      0.027388
 --------------------------------------------------------


 ---------------------------------------------------------------------------------
              Anisotropic Spin Dipole Couplings in Principal Axis System
 ---------------------------------------------------------------------------------

       Atom             a.u.   MegaHertz   Gauss  10(-4) cm-1        Axes

              Baa    -0.0001    -0.019    -0.007    -0.006  0.0338 -0.1971  0.9798
     1 Mn(55) Bbb    -0.0001    -0.008    -0.003    -0.003 -0.4931  0.8494  0.1879
              Bcc     0.0002     0.028     0.010     0.009  0.8693  0.4895  0.0685
 
              Baa    -0.1122     8.115     2.896     2.707 -0.6039 -0.3880  0.6963
     2 O(17)  Bbb    -0.0378     2.737     0.977     0.913  0.7135  0.1263  0.6892
              Bcc     0.1500   -10.852    -3.872    -3.620 -0.3554  0.9129  0.2006
 
              Baa    -0.0325   -17.332    -6.184    -5.781  0.7134  0.1263  0.6893
     3 H(1)   Bbb    -0.0294   -15.679    -5.595    -5.230  0.4674  0.6471 -0.6023
              Bcc     0.0619    33.011    11.779    11.011 -0.5221  0.7519  0.4026
 
              Baa    -0.1122     8.120     2.897     2.709 -0.3541  0.9137  0.1997
     4 O(17)  Bbb    -0.0378     2.733     0.975     0.912 -0.6045 -0.3865  0.6966
              Bcc     0.1500   -10.853    -3.873    -3.620  0.7136  0.1260  0.6891
 
              Baa    -0.0325   -17.331    -6.184    -5.781 -0.6045 -0.3862  0.6968
     5 H(1)   Bbb    -0.0294   -15.679    -5.594    -5.230 -0.5541  0.8322 -0.0194
              Bcc     0.0619    33.010    11.779    11.011  0.5724  0.3978  0.7170
 
              Baa    -0.1122     8.121     2.898     2.709  0.7133  0.1267  0.6893
     6 O(17)  Bbb    -0.0377     2.731     0.974     0.911 -0.3550  0.9133  0.1995
              Bcc     0.1500   -10.852    -3.872    -3.620 -0.6043 -0.3870  0.6965
 
              Baa    -0.0325   -17.337    -6.186    -5.783 -0.3554  0.9132  0.1993
     7 H(1)   Bbb    -0.0294   -15.684    -5.596    -5.232  0.4958  0.0034  0.8684
              Bcc     0.0619    33.021    11.783    11.015  0.7924  0.4074 -0.4540
 
              Baa    -0.1122     8.117     2.896     2.708 -0.6014 -0.3861  0.6995
     8 O(17)  Bbb    -0.0378     2.734     0.975     0.912  0.7164  0.1271  0.6860
              Bcc     0.1500   -10.851    -3.872    -3.620 -0.3537  0.9137  0.2002
 
              Baa    -0.0325   -17.330    -6.184    -5.781  0.7170  0.1283  0.6851
     9 H(1)   Bbb    -0.0294   -15.677    -5.594    -5.229 -0.6796 -0.0899  0.7281
              Bcc     0.0619    33.007    11.778    11.010 -0.1550  0.9877 -0.0228
 
              Baa    -0.1122     8.117     2.896     2.707 -0.3571  0.9118  0.2025
    10 O(17)  Bbb    -0.0378     2.736     0.976     0.913 -0.6019 -0.3905  0.6966
              Bcc     0.1500   -10.853    -3.873    -3.620  0.7143  0.1269  0.6882
 
              Baa    -0.0325   -17.328    -6.183    -5.780 -0.6019 -0.3907  0.6965
    11 H(1)   Bbb    -0.0294   -15.676    -5.593    -5.229 -0.5574  0.8301 -0.0161
              Bcc     0.0619    33.004    11.776    11.009  0.5718  0.3980  0.7174
 
              Baa    -0.1121     8.114     2.895     2.707  0.7139  0.1264  0.6887
    12 O(17)  Bbb    -0.0379     2.739     0.977     0.914 -0.3548  0.9132  0.2002
              Bcc     0.1500   -10.853    -3.873    -3.620 -0.6037 -0.3873  0.6968
 
              Baa    -0.0325   -17.330    -6.184    -5.781 -0.3551  0.9132  0.2001
    13 H(1)   Bbb    -0.0294   -15.678    -5.594    -5.230  0.4967  0.0029  0.8679
              Bcc     0.0619    33.009    11.778    11.010  0.7920  0.4076 -0.4546
 
              Baa    -0.0325   -17.328    -6.183    -5.780 -0.3547  0.9132  0.2005
    14 H(1)   Bbb    -0.0294   -15.677    -5.594    -5.229  0.8637  0.2379  0.4444
              Bcc     0.0619    33.005    11.777    11.009 -0.3581 -0.3308  0.8731
 
              Baa    -0.0325   -17.333    -6.185    -5.782 -0.6043 -0.3868  0.6966
    15 H(1)   Bbb    -0.0294   -15.680    -5.595    -5.230 -0.1206  0.9086  0.3998
              Bcc     0.0619    33.013    11.780    11.012  0.7876 -0.1576  0.5957
 
              Baa    -0.0325   -17.325    -6.182    -5.779  0.7135  0.1265  0.6891
    16 H(1)   Bbb    -0.0294   -15.674    -5.593    -5.228 -0.6832 -0.0922  0.7244
              Bcc     0.0618    32.999    11.775    11.007 -0.1552  0.9877 -0.0206
 
              Baa    -0.0325   -17.328    -6.183    -5.780 -0.6020 -0.3903  0.6967
    17 H(1)   Bbb    -0.0294   -15.675    -5.593    -5.229 -0.1230  0.9073  0.4020
              Bcc     0.0619    33.003    11.776    11.009  0.7890 -0.1563  0.5942
 
              Baa    -0.0325   -17.331    -6.184    -5.781 -0.3547  0.9133  0.1999
    18 H(1)   Bbb    -0.0294   -15.679    -5.595    -5.230  0.8634  0.2379  0.4449
              Bcc     0.0619    33.010    11.779    11.011 -0.3588 -0.3304  0.8730
 
              Baa    -0.0325   -17.326    -6.182    -5.779  0.7153  0.1270  0.6871
    19 H(1)   Bbb    -0.0294   -15.675    -5.593    -5.229  0.4663  0.6456 -0.6048
              Bcc     0.0619    33.001    11.775    11.008 -0.5204  0.7530  0.4026
 

 ---------------------------------------------------------------------------------

 No NMR shielding tensors so no spin-rotation constants.
 Leave Link  601 at Thu May 23 14:42:43 2024, MaxMem= 26843545600 cpu:              29.3 elap:               0.3
 (Enter /gpfs/fs1/soft/improv/software/custom-built/gaussian/g16/l9999.exe)
 Unable to Open any file for archive entry.
 1\1\GINC-I036\SP\UB3LYP\Gen\H12Mn1O6(2+,6)\HHARB\23-May-2024\0\\#p B3L
 YP empiricaldispersion=gd3 scf=(maxcycles=500,xqc,maxconventional=50) 
 scrf=(cpcm,solvent=water) geom=allcheck guess=read chkbasis\\Title\\2,
 6\Mn,-0.7845862897,0.7130227739,0.0320483078\O,-1.3526922231,2.8032089
 45,-0.3104376881\H,-1.457567563,3.2380707233,-1.1683666073\O,1.3293369
 643,1.2944475729,0.0677167539\H,2.0864538547,0.7059577614,0.1969809425
 \O,-0.9089683205,1.0320224858,2.1977698464\H,-1.6915634925,0.910472256
 4,2.753502819\O,-0.2155420243,-1.3773401195,0.371443654\H,-0.026567979
 5,-2.0401739584,-0.3079878057\O,-2.8990399838,0.1327575225,-0.00127972
 16\H,-3.655708997,0.7212103133,-0.1341089064\O,-0.6612394148,0.3928539
 45,-2.1338205199\H,0.1208189932,0.5145636029,-2.6902755068\H,-1.378268
 3034,0.1025296247,-2.7149180429\H,1.6826553694,2.188304153,-0.04335528
 32\H,-1.5461704483,3.4661705278,0.367202126\H,-3.2529791085,-0.7605578
 527,0.1137612744\H,-0.1922833609,1.32173727,2.7795656642\H,-0.10760524
 25,-1.8131777774,1.2286041036\\Version=ES64L-G16RevC.02\State=6-A\HF=-
 1609.4600643\S2=8.752012\S2-1=0.\S2A=8.750001\RMSD=2.735e-09\Dipole=-0
 .0016165,-0.0005354,-0.0012581\Quadrupole=-0.0039818,0.0055911,-0.0016
 094,0.0094099,0.0001311,-0.0022563\PG=C01 [X(H12Mn1O6)]\\@
 The archive entry for this job was punched.


 DIATOMIC MOLECULES ARE PECULIAR BECAUSE THEY ONLY HAVE TWO ENDS,
 AND THESE ENDS ARE VERY CLOSE TOGETHER.
 KLAUS RUEDENBERG, REV.MOD.PHYS. PG 176, 32, (1960)
 Job cpu time:       0 days  0 hours 32 minutes 15.9 seconds.
 Elapsed time:       0 days  0 hours  0 minutes 18.0 seconds.
 File lengths (MBytes):  RWF=    123 Int=      0 D2E=      0 Chk=     32 Scr=      1
 Normal termination of Gaussian 16 at Thu May 23 14:42:43 2024.
