100
 energy: -181.467687556650 gnorm: 0.001698215154 xtb: 6.6.0 (conda-forge)
Fe           0.35879315316844       -0.60886748821668        0.60369322062677
C           -1.19299076775854       -0.00166824742708        1.44642840238144
C            1.40358039311135        0.32864123754215        1.84563960388569
C           -0.62281633382384       -1.70645454933717       -0.55395611948244
C            1.90658584062018       -1.27699934546309       -0.19686392558952
C           -0.43194513237599       -0.23935933412952       -1.04566023378865
C            1.04155873527866        1.12492159371318        0.54797730370537
N           -2.15474334178212        0.33980935685125        1.99263140409308
N            2.00698483505107        0.48067626805531        2.83537825464591
N           -1.12129178427794       -2.70735128616055       -0.89671120690878
N            2.85730865273276       -1.76536068500531       -0.64105033965859
N           -0.78685295521964        0.33686927478809       -2.00327849697107
N            1.29178248591345        2.21087471686749        0.18405309721628
H            1.13171294667730        4.85009553483967       -1.65436946150558
H            1.70960502003773        3.94671348433935       -0.54775684589254
H            5.55951974501117       -2.92292158999110       -1.75745144779343
H            4.05243019546134       -2.85531184728673       -1.41017586840704
H            4.45286353672709        1.93467766935377        4.45066729220393
H            3.35617655217279        0.87728604009403        4.18482812719858
H           -1.92750585886771       -4.37969961082281       -1.28254820285944
H           -1.43682892685862       -5.79996687555455       -1.65014636097975
H           -3.59424374665828        1.08715020533951        2.77492146958334
H           -4.88011801632832        1.81743154725316        2.31466787341467
H           -1.83673808747854        2.45623176748985       -4.35318346005121
H           -1.85595076148027        1.46970621932889       -3.15764901013544
O            4.04763344117965        1.13195886960413        4.81418369723835
O            4.73550898684845       -3.41420718663574       -1.82833704898289
O           -2.22887630000972       -5.28212997969547       -1.47455002608790
O           -4.40029107899978        1.53315047235682        3.09902108450531
O           -2.43076796666959        2.00351644893482       -3.72688371362395
O            1.83069188715110        4.79814711792865       -0.99505037732790
O            4.02102411087993        0.55251869689363        7.58985023719746
H            4.11648507139320        0.74690686795416        6.64227866715836
H            3.08476488383771        0.38255304402206        7.73156961530938
O           -1.50490875383448       -0.67351342976941        7.66260579057089
H           -1.51242610363213       -0.37402447606970        6.74923067036503
H           -2.41627621894310       -0.64448832286520        7.97296974265294
O            0.85196713517777        5.00690110078695        6.32561822816812
H            0.62195756441169        4.14528037368021        5.96546815023548
H            1.71866121474276        4.91625471292778        6.73490760039369
O            3.98241728624945       -4.19725178381314        5.16054465776562
H            4.76319700977824       -3.73414248471172        5.48207864196574
H            3.23061609955113       -3.62203660589909        5.32893588398858
O           -5.93702584626984        0.97737427499041        5.40428694740526
H           -5.35282028385256        1.09155156274576        4.63598606591766
H           -6.28863132313658        1.85300012322344        5.59506363992481
O            5.15198213566674        3.50141317630515        3.61462619437268
H            6.08138498664033        3.74238528511346        3.54037867129432
H            4.64873593490329        4.16347759626922        3.12952367009899
O           -3.01315338764371       -9.39735672288847        1.81698320759319
H           -2.14462088460773       -9.06060687134948        1.57554541898343
H           -3.66256051210174       -8.85081995174479        1.36292079256158
O           -2.35884360346857        6.36363135024174        2.06492486252519
H           -2.02903200820698        5.49979804314636        1.80177611076629
H           -2.21812090485676        6.44235645828032        3.01388571170371
O            8.06086447915447       -1.10248636623996        1.95124193408373
H            8.14419317374700       -0.17671172676688        1.70163052035032
H            7.16567700167792       -1.22443530695129        2.28089593720798
O           -6.87450281868724       -3.04733930176089        1.71940459331006
H           -5.98657978297711       -2.72108485630207        1.54795346494018
H           -7.21782358761239       -2.54556295908415        2.46614758164700
O            2.96678924429159        8.60764457742484        2.59195410510328
H            3.06222953111267        8.31712539329383        1.67941084586851
H            2.19798454507390        8.15307870739080        2.95038535477554
O            2.33712516991233       -7.63182860208282        1.01515195035900
H            2.65073544374651       -6.97292805834562        0.38846399094912
H            2.66875563901868       -7.37628146968187        1.88180856027426
O           -6.76528469228744        4.57620703250248       -1.07012326435233
H           -6.43076567123243        4.03480407977887       -1.79199712791546
H           -6.04167031905753        5.14252099714663       -0.78359867754172
O            7.22455314852121        3.52499777750370       -1.11688776113476
H            7.39121964828117        4.06829717408551       -1.89448700348275
H            6.29600442975484        3.27584592192020       -1.14386200787388
O           -4.68039925032031       -5.72380636364174       -2.82934303358133
H           -3.82735658373154       -5.58984039920610       -2.38343437454605
H           -5.35038043000577       -5.41180007974297       -2.21310555743668
O           -2.81155566379276        7.85781856120376       -3.27122756036646
H           -2.70611721012666        6.92574774791855       -3.48420132880471
H           -2.59944783746831        7.96011708912334       -2.33814860816417
O            4.25878843160350       -5.21685419935500       -3.95309752745728
H            4.92226298117741       -5.89006837950309       -3.77029751733082
H            4.34208062614092       -4.56467679434256       -3.23738477090694
O           -4.67576096014956        0.72001908448673       -4.81945614477956
H           -3.92681454371494        1.22194556257489       -4.44829654812934
H           -4.64740664406609       -0.14424694551218       -4.39848153913003
O            4.84433393222090        4.80135528060385       -5.81052653569465
H            4.71279728758547        3.89660913211762       -6.11121459703891
H            4.13288854426364        4.99923864779708       -5.19349478494781
O           -0.64269515706579       -4.38451048661908       -6.63590570091449
H            0.03751508700376       -4.63821025746560       -6.00478317513585
H           -1.48870186008757       -4.46069320599913       -6.18336141987656
O           -0.78554093490448        3.19445992445215       -5.69533235349887
H           -0.14037321770521        2.59895566459335       -6.08971628206583
H           -1.26184741226639        3.61206831234995       -6.42136162323379
O            3.28228617771635       -0.59849524215877       -6.33737751524733
H            3.38777655292109       -1.46171294373098       -6.75066187281958
H            2.96596776536712       -0.75474800087921       -5.44314742500092
O           -2.13108299814451        0.10512319886417       -9.63138246409768
H           -1.59163780145204       -0.58450454685273       -9.23196418929020
H           -2.91845243315849        0.19482961571727       -9.08495834274225
