100
 energy: -181.400401760365 gnorm: 0.660722092148 xtb: 6.6.0 (conda-forge)
Fe          -0.17207000000000       -0.12944000000000        0.13161000000000
C           -1.52972000000000        0.20130000000000        1.52289000000000
C            1.13276000000000       -0.52880000000000        1.55509000000000
C           -0.77039000000000       -2.00687000000000        0.05328000000000
C            1.18537000000000       -0.45925000000000       -1.26171000000000
C           -1.47037000000000        0.30165000000000       -1.28999000000000
C            0.45335000000000        1.74010000000000        0.18881000000000
N           -2.34781000000000        0.41169000000000        2.32802000000000
N            1.92203000000000       -0.75392000000000        2.38479000000000
N           -1.09992000000000       -3.12472000000000       -0.00703000000000
N            2.00391000000000       -0.66350000000000       -2.06813000000000
N           -2.23982000000000        0.58518000000000       -2.12031000000000
N            0.83139000000000        2.84415000000000        0.20705000000000
H            2.91242000000000        4.39660000000000       -1.27015000000000
H            1.80318000000000        4.27278000000000       -0.24405000000000
H            4.93726000000000       -1.23546000000000       -2.08062000000000
H            3.60764000000000       -1.00686000000000       -2.77316000000000
H            4.09195000000000        0.81369000000000        3.70830000000000
H            3.28784000000000       -0.45366000000000        3.49741000000000
H           -1.16984000000000       -4.82545000000000       -0.54656000000000
H           -0.36248000000000       -5.52588000000000       -1.62150000000000
H           -3.93787000000000        0.80789000000000        3.03819000000000
H           -5.24647000000000        1.12989000000000        2.34413000000000
H           -2.90276000000000        3.00427000000000       -3.74366000000000
H           -3.11659000000000        1.56082000000000       -3.33190000000000
O            4.04646000000000       -0.09132000000000        4.03262000000000
O            4.56548000000000       -1.20293000000000       -2.96766000000000
O           -1.05477000000000       -5.71565000000000       -0.98059000000000
O           -4.88631000000000        1.04585000000000        3.23255000000000
O           -3.47541000000000        2.25819000000000       -3.94737000000000
O            2.43897000000000        4.93661000000000       -0.62945000000000
O            2.37864085097244        0.08345000000000        7.35148104287272
H            3.27864085097244        0.08345000000000        7.35148104287272
H            2.08562951196100        0.93441671803939        7.35148104287272
O           -2.72031126079276       -2.51015695497330        6.67536663721567
H           -1.82031126079276       -2.51015695497330        6.67536663721567
H           -3.01332259980420       -1.65919023693391        6.67536663721567
O            0.53404590534823        4.90515944836343        5.99925223155862
H            1.43404590534823        4.90515944836343        5.99925223155862
H            0.24103456633679        5.75612616640282        5.99925223155862
O            3.50939348686644       -4.34930356230529        5.32313782590157
H            4.40939348686644       -4.34930356230529        5.32313782590157
H            3.21638214785500       -3.49833684426590        5.32313782590157
O           -5.96377889087100        1.15797236586611        4.64702342024452
H           -5.06377889087100        1.15797236586611        4.64702342024452
H           -6.25679022988244        2.00893908390549        4.64702342024452
O            5.70764916406520        3.64365374876649        3.97090901458747
H            6.60764916406520        3.64365374876649        3.97090901458747
H            5.41463782505376        4.49462046680587        3.97090901458747
O           -1.70685147676850       -6.67843608937621        3.29479460893041
H           -0.80685147676850       -6.67843608937621        3.29479460893041
H           -1.99986281577994       -5.82746937133682        3.29479460893041
O           -3.24904401094711        6.55278730140193        2.61868020327336
H           -2.34904401094711        6.55278730140193        2.61868020327336
H           -3.54205534995855        7.40375401944132        2.61868020327336
O            7.16151253041666       -2.49142816037648        1.94256579761632
H            8.06151253041666       -2.49142816037648        1.94256579761632
H            6.86850119140522       -1.64046144233710        1.94256579761632
O           -6.96667049557984       -2.83806169012168        1.26645139195926
H           -6.06667049557984       -2.83806169012168        1.26645139195926
H           -7.25968183459128       -1.98709497208230        1.26645139195926
O            3.39393746111087        7.09914413843540        0.59033698630221
H            4.29393746111087        7.09914413843540        0.59033698630221
H            3.10092612209943        7.95011085647478        0.59033698630221
O            2.43791071306501       -7.33547723166449       -0.08577741935484
H            3.33791071306501       -7.33547723166449       -0.08577741935484
H            2.14489937405357       -6.48451051362510       -0.08577741935484
O           -6.59092382752508        3.96728473520758       -0.76189182501189
H           -5.69092382752508        3.96728473520758       -0.76189182501189
H           -6.88393516653652        4.81825145324697       -0.76189182501189
O            7.58912234323177        1.72751967910081       -1.43800623066894
H            8.48912234323177        1.72751967910081       -1.43800623066894
H            7.29611100422033        2.57848639714019       -1.43800623066894
O           -4.20608792911960       -6.05699861370414       -2.11412063632599
H           -3.30608792911960       -6.05699861370414       -2.11412063632599
H           -4.49909926813104       -5.20603189566476       -2.11412063632599
O           -0.82593531251846        7.31282147141627       -2.79023504198304
H            0.07406468748154        7.31282147141627       -2.79023504198304
H           -1.11894665152990        8.16378818945565       -2.79023504198304
O            5.46491618789388       -4.42893383300520       -3.46634944764009
H            6.36491618789388       -4.42893383300520       -3.46634944764009
H            5.17190484888244       -3.57796711496582       -3.46634944764009
O           -6.51661274766059       -0.19061780584504       -4.14246385329715
H           -5.61661274766059       -0.19061780584504       -4.14246385329715
H           -6.80962408667203        0.66034891219435       -4.14246385329715
O            4.48362808345296        4.43491421072912       -4.81857825895419
H            5.38362808345296        4.43491421072912       -4.81857825895419
H            4.19061674444151        5.28588092876851       -4.81857825895419
O           -0.14712374836315       -5.49620961890239       -5.49469266461124
H            0.75287625163685       -5.49620961890239       -5.49469266461124
H           -0.44013508737459       -4.64524290086301       -5.49469266461124
O           -2.99030346519163        3.79970926760353       -6.17080707026830
H           -2.09030346519164        3.79970926760353       -6.17080707026830
H           -3.28331480420308        4.65067598564292       -6.17080707026830
O            3.91618612543795       -0.42854799289196       -6.84692147592535
H            4.81618612543795       -0.42854799289196       -6.84692147592535
H            3.62317478642651        0.42241872514742       -6.84692147592535
O           -1.75062276490808       -1.21173805619465       -7.52303588158240
H           -0.85062276490808       -1.21173805619465       -7.52303588158240
H           -2.04363410391952       -0.36077133815526       -7.52303588158240
100
 energy: -181.613661520552 gnorm: 0.248024697814 xtb: 6.6.0 (conda-forge)
Fe          -0.17144493752028       -0.12955619291707        0.13096263105583
C           -1.52447781538251        0.20222351987713        1.51624068337168
C            1.13023100637822       -0.53006523145951        1.54905249221240
C           -0.76504556658437       -2.00237642285627        0.05384765590875
C            1.18230614447670       -0.46099860793063       -1.25639627334462
C           -1.46757990274795        0.30240533948745       -1.28387457318570
C            0.44781139058065        1.73554977559319        0.18824383587912
N           -2.33697266884492        0.40830846744899        2.32075118191467
N            1.91571036383299       -0.74981211821658        2.37789413117719
N           -1.09628620814514       -3.11526606511579       -0.00845416131447
N            1.99812877190799       -0.66124494674097       -2.06069616366860
N           -2.23254803171115        0.58280460845970       -2.11354562361326
N            0.82882623742408        2.83399228594498        0.20677496626824
H            2.91380436576050        4.39647895711800       -1.27181792292830
H            1.80304319682925        4.27533758344503       -0.24325215547628
H            4.94014434383298       -1.23334835907638       -2.08071735191527
H            3.61005211516054       -1.00593381459354       -2.77565669835910
H            4.09457888723949        0.81564197780527        3.71042466432102
H            3.28908559278288       -0.45298302695032        3.49884565013690
H           -1.16909429158422       -4.82725130444933       -0.54606086212427
H           -0.36119373442352       -5.52959551407038       -1.62277770485766
H           -3.90326683269810        0.80025878724022        2.99705277041564
H           -5.23362320289375        1.12726069154685        2.29641714985166
H           -2.90489539017982        3.00464036937140       -3.74609687896686
H           -3.11670437825222        1.55979396813780       -3.33268992984871
O            4.04104634818563       -0.09150077989000        4.02811819780830
O            4.55978627470340       -1.20565383430716       -2.96403335149881
O           -1.05539043815941       -5.70778182456828       -0.98105718917945
O           -4.83912653700075        1.03030364236131        3.15947934005127
O           -3.47374041355975        2.25258834832635       -3.93849933126066
O            2.43312580290259        4.92878368552283       -0.63108657338799
O            2.36422421950660        0.07732386873053        7.35658124327701
H            3.30361597955436        0.05781053371104        7.34994456404835
H            2.07470961750000        0.96579744802339        7.35012158936484
O           -2.73382263502910       -2.51750162247965        6.67878762527097
H           -1.79465491438205       -2.53671234763039        6.67386545697664
H           -3.02313611343663       -1.62873589898370        6.67483960333956
O            0.51871194464853        4.90005306944250        6.00235778953193
H            1.45773165250223        4.87888890866673        5.99734166430175
H            0.23004952066244        5.78943627510132        5.99970764234969
O            3.49550646541134       -4.35560453403340        5.32624205276039
H            4.43549997329780       -4.37419259835269        5.32158476477812
H            3.20626648450645       -3.46718931889391        5.32181558904525
O           -6.02463240585739        1.16234370454871        4.78481345836711
H           -5.07334814386397        1.13348527787274        4.66557465954328
H           -6.28877202082224        2.05285205846470        4.65435547264206
O            5.69276148268017        3.63925043070760        3.97272551597888
H            6.63261154320732        3.61702686466763        3.97054305237078
H            5.40392652311769        4.52808847288898        3.97022688884664
O           -1.72040291449974       -6.68546483588344        3.29753471241531
H           -0.78113160154706       -6.70449352871420        3.29456320187359
H           -2.00962127536001       -5.79696300087251        3.29488071779753
O           -3.26518147657765        6.54688807130176        2.61969500464664
H           -2.32643639350485        6.52392622922037        2.61628798863875
H           -3.55350307714408        7.43717919716197        2.61831259307314
O            7.14794556878026       -2.49593648369256        1.94232728314170
H            8.08811532477488       -2.51673053873579        1.94246353379563
H            6.85809834124224       -1.60789814878109        1.94314452925199
O           -6.98076807350642       -2.84620387557185        1.26588330311215
H           -6.04222751142997       -2.86494880146150        1.26760881805120
H           -7.27012941682014       -1.95692061490905        1.26650624383270
O            3.37952463029943        7.09849000250542        0.59681891385197
H            4.31850937566788        7.07250533396987        0.58833719994323
H            3.09017195635588        7.98691909097888        0.58932225662354
O            2.42506738765081       -7.34115857546350       -0.08606218369114
H            3.36503521416371       -7.36067250624805       -0.08607953093079
H            2.13622617445151       -6.45305529074540       -0.08518970151661
O           -6.60627503918813        3.96040058962477       -0.76178427685153
H           -5.66796078121580        3.93982302733721       -0.76203503823829
H           -6.89498997736254        4.85052899774616       -0.76170773908007
O            7.57492367979993        1.72364782167010       -1.43756310779660
H            8.51494667061982        1.70158132906886       -1.43807107263559
H            7.28519127139864        2.61187590313789       -1.43630665126611
O           -4.22002623468789       -6.06489931639997       -2.11699593721613
H           -3.28012575637660       -6.08403392208859       -2.11081483656882
H           -4.50795224862063       -5.17547291677722       -2.11440979118244
O           -0.84228669087024        7.30735736903181       -2.79321290898251
H            0.09679345990847        7.28441612509266       -2.78901555859736
H           -1.13043849192956        8.19757997264876       -2.78938868195220
O            5.45098362364000       -4.43398753690073       -3.46683448833336
H            6.39113016762934       -4.45317496754710       -3.46590012650696
H            5.16096369734768       -3.54438357688640       -3.46675498608428
O           -6.53132948925524       -0.19883806272862       -4.14403277194674
H           -5.59260755002377       -0.21674247130384       -4.14249668460786
H           -6.81939768553681        0.69140057689774       -4.14170715405754
O            4.46804214722047        4.43105325994108       -4.81991431089591
H            5.40769042726984        4.40863041567941       -4.81929799685078
H            4.17959417102898        5.32021313478901       -4.81905507861708
O           -0.16009574231442       -5.50257914361728       -5.49579860733506
H            0.77943841348378       -5.52187855376408       -5.49471480374481
H           -0.44993893332329       -4.61432535984724       -5.49443456663285
O           -3.00443704350802        3.79596417346661       -6.17850540556686
H           -2.06589065891871        3.77325091875918       -6.16963682368615
H           -3.29416631909220        4.68468973264355       -6.16970262450228
O            3.90164889894714       -0.43361367587864       -6.85247782799872
H            4.84122719694397       -0.45467754255368       -6.84529229797562
H            3.61273287350227        0.45529482590383       -6.84453741442029
O           -1.76419388018524       -1.21849987546490       -7.52652676297255
H           -0.82506177486673       -1.23683271726368       -7.52249634998931
H           -2.05478433238983       -0.32995002797359       -7.52149537453798
100
 energy: -181.666601464446 gnorm: 0.065911642651 xtb: 6.6.0 (conda-forge)
Fe          -0.17036618820126       -0.13008015379221        0.13012439345191
C           -1.50827842030383        0.20559788288800        1.49947438982769
C            1.12178472355879       -0.53299670317799        1.53110665499881
C           -0.75217429465807       -1.98740986379514        0.05491199334982
C            1.17192427547518       -0.46552067970466       -1.24112443419382
C           -1.45724488215877        0.30362714955888       -1.26658111783874
C            0.43432060345292        1.72028421695020        0.18608272233815
N           -2.31880829333402        0.40468908394932        2.30656834469984
N            1.90356968228966       -0.74179405427432        2.36430568739799
N           -1.08967782788371       -3.09660369970041       -0.01312640163535
N            1.98789965838843       -0.65852756132858       -2.04515156286517
N           -2.21780420001458        0.58066521539879       -2.09937341324323
N            0.82502692020063        2.81376048654823        0.20686760287278
H            2.91845462307584        4.38936639705234       -1.27612363759482
H            1.80270332490297        4.27331987115259       -0.24104272300040
H            4.94554369827015       -1.22928741136418       -2.08061905259106
H            3.61071955810218       -1.00525259295991       -2.77883016544726
H            4.10108921685461        0.81695164652871        3.71593335319436
H            3.28657435580774       -0.45189554236676        3.49743057055510
H           -1.16888890588824       -4.82380440140924       -0.54505830587464
H           -0.36231484334343       -5.53826084019652       -1.62473891923919
H           -3.87123394424040        0.79477942045708        2.95860455701389
H           -5.22500806299564        1.12814176346388        2.25964401881257
H           -2.90900359953640        3.00554544536877       -3.75211536238584
H           -3.11029270803722        1.55573159903546       -3.32805029686463
O            4.03297519143177       -0.09415245248784        4.02090606827824
O            4.54980932216409       -1.22347991041867       -2.95805247738731
O           -1.06536492309823       -5.69323116363472       -0.98618915946768
O           -4.79773516528187        1.03272714093734        3.10660042186002
O           -3.47444312463621        2.24412492523100       -3.91902368340663
O            2.42479285318480        4.91393209113531       -0.63927298704983
O            2.36579948517479        0.05482934917190        7.37402678151166
H            3.32636703576420        0.07773461568125        7.34529684914495
H            2.04992537784539        0.96055911461187        7.34546073550789
O           -2.73238433844214       -2.53789911490728        6.69318146614762
H           -1.77207353649153       -2.51915205041277        6.66787554763148
H           -3.04463849149240       -1.63073390340192        6.67250100330780
O            0.52047581508472        4.88314948807652        6.01204038789902
H            1.48024492053571        4.90023904800240        5.99104458473350
H            0.20957301529822        5.79182061279218        6.00307150463960
O            3.49521276090397       -4.37804295760775        5.33984686190442
H            4.45699493518014       -4.35581428579691        5.31668962371453
H            3.18173265287029       -3.47184918944629        5.31392898347502
O           -6.06355786994612        1.15923696990717        4.88453029876009
H           -5.10016349913142        1.14185873476855        4.70301489594952
H           -6.31811112546772        2.06896358942664        4.64998000612349
O            5.69635359094458        3.61830084978020        3.97795898089044
H            6.65764422987479        3.63356636879551        3.96933221079658
H            5.38435651815881        4.52580360456165        3.96915084469904
O           -1.72321332511702       -6.70560869914471        3.30988842004639
H           -0.76273981400131       -6.68795109840134        3.29470654015869
H           -2.03420137023417       -5.79864932158612        3.29343436654677
O           -3.26669203298183        6.53116085263918        2.62316723108359
H           -2.30731976835448        6.53782191405229        2.60637493911204
H           -3.57213720329560        7.44296957999299        2.61735097739192
O            7.15105922972288       -2.51819398515079        1.94055298794738
H            8.11304186342838       -2.49752566006557        1.94262374987753
H            6.83378159375557       -1.61326959443876        1.94567956880242
O           -6.98347342179869       -2.86423431409643        1.26400884983634
H           -6.02426988759154       -2.84699856879778        1.27297082089953
H           -7.29382012199818       -1.95565907359582        1.26765794077685
O            3.38655216665993        7.08924439815972        0.61711273767424
H            4.34602616863002        7.09989808576131        0.58106122264314
H            3.07157342317993        7.99592510968857        0.58728653572430
O            2.42598566668905       -7.36126038159851       -0.08772917432851
H            3.38769613371455       -7.34238125934204       -0.08698211901301
H            2.11458853619015       -6.45516306339142       -0.08331851504840
O           -6.60762516803592        3.94614742552083       -0.76026233966848
H           -5.64892352949532        3.95870263593126       -0.76356800419886
H           -6.91490956220000        4.85701139506152       -0.76139994566030
O            7.57920479216330        1.70218357534715       -1.43594841614745
H            8.54084023554058        1.71978530848651       -1.43884620966976
H            7.26294044650553        2.60779612054422       -1.42917235151760
O           -4.22250082222083       -6.08463892818099       -2.13397425335015
H           -3.26085917335701       -6.06987563862438       -2.09196642683566
H           -4.52803820149577       -5.17513277628619       -2.11528165820225
O           -0.84337093964160        7.29064894306090       -2.80490982662928
H            0.11658696724152        7.29829158667357       -2.78433577547645
H           -1.14903100752300        8.20221464868130       -2.78601313141920
O            5.44944387323081       -4.45230938863166       -3.47032306078229
H            6.41155839497653       -4.43180636794584       -3.46519904658199
H            5.13441917193910       -3.54382443303596       -3.46531399001747
O           -6.53352283828371       -0.21591596345195       -4.15188554313151
H           -5.57401882523619       -0.19858207417914       -4.14012362200684
H           -6.83850639594339        0.69531200010873       -4.13890883431740
O            4.46858929328374        4.41417775625174       -4.82269600289351
H            5.42951243735237        4.42750963477054       -4.82443222953340
H            4.15868746811851        5.32277726092183       -4.82219923331921
O           -0.15912806481241       -5.52300249548769       -5.50129799996330
H            0.80183435934063       -5.50284850337933       -5.49532606463896
H           -0.47418707229601       -4.61733263752877       -5.49121838458170
O           -3.00059149938492        3.78489706140794       -6.20168994727247
H           -2.04167512927831        3.79903232996918       -6.16628983023633
H           -3.31489533042415        4.69199367915129       -6.16823512650635
O            3.90174417202856       -0.45376695460628       -6.87255236871670
H            4.86259704013092       -0.43726498729357       -6.84116246943096
H            3.58988186573591        0.45374882209918       -6.83530816143358
O           -1.76180501528681       -1.23870609696647       -7.54010972423104
H           -0.80163471394537       -1.21267119952741       -7.52061583909609
H           -2.08117519795221       -0.33349002109198       -7.51604184355161
100
 energy: -181.684516515740 gnorm: 0.051554184883 xtb: 6.6.0 (conda-forge)
Fe          -0.16486292938268       -0.13309253287391        0.12682069835423
C           -1.47919991212706        0.20434082142015        1.47639769634282
C            1.11150405060285       -0.52990128701417        1.50771303938048
C           -0.73347605826961       -1.96686393419834        0.05011650647327
C            1.16262585083385       -0.46855998655594       -1.22156425605672
C           -1.43920954882045        0.30227084486082       -1.24355667660663
C            0.42264134084570        1.69547816064194        0.18439129998825
N           -2.28616635204785        0.39951816136759        2.28788713754880
N            1.89178012534563       -0.73110466422474        2.34413295942480
N           -1.07378581157046       -3.07492718861575       -0.02108476395965
N            1.98016612881288       -0.65763400896120       -2.02482182621494
N           -2.19725329970407        0.57876522229946       -2.07865589254720
N            0.81489585958401        2.78830319087493        0.20602838147436
H            2.92077712682443        4.36744279439186       -1.28147295096108
H            1.79804135947264        4.25952147720344       -0.24111463205658
H            4.95418752440002       -1.21340840169461       -2.08119469063875
H            3.60808838961088       -1.00875852261014       -2.77694411852718
H            4.11285110223353        0.81818457757941        3.72562915596737
H            3.27621055702474       -0.44174004577262        3.48791250574627
H           -1.16293180826061       -4.80678576109570       -0.55060560878377
H           -0.36546610632212       -5.55512613546796       -1.62572936816926
H           -3.84556746933830        0.78800993310753        2.90718692412808
H           -5.20822148641861        1.13921399974303        2.21900691599696
H           -2.91929034148639        2.99897360873745       -3.76409071160868
H           -3.09226220706452        1.54627982286130       -3.30971045696495
O            4.02401500100402       -0.09748977411286        4.01367343343241
O            4.53652037453540       -1.26865271955280       -2.95093083087633
O           -1.09201672167521       -5.67224081354862       -1.00240581148530
O           -4.77156941419623        1.05374294882809        3.06685306909480
O           -3.48739759541497        2.22843437066433       -3.88561464678842
O            2.40808130995965        4.89456699384301       -0.66129094162901
O            2.36655016685832        0.04239437390162        7.41900081553119
H            3.32995611947475        0.08474700756118        7.33390864807840
H            2.04226807504776        0.94956237816673        7.33471451563431
O           -2.72886059552546       -2.54926626548130        6.72798554120731
H           -1.76569176104384       -2.51908455572030        6.65425802138366
H           -3.04253606229285       -1.63811113704037        6.66775350943851
O            0.51805256944419        4.88510010401530        6.03723251691148
H            1.48079986501924        4.90986465971724        5.97627274780790
H            0.21062434140006        5.79992120585054        6.01395700499119
O            3.49582402821306       -4.39070879808648        5.37143279540994
H            4.46068145702731       -4.35089661581554        5.30476178673982
H            3.17644993754377       -3.48235143811188        5.29815006827146
O           -6.10759897023980        1.17120607219530        4.94905004951623
H           -5.15410845999677        1.13503237838693        4.73332415248439
H           -6.34303696274761        2.07854750551443        4.70700897176942
O            5.70021355484819        3.61200076308386        3.99191745654378
H            6.66499141033163        3.63300122761240        3.96653795704887
H            5.39225952390485        4.52566881763853        3.96352503799512
O           -1.72900193815588       -6.71669610846963        3.33960844252074
H           -0.76555032599002       -6.68983027036449        3.29922685076983
H           -2.03924574404697       -5.80511871155038        3.29429187934985
O           -3.27955065684439        6.53276956930948        2.63103256545851
H           -2.31702025010277        6.52814962464984        2.57886269073383
H           -3.56622824471394        7.45628747801967        2.61464351441820
O            7.15837874558052       -2.52828390226086        1.93528109765395
H            8.12382039628609       -2.48820733624707        1.94273028104877
H            6.83171230739767       -1.62199108053172        1.95413891675899
O           -6.99149980135936       -2.87284777107942        1.25968578976077
H           -6.02941141635011       -2.84821334987476        1.28675251549411
H           -7.29932093204884       -1.95863143193028        1.26995468474107
O            3.39505392519222        7.11166489676459        0.67235581281893
H            4.35752285772650        7.12669728325832        0.56195292035947
H            3.08320743724125        8.02418807909496        0.58222909969137
O            2.43256903055498       -7.36891656159733       -0.09104936240512
H            3.39763534997085       -7.33760889467328       -0.08978996133180
H            2.11979631989581       -6.45887669692532       -0.07954740257746
O           -6.61743611170965        3.94974501573345       -0.75607086750224
H           -5.65571687014167        3.96006247720195       -0.76712028209709
H           -6.91311456401622        4.86971269982824       -0.76059759576683
O            7.58598400641985        1.69461674190734       -1.43152967757299
H            8.55116088505355        1.72641340617484       -1.44040964907037
H            7.26472958864543        2.60321915214009       -1.40923661644351
O           -4.22482523761457       -6.09581996787224       -2.17229938077125
H           -3.26042005334928       -6.08036781854017       -2.04429845132305
H           -4.52093033565808       -5.17854339775835       -2.11847091475572
O           -0.85576621542748        7.29116224199638       -2.83543645399335
H            0.10736622707388        7.28853958162919       -2.77462081152870
H           -1.14328194927124        8.21404764944193       -2.77800482503922
O            5.44520985759848       -4.45074103963083       -3.47831258587309