100
 energy: -181.065169531927 gnorm: 0.647709677080 xtb: 6.6.0 (conda-forge)
Fe          -0.17207000000000       -0.12944000000000        0.13161000000000
C           -1.52972000000000        0.20130000000000        1.52289000000000
C            1.13276000000000       -0.52880000000000        1.55509000000000
C           -0.77039000000000       -2.00687000000000        0.05328000000000
C            1.18537000000000       -0.45925000000000       -1.26171000000000
C           -1.47037000000000        0.30165000000000       -1.28999000000000
C            0.45335000000000        1.74010000000000        0.18881000000000
N           -2.34781000000000        0.41169000000000        2.32802000000000
N            1.92203000000000       -0.75392000000000        2.38479000000000
N           -1.09992000000000       -3.12472000000000       -0.00703000000000
N            2.00391000000000       -0.66350000000000       -2.06813000000000
N           -2.23982000000000        0.58518000000000       -2.12031000000000
N            0.83139000000000        2.84415000000000        0.20705000000000
H            2.91242000000000        4.39660000000000       -1.27015000000000
H            1.80318000000000        4.27278000000000       -0.24405000000000
H            4.93726000000000       -1.23546000000000       -2.08062000000000
H            3.60764000000000       -1.00686000000000       -2.77316000000000
H            4.09195000000000        0.81369000000000        3.70830000000000
H            3.28784000000000       -0.45366000000000        3.49741000000000
H           -1.16984000000000       -4.82545000000000       -0.54656000000000
H           -0.36248000000000       -5.52588000000000       -1.62150000000000
H           -3.93787000000000        0.80789000000000        3.03819000000000
H           -5.24647000000000        1.12989000000000        2.34413000000000
H           -2.90276000000000        3.00427000000000       -3.74366000000000
H           -3.11659000000000        1.56082000000000       -3.33190000000000
O            4.04646000000000       -0.09132000000000        4.03262000000000
O            4.56548000000000       -1.20293000000000       -2.96766000000000
O           -1.05477000000000       -5.71565000000000       -0.98059000000000
O           -4.88631000000000        1.04585000000000        3.23255000000000
O           -3.47541000000000        2.25819000000000       -3.94737000000000
O            2.43897000000000        4.93661000000000       -0.62945000000000
O            2.37864085097244        0.08345000000000        7.35148104287272
H            3.27864085097244        0.08345000000000        7.35148104287272
H            2.08562951196100        0.93441671803939        7.35148104287272
O           -2.72031126079276       -2.51015695497330        6.67536663721567
H           -1.82031126079276       -2.51015695497330        6.67536663721567
H           -3.01332259980420       -1.65919023693391        6.67536663721567
O            0.53404590534823        4.90515944836343        5.99925223155862
H            1.43404590534823        4.90515944836343        5.99925223155862
H            0.24103456633679        5.75612616640282        5.99925223155862
O            3.50939348686644       -4.34930356230529        5.32313782590157
H            4.40939348686644       -4.34930356230529        5.32313782590157
H            3.21638214785500       -3.49833684426590        5.32313782590157
O           -5.96377889087100        1.15797236586611        4.64702342024452
H           -5.06377889087100        1.15797236586611        4.64702342024452
H           -6.25679022988244        2.00893908390549        4.64702342024452
O            5.70764916406520        3.64365374876649        3.97090901458747
H            6.60764916406520        3.64365374876649        3.97090901458747
H            5.41463782505376        4.49462046680587        3.97090901458747
O           -1.70685147676850       -6.67843608937621        3.29479460893041
H           -0.80685147676850       -6.67843608937621        3.29479460893041
H           -1.99986281577994       -5.82746937133682        3.29479460893041
O           -3.24904401094711        6.55278730140193        2.61868020327336
H           -2.34904401094711        6.55278730140193        2.61868020327336
H           -3.54205534995855        7.40375401944132        2.61868020327336
O            7.16151253041666       -2.49142816037648        1.94256579761632
H            8.06151253041666       -2.49142816037648        1.94256579761632
H            6.86850119140522       -1.64046144233710        1.94256579761632
O           -6.96667049557984       -2.83806169012168        1.26645139195926
H           -6.06667049557984       -2.83806169012168        1.26645139195926
H           -7.25968183459128       -1.98709497208230        1.26645139195926
O            3.39393746111087        7.09914413843540        0.59033698630221
H            4.29393746111087        7.09914413843540        0.59033698630221
H            3.10092612209943        7.95011085647478        0.59033698630221
O            2.43791071306501       -7.33547723166449       -0.08577741935484
H            3.33791071306501       -7.33547723166449       -0.08577741935484
H            2.14489937405357       -6.48451051362510       -0.08577741935484
O           -6.59092382752508        3.96728473520758       -0.76189182501189
H           -5.69092382752508        3.96728473520758       -0.76189182501189
H           -6.88393516653652        4.81825145324697       -0.76189182501189
O            7.58912234323177        1.72751967910081       -1.43800623066894
H            8.48912234323177        1.72751967910081       -1.43800623066894
H            7.29611100422033        2.57848639714019       -1.43800623066894
O           -4.20608792911960       -6.05699861370414       -2.11412063632599
H           -3.30608792911960       -6.05699861370414       -2.11412063632599
H           -4.49909926813104       -5.20603189566476       -2.11412063632599
O           -0.82593531251846        7.31282147141627       -2.79023504198304
H            0.07406468748154        7.31282147141627       -2.79023504198304
H           -1.11894665152990        8.16378818945565       -2.79023504198304
O            5.46491618789388       -4.42893383300520       -3.46634944764009
H            6.36491618789388       -4.42893383300520       -3.46634944764009
H            5.17190484888244       -3.57796711496582       -3.46634944764009
O           -6.51661274766059       -0.19061780584504       -4.14246385329715
H           -5.61661274766059       -0.19061780584504       -4.14246385329715
H           -6.80962408667203        0.66034891219435       -4.14246385329715
O            4.48362808345296        4.43491421072912       -4.81857825895419
H            5.38362808345296        4.43491421072912       -4.81857825895419
H            4.19061674444151        5.28588092876851       -4.81857825895419
O           -0.14712374836315       -5.49620961890239       -5.49469266461124
H            0.75287625163685       -5.49620961890239       -5.49469266461124
H           -0.44013508737459       -4.64524290086301       -5.49469266461124
O           -2.99030346519163        3.79970926760353       -6.17080707026830
H           -2.09030346519164        3.79970926760353       -6.17080707026830
H           -3.28331480420308        4.65067598564292       -6.17080707026830
O            3.91618612543795       -0.42854799289196       -6.84692147592535
H            4.81618612543795       -0.42854799289196       -6.84692147592535
H            3.62317478642651        0.42241872514742       -6.84692147592535
O           -1.75062276490808       -1.21173805619465       -7.52303588158240
H           -0.85062276490808       -1.21173805619465       -7.52303588158240
H           -2.04363410391952       -0.36077133815526       -7.52303588158240
100
 energy: -181.267607624757 gnorm: 0.247218030869 xtb: 6.6.0 (conda-forge)
Fe          -0.17185598491544       -0.12959333190105        0.13334137593077
C           -1.53084788404131        0.20308000918606        1.51928532024467
C            1.13380827004439       -0.53099558288589        1.55209610161224
C           -0.76683115347053       -2.00639472321231        0.05350554770018
C            1.18408235892292       -0.46120039795204       -1.25989814544550
C           -1.47009893995091        0.30290797534616       -1.28715713594154
C            0.44976866592978        1.73962878589214        0.18851876442860
N           -2.33947478853131        0.40930481338908        2.32019350543051
N            1.91428198851739       -0.75009059057342        2.37660232706936
N           -1.09582624910669       -3.11314188268086       -0.00785825178639
N            1.99594116347757       -0.66080474330383       -2.05913680693525
N           -2.23126377530595        0.58166291211060       -2.11166088708209
N            0.82760321982303        2.83216443798963        0.20712953028547
H            2.91419011174800        4.39669405889548       -1.27210780259913
H            1.80374634570325        4.27717674949811       -0.24333772789256
H            4.94076450347029       -1.23333320150239       -2.08067893065023
H            3.61160387024035       -1.00623810840708       -2.77690944867885
H            4.09509721233967        0.81601451586086        3.71073360512211
H            3.29060170218896       -0.45311024431231        3.50024583810434
H           -1.16944292399447       -4.82916699917318       -0.54634101171968
H           -0.36104112449630       -5.53020054008203       -1.62306356674991
H           -3.90746622868683        0.79911247679410        3.00425587234682
H           -5.23972205346594        1.12735531445476        2.30291828127694
H           -2.90498360028295        3.00498414438079       -3.74658475009534
H           -3.11771615197308        1.56031367396174       -3.33421484085504
O            4.04088907925848       -0.09117216823916        4.02810837885493
O            4.55984508949728       -1.20583148610375       -2.96371501047643
O           -1.05526935127449       -5.70767026865056       -0.98133066220621
O           -4.84547228067993        1.03475621712696        3.16718842649488
O           -3.47386208283169        2.25279052334347       -3.93807263988953
O            2.43315535083516        4.92853733144989       -0.63139056878027
O            2.36390085373724        0.07749328857232        7.35547408413868
H            3.30365042312078        0.05680008386131        7.35044173767668
H            2.07480923450230        0.96673994655603        7.35072013550823
O           -2.73406144604841       -2.51722091920209        6.67728360005304
H           -1.79444609151483       -2.53822899717699        6.67452933842053
H           -3.02283052679543       -1.62769954325880        6.67594634788391
O            0.51837750934541        4.90014676400977        6.00150145273143
H            1.45781933388402        4.87818586654171        5.99768400618964
H            0.23002196395165        5.79006025953499        6.00011288221962
O            3.49522085588864       -4.35539082164305        5.32551535289258
H            4.43554838695899       -4.37543485730821        5.32186315087124
H            3.20653737452812       -3.46610110929550        5.32239757772094
O           -6.01373462592659        1.15908387176183        4.76875740321129
H           -5.06308508522493        1.13479978840016        4.65493910715836
H           -6.28811306755708        2.05030428544617        4.65759685764299
O            5.69242468478060        3.63934787377085        3.97229876627094
H            6.63258097891185        3.61615696896955        3.97075507422614
H            5.40405215213198        4.52893057209009        3.97045673898940
O           -1.72063887752674       -6.68509705364153        3.29707464329301
H           -0.78089291479893       -6.70610602068948        3.29485547464586
H           -2.00956008969724       -5.79585225946686        3.29530795329349
O           -3.26553453446738        6.54689164185784        2.61953473480990
H           -2.32618992803622        6.52336822642132        2.61626803497453
H           -3.55363533356821        7.43744853148453        2.61832306256284
O            7.14764166168314       -2.49574530734938        1.94214210549747
H            8.08806328057960       -2.51785360766662        1.94258158773909
H            6.85854053159087       -1.60673657895531        1.94333708731471
O           -6.98111392773637       -2.84571168112478        1.26626502069983
H           -6.04188305710446       -2.86684093933599        1.26746099414405
H           -7.27033109525180       -1.95595856690664        1.26612421876471
O            3.37925278104818        7.09869231721225        0.59713634510345
H            4.31862629255477        7.07185961574579        0.58825712837120
H            3.09021871999389        7.98765402925735        0.58926727914575
O            2.42487192449822       -7.34088765491038       -0.08598743893286
H            3.36520742001345       -7.36209755320668       -0.08610042571760
H            2.13664962756895       -6.45191419810690       -0.08516993760507
O           -6.60659986387693        3.96063397058998       -0.76096461149068
H           -5.66755025801775        3.93927587562357       -0.76264792643466
H           -6.89514344133766        4.85095814714542       -0.76205288242076
O            7.57462643656537        1.72379425416804       -1.43725610871361
H            8.51492269700864        1.70063277858794       -1.43812330819233
H            7.28543211221668        2.61285475908423       -1.43630762948287
O           -4.22027059626915       -6.06449297039474       -2.11653029399349
H           -3.27981216245767       -6.08580504518679       -2.11101651520257
H           -4.50788465876668       -5.17439677113934       -2.11482422022761
O           -0.84261688162774        7.30743549475109       -2.79280549008520
H            0.09701008832266        7.28369208705028       -2.78926382609904
H           -1.13048277101153        8.19807660538094       -2.78957972498800
O            5.45071189375136       -4.43374883933805       -3.46623093296588
H            6.39117940419872       -4.45434317244097       -3.46604322944842
H            5.16134099341816       -3.54323062382372       -3.46715997458904
O           -6.53165574291541       -0.19850838971401       -4.14310344551598
H           -5.59227652901166       -0.21804877782390       -4.14320541873736
H           -6.81936680661620        0.69222333949875       -4.14215135859187
O            4.46772753810474        4.43120861169250       -4.81920592523694
H            5.40776315353054        4.40776443383431       -4.81961666557090
H            4.17970665698646        5.32104132374721       -4.81941403249314
O           -0.16026510757549       -5.50228967373212       -5.49483720619714
H            0.77974779666878       -5.52325214034878       -5.49514985611898
H           -0.44976828271124       -4.61329504026649       -5.49502068751859
O           -3.00466665228459        3.79622322650344       -6.17775347080012
H           -2.06551274662386        3.77242430823377       -6.17020250988698
H           -3.29412768115216        4.68541251860433       -6.17010863805979
O            3.90137763537286       -0.43341016719296       -6.85162074592416
H            4.84134787063308       -0.45576218328833       -6.84561935918500
H            3.61294588721857        0.45628835288977       -6.84496442265555
O           -1.76439379421301       -1.21824626248037       -7.52544347353105
H           -0.82471630102461       -1.23795118091261       -7.52309655848924
H           -2.05471966792427       -0.32907999475184       -7.52203765566512
100
 energy: -181.320558690166 gnorm: 0.066289590637 xtb: 6.6.0 (conda-forge)
Fe          -0.17026514584041       -0.13111040018028        0.13379221319736
C           -1.52241734563552        0.20493034136240        1.50740726959334
C            1.13052788863198       -0.53392281639813        1.54183197513674
C           -0.75910879964872       -1.99873650546639        0.05496724428427
C            1.17721056232952       -0.46457363980949       -1.25320157440406
C           -1.46520811299461        0.30378734394334       -1.27597977649546
C            0.44103630584558        1.73158591737641        0.18829641012820
N           -2.32120832035700        0.40666291574895        2.31159222634928
N            1.90531769585825       -0.74703609409662        2.36717600481723
N           -1.09279805849728       -3.09926167976261       -0.01009508924226
N            1.98656123539652       -0.65893059046813       -2.04943305337642
N           -2.22084406208352        0.57792946203875       -2.10071096304596
N            0.82299921804873        2.81789851228798        0.20923285696684
H            2.92036759496029        4.39050230918241       -1.27763161404584
H            1.80572678104873        4.28301685125546       -0.24089285994916
H            4.94821900449863       -1.22977679942340       -2.08021204905893
H            3.61784942537330       -1.00695988427652       -2.78593781861009
H            4.10305279698486        0.81889450530511        3.71695897301169
H            3.29373708694957       -0.45373029238255        3.50472602424917
H           -1.17177730097437       -4.83361678472652       -0.54576122862983
H           -0.36133289301518       -5.54045352063195       -1.62644312207578
H           -3.87389598960874        0.79393597304831        2.96400743871388
H           -5.22614945147921        1.12762852619147        2.25999105172053
H           -2.90918054985558        3.00789604731270       -3.75363115113032
H           -3.11667749486586        1.55802338434541       -3.33537856081713
O            4.03601247732511       -0.09180506886522        4.02277971035791
O            4.55397509024856       -1.22394694391776       -2.95807424638036
O           -1.06409010947636       -5.69683215325374       -0.98835224737735
O           -4.79919228221682        1.03530008020727        3.10848454309065
O           -3.47562458341609        2.24762446080113       -3.92102797049566
O            2.42774711359582        4.91604437590423       -0.64113660663638
O            2.36503327323079        0.05527524853850        7.36686087432699
H            3.32634625769061        0.07590548962368        7.34803692238511
H            2.05054874758531        0.96247270037285        7.34896168210939
O           -2.73262240431163       -2.53752819769500        6.68465955102614
H           -1.77133472695590       -2.52095471498386        6.67181415861959
H           -3.04435447702896       -1.62921035314912        6.67749066120326
O            0.52000741500301        4.88300514026377        6.00745061295308
H            1.48067834469899        4.89926095768731        5.99313194990382
H            0.20947510594100        5.79238924716644        6.00466334889122
O            3.49437150126637       -4.37747573155565        5.33402772082905
H            4.45677648161842       -4.35843053911055        5.31828669991980
H            3.18305946877828       -3.46937356824572        5.31839111629566
O           -6.06287687611994        1.15878911086988        4.87299466366009
H           -5.09595725740044        1.14126982345700        4.70371710296035
H           -6.32480824728825        2.07129467705545        4.65771617256408
O            5.69525924474670        3.61854821322160        3.97535115193320
H            6.65711081569131        3.63151056206187        3.97016051876547
H            5.38502252368825        4.52748909627078        3.97034744249894
O           -1.72342020790046       -6.70518839754684        3.30530226129933
H           -0.76206415421148       -6.69007193569968        3.29657422652429
H           -2.03437446565686       -5.79704911280298        3.29670176037047
O           -3.26670004710649        6.53066516070252        2.62153642643524
H           -2.30615478881401        6.53813907337943        2.60753318472659
H           -3.57300520110520        7.44245026837448        2.61775039216649
O            7.14972472665976       -2.51739351466870        1.93931056613667
H            8.11209778089397       -2.50071062765276        1.94295180115600
H            6.83601838908984       -1.61008525923200        1.94652331452024
O           -6.98372909385303       -2.86387295017471        1.26405016179027
H           -6.02335637186385       -2.84873058490921        1.27340775637866
H           -7.29490464151573       -1.95478865270041        1.26724673242380
O            3.38585569756010        7.08903635216431        0.61672773388697
H            4.34603993376922        7.09843938763000        0.58123916413325
H            3.07148867996969        7.99640932891316        0.58731282774734
O            2.42535817112579       -7.36080918979039       -0.08752459720999
H            3.38769120923466       -7.34527027972056       -0.08707350428662
H            2.11611282154099       -6.45280507905463       -0.08342545261458
O           -6.60752587821983        3.94585093800750       -0.75835864077011
H           -5.64752797830332        3.95977466499195       -0.76476074567702
H           -6.91627863431959        4.85652943333872       -0.76205486951875
O            7.57793748769670        1.70272113957740       -1.43492601554432
H            8.54000321424780        1.71726711876373       -1.43917081514406
H            7.26413272998457        2.61015735822155       -1.42978771617784
O           -4.22279125467717       -6.08423414341117       -2.13013421352181
H           -3.26012901929897       -6.07212791150208       -2.09430076411489
H           -4.52854186099407       -5.17373450989317       -2.11746419555445
O           -0.84355687036376        7.29027109907416       -2.80251864007967
H            0.11744592996855        7.29807953512083       -2.78572853391297
H           -1.14965254904638        8.20207911815539       -2.78671309160513
O            5.44845056438494       -4.45173567642555       -3.46687459314422
H            6.41108301367129       -4.43481775234012       -3.46609554036301
H            5.13630264653833       -3.54106482654261       -3.46801449836313
O           -6.53386067165120       -0.21579813439575       -4.14630285732130
H           -5.57316304646675       -0.19966825255516       -4.14428006785214
H           -6.83913580328032        0.69601094326987       -4.14079498466414
O            4.46773892144082        4.41431793028367       -4.81931460430027
H            5.42934832210966        4.42576148091743       -4.82562668808982
H            4.15907784307169        5.32409254839586       -4.82371534096762
O           -0.15950777552633       -5.52257498278967       -5.49536818029013
H            0.80230571056899       -5.50487617235606       -5.49760101765966
H           -0.47390085090134       -4.61554050318594       -5.49501569633257
O           -3.00066036352526        3.78473813493814       -6.19588601132302
H           -2.04060394805673        3.79864235961305       -6.16955981500196
H           -3.31543186209519        4.69223595133266       -6.17010060254719
O            3.90088178932088       -0.45328782099817       -6.86680030620099
H            4.86242664786043       -0.43930074438639       -6.84311170410446
H            3.59063766775804        0.45582329988952       -6.83839112563419
O           -1.76216075846263       -1.23834986938513       -7.53317722659618
H           -0.80097635277863       -1.21401962797365       -7.52396469282433
H           -2.08117044884980       -0.33208631996089       -7.51937925655895
100
 energy: -181.336272606576 gnorm: 0.047598682628 xtb: 6.6.0 (conda-forge)
Fe          -0.16353906140755       -0.13643769337122        0.13073128948142
C           -1.49611709298160        0.20574945346893        1.49346809987038
C            1.12764494567286       -0.53694161678050        1.52669276609206
C           -0.74499138697032       -1.98907968756400        0.05457285482687
C            1.17061864862892       -0.46939997810534       -1.24690228762896
C           -1.45379108704780        0.30144769666180       -1.25997034595364
C            0.42844173774145        1.71751879035517        0.18782326644420
N           -2.28970513612063        0.40024897560491        2.30694923080084
N            1.90024936950039       -0.74404066586078        2.35819206486988
N           -1.08645475196876       -3.08878094356929       -0.01598162920384
N            1.98266070690310       -0.65768386730110       -2.04439251961113
N           -2.21018805750010        0.57256255100091       -2.08721120397210
N            0.81458786154884        2.80415774946049        0.21524641065777
H            2.92650713753749        4.36762477628559       -1.28642122781721
H            1.80633069546418        4.28558594245400       -0.23916967723083
H            4.96252740085568       -1.21306067466561       -2.07950748809629
H            3.62777351663724       -1.01062843975567       -2.79827535973394
H            4.11933333491607        0.82458559786482        3.72929392045371
H            3.29538547892637       -0.44681072201520        3.50839847356817
H           -1.17011751508697       -4.83464806875807       -0.55046044660400
H           -0.36199983326927       -5.56263731578171       -1.63102722050527
H           -3.85852888782061        0.79116448066705        2.91661388609130
H           -5.21539319359105        1.14000191956501        2.21909704193531
H           -2.92034895605230        3.00510898555103       -3.76949493020352
H           -3.10815685537438        1.55002285339330       -3.33023325795053
O            4.03872927258286       -0.08937606642579        4.02290010058969
O            4.55371286559857       -1.27773014446507       -2.95315208320150
O           -1.09187654196931       -5.68818528133723       -1.01402896349660
O           -4.78118086670349        1.05599995606904        3.06854610024796
O           -3.49723093969520        2.24166330429099       -3.89167584155697
O            2.41834967941560        4.90492001759868       -0.67165770484491
O            2.36451940754472        0.04380350010346        7.39881295236065
H            3.32829731516770        0.07983173938514        7.34234105384907
H            2.04505567068385        0.95311833770427        7.34562288938746
O           -2.72894232020236       -2.54827923689751        6.70473241113389
H           -1.76503362218505       -2.52334444375571        6.66569084898384
H           -3.03985804522146       -1.63574697683598        6.68182282813609
O            0.51718205219665        4.88589639397195        6.02400821124403
H            1.48035084985657        4.90792411684357        5.98195213575413
H            0.21147272027084        5.80106326721054        6.02015953196126
O            3.49340474419299       -4.38871759386868        5.35497235381036
H            4.45840347554961       -4.35862228569158        5.30905153971345
H            3.18191696336336       -3.47692986467340        5.31172418586661
O           -6.11424675745584        1.17311369748353        4.94581329169757
H           -5.15663571219031        1.13874119819185        4.73901168294550
H           -6.35594075726215        2.08360151816973        4.71970501305791
O            5.69731885124432        3.61361774853542        3.98413377472405
H            6.66195804122120        3.62623048625202        3.96913301802681
H            5.39638604720186        4.52976469005470        3.96731089043718
O           -1.73017091064775       -6.71570944287620        3.32661969921073
H           -0.76627670502058       -6.69560106746998        3.30592288199140
H           -2.03742020075734       -5.80249206077100        3.30536228443569
O           -3.27942128344907        6.53218732461594        2.62524712699547
H           -2.31625322035790        6.52871317164739        2.58082981450589
H           -3.56749467506698        7.45460634499671        2.61610367984601
O            7.15491462371789       -2.52476465133529        1.93085157537999
H            8.12003401617276       -2.49799021880453        1.94372281959451
H            6.84039959961442       -1.61379022532143        1.95767075139984
O           -6.99318808385476       -2.87224415576880        1.25644179051988
H           -6.03042130486258       -2.85264184471101        1.29074675305627
H           -7.29978347260480       -1.95757810385669        1.27071190771406
O            3.39400184181662        7.11407801820971        0.67424482352668
H            4.35651509614139        7.12453818286374        0.56198415573551
H            3.08541034820664        8.02732107934469        0.58283680438957
O            2.43142012300635       -7.36682356700084       -0.09093516754889
H            3.39648871410707       -7.34618806022421       -0.09031800360209
H            2.12723833190451       -6.45328256256646       -0.07930430965631
O           -6.61680754840972        3.94998379661447       -0.75225694411591
H           -5.65438628837004        3.96381220134396       -0.76955742927711
H           -6.91607051601987        4.86817606852572       -0.76164429461458
O            7.58259312544330        1.69730494509306       -1.42783985313633
H            8.54744427251403        1.71871071117061       -1.44143947795968
H            7.27030216294318        2.60925485041947       -1.40951709838797
O           -4.22634509377522       -6.09509438656864       -2.16404093361251
H           -3.26121905612295       -6.08754848128708       -2.04781551097431
H           -4.51886300283242       -5.17609695920510       -2.12539886949982
O           -0.85641187812611        7.29082649156373       -2.82977900162719
H            0.10721236297458        7.28739202232861       -2.77842817583633
H           -1.14368716326219        8.21330766698696       -2.77976938531214
O            5.44201131205437       -4.44719096101112       -3.46819386793535