124
 energy: -219.323472441724 gnorm: 0.757155573728 xtb: 6.6.0 (conda-forge)
Fe           0.00015000000000       -0.00015000000000       -0.00008000000000
C            0.00081000000000        1.40799000000000        1.45920000000000
C            0.00035000000000        1.45916000000000       -1.40819000000000
C            2.38553000000000       -0.00089000000000       -0.00035000000000
C           -0.00080000000000       -1.40827000000000       -1.45938000000000
C           -0.00042000000000       -1.45944000000000        1.40805000000000
C           -2.38565000000000        0.00098000000000        0.00041000000000
N            0.00120000000000        2.22010000000000        2.30089000000000
N            0.00049000000000        2.30090000000000       -2.22024000000000
N            3.56000000000000       -0.00033000000000        0.00006000000000
N           -0.00130000000000       -2.22034000000000       -2.30110000000000
N           -0.00074000000000       -2.30113000000000        2.22016000000000
N           -3.56006000000000        0.00177000000000        0.00077000000000
O            1.81657390645118        0.00002692307692        4.72271365798601
H            2.71657390645118        0.00002692307692        4.72271365798601
H            1.52356256743974        0.85099364111631        4.72271365798601
O           -2.23870074229952       -2.05077533531505        4.04804247607592
H           -1.33870074229952       -2.05077533531505        4.04804247607592
H           -2.53171208131096       -1.19980861727566        4.04804247607592
O            0.32969459690812        3.75711246501759        3.37337129416583
H            1.22969459690812        3.75711246501759        3.37337129416583
H            0.03668325789668        4.60807918305697        3.37337129416583
O            2.60427236657302       -3.39682935873358        2.69870011225574
H            3.50427236657302       -3.39682935873358        2.69870011225574
H            2.31126102756158       -2.54586264069420        2.69870011225574
O           -4.56673878218424        0.80781272516718        2.02402893034565
H           -3.66673878218424        0.80781272516718        2.02402893034565
H           -4.85975012119568        1.65877944320657        2.02402893034565
O            4.11479540587835        2.61754447219535        1.34935774843556
H            5.01479540587835        2.61754447219535        1.34935774843556
H            3.82178406686691        3.46851119023473        1.34935774843556
O           -1.30191155534656       -4.84289326362136        0.67468656652547
H           -0.40191155534656       -4.84289326362136        0.67468656652547
H           -1.59492289435800       -3.99192654558198        0.67468656652547
O           -2.33223899950907        4.49054602790054        0.00001538461538
H           -1.43223899950907        4.49054602790054        0.00001538461538
H           -2.62525033852051        5.34151274593993        0.00001538461538
O            4.71052539483563       -1.72026175663682       -0.67465579729470
H            5.61052539483563       -1.72026175663682       -0.67465579729470
H            4.41751405582419       -0.86929503859743       -0.67465579729470
O           -4.50788601225787       -1.86074892099295       -1.34932697920479
H           -3.60788601225788       -1.86074892099295       -1.34932697920479
H           -4.80089735126932       -1.00978220295356       -1.34932697920479
O            1.96559334039986        4.20045804836679       -2.02399816111488
H            2.86559334039986        4.20045804836679       -2.02399816111488
H            1.67258200138842        5.05142476640618       -2.02399816111488
O            1.28099351342128       -4.08409016057081       -2.69866934302497
H            2.18099351342128       -4.08409016057081       -2.69866934302497
H            0.98798217440984       -3.23312344253142       -2.69866934302497
O           -3.26320090636749        1.89109893459852       -3.37334052493506
H           -2.36320090636749        1.89109893459852       -3.37334052493506
H           -3.55621224537893        2.74206565263790       -3.37334052493506
O            2.96517364726119        0.65191947244332       -4.04801170684515
H            3.86517364726119        0.65191947244332       -4.04801170684515
H            2.67216230824975        1.50288619048271       -4.04801170684515
O           -1.04481842588041       -1.48607162977557       -4.72268288875524
H           -0.14481842588041       -1.48607162977557       -4.72268288875524
H           -1.33782976489185       -0.63510491173618       -4.72268288875524
O            2.38663113357990        0.16705856379226        7.05228691598779
H            3.28663113357990        0.16705856379226        7.05228691598779
H            2.09361979456846        1.01802528183164        7.05228691598779
O           -2.56179835406219       -2.34877206270139        6.38064200823803
H           -1.66179835406219       -2.34877206270139        6.38064200823803
H           -2.85480969307363       -1.49780534466201        6.38064200823803
O            0.59447944170205        4.83860799740861        5.70899710048828
H            1.49447944170205        4.83860799740861        5.70899710048828
H            0.30146810269061        5.68957471544800        5.70899710048828
O            3.47283484136549       -4.12199710447481        5.03735219273853
H            4.37283484136549       -4.12199710447481        5.03735219273853
H            3.17982350235404       -3.27103038643543        5.03735219273853
O           -5.68464969243394        1.20522780336883        4.36570728498878
H           -4.78464969243394        1.20522780336883        4.36570728498878
H           -5.97766103144538        2.05619452140821        4.36570728498878
O            5.58307619841762        3.60119335937125        3.69406237723902
H            6.48307619841762        3.60119335937125        3.69406237723902
H            5.29006485940618        4.45216007741063        3.69406237723902
O           -1.56564941449619       -6.34339528137484        3.02241746948927
H           -0.66564941449619       -6.34339528137484        3.02241746948927
H           -1.85866075350763       -5.49242856333546        3.02241746948927
O           -3.04375787852545        6.38286503476220        2.35077256173952
H           -2.14375787852545        6.38286503476220        2.35077256173952
H           -3.33676921753689        7.23383175280159        2.35077256173952
O            6.94268362353916       -2.30102070352060        1.67912765398977
H            7.84268362353916       -2.30102070352060        1.67912765398977
H            6.64967228452771       -1.45005398548121        1.67912765398977
O           -6.58086368012829       -2.62558358031694        1.00748274624001
H           -5.68086368012829       -2.62558358031694        1.00748274624001
H           -6.87387501913973       -1.77461686227755        1.00748274624001
O            3.31267347936915        6.85179205920697        0.33583783849026
H            4.21267347936915        6.85179205920697        0.33583783849026
H            3.01966214035771        7.70275877724635        0.33583783849026
O            2.39334794214167       -6.87510937487712       -0.33580706925949
H            3.29334794214168       -6.87510937487712       -0.33580706925949
H            2.10033660313023       -6.02414265683774       -0.33580706925949
O           -6.14805462697150        3.83690111295118       -1.00745197700924
H           -5.24805462697150        3.83690111295118       -1.00745197700924
H           -6.44106596598294        4.68786783099057       -1.00745197700924
O            7.21143997538370        1.71191247647131       -1.67909688475900
H            8.11143997538370        1.71191247647131       -1.67909688475900
H            6.91842863637225        2.56287919451070       -1.67909688475900
O           -3.84378674461635       -5.56275916966543       -2.35074179250875
H           -2.94378674461635       -5.56275916966543       -2.35074179250875
H           -4.13679808362779       -4.71179245162605       -2.35074179250875
O           -0.68187017860430        6.85274685687650       -3.02238670025850
H            0.21812982139570        6.85274685687650       -3.02238670025850
H           -0.97488151761575        7.70371357491588       -3.02238670025850
O            5.07693217661758       -3.95629179398772       -3.69403160800826
H            5.97693217661758       -3.95629179398772       -3.69403160800826
H            4.78392083760614       -3.10532507594834       -3.69403160800826
O           -5.77067151519646       -0.07920631101752       -4.36567651575801
H           -4.87067151519646       -0.07920631101752       -4.36567651575801
H           -6.06368285420790        0.77176040702187       -4.36567651575801
O            4.01540069841185        3.97932037185269       -5.03732142350776
H            4.91540069841184        3.97932037185269       -5.03732142350776
H            3.72238935940040        4.83028708989207       -5.03732142350776
O           -0.03211899601582       -4.51744124195588       -5.70896633125751
H            0.86788100398418       -4.51744124195588       -5.70896633125751
H           -0.32513033502726       -3.66647452391649       -5.70896633125751
O           -2.20179389658233        3.02663142990734       -6.38061123900726
H           -1.30179389658233        3.02663142990734       -6.38061123900726
H           -2.49480523559377        3.87759814794673       -6.38061123900726
O            2.36696477392844       -0.12658951794926       -7.05225614675702
H            3.26696477392844       -0.12658951794926       -7.05225614675702
H            2.07395343491700        0.72437720009013       -7.05225614675702
124
 energy: -219.573246412395 gnorm: 0.290427054367 xtb: 6.6.0 (conda-forge)
Fe          -0.00470370816737        0.00016234538684       -0.00364079014036
C            0.00356782073407        1.40774135350863        1.44709467222675
C           -0.00090815653411        1.46663796745268       -1.40699261027950
C            2.37064739682290        0.00174473337292        0.00156464151131
C            0.00555235955704       -1.40449559840962       -1.45050926226274
C           -0.00141566205630       -1.46322356535127        1.40575862505800
C           -2.37814341589087        0.00140430378514        0.00191968690541
N           -0.00865464496112        2.18832741796200        2.28115547830065
N           -0.00253270711483        2.28522176855280       -2.20957981581729
N            3.51697049012035        0.02393474700186        0.01341451973565
N           -0.01574106614119       -2.18909693581183       -2.28559100115221
N           -0.00263529446616       -2.28565713821628        2.20820082554847
N           -3.52592955184332        0.00438082760531        0.00040948411255
O            1.80123351986190       -0.00653738683190        4.69513928177068
H            2.73814805033590       -0.02259661789318        4.72646166066421
H            1.51151586437909        0.87953574966146        4.72501865599652
O           -2.24931932872237       -2.05607646241903        4.03604385022767
H           -1.31152302811615       -2.07473808550333        4.04604504061964
H           -2.54360583092432       -1.17167728201758        4.04818856350116
O            0.32193829570613        3.76150007562656        3.37228404182895
H            1.25818870075437        3.74107610158160        3.37790432108334
H            0.02099823577606        4.64386652322596        3.38848709705320
O            2.59239704866544       -3.40139855789198        2.69124790521031
H            3.52938122611356       -3.42059897771056        2.69881227225900
H            2.30044547351201       -2.51578720199836        2.69919585907027
O           -4.57824572029035        0.80105511442962        2.03100287943206
H           -3.64282348515078        0.78682020901354        2.01909117357110
H           -4.87457732282062        1.68609802362593        2.02249295327797
O            4.09909020933844        2.61266541951488        1.34675651344981
H            5.03606182690715        2.59437657235544        1.35270226353994
H            3.81173353825824        3.49911914337804        1.34865928469051
O           -1.31328841301408       -4.84802449044921        0.67638512910681
H           -0.37662208313010       -4.86674137297882        0.67405900535570
H           -1.60485555488223       -3.96284578612919        0.67522594169831
O           -2.34614919684457        4.48241877341442        0.00010831257712
H           -1.40998634169521        4.46684186903493       -0.00310679189045
H           -2.63756181915831        5.36893364642749        0.00135934300787
O            4.71121069302056       -1.74481783370418       -0.69863239522485
H            5.64448461963700       -1.74336238420564       -0.67439552589565
H            4.41034426275474       -0.84888237701076       -0.66775441911570
O           -4.52047941912093       -1.87384074039123       -1.35593932468458
H           -3.58471821627818       -1.88277018621289       -1.35005267061193
H           -4.81587887978829       -0.98626568940557       -1.34897296377719
O            1.95252980820774        4.19517238986335       -2.02179637247516
H            2.88845662560172        4.17757888179310       -2.02460227478228
H            1.66130368757147        5.08038597547617       -2.02392091866863
O            1.28109167421502       -4.10658573400542       -2.70602722191851
H            2.21501607594741       -4.10681375274122       -2.70279857582520
H            0.97571353804155       -3.21589510734217       -2.69800978324059
O           -3.27648995840884        1.88173946850373       -3.37101323318252
H           -2.34007718958435        1.86994441054951       -3.37422987988933
H           -3.56717923501550        2.76829829592209       -3.37486354363261
O            2.95152296108711        0.64578600443968       -4.04512250562536
H            3.88803250559228        0.63081321109030       -4.04889677235528
H            2.66205520015333        1.53304266866717       -4.04844944367436
O           -1.05598573892768       -1.49293624953373       -4.72284112729586
H           -0.11924318549146       -1.50645558492679       -4.72291597901301
H           -1.34903174294596       -0.60760066364349       -4.72490195633296
O            2.37633170336240        0.16289030554527        7.06598743035640
H            3.31207395092515        0.14502348937911        7.05529848260200
H            2.08294887148374        1.04783954213122        7.05472787370463
O           -2.57376249553743       -2.35573683236865        6.39428995577665
H           -1.63651916668520       -2.37352998701723        6.38044684596569
H           -2.86809452814946       -1.47048381298768        6.38111609752249
O            0.58207854205229        4.83404751917343        5.70127800475297
H            1.51830576417375        4.81754434961302        5.71431733691806
H            0.28920234349042        5.71936678063998        5.71470182928641
O            3.46235575035355       -4.12734407423947        5.04243663560876
H            4.39887739695977       -4.14504048481476        5.03870442609853
H            3.16755645842605       -3.24203954217186        5.03741362906957
O           -5.69753654061471        1.19930889634182        4.37063517539415
H           -4.76165327461037        1.18076716137997        4.36460365302531
H           -5.99104860565095        2.08432631253540        4.36686766427627
O            5.56870171689046        3.59701190235652        3.69116637289265
H            6.50551677954462        3.57929256075100        3.69620599456328
H            5.28075974097772        4.48362485766006        3.69574885126161
O           -1.57638245765468       -6.35046973576773        3.02720323948965
H           -0.63890680787644       -6.36633526124916        3.02107505711592
H           -1.87107459149139       -5.46399254283661        3.01919851533597
O           -3.05712316994576        6.37674066265103        2.34823242656320
H           -2.12149557567201        6.36019472906697        2.35127087172907
H           -3.34990347222586        7.26206507761031        2.35199093770104
O            6.92910199482301       -2.30446734531327        1.67833671511719
H            7.86595010650355       -2.32384834867156        1.67980277587598
H            6.64062579434816       -1.41804180985758        1.67971720835341
O           -6.59272362750414       -2.63341748903894        1.00854003608809
H           -5.65548337976976       -2.64938162261741        1.00545894709061
H           -6.88593837191035       -1.74678808114461        1.00777335084767
O            3.29794434339409        6.84502632118067        0.33661266029783
H            4.23464623039829        6.83126516968412        0.33515955052266
H            3.00821293858566        7.73197369858047        0.33561686077600
O            2.38210384880260       -6.88017840268585       -0.33377427791272
H            3.31918462988428       -6.89831515443262       -0.33625078322360
H            2.09057142915412       -5.99420277936592       -0.33770043229793
O           -6.16050284415548        3.82925284993901       -1.00761249126890
H           -5.22372772941735        3.81294358085004       -1.00653524795711
H           -6.45348487219047        4.71481386224943       -1.00754731611334
O            7.19712300478006        1.70706219344722       -1.67674088302245
H            8.13412842831902        1.68998134145469       -1.68022756215377
H            6.90862877583748        2.59349768097259       -1.67998014923898
O           -3.85481519814829       -5.56967623847507       -2.35013582445829
H           -2.91696960614351       -5.58716721236247       -2.35098463874658
H           -4.14962297134749       -4.68310893993641       -2.35097135444034
O           -0.69602739707976        6.84652937142805       -3.01784277711004
H            0.23989241847471        6.83041188989274       -3.02503999907788
H           -0.98730272208503        7.73243875471865       -3.02454641288230
O            5.06327585859663       -3.96036460291540       -3.69167278599720
H            6.00020148242667       -3.97980343232345       -3.69477388413690
H            4.77519076641623       -3.07368715316724       -3.69431871160088
O           -5.78248308375129       -0.08723988201299       -4.36390470496155
H           -4.84505756882737       -0.10083746084024       -4.36617365327298
H           -6.07574696885049        0.79902300375679       -4.36597132322577
O            4.00146928621878        3.97304153428315       -5.03149446882919
H            4.93810042262022        3.95755734223644       -5.04010992870744
H            3.71113169825076        4.85928020455586       -5.04013050242582
O           -0.04363864868482       -4.52368390121053       -5.70892172516092
H            0.89361111302697       -4.54076000291333       -5.70839511065388
H           -0.33876222688744       -3.63707794424804       -5.70828020353848
O           -2.21478060565203        3.01988733057491       -6.37569315697885
H           -1.27847771654389        3.00369581350531       -6.38241760692050
H           -2.50647389098741        3.90577201171359       -6.38263236174269
O            2.35355552021813       -0.13276542742494       -7.05040593887979
H            3.29014496311349       -0.14925629030003       -7.05283342959491
H            2.06355885272880        0.75357873256611       -7.05264019676703
124
 energy: -219.644979787408 gnorm: 0.071794682535 xtb: 6.6.0 (conda-forge)
Fe          -0.01710062646496        0.00197000444484       -0.01029434604119
C            0.01673327653077        1.40077822826289        1.40836092272612
C           -0.00348263041775        1.47261944248557       -1.39051867211808
C            2.30549369836347        0.00747841030850        0.00833013536792
C            0.02430915391576       -1.39029088259221       -1.42029502657215
C           -0.00741429529041       -1.46114693077847        1.38550658829356
C           -2.32454856544508        0.00420529644667        0.00449918525102
N           -0.02408459655133        2.14641790689819        2.26924569717356
N           -0.01007057792026        2.27099500800204       -2.20609869677619
N            3.44762178429857        0.05127114557414        0.02005409597798
N           -0.03388110506318       -2.15102306570811       -2.27347247771933
N           -0.01053555523684       -2.26725900308888        2.19788662629463
N           -3.46668642277868        0.01298172694681       -0.00444729348469
O            1.79411249190621       -0.02569300797756        4.63388384171084
H            2.75167999093857       -0.01165817446709        4.72654334504382
H            1.48900196091471        0.88065943786091        4.72884852615710
O           -2.24706569802208       -2.06864260209433        4.00520372950927
H           -1.28666600227724       -2.06594499461308        4.04117466251309
H           -2.56165901925050       -1.16537216421180        4.04563087680346
O            0.32525482879617        3.76486736704076        3.41955403561755
H            1.28397396075485        3.75704172863563        3.37218788494488
H            0.00490300756546        4.66741630197622        3.37510893175219
O            2.58935492411922       -3.41576116963758        2.67425438246372
H            3.54803217348014       -3.41497407183130        2.68786464938418
H            2.28243101285087       -2.50883991626349        2.70602470772204
O           -4.57713835495498        0.78727569634281        2.03596296661958
H           -3.62114457016532        0.81021657009771        2.03554934351070
H           -4.90296541230062        1.68920534193100        2.00461597964920
O            4.09205546745187        2.59596477594457        1.34132236567763
H            5.05038595867908        2.60120178581928        1.36002203628774
H            3.79680473004489        3.50551127582969        1.34637510771677
O           -1.31601249768832       -4.86054564562704        0.67636369619977
H           -0.35795760062359       -4.85805568228085        0.67425280881613
H           -1.62213658989860       -3.95444753034020        0.67995023684570
O           -2.34682688455924        4.46175194167390       -0.00048063951947
H           -1.38975107649224        4.47978918497717       -0.01149208947512
H           -2.65717096010661        5.36882406692711        0.00596952128150
O            4.72589346676033       -1.78191523478942       -0.72329770545190
H            5.68059205415167       -1.75049488107419       -0.65846469378491
H            4.40304423983950       -0.85612570963971       -0.67887788848263
O           -4.52671474753716       -1.89727626063168       -1.33522736782873
H           -3.56964472470114       -1.87782553858889       -1.37222988309398
H           -4.84025147983824       -0.98822043363745       -1.36556575112296
O            1.95351054130312        4.17779974961795       -2.01588390576368
H            2.91011867155176        4.18926277466893       -2.02726312971342
H            1.64506052483665        5.08314677050058       -2.02121768234870
O            1.29736556124288       -4.14694690343197       -2.69696794726495
H            2.25316981309394       -4.10311765487193       -2.69933817304301
H            0.94943693676390       -3.23474903591749       -2.73372161827565
O           -3.27671657004011        1.86097465615017       -3.36033025885889
H           -2.31919307575790        1.88792832331574       -3.37884316277717
H           -3.58596479404648        2.76762008366301       -3.38038707353797
O            2.94829153914337        0.62875941833851       -4.03720754863595
H            3.90594727692851        0.64440520777834       -4.04975594823644
H            2.64585635928981        1.53839608660436       -4.05019437204780
O           -1.05319411438946       -1.51000654001376       -4.71377400831016
H           -0.09492821257908       -1.48575919495412       -4.73105116437675
H           -1.37020466506923       -0.60647755618617       -4.73492246725701
O            2.38058573908828        0.14806939768154        7.08111790762994
H            3.33699483097811        0.15853145796774        7.07203123574108
H            2.06633697955715        1.05207933275588        7.07150525116317
O           -2.57619671260952       -2.37192242067242        6.40299206880535
H           -1.61702752174742       -2.36757349282641        6.39547490432471
H           -2.89063854107569       -1.46706786591929        6.39542305482328
O            0.58622357054432        4.82180591736106        5.67804662681588
H            1.54324730072651        4.83652270232677        5.73316125506425
H            0.27175174122524        5.72594578663880        5.73437914813554
O            3.46232702642353       -4.14476419642754        5.04490414465173
H            4.42028523038079       -4.13759550547967        5.04281620783389
H            3.14506412141159       -3.24030378672707        5.04902413846379
O           -5.69971338747406        1.18649405616963        4.37553650112551
H           -4.74301963268343        1.19644194382151        4.37240769791465
H           -6.01519770728222        2.09062013942155        4.37034787743096
O            5.56696629329952        3.58182700715838        3.67807015440017
H            6.52503270036338        3.58775348707589        3.70513125046783
H            5.27028073056443        4.49136633234077        3.70328285254505
O           -1.57962323763891       -6.36497882983923        3.03043335214632
H           -0.61968441759682       -6.35930528848919        3.02014954752521
H           -1.89354280626233       -5.45759195196375        3.01677315827426
O           -3.05471256577667        6.36100327831278        2.33794780484476
H           -2.09864304459498        6.37989236065756        2.35390781853073
H           -3.37061318114400        7.26505191059409        2.35758024214387
O            6.92360002141302       -2.31974017030009        1.67575316760424
H            7.88174668367806       -2.31792963194476        1.68141963346463
H            6.62583447069160       -1.41039306970077        1.68125312577736
O           -6.59568416067267       -2.64579504021854        1.01230826651155
H           -5.63621235890609       -2.63912032003101        0.99943578467902
H           -6.90570845860984       -1.73766572635232        1.00815273288999
O            3.29817195674862        6.82562555480687        0.33853111737157
H            4.25610958163071        6.84585967023603        0.33369639020736
H            2.99306211856614        7.73387137635603        0.33534301991661
O            2.37783911430328       -6.89442909324303       -0.32444300405605
H            3.33673361645157       -6.89238033049845       -0.33973775573372
H            2.07294161222468       -5.98662021123852       -0.34608253632230
O           -6.15706699794518        3.81337988932366       -1.00814912857207
H           -5.19877873022256        3.82892178313331       -1.00265358577824
H           -6.47211044867717        4.71810295058861       -1.00731762188235
O            7.19363747536238        1.68852832075153       -1.66783321071317
H            8.15205750632381        1.69708599370149       -1.68462431925785
H            6.89465426585194        2.59730327290272       -1.68383001841462
O           -3.85813824198810       -5.58216186788130       -2.34876697217139
H           -2.89752524176374       -5.57933195858998       -2.35184160288554
H           -4.17298882389245       -4.67463994649558       -2.35138098545764
O           -0.69504757984889        6.82961438435763       -3.00007804161523
H            0.26145205047218        6.84773988768807       -3.03522370826947
H           -1.00589070500206        7.73533882873413       -3.03219778475895
O            5.05527446881127       -3.97507068091046       -3.68491972449868
H            6.01361282910053       -3.97519999186385       -3.69747822191898
H            4.75997453632435       -3.06468501802141       -3.69446899151433
O           -5.78192566736865       -0.10042947661814       -4.35590774690574
H           -4.82219742777901       -0.08456260844109       -4.36796981009982
H           -6.09472138828266        0.80606485826998       -4.36842789668539
O            4.00066817141846        3.95316065809570       -5.00955267342498
H            4.95845448648726        3.96890007921029       -5.05057983705291
H            3.69443074451030        4.86021903963310       -5.05053937272306
O           -0.04795027999600       -4.53786364965207       -5.70840367583554
H            0.91151610645757       -4.53165566926003       -5.70728184687022
H           -0.36504358693095       -3.63073225222863       -5.70556005552703
O           -2.21416163670729        3.00371030838910       -6.35531100784784
H           -1.25690900544518        3.01885884926365       -6.39019879099785
H           -2.52477561943966        3.90960170209342       -6.39111908788225
O            2.34969763249360       -0.15028737575908       -7.04061144650140
H            3.30752143455638       -0.14061051667385       -7.05699429151877
H            2.04690660757262        0.75788676583461       -7.05587088861528
124
 energy: -219.678695555882 gnorm: 0.079578109031 xtb: 6.6.0 (conda-forge)
Fe          -0.04428936018474        0.01070602958630       -0.02118170536601
C            0.07059646421987        1.40928263846582        1.34631711254067
C           -0.00791843593095        1.48448322553119       -1.36045774856237
C            2.19202946545100        0.00687061424121        0.00465846492054
C            0.08594288786538       -1.38469201878617       -1.37183821632634
C           -0.02654310349194       -1.45338530783926        1.34260853542764
C           -2.21677914432494        0.00034766562600        0.02112903117357
N           -0.05472247083728        2.11776397240769        2.24776523822462