124
 energy: -220.841116820667 gnorm: 0.000878409507 xtb: 6.6.0 (conda-forge)
Fe           0.08847853775094        1.93155064964550       -0.66134024884073
C            2.43968860944699        1.51197148241052        0.94806104694616
C            0.67990493270797       -0.55729650283201       -2.06403487880386
C            3.50680652862420        1.27063280123007        1.75102569219976
C            0.98472087527346       -1.84475765030450       -2.40749555938535
C           -1.88064008754785       -1.07306155402621        1.55119611643938
C           -1.28750593319521        0.02264342997250        1.00415872373564
N            1.53631955200699        1.68990449784003        0.24786513655912
N            0.42788620605485        0.46442921007744       -1.59035837904791
N            4.43226466835161        1.06313343243649        2.40341836441462
N            1.22619019656533       -2.94383725226629       -2.62947846319144
N           -2.37764064758062       -2.02691468322242        1.95625399257664
N           -0.79993356625147        0.91258883203764        0.45077129324944
O            1.08092950365306       -0.17092691588024        2.51629324025736
H            0.75147183470853       -0.78805876090751        3.19461275726144
H            0.86932303325622        0.71804130352390        2.86204254581981
O           -1.75145450544965        0.40976619617222        3.88265529044273
H           -1.85194278078270        0.90681357946574        4.71421871357252
H           -1.28915273263542       -0.40751182806372        4.11133607846668
O            0.64001787356694        2.35034472466906        3.37800856103824
H            1.25535157591629        3.01289570090797        3.02938379883500
H            0.65805873692331        2.41480217482429        4.35811715360099
O            1.74044466079405       -1.64946352278858        0.37762966594966
H            2.09687683719165       -2.47787483441450        0.80936281268110
H            1.53045397025401       -1.05893269931966        1.12515563964834
O           -3.61516240882803        1.50122676477593        2.31810014222008
H           -3.01768759822696        0.97650228826522        2.89157875421529
H           -4.20940867063224        0.85466915868438        1.88825675368619
O            2.15830651242984        4.12437037098980        1.90676378505881
H            3.05232200589383        4.32347984238347        1.60350728565697
H            1.53999211161844        4.42940160236237        1.23469695264904
O           -0.38064466212360       -3.33184474543256       -0.02475415850509
H            0.11560315855550       -4.13986676880159       -0.28705754099828
H            0.30442565263908       -2.63729690030707        0.04017072536845
O           -0.30247695104863        3.67334027429858        0.35946935860770
H           -0.81630978781917        4.31934117030471       -0.16798900404647
H           -0.82141005424409        3.60591301322357        1.23418394867683
O            3.89016381196290       -1.18994087716620       -1.21911538928392
H            4.61641215345698       -0.83921002074901       -0.68440743279688
H            3.13353987714310       -1.34663362034516       -0.61752505825610
O           -2.84036750842434       -0.31084400387818       -1.18227910653030
H           -2.58548410756257       -1.16468737056636       -1.57246066055557
H           -3.39490078516203        0.14282348656011       -1.84038362510301
O            1.03405972287915        3.10421036481150       -2.07158462872292
H            1.92298544928281        2.89628158878546       -2.43418950136293
H            1.03113402231692        4.07392935227422       -1.89846783253726
O            2.53699655586004       -5.40138555738233       -2.75557288265143
H            3.26813583945975       -4.76825036458675       -2.68922683806995
H            1.98074292113571       -5.05402495813541       -3.46280154064512
O           -1.60966286557952        2.37975744648514       -1.75724188222860
H           -1.78639320173895        1.97676521074330       -2.64299180727078
H           -2.46394654230811        2.33687806954147       -1.23904455529150
O            2.74739227840292       -0.01520082457184       -3.43752420121965
H            3.27283797170322       -0.44151026009033       -2.74134048312421
H            2.98669475196169        0.92202660825882       -3.41470341808472
O           -0.98717625897309       -0.89800744059008       -3.85512927836517
H           -0.27666688725561       -1.08040139421798       -4.53119306351790
H           -1.39257415409819       -1.73293323241714       -3.59160019599590
O           -0.12975219454645       -1.87617686152452        4.27839975418450
H            0.25103314589591       -2.16056718170364        5.11101912893265
H           -0.21642566449556       -2.67461172767028        3.71486158360906
O           -2.29380673313957        1.97725770145493        6.07600029599624
H           -2.76959480522932        1.68061461419625        6.85356562573897
H           -2.92916964649912        2.52572099878584        5.55623559691885
O            0.38981261238355        2.55189006622868        6.01788103265327
H           -0.55800445341649        2.36061922410283        6.13653210647909
H            0.60745869331932        3.26775169614307        6.61615811601744
O            2.37475477417547       -3.93473010332012        1.47974298002429
H            2.15150036772257       -4.57499118731073        0.77841804460091
H            1.70711807913250       -4.06493357831482        2.16530648463639
O           -3.98404759274342        3.25170502724009        4.46673061444288
H           -4.10150216524579        2.66196352912252        3.70431567187228
H           -3.69990045138915        4.10098519562252        4.12182209434454
O            4.99912242356027        4.22033030236153        1.43311492164007
H            5.24099867204184        3.81799464257250        2.27297610784557
H            5.47735010708374        5.05208424259569        1.37315013110118
O           -0.25980947911791       -4.00945092748354        2.62257898023514
H           -0.95050904817714       -4.61691842477583        2.89428655620946
H           -0.47090011078572       -3.74259524012130        1.70296648315352
O           -1.61435166542783        3.42072444808499        2.50750534200733
H           -0.89115276019151        2.96690464305564        2.99809436713475
H           -2.32294399546550        2.77031610177952        2.40548360406313
O            6.04687834046924       -0.06329970481525        0.26839708285384
H            6.93493820500664       -0.37623453880203        0.07698543842012
H            5.93990710057499       -0.07940171364599        1.22723778025140
O           -4.81700584122972       -0.19829447705451        0.65925403150505
H           -4.10305078595334       -0.34215471764740        0.00372850197973
H           -5.24167135436123       -1.04130623808245        0.81958506276264
O            0.85781725325907        5.71026379068181       -1.57226835366785
H            1.20733472910171        6.42066559155638       -2.11346856880912
H           -0.10148887817290        5.83433151065710       -1.52897314337050
O            1.22054633725764       -5.43280342863692       -0.50158502014006
H            1.01751045945169       -6.35878820332229       -0.35936345317658
H            1.71704446939970       -5.39712103784529       -1.36713802150697
O           -3.73475566011042        2.60024429354960       -0.31701272441398
H           -3.72509954776144        2.25292732344850        0.58743339201212
H           -4.41761967621082        2.11225289866535       -0.79160492354339
O            4.70724051795268        2.27999699784114       -0.58657056642878
H            5.28717188020264        1.53176424979343       -0.38441375648998
H            4.91046197523933        2.98819935321939        0.04146234661410
O           -2.06090693378407       -2.79336472464447       -2.06619339257270
H           -2.65593839088483       -3.53813122325602       -2.17195431286112
H           -1.46085532180563       -3.02148842353431       -1.32188658809467
O           -1.85776741896822        5.10092260974697       -1.32441769597624
H           -1.94605998536841        4.27929585561744       -1.83409880309371
H           -2.72609376858298        5.29959742856896       -0.96611940875047
O            4.33999107756044       -3.26884519273295       -2.97037991823603
H            5.28937602821225       -3.39222384862662       -3.01946257858901
H            4.17219603916853       -2.55854608602827       -2.32383219797052
O           -4.48949267858700        1.21255458556689       -2.76844195751533
H           -3.85004295640227        1.39239932928712       -3.47613376876461
H           -5.32554095034830        1.00072029387064       -3.18649029403642
O            3.49515028346473        2.61529041372625       -2.91992771826400
H            3.99095836238686        2.49040352776595       -2.08104216095454
H            4.03166236309145        3.16857787497419       -3.49065717362679
O            2.49449070312568       -3.56288803272087       -5.10804324760120
H            2.93592883270117       -3.95965235455635       -5.86115123680845
H            3.17576467713592       -3.36918009556913       -4.44427462578594
O           -2.13488299541156        1.41578150168418       -4.15356131167604
H           -1.74447590335282        0.50662373252209       -4.07572199506545
H           -1.73670880789576        1.80891752594152       -4.93202728563450
O            1.10586460346621       -1.20786759637730       -5.36956293894568
H            1.47677641741030       -2.10851584837543       -5.40220186905376
H            1.74764747656356       -0.69433321895281       -4.85634327242000
