115
 energy: -204.058206326626 gnorm: 0.747202744588 xtb: 6.6.0 (conda-forge)
Fe           0.00000000000000        0.00002000000000       -0.00001000000000
C           -0.06605000000000       -1.40589000000000        1.40827000000000
C            1.99877000000000       -0.09527000000000       -0.00145000000000
C           -0.06810000000000       -1.40548000000000       -1.40861000000000
C            0.06608000000000        1.40595000000000       -1.40826000000000
C           -1.99876000000000        0.09530000000000        0.00142000000000
C            0.06806000000000        1.40542000000000        1.40865000000000
N           -0.10561000000000       -2.24731000000000        2.23158000000000
N            3.17505000000000       -0.15128000000000       -0.00231000000000
N           -0.10890000000000       -2.24660000000000       -2.23214000000000
N            0.10569000000000        2.24733000000000       -2.23159000000000
N           -3.17504000000000        0.15130000000000        0.00222000000000
N            0.10880000000000        2.24648000000000        2.23226000000000
O            1.73649897312482       -0.00000230769231        4.34446621371140
H            2.63649897312482       -0.00000230769231        4.34446621371140
H            1.44348763411338        0.85096441034708        4.34446621371140
O           -2.13406888057082       -1.95498351094037        3.67608715124693
H           -1.23406888057082       -1.95498351094037        3.67608715124693
H           -2.42708021958226       -1.10401679290098        3.67608715124693
O            0.31331409738031        3.57005899635572        3.00770808878245
H            1.21331409738031        3.57005899635572        3.00770808878245
H            0.02030275836887        4.42102571439511        3.00770808878245
O            2.46529172320338       -3.21553980804518        2.33932902631797
H            3.36529172320338       -3.21553980804518        2.33932902631797
H            2.17228038419194       -2.36457309000580        2.33932902631797
O           -4.30329242892090        0.76118939478120        1.67094996385350
H           -3.40329242892090        0.76118939478120        1.67094996385350
H           -4.59630376793234        1.61215611282058        1.67094996385350
O            3.85593823714771        2.45283045870773        1.00257090138902
H            4.75593823714771        2.45283045870773        1.00257090138902
H            3.56292689813627        3.30379717674711        1.00257090138902
O           -1.21149691469588       -4.50670758235158        0.33419183892455
H           -0.31149691469588       -4.50670758235158        0.33419183892455
H           -1.50450825370732       -3.65574086431219        0.33419183892455
O           -2.15091688778249        4.14145579230978       -0.33418722353993
H           -1.25091688778249        4.14145579230978       -0.33418722353993
H           -2.44392822679393        4.99242251034916       -0.33418722353993
O            4.29267229402207       -1.56767962552916       -1.00256628600441
H            5.19267229402208       -1.56767962552916       -1.00256628600441
H            3.99966095501063       -0.71671290748977       -1.00256628600441
O           -4.03947883236027       -1.66744013075158       -1.67094534846888
H           -3.13947883236027       -1.66744013075158       -1.67094534846888
H           -4.33249017137171       -0.81647341271220       -1.67094534846888
O            1.71735230690061        3.66988146449038       -2.33932441093336
H            2.61735230690061        3.66988146449038       -2.33932441093336
H            1.42434096788917        4.52084818252977       -2.33932441093336
O            1.07256779535324       -3.41951990445458       -3.00770347339783
H            1.97256779535324       -3.41951990445458       -3.00770347339783
H            0.77955645634179       -2.56855318641520       -3.00770347339783
O           -2.50406584059684        1.45115458501645       -3.67608253586231
H           -1.60406584059684        1.45115458501645       -3.67608253586231
H           -2.79707717960828        2.30212130305584       -3.67608253586231
O            1.69599646003951        0.37285792551654       -4.34446159832679
H            2.59599646003951        0.37285792551654       -4.34446159832679
H            1.40298512102807        1.22382464355593       -4.34446159832679
O            2.37303906742757        0.22138493263255        6.61593642268309
H            3.27303906742757        0.22138493263255        6.61593642268309
H            2.08002772841613        1.07235165067194        6.61593642268309
O           -2.50661667552622       -2.25671133360321        5.91952230531564
H           -1.60661667552622       -2.25671133360321        5.91952230531564
H           -2.79962801453766       -1.40574461556383        5.91952230531564
O            0.60119985612618        4.81009383063762        5.22310818794819
H            1.50119985612618        4.81009383063762        5.22310818794819
H            0.30818851711474        5.66106054867700        5.22310818794819
O            3.41852103792304       -3.97857967713068        4.52669407058074
H            4.31852103792304       -3.97857967713068        4.52669407058074
H            3.12550969891160       -3.12761295909130        4.52669407058074
O           -5.52880837739172        1.23446278611932        3.83027995321329
H           -4.62880837739172        1.23446278611932        3.83027995321329
H           -5.82181971640316        2.08542950415871        3.83027995321329
O            5.44595014610934        3.55939165465477        3.13386583584584
H            6.34595014610934        3.55939165465477        3.13386583584584
H            5.15293880709790        4.41035837269416        3.13386583584584
O           -1.49508279783678       -6.07860912058512        2.43745171847839
H           -0.59508279783678       -6.07860912058512        2.43745171847839
H           -1.78809413684822       -5.22764240254574        2.43745171847839
O           -2.90940970577658        6.20545030920299        1.74103760111094
H           -2.00940970577658        6.20545030920299        1.74103760111094
H           -3.20242104478802        7.05641702724238        1.74103760111094
O            6.66604149711307       -2.14055571243366        1.04462348374348
H            7.56604149711307       -2.14055571243366        1.04462348374348
H            6.37303015810163       -1.28958899439427        1.04462348374348
O           -6.23073463668439       -2.43250416729271        0.34820936637603
H           -5.33073463668439       -2.43250416729271        0.34820936637603
H           -6.52374597569583       -1.58153744925332        0.34820936637603
O            3.14651806522710        6.52115676184042       -0.34820475099142
H            4.04651806522710        6.52115676184042       -0.34820475099142
H            2.85350672621566        7.37212347987980       -0.34820475099142
O            2.25916049695480       -6.34836790271546       -1.04461886835887
H            3.15916049695480       -6.34836790271546       -1.04461886835887
H            1.96614915794336       -5.49740118467608       -1.04461886835887
O           -5.63563310712640        3.60237660214816       -1.74103298572632
H           -4.73563310712640        3.60237660214816       -1.74103298572632
H           -5.92864444613784        4.45334332018755       -1.74103298572632
O            6.56998458022275        1.62214087189805       -2.43744710309377
H            7.46998458022275        1.62214087189805       -2.43744710309377
H            6.27697324121131        2.47310758993744       -2.43744710309377
O           -3.37834499395553       -4.86629005984495       -3.13386122046122
H           -2.47834499395553       -4.86629005984495       -3.13386122046122
H           -3.67135633296697       -4.01532334180556       -3.13386122046122
O           -0.54895777667072        5.98936224057324       -3.83027533782867
H            0.35104222332928        5.98936224057324       -3.83027533782867
H           -0.84196911568216        6.84032895861263       -3.83027533782867
O            4.24523023070369       -3.18921481361938       -4.52668945519612
H            5.14523023070369       -3.18921481361938       -4.52668945519612
H            3.95221889169225       -2.33824809557999       -4.52668945519612
O           -4.40392615619451        0.03106071225217       -5.22310357256358
H           -3.50392615619451        0.03106071225217       -5.22310357256358
H           -4.69693749520595        0.88202743029155       -5.22310357256358
O            2.79889047836376        2.80913402890235       -5.91951768993103
H            3.69889047836376        2.80913402890235       -5.91951768993103
H            2.50587913935232        3.66010074694174       -5.91951768993103
O            0.09804096400600       -1.95084634661044       -6.61593180729848
H            0.99804096400600       -1.95084634661044       -6.61593180729848
H           -0.19497037500544       -1.09987962857105       -6.61593180729848
115
 energy: -204.314268255947 gnorm: 0.307052997190 xtb: 6.6.0 (conda-forge)
Fe          -0.00934619051416        0.00358159784724        0.00299850003287
C           -0.06677312000695       -1.41337220450893        1.40022763492430
C            1.98605109155625       -0.09295142269924        0.00137865067821
C           -0.05618011933033       -1.39368861833705       -1.38725153708650
C            0.06929066354192        1.40726576819532       -1.40666507101536
C           -1.99653813372480        0.09467899017479        0.00934869386866
C            0.06186233136367        1.40007220925218        1.37782501778610
N           -0.10172743357471       -2.22828469629142        2.21125969236363
N            3.13456340337166       -0.12362278057129        0.02448960593304
N           -0.13757880526661       -2.21422631370301       -2.20121844475953
N            0.08817844469783        2.22039337544740       -2.21752402380186
N           -3.14474869865434        0.14660800694295       -0.01839769269070
N            0.10092339458192        2.20858843816950        2.21789317683212
O            1.71937656754666       -0.00610117821355        4.30826748872135
H            2.65657064465377       -0.02434484506297        4.34944702283643
H            1.43220505801114        0.87931292907020        4.34893312063866
O           -2.14852768247862       -1.95937344226719        3.66726598139209
H           -1.20895800103621       -1.98019819286148        3.67247598483366
H           -2.44073763898271       -1.07531675294291        3.67637919861194
O            0.31194653747942        3.57162334375206        2.99194717399585
H            1.25055028888988        3.55988429457071        3.01549354027698
H           -0.00640988420460        4.45855464001060        3.03954506278181
O            2.45328518907001       -3.21923656105995        2.32552236084327
H            3.39004215366563       -3.23942787707211        2.33940733156495
H            2.16249661394161       -2.33405342342205        2.34076485537513
O           -4.31720221717039        0.75698016937650        1.69432202882977
H           -3.38197503128391        0.74148708416162        1.66355798182772
H           -4.61468826562846        1.64112529083346        1.67023080725148
O            3.83884351956906        2.44901630574443        1.00199144742580
H            4.77624005168362        2.42946643477184        1.00612614564569
H            3.55467190109971        3.33585084911373        1.00009083923527
O           -1.22215835163483       -4.51089643173213        0.33348506025248
H           -0.28581456084318       -4.53039472339063        0.33472970754905
H           -1.51510056692039       -3.62671741030795        0.33436839452044
O           -2.16370129101585        4.13351065220537       -0.32892468815555
H           -1.22808904553067        4.11765115064327       -0.34146572510893
H           -2.45769640513620        5.01941386296584       -0.33416835022279
O            4.29400845933107       -1.59290421377518       -1.04474533658675
H            5.22725368057125       -1.59230959577201       -1.00347451870804
H            3.99739680981663       -0.69681339229766       -0.99156462898418
O           -4.05118123308515       -1.67862381704034       -1.67273451383831
H           -3.11591604533353       -1.68909736215292       -1.67272574900595
H           -4.34524288639984       -0.79180426692190       -1.67313310843377
O            1.71282301839036        3.67018433259759       -2.33672641464149
H            2.64671895057762        3.65220267017735       -2.34010796648537
H            1.41355919929197        4.55231337638649       -2.34095054162045
O            1.07720654080839       -3.44610748060993       -3.03922478444704
H            2.01306348177703       -3.44592851256597       -3.02706313586239
H            0.77162380766321       -2.54677290420296       -2.99767746907109
O           -2.51627366774810        1.44309340887760       -3.67830283973255
H           -1.57976245814384        1.43026768967490       -3.67452258284540
H           -2.80729922248593        2.32934870942375       -3.67550997286000
O            1.68258110535877        0.36372322466780       -4.33683031476917
H            2.61868363905533        0.35342699272330       -4.34803067404551
H            1.39345093616599        1.25174018482186       -4.34730795410874
O            2.36354981430548        0.21868870941510        6.63402024645689
H            3.29868641512878        0.19922131803069        6.61917433723673
H            2.07058425972694        1.10288630025006        6.61965988281424
O           -2.51935117150773       -2.26378924220126        5.94054772136437
H           -1.58201332375970       -2.28218236552811        5.91907457670109
H           -2.81332190895266       -1.37883048889454        5.92015700798319
O            0.58874239762929        4.80468907210841        5.20064955945019
H            1.52521883662605        4.79078933811883        5.23344917163824
H            0.29545595279854        5.69054553519028        5.23308572973357
O            3.40937547887336       -3.98456575892263        4.53735956418938
H            4.34523417167662       -4.00129294067640        4.52815210934242
H            3.11323503648680       -3.09968082726878        4.52717519916632
O           -5.54248972227614        1.22975832349744        3.83803218703158
H           -4.60695304712728        1.20918780910596        3.82987519032223
H           -5.83582497231456        2.11409466404642        3.83174172111313
O            5.43070172938874        3.55559390692537        3.13041793043033
H            6.36775007580110        3.53761926259100        3.13627842507901
H            5.14467744348864        4.44264668947274        3.13578338038105
O           -1.50574672404104       -6.08690268116231        2.44693627595361
H           -0.56843254418505       -6.10105355426076        2.43581552996270
H           -1.80067969280780       -5.20019003216458        2.43280895872179
O           -2.92153613345328        6.19882114817739        1.73978565907302
H           -1.98652647918021        6.18522749372599        1.74036183005444
H           -3.21682338422408        7.08357786774195        1.74150396440799
O            6.65262101258876       -2.14362853683051        1.04357758845155
H            7.58933492024876       -2.16323214525606        1.04560933836436
H            6.36393962597917       -1.25746871095351        1.04599029369655
O           -6.24277952363656       -2.44050715331024        0.35074705789360
H           -5.30537830512598       -2.45644488500730        0.34432793156232
H           -6.53557391243931       -1.55413179030306        0.34803473751807
O            3.13126158504132        6.51372361827171       -0.34474280037872
H            4.06813830402688        6.50113348189187       -0.35006802134389
H            2.84218398517334        7.40109901461763       -0.34983126096548
O            2.24791514430277       -6.35288395058367       -1.04303034009126
H            3.18459835323337       -6.37195091536201       -1.04441117776321
H            1.95711404084167       -5.46760713346962       -1.04555052678308
O           -5.64806640497077        3.59494772678121       -1.74012448326321
H           -4.71175379228192        3.57801640499759       -1.74054877373637
H           -5.94073522754037        4.48009080379524       -1.74210139548932
O            6.55545805385639        1.61731195607653       -2.43342431750246
H            7.49248282683791        1.60014897268306       -2.43916817901513
H            6.26770653444669        2.50377260634285       -2.43888275753244
O           -3.38914981432953       -4.87303327318212       -3.13357464407261
H           -2.45195711841322       -4.89063276674599       -3.13403883982994
H           -3.68440667029393       -3.98681356255882       -3.13320190814983
O           -0.56262924070934        5.98334707750905       -3.82316937509427
H            0.37311411847873        5.96696564927233       -3.83463872090011
H           -0.85439356279927        6.86883823441144       -3.83390027246341
O            4.23109494746554       -3.19304224785485       -4.51948581590721
H            5.16794208343207       -3.21301676889054       -4.52847724238240
H            3.94427076682647       -2.30656252682428       -4.52920760321990
O           -4.41684123223648        0.02195838345017       -5.22728145481584
H           -3.47964165722292        0.00914694869854       -5.21922455651323
H           -4.70946317675738        0.90797334290021       -5.22179058650310
O            2.78571481604863        2.80311493466244       -5.91105966252037
H            3.72201984018926        2.78711553261378       -5.92331193158683
H            2.49445186893449        3.68871180274996       -5.92300099714894
O            0.08590411975912       -1.95676069491518       -6.61166320783256
H            1.02240570471928       -1.97407723385364       -6.61737162458664
H           -0.20452868977580       -1.07076685933914       -6.61710971202961
115
 energy: -204.408606076113 gnorm: 0.121623819874 xtb: 6.6.0 (conda-forge)
Fe          -0.02502915971306        0.00983652909692        0.00726285929595
C           -0.06893553934479       -1.41775224749195        1.36813171351211
C            1.94842487664188       -0.08618098830198        0.01263821550148
C           -0.02513956908371       -1.36138244219385       -1.35816849961946
C            0.07708747518528        1.39751028856358       -1.39061715903038
C           -1.97277991760818        0.09347212414702        0.02609405510052
C            0.05089048093838        1.39689270529669        1.31960800839805
N           -0.09877710385550       -2.20966193448032        2.19136370457584
N            3.09059312075318       -0.08652198861874        0.04783398553283
N           -0.17310608478998       -2.16974402270668       -2.17069697112709
N            0.05859442010902        2.18962505677111       -2.21176481621673
N           -3.11169407727365        0.14628992993092       -0.05100985951796
N            0.10643234688107        2.13516746038571        2.21865445649018
O            1.70975205346491       -0.02494203954787        4.23937727440316
H            2.66807864539043       -0.01877009428161        4.35242093443992
H            1.41352402501728        0.88248297900531        4.35977013630024
O           -2.15692451508177       -1.96973582939513        3.64264964710199
H           -1.19154639527074       -1.98091728768197        3.67599998564298
H           -2.46027189386772       -1.06361772184741        3.67090975512474
O            0.31449655341800        3.57499662487007        3.02123427570593
H            1.28086315005058        3.57594333581584        3.02642167516827
H           -0.02976603398334        4.48899273727808        3.01715199259014
O            2.44935316028873       -3.23198889142959        2.30011062069080
H            3.40841542011939       -3.23756235778264        2.32645870612274
H            2.14933777955888       -2.32344758536283        2.34819260532187
O           -4.32617812571232        0.74812223699331        1.70881883133821
H           -3.36962108840961        0.75953383739813        1.70053074819663
H           -4.64679816929384        1.65130587623550        1.64262309620192
O            3.82837447800181        2.43547361502583        1.00381588003189
H            4.78836627128757        2.43260828760307        1.01161516611471
H            3.54533116248851        3.34870994346572        0.99337520860361
O           -1.22459125587015       -4.52237134947257        0.32731420916578
H           -0.26614433940665       -4.52219382823421        0.33636652995761
H           -1.53304425012916       -3.61706581664483        0.33783854734501
O           -2.16325735641559        4.11300140562749       -0.31507281144394
H           -1.20628775286065        4.13024452565685       -0.35841403655066
H           -2.47866484619040        5.01992878340742       -0.33392000585101
O            4.30786204079985       -1.63066724968727       -1.08331517820986
H            5.26224476463211       -1.60618488820521       -0.98703809383447
H            3.99846715090820       -0.70486983554247       -1.01138778104793
O           -4.05508126514915       -1.69974275695803       -1.65779782446605
H           -3.09810950355520       -1.67988441019404       -1.68762005471034
H           -4.36611801952422       -0.79046067770871       -1.68737532268965
O            1.72406604718148        3.66664228776906       -2.33353305657232
H            2.67915384142407        3.66779586364948       -2.34128106662091
H            1.40311936429665        4.56760245692808       -2.34136021859387
O            1.09900517861351       -3.48901368337890       -3.05055661856081
H            2.05880186750604       -3.44650703178922       -3.00495715466736
H            0.74495505477519       -2.56027089424667       -3.05440301569011
O           -2.51661318009993        1.42667296504168       -3.67942006453102
H           -1.55770362055654        1.44449012680583       -3.67425238864518
H           -2.82119410096519        2.33542301324189       -3.67380261918970
O            1.67766235721811        0.34341218217388       -4.31770754659408
H            2.63560843303330        0.36616453950637       -4.35563126552722
H            1.37999842349422        1.25621302294034       -4.35594185798625
O            2.36749852531123        0.20496400006141        6.64695074049108
H            3.32376211533696        0.21020070019172        6.63636143634618
H            2.05725262447156        1.10984537539033        6.63765912255904
O           -2.52383897120690       -2.28027902885157        5.95769328609184
H           -1.56380195067561       -2.27951211738526        5.93449395932539
H           -2.83495020328690       -1.37422475362998        5.93426792417809
O            0.59135316713841        4.79221457042961        5.15032988957417
H            1.54920985423750        4.80789282178169        5.25873485604136
H            0.27952927816627        5.69828149916928        5.25795839189108
O            3.41060168334222       -4.00324410722890        4.54687773492227
H            4.36835866699410       -3.99568246326947        4.53183865192220
H            3.09240168428957       -3.09829488386095        4.54083111431782
O           -5.54794218525360        1.21827631513145        3.84797577304027
H           -4.59093080835266        1.22154064384364        3.84359822640469
H           -5.85964078963838        2.12341592326221        3.83509859960829
O            5.42640967393398        3.54130207847189        3.11825871270312
H            6.38578517902179        3.54262295840285        3.14412409382072
H            5.13778141183400        4.45393367534780        3.14241587109340
O           -1.51007274331999       -6.10331987874077        2.45319079975649
H           -0.54946622971403       -6.09653801774388        2.43588202954082
H           -1.82187292751426       -5.19390859115688        2.43253735365597
O           -2.91753691936691        6.18202186942940        1.73578304151587
H           -1.96150516967127        6.20815601171667        1.74046360114110
H           -3.23863027924062        7.08570376116470        1.74437264482660
O            6.64662611895133       -2.15851603194160        1.03998661161981
H            7.60547341708640       -2.15884479501028        1.04612788713196
H            6.35015775010460       -1.24822152381636        1.04931341754894
O           -6.24694487190180       -2.45331975051061        0.35757801149444
H           -5.28619940853985       -2.44851240653123        0.33501481267584
H           -6.55373980749879       -1.54386641715691        0.34751099243711
O            3.12901655614886        6.49400424583395       -0.33540329788053
H            4.08818106931924        6.51303656670797       -0.35439661723790
H            2.82906069771486        7.40507926441285       -0.35365637724153
O            2.24289234819213       -6.36726444815702       -1.03656155574628
H            3.20196943734163       -6.36656164423811       -1.04693540489656
H            1.94043007841980       -5.45897567086190       -1.05147995121141
O           -5.64640766563934        3.57895702013251       -1.73739267595489
H           -4.68812922290005        3.59225859026181       -1.73705515836766
H           -5.95831714096222        4.48487976279308       -1.74353031911889
O            6.55037573932140        1.59967926724103       -2.42147954766160
H            7.50971995101537        1.60528296142161       -2.44507769075460
H            6.25596089681775        2.51038618951810       -2.44433595791973
O           -3.39289616219937       -4.88574197701740       -3.13362504206255
H           -2.43238496399424       -4.88286470127861       -3.13485830623737
H           -3.70757022475114       -3.97743645524876       -3.13089426839710
O           -0.56255548395711        5.96689107012212       -3.79937985522520
H            0.39452497906114        5.98181279081293       -3.84822574988008
H           -0.87162063374336        6.87368522157221       -3.84383591110776
O            4.22212243321300       -3.20732129457809       -4.50254954334171
H            5.18102338055302       -3.20904236559477       -4.53328941663209
H            3.93080287265956       -2.29595062187885       -4.53577281881715
O           -4.42119472212549        0.00580229777467       -5.23178989508128
H           -3.46082024181117        0.02065542879133       -5.21215678473236
H           -4.72916500774421        0.91392673063410       -5.21982404339983
O            2.78378742631902        2.78528479008206       -5.88479978016941
H            3.74186086478418        2.79763364228171       -5.93487060877649
H            2.47775505627776        3.69268886057284       -5.93441124357313
O            0.08156754080576       -1.97098748681119       -6.60003525626547
H            1.04041018927245       -1.96699055894135       -6.62139974663073
H           -0.21928335252219       -1.06147935413310       -6.62147891522150
115
 energy: -204.451721760361 gnorm: 0.124246457881 xtb: 6.6.0 (conda-forge)
Fe          -0.04206895018704        0.01946890932809        0.00770985511672
C           -0.07108490868529       -1.42275134107146        1.30514051700868
C            1.89800603327024       -0.07488995008293        0.02813266997600
C            0.02555229682932       -1.32360421228862       -1.32142052198199
C            0.09981338329292        1.37666519518727       -1.36978168517522
C           -1.93999268832547        0.08395683614841        0.07146286750944
C            0.03064106297654        1.40488527209096        1.24288171252095
N           -0.09178534360124       -2.19190548508097        2.15838672140650
N            3.04554984642626       -0.06214367726007        0.07551545974992
N           -0.18361382878114       -2.12422252059016       -2.13366046948339
N            0.01441740236730        2.15712568824860       -2.21190549826928
N           -3.08135708442889        0.15886001217517       -0.08910092892089
N            0.11834250609712        2.06261914180513        2.20645976686763
O            1.69554345186402       -0.02993310787426        4.14431263085205
H            2.65348635143181       -0.02909859041427        4.35209373427355
H            1.40872841978221        0.88095489707694        4.36145041889471
O           -2.17011047072967       -1.96893806361725        3.61556384404145
H           -1.19864721101920       -1.99582724837965        3.66926811059956
H           -2.46291327231299       -1.05380547096631        3.66515097863202
O            0.32183476662311        3.58207435116279        3.03713753292320
H            1.29464035780243        3.59558152623637        3.03583036787555
H           -0.04465075103100        4.49856191148612        3.01470396187497
O            2.44652269547208       -3.22912820300423        2.25331013681819
H            3.41007161005558       -3.25226492260136        2.30492936034193
H            2.16364116417940       -2.30943874900106        2.35989431723574
O           -4.33379843091861        0.74999208531363        1.71840390071427
H           -3.37305618586851        0.77768416064094        1.72934912894850
H           -4.66930574751620        1.65283453212082        1.61381136936624
O            3.80899445707480        2.44173863751264        0.99979063894533
H            4.77359772497852        2.41758097298300        1.02981886265166
H            3.55630932299425        3.37065396207429        0.98080637159365
O           -1.22561768884601       -4.51961225469616        0.32328342289563
H           -0.26240033395718       -4.52578978072263        0.33795083494025
H           -1.52859177123292       -3.60666983860536        0.34182861539826
O           -2.16508440027482        4.10029974196129       -0.29999324892669