 Entering Gaussian System, Link 0=g16
 Input=catecholate_red_low_spin.com
 Output=catecholate_red_low_spin.log
 Initial command:
 /gpfs/fs1/soft/improv/software/custom-built/gaussian/g16/l1.exe "/scratch/Gau-1527329.inp" -scrdir="/scratch/"
 Default CPUs for threads: 0-127
 Default linda workers: i692.lcrc.anl.gov
 Default is to use 128 SMP processors on each worker.
 Entering Link 1 = /gpfs/fs1/soft/improv/software/custom-built/gaussian/g16/l1.exe PID=   1527330.
  
 Copyright (c) 1988-2021, Gaussian, Inc.  All Rights Reserved.
  
 This is part of the Gaussian(R) 16 program.  It is based on
 the Gaussian(R) 09 system (copyright 2009, Gaussian, Inc.),
 the Gaussian(R) 03 system (copyright 2003, Gaussian, Inc.),
 the Gaussian(R) 98 system (copyright 1998, Gaussian, Inc.),
 the Gaussian(R) 94 system (copyright 1995, Gaussian, Inc.),
 the Gaussian 92(TM) system (copyright 1992, Gaussian, Inc.),
 the Gaussian 90(TM) system (copyright 1990, Gaussian, Inc.),
 the Gaussian 88(TM) system (copyright 1988, Gaussian, Inc.),
 the Gaussian 86(TM) system (copyright 1986, Carnegie Mellon
 University), and the Gaussian 82(TM) system (copyright 1983,
 Carnegie Mellon University). Gaussian is a federally registered
 trademark of Gaussian, Inc.
  
 This software contains proprietary and confidential information,
 including trade secrets, belonging to Gaussian, Inc.
  
 This software is provided under written license and may be
 used, copied, transmitted, or stored only in accord with that
 written license.
  
 The following legend is applicable only to US Government
 contracts under FAR:
  
                    RESTRICTED RIGHTS LEGEND
  
 Use, reproduction and disclosure by the US Government is
 subject to restrictions as set forth in subparagraphs (a)
 and (c) of the Commercial Computer Software - Restricted
 Rights clause in FAR 52.227-19.
  
 Gaussian, Inc.
 340 Quinnipiac St., Bldg. 40, Wallingford CT 06492
  
  
 ---------------------------------------------------------------
 Warning -- This program may not be used in any manner that
 competes with the business of Gaussian, Inc. or will provide
 assistance to any competitor of Gaussian, Inc.  The licensee
 of this program is prohibited from giving any competitor of
 Gaussian, Inc. access to this program.  By using this program,
 the user acknowledges that Gaussian, Inc. is engaged in the
 business of creating and licensing software in the field of
 computational chemistry and represents and warrants to the
 licensee that it is not a competitor of Gaussian, Inc. and that
 it will not use this program in any manner prohibited above.
 ---------------------------------------------------------------
  

 Cite this work as:
 Gaussian 16, Revision C.02,
 M. J. Frisch, G. W. Trucks, H. B. Schlegel, G. E. Scuseria, 
 M. A. Robb, J. R. Cheeseman, G. Scalmani, V. Barone, 
 G. A. Petersson, H. Nakatsuji, X. Li, M. Caricato, A. V. Marenich, 
 J. Bloino, B. G. Janesko, R. Gomperts, B. Mennucci, H. P. Hratchian, 
 J. V. Ortiz, A. F. Izmaylov, J. L. Sonnenberg, D. Williams-Young, 
 F. Ding, F. Lipparini, F. Egidi, J. Goings, B. Peng, A. Petrone, 
 T. Henderson, D. Ranasinghe, V. G. Zakrzewski, J. Gao, N. Rega, 
 G. Zheng, W. Liang, M. Hada, M. Ehara, K. Toyota, R. Fukuda, 
 J. Hasegawa, M. Ishida, T. Nakajima, Y. Honda, O. Kitao, H. Nakai, 
 T. Vreven, K. Throssell, J. A. Montgomery, Jr., J. E. Peralta, 
 F. Ogliaro, M. J. Bearpark, J. J. Heyd, E. N. Brothers, K. N. Kudin, 
 V. N. Staroverov, T. A. Keith, R. Kobayashi, J. Normand, 
 K. Raghavachari, A. P. Rendell, J. C. Burant, S. S. Iyengar, 
 J. Tomasi, M. Cossi, J. M. Millam, M. Klene, C. Adamo, R. Cammi, 
 J. W. Ochterski, R. L. Martin, K. Morokuma, O. Farkas, 
 J. B. Foresman, and D. J. Fox, Gaussian, Inc., Wallingford CT, 2019.
 
 ******************************************
 Gaussian 16:  ES64L-G16RevC.02  7-Dec-2021
                26-Sep-2024 
 ******************************************
 %chk=catecholate_red_low_spin.chk
 SetSPE:  set environment variable "OMP_PROC_BIND" = "true"
 SetSPE:  set environment variable "OMP_PLACES" = "{0},{1},{2},{3},{4},{5},{6},{7},{8},{9},{10},{11},{12},{13},{14},{15},{16},{17},{18},{19},{20},{21},{22},{23},{24},{25},{26},{27},{28},{29},{30},{31},{32},{33},{34},{35},{36},{37},{38},{39},{40},{41},{42},{43},{44},{45},{46},{47},{48},{49},{50},{51},{52},{53},{54},{55},{56},{57},{58},{59},{60},{61},{62},{63},{64},{65},{66},{67},{68},{69},{70},{71},{72},{73},{74},{75},{76},{77},{78},{79},{80},{81},{82},{83},{84},{85},{86},{87},{88},{89},{90},{91},{92},{93},{94},{95},{96},{97},{98},{99},{100},{101},{102},{103},{104},{105},{106},{107},{108},{109},{110},{111},{112},{113},{114},{115},{116},{117},{118},{119},{120},{121},{122},{123},{124},{125},{126},{127}"
 SetLPE:    new flags="-opt 'Tsnet.Node.lindarsharg: ssh'  -nodelist 'i692.lcrc.anl.gov' -env GAUSS_MDEF=13421772800 -env GAUSS_EXEDIR="/gpfs/fs1/soft/improv/software/custom-built/gaussian/g16/bsd:/gpfs/fs1/soft/improv/software/custom-built/gaussian/g16" -env "OMP_PROC_BIND=true" -env "OMP_PLACES={0},{1},{2},{3},{4},{5},{6},{7},{8},{9},{10},{11},{12},{13},{14},{15},{16},{17},{18},{19},{20},{21},{22},{23},{24},{25},{26},{27},{28},{29},{30},{31},{32},{33},{34},{35},{36},{37},{38},{39},{40},{41},{42},{43},{44},{45},{46},{47},{48},{49},{50},{51},{52},{53},{54},{55},{56},{57},{58},{59},{60},{61},{62},{63},{64},{65},{66},{67},{68},{69},{70},{71},{72},{73},{74},{75},{76},{77},{78},{79},{80},{81},{82},{83},{84},{85},{86},{87},{88},{89},{90},{91},{92},{93},{94},{95},{96},{97},{98},{99},{100},{101},{102},{103},{104},{105},{106},{107},{108},{109},{110},{111},{112},{113},{114},{115},{116},{117},{118},{119},{120},{121},{122},{123},{124},{125},{126},{127}" -env GAUSS_ADEF="0,1,2,3,4,5,6,7,8,9,10,11,12,13,14,15,16,17,18,19,20,21,22,23,24,25,26,27,28,29,30,31,32,33,34,35,36,37,38,39,40,41,42,43,44,45,46,47,48,49,50,51,52,53,54,55,56,57,58,59,60,61,62,63,64,65,66,67,68,69,70,71,72,73,74,75,76,77,78,79,80,81,82,83,84,85,86,87,88,89,90,91,92,93,94,95,96,97,98,99,100,101,102,103,104,105,106,107,108,109,110,111,112,113,114,115,116,117,118,119,120,121,122,123,124,125,126,127""
 Will use up to    1 processors via Linda.
 ----------------------------------------------------------------------
 #p B3LYP empiricaldispersion=gd3 opt=(cartesian,calcall,maxcycles=500)
  freq scf=(maxcycles=500,xqc,maxconventional=50)
 ----------------------------------------------------------------------
 1/6=500,10=4,18=10,26=3,38=1/1,3;
 2/12=2,17=6,18=5,29=2,40=1/2;
 3/11=2,25=1,30=1,71=2,74=-5,124=31,140=1/1,2,3;
 4//1;
 5/5=2,7=500,8=3,13=1,38=5,85=50/2,8;
 8/6=4,10=90,11=11/1;
 11/6=1,8=1,9=11,15=111,16=1/1,2,10;
 10/6=1/2;
 6/7=2,8=2,9=2,10=2,18=1,28=1/1;
 7/7=1,10=1,25=1/1,2,3,16;
 1/6=500,10=4,18=10,26=3/3(3);
 2/29=1/2;
 7/7=1,8=1,9=1,25=1,44=-1/16;
 99/12=1/99;
 2/29=1/2;
 3/11=2,25=1,30=1,71=2,74=-5,124=31,140=1/1,2,3;
 4/5=5,16=3,69=1/1;
 5/5=2,7=500,8=3,13=1,38=5,85=50/2,8;
 8/6=4,10=90,11=11/1;
 11/6=1,8=1,9=11,15=111,16=1/1,2,10;
 10/6=1/2;
 7/7=1,10=1,25=1/1,2,3,16;
 1/6=500,10=4,18=10,26=3/3(-8);
 2/29=1/2;
 6/7=2,8=2,9=2,10=2,18=1,19=2,28=1/1;
 7/7=1,8=1,9=1,25=1,44=-1/16;
 99/12=1/99;
 Leave Link    1 at Thu Sep 26 10:45:31 2024, MaxMem=           0 cpu:               6.0 elap:               0.1
 (Enter /gpfs/fs1/soft/improv/software/custom-built/gaussian/g16/l101.exe)
 -----------------------------
 catecholate red low_spin spin
 -----------------------------
 Symbolic Z-matrix:
 Charge = -4 Multiplicity = 1
 C                    -2.2649   -0.82114   0.05667 
 C                    -2.82312   0.37431   0.45428 
 C                    -2.00012   1.4621    0.85333 
 C                    -0.62106   1.29752   0.74868 
 C                    -0.02826  -0.00076   0.31295 
 C                    -0.87916  -1.05167  -0.03425 
 O                     1.25655  -0.00198   0.32674 
 O                     0.27553   2.21108   1.0166 
 H                    -2.91714  -1.62375  -0.21742 
 H                    -3.91046   0.46528   0.46144 
 H                    -2.41181   2.37265   1.19775 
 H                    -0.5016   -1.99622  -0.33766 
 Fe                    1.96138   1.69829   0.51044 
 C                     3.43475   2.72259   5.20074 
 C                     3.53826   4.00661   4.65942 
 C                     3.29348   4.26507   3.29907 
 C                     2.9702    3.20067   2.45911 
 C                     2.85927   1.83749   3.02753 
 C                     3.11906   1.59871   4.37524 
 O                     2.53078   0.98033   2.11522 
 O                     2.71532   3.26026   1.16913 
 H                     3.60917   2.60585   6.24455 
 H                     3.80756   4.84682   5.29094 
 H                     3.34006   5.27458   2.9089 
 H                     3.09491   0.60787   4.7732 
 C                     3.96974   1.3869   -4.01767 
 C                     2.87307   2.21383  -4.3311 
 C                     1.90634   2.60087  -3.34364 
 C                     2.08336   2.19061  -2.04824 
 C                     3.32805   1.36351  -1.70283 
 C                     4.22855   0.95787  -2.70132 
 O                     3.39949   1.08294  -0.4656 
 O                     1.2839    2.47112  -1.03588 
 H                     4.64898   1.0608   -4.79565 
 H                     2.73625   2.54441  -5.3338 
 H                     1.07805   3.21669  -3.61368 
 H                     5.08351   0.31536  -2.47749 
 
 ITRead=  0  0  0  0  0  0  0  0  0  0  0  0  0  0  0  0  0  0  0  0
 ITRead=  0  0  0  0  0  0  0  0  0  0  0  0  0  0  0  0  0
 MicOpt= -1 -1 -1 -1 -1 -1 -1 -1 -1 -1 -1 -1 -1 -1 -1 -1 -1 -1 -1 -1
 MicOpt= -1 -1 -1 -1 -1 -1 -1 -1 -1 -1 -1 -1 -1 -1 -1 -1 -1
 NAtoms=     37 NQM=       37 NQMF=       0 NMMI=      0 NMMIF=      0
                NMic=       0 NMicF=      0.
                    Isotopes and Nuclear Properties:
 (Nuclear quadrupole moments (NQMom) in fm**2, nuclear magnetic moments (NMagM)
  in nuclear magnetons)

  Atom         1           2           3           4           5           6           7           8           9          10
 IAtWgt=          12          12          12          12          12          12          16          16           1           1
 AtmWgt=  12.0000000  12.0000000  12.0000000  12.0000000  12.0000000  12.0000000  15.9949146  15.9949146   1.0078250   1.0078250
 NucSpn=           0           0           0           0           0           0           0           0           1           1
 AtZEff=  -0.0000000  -0.0000000  -0.0000000  -0.0000000  -0.0000000  -0.0000000  -0.0000000  -0.0000000  -0.0000000  -0.0000000
 NQMom=    0.0000000   0.0000000   0.0000000   0.0000000   0.0000000   0.0000000   0.0000000   0.0000000   0.0000000   0.0000000
 NMagM=    0.0000000   0.0000000   0.0000000   0.0000000   0.0000000   0.0000000   0.0000000   0.0000000   2.7928460   2.7928460
 AtZNuc=   6.0000000   6.0000000   6.0000000   6.0000000   6.0000000   6.0000000   8.0000000   8.0000000   1.0000000   1.0000000

  Atom        11          12          13          14          15          16          17          18          19          20
 IAtWgt=           1           1          56          12          12          12          12          12          12          16
 AtmWgt=   1.0078250   1.0078250  55.9349393  12.0000000  12.0000000  12.0000000  12.0000000  12.0000000  12.0000000  15.9949146
 NucSpn=           1           1           0           0           0           0           0           0           0           0
 AtZEff=  -0.0000000  -0.0000000  -0.0000000  -0.0000000  -0.0000000  -0.0000000  -0.0000000  -0.0000000  -0.0000000  -0.0000000
 NQMom=    0.0000000   0.0000000   0.0000000   0.0000000   0.0000000   0.0000000   0.0000000   0.0000000   0.0000000   0.0000000
 NMagM=    2.7928460   2.7928460   0.0000000   0.0000000   0.0000000   0.0000000   0.0000000   0.0000000   0.0000000   0.0000000
 AtZNuc=   1.0000000   1.0000000  26.0000000   6.0000000   6.0000000   6.0000000   6.0000000   6.0000000   6.0000000   8.0000000

  Atom        21          22          23          24          25          26          27          28          29          30
 IAtWgt=          16           1           1           1           1          12          12          12          12          12
 AtmWgt=  15.9949146   1.0078250   1.0078250   1.0078250   1.0078250  12.0000000  12.0000000  12.0000000  12.0000000  12.0000000
 NucSpn=           0           1           1           1           1           0           0           0           0           0
 AtZEff=  -0.0000000  -0.0000000  -0.0000000  -0.0000000  -0.0000000  -0.0000000  -0.0000000  -0.0000000  -0.0000000  -0.0000000
 NQMom=    0.0000000   0.0000000   0.0000000   0.0000000   0.0000000   0.0000000   0.0000000   0.0000000   0.0000000   0.0000000
 NMagM=    0.0000000   2.7928460   2.7928460   2.7928460   2.7928460   0.0000000   0.0000000   0.0000000   0.0000000   0.0000000
 AtZNuc=   8.0000000   1.0000000   1.0000000   1.0000000   1.0000000   6.0000000   6.0000000   6.0000000   6.0000000   6.0000000

  Atom        31          32          33          34          35          36          37
 IAtWgt=          12          16          16           1           1           1           1
 AtmWgt=  12.0000000  15.9949146  15.9949146   1.0078250   1.0078250   1.0078250   1.0078250
 NucSpn=           0           0           0           1           1           1           1
 AtZEff=  -0.0000000  -0.0000000  -0.0000000  -0.0000000  -0.0000000  -0.0000000  -0.0000000
 NQMom=    0.0000000   0.0000000   0.0000000   0.0000000   0.0000000   0.0000000   0.0000000
 NMagM=    0.0000000   0.0000000   0.0000000   2.7928460   2.7928460   2.7928460   2.7928460
 AtZNuc=   6.0000000   8.0000000   8.0000000   1.0000000   1.0000000   1.0000000   1.0000000
 Leave Link  101 at Thu Sep 26 10:45:31 2024, MaxMem= 13421772800 cpu:               0.4 elap:               0.1
 (Enter /gpfs/fs1/soft/improv/software/custom-built/gaussian/g16/l103.exe)

 GradGradGradGradGradGradGradGradGradGradGradGradGradGradGradGradGradGrad
 Berny optimization.
 Initialization pass.
 No Z-matrix variables, so optimization will use Cartesian coordinates.
 Trust Radius=3.00D-01 FncErr=1.00D-07 GrdErr=1.00D-06 EigMax=2.50D+02 EigMin=1.00D-04
 Number of steps in this run=    222 maximum allowed number of steps=    222.
 GradGradGradGradGradGradGradGradGradGradGradGradGradGradGradGradGradGrad

 Leave Link  103 at Thu Sep 26 10:45:31 2024, MaxMem= 13421772800 cpu:               0.4 elap:               0.0
 (Enter /gpfs/fs1/soft/improv/software/custom-built/gaussian/g16/l202.exe)
 ---------------------------------------------------------------------------------------------------
                            Z-MATRIX (ANGSTROMS AND DEGREES)
   CD    Cent   Atom    N1       Length/X        N2       Alpha/Y        N3        Beta/Z          J
 ---------------------------------------------------------------------------------------------------
      1      1  C        0  -2.264897         -0.821135          0.056674
      2      2  C        0  -2.823116          0.374313          0.454279
      3      3  C        0  -2.000122          1.462103          0.853326
      4      4  C        0  -0.621064          1.297525          0.748680
      5      5  C        0  -0.028259         -0.000762          0.312952
      6      6  C        0  -0.879160         -1.051673         -0.034249
      7      7  O        0   1.256547         -0.001978          0.326743
      8      8  O        0   0.275531          2.211085          1.016599
      9      9  H        0  -2.917144         -1.623754         -0.217423
     10     10  H        0  -3.910460          0.465276          0.461436
     11     11  H        0  -2.411805          2.372655          1.197750
     12     12  H        0  -0.501602         -1.996221         -0.337664
     13     13  Fe       0   1.961380          1.698294          0.510436
     14     14  C        0   3.434752          2.722587          5.200742
     15     15  C        0   3.538256          4.006612          4.659416
     16     16  C        0   3.293475          4.265068          3.299074
     17     17  C        0   2.970198          3.200668          2.459113
     18     18  C        0   2.859269          1.837486          3.027526
     19     19  C        0   3.119060          1.598711          4.375238
     20     20  O        0   2.530784          0.980335          2.115219
     21     21  O        0   2.715319          3.260261          1.169129
     22     22  H        0   3.609166          2.605849          6.244550
     23     23  H        0   3.807559          4.846817          5.290944
     24     24  H        0   3.340062          5.274577          2.908895
     25     25  H        0   3.094911          0.607872          4.773205
     26     26  C        0   3.969742          1.386903         -4.017670
     27     27  C        0   2.873075          2.213830         -4.331097
     28     28  C        0   1.906337          2.600869         -3.343639
     29     29  C        0   2.083357          2.190612         -2.048240
     30     30  C        0   3.328049          1.363508         -1.702827
     31     31  C        0   4.228553          0.957865         -2.701321
     32     32  O        0   3.399491          1.082936         -0.465603
     33     33  O        0   1.283904          2.471119         -1.035879
     34     34  H        0   4.648983          1.060797         -4.795645
     35     35  H        0   2.736251          2.544413         -5.333798
     36     36  H        0   1.078048          3.216687         -3.613683
     37     37  H        0   5.083510          0.315359         -2.477491
 ---------------------------------------------------------------------------------------------------
                         Z-Matrix orientation:                         
 ---------------------------------------------------------------------
 Center     Atomic      Atomic             Coordinates (Angstroms)
 Number     Number       Type             X           Y           Z
 ---------------------------------------------------------------------
      1          6           0       -2.264897   -0.821135    0.056674
      2          6           0       -2.823116    0.374313    0.454279
      3          6           0       -2.000122    1.462103    0.853326
      4          6           0       -0.621064    1.297525    0.748680
      5          6           0       -0.028259   -0.000762    0.312952
      6          6           0       -0.879160   -1.051673   -0.034249
      7          8           0        1.256547   -0.001978    0.326743
      8          8           0        0.275531    2.211085    1.016599
      9          1           0       -2.917144   -1.623754   -0.217423
     10          1           0       -3.910460    0.465276    0.461436
     11          1           0       -2.411805    2.372655    1.197750
     12          1           0       -0.501602   -1.996221   -0.337664
     13         26           0        1.961380    1.698294    0.510436
     14          6           0        3.434752    2.722587    5.200742
     15          6           0        3.538256    4.006612    4.659416
     16          6           0        3.293475    4.265068    3.299074
     17          6           0        2.970198    3.200668    2.459113
     18          6           0        2.859269    1.837486    3.027526
     19          6           0        3.119060    1.598711    4.375238
     20          8           0        2.530784    0.980335    2.115219
     21          8           0        2.715319    3.260261    1.169129
     22          1           0        3.609166    2.605849    6.244550
     23          1           0        3.807559    4.846817    5.290944
     24          1           0        3.340062    5.274577    2.908895
     25          1           0        3.094911    0.607872    4.773205
     26          6           0        3.969742    1.386903   -4.017670
     27          6           0        2.873075    2.213830   -4.331097
     28          6           0        1.906337    2.600869   -3.343639
     29          6           0        2.083357    2.190612   -2.048240
     30          6           0        3.328049    1.363508   -1.702827
     31          6           0        4.228553    0.957865   -2.701321
     32          8           0        3.399491    1.082936   -0.465603
     33          8           0        1.283904    2.471119   -1.035879
     34          1           0        4.648983    1.060797   -4.795645
     35          1           0        2.736251    2.544413   -5.333798
     36          1           0        1.078048    3.216687   -3.613683
     37          1           0        5.083510    0.315359   -2.477491
 ---------------------------------------------------------------------
                    Distance matrix (angstroms):
                    1          2          3          4          5
     1  C    0.000000
     2  C    1.377968   0.000000
     3  C    2.432681   1.421213   0.000000
     4  C    2.769437   2.405832   1.392781   0.000000
     5  C    2.396089   2.823452   2.514005   1.492255   0.000000
     6  C    1.407722   2.459891   2.891958   2.489643   1.396064
     7  O    3.625537   4.098965   3.609254   2.322102   1.284880
     8  O    4.070576   3.645758   2.401297   1.307767   2.340870
     9  H    1.069931   2.110047   3.392632   3.839168   3.355750
    10  H    2.127572   1.091165   2.190121   3.405183   3.912892
    11  H    3.394691   2.171473   1.056983   2.136427   3.478112
    12  H    2.155351   3.411163   3.952724   3.470328   2.151561
    13  Fe   4.941138   4.964624   3.983323   2.624194   2.623824
    14  C    8.456086   8.197818   7.072955   6.188805   6.580240
    15  C    8.841321   8.446528   7.185714   6.319253   6.904406
    16  C    8.202324   7.787395   6.469967   5.534839   6.176418
    17  C    7.025157   6.750566   5.505020   4.409615   4.883227
    18  C    6.492404   6.407182   5.336829   4.194928   4.368740
    19  C    7.313866   7.223748   6.215187   5.218349   5.382016
    20  O    5.521002   5.638283   4.727958   3.449955   3.280155
    21  O    6.534363   6.286014   5.056529   3.893656   4.346783
    22  H    9.194490   8.937631   7.863687   7.057702   7.430285
    23  H    9.818248   9.346790   8.054682   7.269274   7.936808
    24  H    8.758336   8.247576   6.875892   6.014482   6.775965
    25  H    7.281158   7.330124   6.484946   5.520950   5.478912
    26  C    7.768297   8.195523   7.705293   6.618276   6.055073
    27  C    7.406909   7.663566   7.154816   6.233197   5.906720
    28  C    6.377416   6.461382   5.845659   4.983325   4.886901
    29  C    5.692855   5.799572   5.062077   3.991774   3.851788
    30  C    6.256960   6.593060   5.910418   4.648626   4.146010
    31  C    7.275731   7.747540   7.189309   5.961263   5.303325
    32  O    5.998628   6.330021   5.571280   4.205400   3.678317
    33  O    4.962520   4.846110   3.920719   2.861971   3.106656
    34  H    8.653808   9.157796   8.733987   7.653036   7.007229
    35  H    8.086754   8.313708   7.866711   7.058529   6.782788
    36  H    6.399282   6.312407   5.701567   5.059681   5.195609
    37  H    7.855743   8.432882   7.911208   6.626839   5.832383
                    6          7          8          9         10
     6  C    0.000000
     7  O    2.406952   0.000000
     8  O    3.617068   2.517129   0.000000
     9  H    2.124667   4.510650   5.140231   0.000000
    10  H    3.425729   5.189839   4.569307   2.410721   0.000000
    11  H    3.948778   4.455821   2.698277   4.269586   2.534998
    12  H    1.061499   2.740352   4.487693   2.447046   4.279935
    13  Fe   3.990948   1.849718   1.833370   5.946913   6.000103
    14  C    7.762732   5.993638   5.267766   9.412426   9.028211
    15  C    8.193308   6.328273   5.209550   9.856813   9.254591
    16  C    7.535892   5.584936   4.305407   9.252879   8.624806
    17  C    6.254344   4.211952   3.212686   8.068438   7.669194
    18  C    5.630059   3.639585   3.295316   7.475081   7.368650
    19  C    6.515664   4.735131   4.443097   8.240908   8.125064
    20  O    4.514088   2.405673   2.794258   6.473208   6.670076
    21  O    5.741182   3.671489   2.660188   7.582926   7.225905
    22  H    8.540835   6.881571   6.212925  10.111348   9.724774
    23  H    9.225790   7.393360   6.139408  10.836606  10.103953
    24  H    8.153856   6.233023   4.728332   9.824127   9.038224
    25  H    6.454374   4.850002   4.962991   8.125966   8.227205
    26  C    6.732469   5.307009   6.298439   8.422299   9.110948
    27  C    6.573102   5.405409   5.945174   8.073165   8.487765
    28  C    5.661458   4.546289   4.671524   7.133487   7.271484
    29  C    4.831675   3.336407   3.558356   6.550289   6.723176
    30  C    5.130093   3.205437   4.175108   7.080437   7.608341
    31  C    6.102478   4.350091   5.569548   7.993465   8.745810
    32  O    4.800986   2.529241   3.637137   6.876600   7.394341
    33  O    4.253490   2.823773   2.301543   5.923400   5.766002
    34  H    7.595642   6.235140   7.364267   9.241926  10.062584
    35  H    7.354471   6.380859   6.818636   8.689752   9.060150
    36  H    5.904397   5.091034   4.805703   7.136246   7.004431
    37  H    6.587233   4.755006   6.238518   8.536892   9.463153
                   11         12         13         14         15
    11  H    0.000000
    12  H    5.009336   0.000000
    13  Fe   4.477937   4.520508   0.000000
    14  C    7.094267   8.272603   5.021849   0.000000
    15  C    7.075039   8.793478   5.002890   1.397307   0.000000
    16  C    6.367654   8.175097   4.017376   2.452661   1.406146
    17  C    5.589509   6.847117   2.659358   2.821506   2.411134
    18  C    5.605240   6.108786   2.676065   2.416081   2.798069
    19  C    6.425410   6.945802   4.035695   1.429761   2.460583
    20  O    5.216272   4.906310   1.847976   3.656918   4.079987
    21  O    5.203467   6.344257   1.855274   4.130445   3.662836
    22  H    7.859814   9.022361   6.034809   1.064699   2.116558
    23  H    7.845777   9.852779   6.014552   2.158582   1.085033
    24  H    6.665820   8.840986   4.521413   3.431353   2.170562
    25  H    6.798695   6.770316   4.543689   2.184102   3.429423
    26  C    8.300389   6.706779   4.963287   9.330026   9.074187
    27  C    7.650054   6.712710   4.953524   9.561918   9.191619
    28  C    6.270777   5.997274   3.958732   8.680858   8.287831
    29  C    5.547619   5.209382   2.608463   7.393038   7.099805
    30  C    6.509811   5.274246   2.622669   7.036884   6.892627
    31  C    7.829351   6.057051   4.000461   8.135537   7.996987
    32  O    6.180718   4.971529   1.843767   5.898911   5.901944
    33  O    4.319382   4.861344   1.856696   6.601880   6.314762
    34  H    9.353955   7.466423   5.981981  10.206060   9.965426
    35  H    8.318239   7.487484   5.955788  10.559175  10.131414
    36  H    6.003444   6.356257   4.482649   9.137410   8.667223
    37  H    8.597651   6.412155   4.537390   8.213916   8.182212
                   16         17         18         19         20
    16  C    0.000000
    17  C    1.393912   0.000000
    18  C    2.481012   1.481102   0.000000
    19  C    2.880626   2.501991   1.393137   0.000000
    20  O    3.573889   2.289372   1.294186   2.415811   0.000000
    21  O    2.424988   1.316273   2.344919   3.633578   2.475318
    22  H    3.395364   3.884794   3.391455   2.179188   4.566901
    23  H    2.137817   3.380865   3.883090   3.444233   5.163823
    24  H    1.083291   2.154113   3.472582   3.963710   4.441325
    25  H    3.948110   3.477523   2.148225   1.068046   2.742600
    26  C    7.891509   6.799820   7.146395   8.438567   6.312545
    27  C    7.912258   6.862233   7.368254   8.731503   6.572188
    28  C    6.987084   5.929881   6.487108   7.877568   5.728454
    29  C    5.861870   4.703503   5.146858   6.533307   4.358825
    30  C    5.782668   4.563437   4.777096   6.086203   3.919174
    31  C    6.914962   5.765735   5.955532   7.191616   5.107052
    32  O    4.930516   3.636350   3.614296   4.876310   2.725035
    33  O    5.103767   3.948518   4.403921   5.780058   3.702238
    34  H    8.810745   7.747831   8.062774   9.313168   7.228643
    35  H    8.820297   7.823993   8.392057   9.762493   7.614224
    36  H    7.334400   6.360766   7.012888   8.402763   6.319179
    37  H    7.223097   6.095995   6.129383   7.243338   5.296375
                   21         22         23         24         25
    21  O    0.000000
    22  H    5.194912   0.000000
    23  H    4.549671   2.443494   0.000000
    24  H    2.733964   4.280318   2.464892   0.000000
    25  H    4.490948   2.534014   4.329501   5.031291   0.000000
    26  C    5.655611  10.340648   9.932150   7.967924   8.868579
    27  C    5.601107  10.608479  10.019459   7.874245   9.247520
    28  C    4.631881   9.738224   9.122223   6.949709   8.442031
    29  C    3.448912   8.442209   7.993243   5.971879   7.075339
    30  C    3.495889   8.048803   7.827912   6.046865   6.524134
    31  C    4.750925   9.117461   8.898173   7.134279   7.568102
    32  O    2.807344   6.883994   6.889931   5.381507   5.269113
    33  O    2.744768   7.643928   7.213977   5.258175   6.363716
    34  H    6.644940  11.196174  10.806536   8.878578   9.704801
    35  H    6.542243  11.611370  10.924006   8.704043  10.297103
    36  H    5.055477  10.196295   9.455154   7.203863   9.011855
    37  H    5.251535   9.137507   9.083543   7.526394   7.524140
                   26         27         28         29         30
    26  C    0.000000
    27  C    1.408803   0.000000
    28  C    2.487102   1.435080   0.000000
    29  C    2.843071   2.415704   1.370293   0.000000
    30  C    2.402252   2.799617   2.498917   1.533841   0.000000
    31  C    1.408485   2.463927   2.916285   2.558914   1.404438
    32  O    3.610369   4.061783   3.580045   2.337498   1.270649
    33  O    4.156962   3.667441   2.393745   1.320108   2.418708
    34  H    1.083032   2.167750   3.464426   3.925194   3.376689
    35  H    2.143251   1.064620   2.157007   3.368432   3.863769
    36  H    3.445753   2.177735   1.066874   2.124638   3.485419
    37  H    2.181933   3.453414   4.008515   3.563951   2.186405
                   31         32         33         34         35
    31  C    0.000000
    32  O    2.387766   0.000000
    33  O    3.706021   2.593834   0.000000
    34  H    2.138586   4.506771   5.239142   0.000000
    35  H    3.416728   5.125927   4.537267   2.479772   0.000000
    36  H    3.982507   4.455603   2.691342   4.335490   2.482013
    37  H    1.092642   2.733641   4.600277   2.473525   4.317035
                   36         37
    36  H    0.000000
    37  H    5.074679   0.000000
 Stoichiometry    C18H12FeO6(4-)
 Framework group  C1[X(C18H12FeO6)]
 Deg. of freedom   105
 Full point group                 C1      NOp   1
 Largest Abelian subgroup         C1      NOp   1
 Largest concise Abelian subgroup C1      NOp   1
                         Standard orientation:                         
 ---------------------------------------------------------------------
 Center     Atomic      Atomic             Coordinates (Angstroms)
 Number     Number       Type             X           Y           Z
 ---------------------------------------------------------------------
      1          6           0        1.777109    4.331225   -0.527164
      2          6           0        1.214170    4.508196    0.718058
      3          6           0        0.401490    3.496306    1.297260
      4          6           0        0.266891    2.300033    0.596794
      5          6           0        0.884647    2.118681   -0.749428
      6          6           0        1.644573    3.156673   -1.291720
      7          8           0        0.615937    0.980615   -1.281893
      8          8           0       -0.392834    1.248647    1.008627
      9          1           0        2.366428    5.123583   -0.939018
     10          1           0        1.401372    5.444205    1.246719
     11          1           0       -0.069388    3.630799    2.233956
     12          1           0        2.091830    3.076332   -2.251036
     13         26           0       -0.121370   -0.207809   -0.071321
     14          6           0       -5.115445   -0.567066   -0.457489
     15          6           0       -4.942227   -1.274738    0.734846
     16          6           0       -3.668283   -1.533279    1.271007
     17          6           0       -2.543029   -1.098271    0.572752
     18          6           0       -2.720760   -0.347814   -0.691720
     19          6           0       -3.990616   -0.113275   -1.214490
     20          8           0       -1.577425   -0.003314   -1.190740
     21          8           0       -1.284316   -1.256281    0.923819
     22          1           0       -6.110573   -0.386193   -0.790039
     23          1           0       -5.803412   -1.639543    1.284913
     24          1           0       -3.558738   -2.048754    2.217477
     25          1           0       -4.116655    0.377706   -2.154583
     26          6           0        3.848111   -3.155884   -0.502938
     27          6           0        4.158047   -2.567353    0.738955
     28          6           0        3.318388   -1.569440    1.337786
     29          6           0        2.157247   -1.214164    0.702779
     30          6           0        1.787550   -1.925242   -0.605028
     31          6           0        2.655489   -2.860658   -1.191649
     32          8           0        0.670336   -1.539255   -1.071286
     33          8           0        1.287149   -0.319547    1.133216
     34          1           0        4.531323   -3.861181   -0.959813
     35          1           0        5.053547   -2.847230    1.242107
     36          1           0        3.586232   -1.131162    2.272875
     37          1           0        2.432775   -3.326029   -2.154817
 ---------------------------------------------------------------------
 Rotational constants (GHZ):           0.2705197           0.1989383           0.1348107
 Leave Link  202 at Thu Sep 26 10:45:31 2024, MaxMem= 13421772800 cpu:               0.5 elap:               0.0
 (Enter /gpfs/fs1/soft/improv/software/custom-built/gaussian/g16/l301.exe)
 Standard basis: STO-3G (5D, 7F)
 Ernie: Thresh=  0.10000D-02 Tol=  0.10000D-05 Strict=F.
 There are   151 symmetry adapted cartesian basis functions of A   symmetry.
 There are   150 symmetry adapted basis functions of A   symmetry.
   150 basis functions,   453 primitive gaussians,   151 cartesian basis functions
    99 alpha electrons       99 beta electrons
       nuclear repulsion energy      2745.6823977925 Hartrees.
 IExCor=  402 DFT=T Ex+Corr=B3LYP ExCW=0 ScaHFX=  0.200000
 ScaDFX=  0.800000  0.720000  1.000000  0.810000 ScalE2=  1.000000  1.000000
 IRadAn=      5 IRanWt=     -1 IRanGd=            0 ICorTp=0 IEmpDi=131
 NAtoms=   37 NActive=   37 NUniq=   37 SFac= 1.00D+00 NAtFMM=   60 NAOKFM=F Big=F
 Integral buffers will be    131072 words long.
 Raffenetti 2 integral format.
 Two-electron integral symmetry is turned on.
 R6Disp:  Grimme-D3 Dispersion energy=       -0.0350403915 Hartrees.
 Nuclear repulsion after empirical dispersion term =     2745.6473574010 Hartrees.
 Leave Link  301 at Thu Sep 26 10:45:31 2024, MaxMem= 13421772800 cpu:               0.4 elap:               0.1
 (Enter /gpfs/fs1/soft/improv/software/custom-built/gaussian/g16/l302.exe)
 NPDir=0 NMtPBC=     1 NCelOv=     1 NCel=       1 NClECP=     1 NCelD=      1
         NCelK=      1 NCelE2=     1 NClLst=     1 CellRange=     0.0.
 One-electron integrals computed using PRISM.
 One-electron integral symmetry used in STVInt
 NBasis=   150 RedAO= T EigKep=  1.78D-01  NBF=   150
 NBsUse=   150 1.00D-06 EigRej= -1.00D+00 NBFU=   150
 Precomputing XC quadrature grid using
 IXCGrd= 4 IRadAn=           5 IRanWt=          -1 IRanGd=           0 AccXCQ= 0.00D+00.
 Generated NRdTot=       0 NPtTot=           0 NUsed=           0 NTot=          32
 NSgBfM=   146   146   146   146   146 MxSgAt=    37 MxSgA2=    37.
 Leave Link  302 at Thu Sep 26 10:45:32 2024, MaxMem= 13421772800 cpu:              11.9 elap:               0.2
 (Enter /gpfs/fs1/soft/improv/software/custom-built/gaussian/g16/l303.exe)
 DipDrv:  MaxL=1.
 Leave Link  303 at Thu Sep 26 10:45:32 2024, MaxMem= 13421772800 cpu:               0.6 elap:               0.0
 (Enter /gpfs/fs1/soft/improv/software/custom-built/gaussian/g16/l401.exe)
 ExpMin= 9.65D-02 ExpMax= 1.45D+03 ExpMxC= 1.45D+03 IAcc=3 IRadAn=         5 AccDes= 0.00D+00
 Harris functional with IExCor=  402 and IRadAn=       5 diagonalized for initial guess.
 HarFok:  IExCor=  402 AccDes= 0.00D+00 IRadAn=         5 IDoV= 1 UseB2=F ITyADJ=14
 ICtDFT=  3500011 ScaDFX=  1.000000  1.000000  1.000000  1.000000
 FoFCou: FMM=F IPFlag=           0 FMFlag=      100000 FMFlg1=           0
         NFxFlg=           0 DoJE=T BraDBF=F KetDBF=T FulRan=T
         wScrn=  0.000000 ICntrl=       500 IOpCl=  0 I1Cent=   200000004 NGrid=           0
         NMat0=    1 NMatS0=      1 NMatT0=    0 NMatD0=    1 NMtDS0=    0 NMtDT0=    0
 Petite list used in FoFCou.
 Harris En= -2381.01369934553    
 JPrj=0 DoOrth=F DoCkMO=F.
 Leave Link  401 at Thu Sep 26 10:45:33 2024, MaxMem= 13421772800 cpu:              18.3 elap:               0.3
 (Enter /gpfs/fs1/soft/improv/software/custom-built/gaussian/g16/l502.exe)
 Integral symmetry usage will be decided dynamically.
 Closed shell SCF:
 Using DIIS extrapolation, IDIIS=  1040.
 NGot= 13421772800 LenX= 13421704437 LenY= 13421681195
 Requested convergence on RMS density matrix=1.00D-08 within  50 cycles.
 Requested convergence on MAX density matrix=1.00D-06.
 Requested convergence on             energy=1.00D-06.
 No special actions if energy rises.
 Fock matrices will be formed incrementally for  20 cycles.
 Integral accuracy reduced to 1.0D-05 until final iterations.

 Cycle   1  Pass 0  IDiag  1:
 FoFJK:  IHMeth= 1 ICntrl=       0 DoSepK=F KAlg= 0 I1Cent=           0 FoldK=F
 IRaf= 800000000 NMat=       1 IRICut=       1 DoRegI=T DoRafI=F ISym2E= 0 IDoP0=0 IntGTp=1.
 FoFCou: FMM=F IPFlag=           0 FMFlag=      100000 FMFlg1=           0
         NFxFlg=           0 DoJE=F BraDBF=F KetDBF=F FulRan=T
         wScrn=  0.000000 ICntrl=         0 IOpCl=  0 I1Cent=           0 NGrid=           0
         NMat0=    1 NMatS0=      1 NMatT0=    0 NMatD0=    1 NMtDS0=    0 NMtDT0=    0
 Symmetry not used in FoFCou.
 E= -2368.92821873424    
 DIIS: error= 1.93D-01 at cycle   1 NSaved=   1.
 NSaved= 1 IEnMin= 1 EnMin= -2368.92821873424     IErMin= 1 ErrMin= 1.93D-01
 ErrMax= 1.93D-01  0.00D+00 EMaxC= 1.00D-01 BMatC= 4.10D+00 BMatP= 4.10D+00
 IDIUse=3 WtCom= 0.00D+00 WtEn= 1.00D+00
 Coeff-Com:  0.100D+01
 Coeff-En:   0.100D+01
 Coeff:      0.100D+01
 Gap=     0.006 Goal=   None    Shift=    0.000
 GapD=    0.006 DampG=0.250 DampE=0.125 DampFc=0.1250 IDamp=-1.
 Damping current iteration by 1.25D-01
 RMSDP=5.52D-02 MaxDP=2.25D+00              OVMax= 0.00D+00

 Cycle   2  Pass 0  IDiag  1:
 RMSU=  6.86D-03    CP:  9.89D-01
 E= -2372.81392808267     Delta-E=       -3.885709348429 Rises=F Damp=T
 DIIS: error= 1.26D-01 at cycle   2 NSaved=   2.
 NSaved= 2 IEnMin= 2 EnMin= -2372.81392808267     IErMin= 2 ErrMin= 1.26D-01
 ErrMax= 1.26D-01  0.00D+00 EMaxC= 1.00D-01 BMatC= 1.63D+00 BMatP= 4.10D+00
 IDIUse=3 WtCom= 0.00D+00 WtEn= 1.00D+00
 Coeff-Com: -0.118D+01 0.218D+01
 Coeff-En:   0.000D+00 0.100D+01
 Coeff:      0.000D+00 0.100D+01
 Gap=     0.034 Goal=   None    Shift=    0.000
 RMSDP=2.56D-02 MaxDP=8.66D-01 DE=-3.89D+00 OVMax= 0.00D+00

 Cycle   3  Pass 0  IDiag  1:
 RMSU=  2.32D-02    CP:  9.13D-01  2.42D+00
 E= -2363.85963928979     Delta-E=        8.954288792886 Rises=F Damp=F
 DIIS: error= 1.29D-01 at cycle   3 NSaved=   3.
 NSaved= 3 IEnMin= 2 EnMin= -2372.81392808267     IErMin= 2 ErrMin= 1.26D-01
 ErrMax= 1.29D-01  0.00D+00 EMaxC= 1.00D-01 BMatC= 3.60D+00 BMatP= 1.63D+00
 IDIUse=2 WtCom= 0.00D+00 WtEn= 1.00D+00
 EnCoef did   100 forward-backward iterations
 Coeff-En:   0.541D+00 0.214D-01 0.437D+00
 Coeff:      0.541D+00 0.214D-01 0.437D+00
 Gap=    -0.218 Goal=   None    Shift=    0.000
 RMSDP=2.43D-02 MaxDP=6.43D-01 DE= 8.95D+00 OVMax= 0.00D+00

 Cycle   4  Pass 0  IDiag  1:
 RMSU=  1.83D-02    CP:  9.28D-01  7.51D-01  5.17D-01
 E= -2372.83637872221     Delta-E=       -8.976739432418 Rises=F Damp=F
 DIIS: error= 2.77D-01 at cycle   4 NSaved=   4.
 NSaved= 4 IEnMin= 4 EnMin= -2372.83637872221     IErMin= 2 ErrMin= 1.26D-01
 ErrMax= 2.77D-01  0.00D+00 EMaxC= 1.00D-01 BMatC= 4.75D+00 BMatP= 1.63D+00
 IDIUse=2 WtCom= 0.00D+00 WtEn= 1.00D+00
 EnCoef did   100 forward-backward iterations
 Coeff-En:   0.468D+00 0.142D-01 0.282D+00 0.235D+00
 Coeff:      0.468D+00 0.142D-01 0.282D+00 0.235D+00
 Gap=    -0.133 Goal=   None    Shift=    0.000
 RMSDP=1.63D-02 MaxDP=3.97D-01 DE=-8.98D+00 OVMax= 0.00D+00

 Cycle   5  Pass 0  IDiag  1:
 RMSU=  1.18D-02    CP:  9.33D-01  9.95D-01  5.67D-01  3.95D-01
 E= -2377.37390277364     Delta-E=       -4.537524051431 Rises=F Damp=F
 DIIS: error= 1.19D-01 at cycle   5 NSaved=   5.
 NSaved= 5 IEnMin= 5 EnMin= -2377.37390277364     IErMin= 5 ErrMin= 1.19D-01
 ErrMax= 1.19D-01  0.00D+00 EMaxC= 1.00D-01 BMatC= 9.77D-01 BMatP= 1.63D+00
 IDIUse=3 WtCom= 0.00D+00 WtEn= 1.00D+00
 EnCoef did   100 forward-backward iterations
 Coeff-Com: -0.980D-02 0.463D+00 0.593D-01 0.128D+00 0.360D+00
 Coeff-En:   0.244D+00 0.819D-02 0.000D+00 0.183D-03 0.747D+00
 Coeff:      0.244D+00 0.819D-02 0.000D+00 0.183D-03 0.747D+00
 Gap=     0.227 Goal=   None    Shift=    0.000
 RMSDP=1.89D-02 MaxDP=5.90D-01 DE=-4.54D+00 OVMax= 0.00D+00

 Cycle   6  Pass 0  IDiag  1:
 RMSU=  1.24D-02    CP:  9.67D-01  2.49D-01  2.61D-01  4.66D-01  6.12D-02
 E= -2373.30811114833     Delta-E=        4.065791625309 Rises=F Damp=F
 DIIS: error= 4.03D-01 at cycle   6 NSaved=   6.
 NSaved= 6 IEnMin= 5 EnMin= -2377.37390277364     IErMin= 5 ErrMin= 1.19D-01
 ErrMax= 4.03D-01  0.00D+00 EMaxC= 1.00D-01 BMatC= 5.48D+00 BMatP= 9.77D-01
 IDIUse=2 WtCom= 0.00D+00 WtEn= 1.00D+00
 EnCoef did    35 forward-backward iterations
 Coeff-En:   0.570D-01 0.000D+00 0.000D+00 0.000D+00 0.691D+00 0.252D+00
 Coeff:      0.570D-01 0.000D+00 0.000D+00 0.000D+00 0.691D+00 0.252D+00
 Gap=     0.014 Goal=   None    Shift=    0.000
 RMSDP=1.77D-02 MaxDP=4.01D-01 DE= 4.07D+00 OVMax= 0.00D+00

 Cycle   7  Pass 0  IDiag  1:
 RMSU=  1.21D-02    CP:  9.74D-01  2.86D-01  2.05D-01  2.60D-02  4.19D-01
                    CP:  2.61D-01
 E= -2371.21725295423     Delta-E=        2.090858194100 Rises=F Damp=F
 DIIS: error= 3.60D-01 at cycle   7 NSaved=   7.
 NSaved= 7 IEnMin= 5 EnMin= -2377.37390277364     IErMin= 5 ErrMin= 1.19D-01
 ErrMax= 3.60D-01  0.00D+00 EMaxC= 1.00D-01 BMatC= 5.80D+00 BMatP= 9.77D-01
 IDIUse=2 WtCom= 0.00D+00 WtEn= 1.00D+00
 EnCoef did    11 forward-backward iterations
 Coeff-En:   0.000D+00 0.000D+00 0.000D+00 0.000D+00 0.680D+00 0.214D+00
 Coeff-En:   0.106D+00
 Coeff:      0.000D+00 0.000D+00 0.000D+00 0.000D+00 0.680D+00 0.214D+00
 Coeff:      0.106D+00
 Gap=    -0.012 Goal=   None    Shift=    0.000
 RMSDP=1.60D-02 MaxDP=5.70D-01 DE= 2.09D+00 OVMax= 0.00D+00

 Cycle   8  Pass 0  IDiag  1:
 RMSU=  7.52D-03    CP:  9.51D-01  6.37D-01  4.16D-01  3.92D-01  6.79D-01
                    CP:  4.01D-01  1.29D-01
 E= -2378.52731935772     Delta-E=       -7.310066403493 Rises=F Damp=F
 DIIS: error= 8.87D-02 at cycle   8 NSaved=   8.
 NSaved= 8 IEnMin= 8 EnMin= -2378.52731935772     IErMin= 8 ErrMin= 8.87D-02
 ErrMax= 8.87D-02  0.00D+00 EMaxC= 1.00D-01 BMatC= 2.43D-01 BMatP= 9.77D-01
 IDIUse=3 WtCom= 1.13D-01 WtEn= 8.87D-01
 Coeff-Com:  0.431D-01 0.113D+00 0.320D-01 0.438D-01 0.260D+00-0.299D-01
 Coeff-Com: -0.169D-01 0.555D+00
 Coeff-En:   0.000D+00 0.000D+00 0.000D+00 0.000D+00 0.247D+00 0.000D+00
 Coeff-En:   0.000D+00 0.753D+00
 Coeff:      0.486D-02 0.127D-01 0.361D-02 0.494D-02 0.249D+00-0.337D-02
 Coeff:     -0.190D-02 0.730D+00
 Gap=     0.079 Goal=   None    Shift=    0.000
 RMSDP=7.70D-03 MaxDP=2.11D-01 DE=-7.31D+00 OVMax= 0.00D+00

 Cycle   9  Pass 0  IDiag  1:
 RMSU=  4.92D-03    CP:  9.41D-01  7.90D-01  5.07D-01  4.01D-01  8.57D-01
                    CP:  2.40D-01  1.54D-01  3.97D-01
 E= -2378.56732988053     Delta-E=       -0.040010522812 Rises=F Damp=F
 DIIS: error= 3.72D-02 at cycle   9 NSaved=   9.
 NSaved= 9 IEnMin= 9 EnMin= -2378.56732988053     IErMin= 9 ErrMin= 3.72D-02
 ErrMax= 3.72D-02  0.00D+00 EMaxC= 1.00D-01 BMatC= 1.38D-01 BMatP= 2.43D-01
 IDIUse=3 WtCom= 6.28D-01 WtEn= 3.72D-01
 Coeff-Com: -0.125D-01 0.895D-01 0.638D-02 0.808D-02 0.250D-01-0.265D-01
 Coeff-Com:  0.564D-02 0.392D+00 0.512D+00
 Coeff-En:   0.000D+00 0.000D+00 0.000D+00 0.000D+00 0.000D+00 0.000D+00
 Coeff-En:   0.000D+00 0.470D+00 0.530D+00
 Coeff:     -0.782D-02 0.562D-01 0.401D-02 0.507D-02 0.157D-01-0.167D-01
 Coeff:      0.354D-02 0.421D+00 0.519D+00
 Gap=     0.090 Goal=   None    Shift=    0.000
 RMSDP=4.38D-03 MaxDP=6.81D-02 DE=-4.00D-02 OVMax= 0.00D+00

 Cycle  10  Pass 0  IDiag  1:
 RMSU=  2.14D-03    CP:  9.40D-01  8.10D-01  5.12D-01  4.30D-01  8.55D-01
                    CP:  2.05D-01  6.04D-02  5.80D-01  3.29D-01
 E= -2378.57439801640     Delta-E=       -0.007068135867 Rises=F Damp=F
 DIIS: error= 4.37D-02 at cycle  10 NSaved=  10.
 NSaved=10 IEnMin=10 EnMin= -2378.57439801640     IErMin= 9 ErrMin= 3.72D-02
 ErrMax= 4.37D-02  0.00D+00 EMaxC= 1.00D-01 BMatC= 1.44D-01 BMatP= 1.38D-01
 IDIUse=3 WtCom= 6.28D-01 WtEn= 3.72D-01
 EnCoef did     6 forward-backward iterations
 Coeff-Com: -0.349D-01 0.690D-01 0.125D-02-0.639D-02-0.692D-01-0.806D-02
 Coeff-Com:  0.143D-01 0.326D+00 0.320D+00 0.388D+00
 Coeff-En:   0.000D+00 0.000D+00 0.000D+00 0.000D+00 0.000D+00 0.000D+00
 Coeff-En:   0.000D+00 0.445D+00 0.280D+00 0.275D+00
 Coeff:     -0.219D-01 0.433D-01 0.787D-03-0.401D-02-0.434D-01-0.506D-02
 Coeff:      0.896D-02 0.370D+00 0.305D+00 0.346D+00
 Gap=     0.049 Goal=   None    Shift=    0.000
 RMSDP=3.16D-03 MaxDP=7.60D-02 DE=-7.07D-03 OVMax= 0.00D+00

 Cycle  11  Pass 0  IDiag  1:
 RMSU=  1.26D-03    CP:  9.45D-01  7.40D-01  4.75D-01  4.02D-01  8.04D-01
                    CP:  3.06D-01  1.31D-01  6.90D-01  6.38D-01  4.42D-01
 E= -2378.74344190966     Delta-E=       -0.169043893259 Rises=F Damp=F
 DIIS: error= 4.99D-03 at cycle  11 NSaved=  11.
 NSaved=11 IEnMin=11 EnMin= -2378.74344190966     IErMin=11 ErrMin= 4.99D-03
 ErrMax= 4.99D-03  0.00D+00 EMaxC= 1.00D-01 BMatC= 2.84D-03 BMatP= 1.38D-01
 IDIUse=3 WtCom= 9.50D-01 WtEn= 4.99D-02
 Coeff-Com: -0.435D-02 0.103D-01-0.159D-03 0.796D-03-0.250D-01-0.488D-02
 Coeff-Com:  0.227D-02 0.120D+00 0.398D-02 0.142D+00 0.755D+00
 Coeff-En:   0.000D+00 0.000D+00 0.000D+00 0.000D+00 0.000D+00 0.000D+00
 Coeff-En:   0.000D+00 0.285D-01 0.000D+00 0.000D+00 0.971D+00
 Coeff:     -0.413D-02 0.977D-02-0.151D-03 0.757D-03-0.238D-01-0.463D-02
 Coeff:      0.216D-02 0.115D+00 0.378D-02 0.135D+00 0.766D+00
 Gap=     0.057 Goal=   None    Shift=    0.000
 RMSDP=1.71D-03 MaxDP=3.04D-02 DE=-1.69D-01 OVMax= 0.00D+00

 Cycle  12  Pass 0  IDiag  1:
 RMSU=  1.25D-03    CP:  9.44D-01  7.54D-01  4.83D-01  4.04D-01  8.23D-01
                    CP:  2.74D-01  1.57D-01  6.97D-01  4.80D-01  5.36D-01
                    CP:  5.31D-01
 E= -2378.73353790786     Delta-E=        0.009904001803 Rises=F Damp=F
 DIIS: error= 1.39D-02 at cycle  12 NSaved=  12.
 NSaved=12 IEnMin=11 EnMin= -2378.74344190966     IErMin=11 ErrMin= 4.99D-03
 ErrMax= 1.39D-02  0.00D+00 EMaxC= 1.00D-01 BMatC= 1.28D-02 BMatP= 2.84D-03
 IDIUse=2 WtCom= 0.00D+00 WtEn= 1.00D+00
 EnCoef did     3 forward-backward iterations
 Coeff-En:   0.000D+00 0.000D+00 0.000D+00 0.000D+00 0.000D+00 0.000D+00
 Coeff-En:   0.000D+00 0.458D-01 0.000D+00 0.000D+00 0.710D+00 0.244D+00
 Coeff:      0.000D+00 0.000D+00 0.000D+00 0.000D+00 0.000D+00 0.000D+00
 Coeff:      0.000D+00 0.458D-01 0.000D+00 0.000D+00 0.710D+00 0.244D+00
 Gap=     0.029 Goal=   None    Shift=    0.000
 RMSDP=4.05D-03 MaxDP=1.46D-01 DE= 9.90D-03 OVMax= 0.00D+00

 Cycle  13  Pass 0  IDiag  1:
 RMSU=  1.39D-03    CP:  9.50D-01  6.40D-01  4.18D-01  3.71D-01  7.04D-01
                    CP:  3.94D-01  2.19D-01  9.46D-01  3.02D-01  3.20D-01
                    CP:  1.54D+00  5.94D-01
 E= -2378.44711608445     Delta-E=        0.286421823407 Rises=F Damp=F
 DIIS: error= 9.13D-02 at cycle  13 NSaved=  13.
 NSaved=13 IEnMin=11 EnMin= -2378.74344190966     IErMin=11 ErrMin= 4.99D-03
 ErrMax= 9.13D-02  0.00D+00 EMaxC= 1.00D-01 BMatC= 3.83D-01 BMatP= 2.84D-03
 IDIUse=2 WtCom= 0.00D+00 WtEn= 1.00D+00
 EnCoef did     3 forward-backward iterations
 Coeff-En:   0.000D+00 0.000D+00 0.000D+00 0.000D+00 0.000D+00 0.000D+00
 Coeff-En:   0.000D+00 0.000D+00 0.000D+00 0.000D+00 0.590D+00 0.338D+00
 Coeff-En:   0.713D-01
 Coeff:      0.000D+00 0.000D+00 0.000D+00 0.000D+00 0.000D+00 0.000D+00
 Coeff:      0.000D+00 0.000D+00 0.000D+00 0.000D+00 0.590D+00 0.338D+00
 Coeff:      0.713D-01
 Gap=     0.039 Goal=   None    Shift=    0.000
 RMSDP=2.38D-03 MaxDP=9.40D-02 DE= 2.86D-01 OVMax= 0.00D+00

 Problem detected with inexpensive integrals.
 Switching to full accuracy and repeating last cycle.
 Cycle  14  Pass 1  IDiag  1:
 E= -2378.44713694470     Delta-E=       -0.000020860254 Rises=F Damp=F
 DIIS: error= 9.13D-02 at cycle   1 NSaved=   1.
 NSaved= 1 IEnMin= 1 EnMin= -2378.44713694470     IErMin= 1 ErrMin= 9.13D-02
 ErrMax= 9.13D-02  0.00D+00 EMaxC= 1.00D-01 BMatC= 3.83D-01 BMatP= 3.83D-01
 IDIUse=3 WtCom= 8.75D-02 WtEn= 9.13D-01
 Coeff-Com:  0.100D+01
 Coeff-En:   0.100D+01
 Coeff:      0.100D+01
 Gap=     0.443 Goal=   None    Shift=    0.000
 GapD=    0.443 DampG=2.000 DampE=0.500 DampFc=1.0000 IDamp=-1.
 RMSDP=1.81D-02 MaxDP=7.81D-01 DE=-2.09D-05 OVMax= 0.00D+00

 Cycle  15  Pass 1  IDiag  1:
 RMSU=  1.79D-02    CP:  9.58D-01
 E= -2365.94580445550     Delta-E=       12.501332489203 Rises=F Damp=F
 DIIS: error= 1.24D-01 at cycle   2 NSaved=   2.
 NSaved= 2 IEnMin= 1 EnMin= -2378.44713694470     IErMin= 1 ErrMin= 9.13D-02
 ErrMax= 1.24D-01  0.00D+00 EMaxC= 1.00D-01 BMatC= 2.85D+00 BMatP= 3.83D-01
 IDIUse=2 WtCom= 0.00D+00 WtEn= 1.00D+00
 Coeff-En:   0.918D+00 0.816D-01
 Coeff:      0.918D+00 0.816D-01
 Gap=    -0.074 Goal=   None    Shift=    0.000
 RMSDP=1.43D-02 MaxDP=5.15D-01 DE= 1.25D+01 OVMax= 0.00D+00

 Cycle  16  Pass 1  IDiag  1:
 RMSU=  8.72D-03    CP:  9.79D-01  3.67D-01
 E= -2377.07775202459     Delta-E=      -11.131947569086 Rises=F Damp=F
 DIIS: error= 1.77D-01 at cycle   3 NSaved=   3.
 NSaved= 3 IEnMin= 1 EnMin= -2378.44713694470     IErMin= 1 ErrMin= 9.13D-02
 ErrMax= 1.77D-01  0.00D+00 EMaxC= 1.00D-01 BMatC= 1.35D+00 BMatP= 3.83D-01
 IDIUse=2 WtCom= 0.00D+00 WtEn= 1.00D+00
 Coeff-En:   0.726D+00 0.000D+00 0.274D+00
 Coeff:      0.726D+00 0.000D+00 0.274D+00
 Gap=     0.222 Goal=   None    Shift=    0.000
 RMSDP=4.96D-03 MaxDP=1.55D-01 DE=-1.11D+01 OVMax= 0.00D+00

 Cycle  17  Pass 1  IDiag  1:
 RMSU=  2.86D-03    CP:  9.89D-01  2.39D-01  6.22D-01
 E= -2378.40470361051     Delta-E=       -1.326951585924 Rises=F Damp=F
 DIIS: error= 5.15D-02 at cycle   4 NSaved=   4.
 NSaved= 4 IEnMin= 1 EnMin= -2378.44713694470     IErMin= 4 ErrMin= 5.15D-02
 ErrMax= 5.15D-02  0.00D+00 EMaxC= 1.00D-01 BMatC= 2.53D-01 BMatP= 3.83D-01
 IDIUse=3 WtCom= 4.85D-01 WtEn= 5.15D-01
 Coeff-Com:  0.387D+00-0.243D-01-0.131D+00 0.768D+00
 Coeff-En:   0.518D+00 0.000D+00 0.000D+00 0.482D+00
 Coeff:      0.455D+00-0.118D-01-0.635D-01 0.621D+00
 Gap=     0.058 Goal=   None    Shift=    0.000
 RMSDP=3.31D-03 MaxDP=6.91D-02 DE=-1.33D+00 OVMax= 0.00D+00

 Cycle  18  Pass 1  IDiag  1:
 RMSU=  1.39D-03    CP:  9.95D-01  1.32D-01  3.69D-01  7.94D-01
 E= -2378.70957546015     Delta-E=       -0.304871849637 Rises=F Damp=F
 DIIS: error= 2.18D-02 at cycle   5 NSaved=   5.
 NSaved= 5 IEnMin= 5 EnMin= -2378.70957546015     IErMin= 5 ErrMin= 2.18D-02
 ErrMax= 2.18D-02  0.00D+00 EMaxC= 1.00D-01 BMatC= 3.50D-02 BMatP= 2.53D-01
 IDIUse=3 WtCom= 7.82D-01 WtEn= 2.18D-01
 Coeff-Com:  0.252D+00 0.288D-02-0.728D-01 0.252D+00 0.566D+00
 Coeff-En:   0.239D+00 0.000D+00 0.000D+00 0.000D+00 0.761D+00
 Coeff:      0.249D+00 0.225D-02-0.569D-01 0.197D+00 0.608D+00
 Gap=     0.035 Goal=   None    Shift=    0.000
 RMSDP=4.34D-03 MaxDP=1.47D-01 DE=-3.05D-01 OVMax= 0.00D+00

 Cycle  19  Pass 1  IDiag  1:
 RMSU=  1.10D-03    CP:  9.99D-01  1.90D-02  3.61D-02  2.44D-01 -1.54D-01
 E= -2378.52192198511     Delta-E=        0.187653475039 Rises=F Damp=F
 DIIS: error= 7.19D-02 at cycle   6 NSaved=   6.
 NSaved= 6 IEnMin= 5 EnMin= -2378.70957546015     IErMin= 5 ErrMin= 2.18D-02
 ErrMax= 7.19D-02  0.00D+00 EMaxC= 1.00D-01 BMatC= 2.86D-01 BMatP= 3.50D-02
 IDIUse=2 WtCom= 0.00D+00 WtEn= 1.00D+00
 Coeff-En:   0.000D+00 0.000D+00 0.000D+00 0.000D+00 0.726D+00 0.274D+00
 Coeff:      0.000D+00 0.000D+00 0.000D+00 0.000D+00 0.726D+00 0.274D+00
 Gap=     0.046 Goal=   None    Shift=    0.000
 RMSDP=3.31D-03 MaxDP=1.18D-01 DE= 1.88D-01 OVMax= 0.00D+00

 Cycle  20  Pass 1  IDiag  1:
 RMSU=  9.98D-04    CP:  9.96D-01  1.19D-01  2.90D-01  6.51D-01  5.41D-02
                    CP:  4.53D-01
 E= -2378.73402838206     Delta-E=       -0.212106396955 Rises=F Damp=F
 DIIS: error= 8.22D-03 at cycle   7 NSaved=   7.
 NSaved= 7 IEnMin= 7 EnMin= -2378.73402838206     IErMin= 7 ErrMin= 8.22D-03
 ErrMax= 8.22D-03  0.00D+00 EMaxC= 1.00D-01 BMatC= 1.18D-02 BMatP= 3.50D-02
 IDIUse=3 WtCom= 9.18D-01 WtEn= 8.22D-02
 EnCoef did    61 forward-backward iterations
 Coeff-Com: -0.586D-01-0.148D-04-0.569D-02-0.720D-01 0.545D+00 0.216D+00
 Coeff-Com:  0.375D+00
 Coeff-En:   0.762D-03 0.000D+00 0.000D+00 0.000D+00 0.442D+00 0.198D+00
 Coeff-En:   0.360D+00
 Coeff:     -0.537D-01-0.136D-04-0.522D-02-0.661D-01 0.536D+00 0.215D+00
 Coeff:      0.374D+00
 Gap=     0.047 Goal=   None    Shift=    0.000
 RMSDP=1.23D-03 MaxDP=2.36D-02 DE=-2.12D-01 OVMax= 0.00D+00

 Cycle  21  Pass 1  IDiag  1:
 RMSU=  2.55D-04    CP:  9.97D-01  8.78D-02  2.35D-01  6.02D-01  5.45D-01
                    CP:  5.32D-01  3.52D-01
 E= -2378.74578702104     Delta-E=       -0.011758638979 Rises=F Damp=F
 DIIS: error= 6.60D-03 at cycle   8 NSaved=   8.
 NSaved= 8 IEnMin= 8 EnMin= -2378.74578702104     IErMin= 8 ErrMin= 6.60D-03
 ErrMax= 6.60D-03  0.00D+00 EMaxC= 1.00D-01 BMatC= 3.17D-03 BMatP= 1.18D-02
 IDIUse=3 WtCom= 9.34D-01 WtEn= 6.60D-02
 EnCoef did     4 forward-backward iterations
 Coeff-Com: -0.180D-01 0.375D-03-0.331D-03-0.364D-01 0.265D+00 0.526D-01
 Coeff-Com:  0.245D+00 0.491D+00
 Coeff-En:   0.000D+00 0.000D+00 0.000D+00 0.000D+00 0.118D+00 0.000D+00
 Coeff-En:   0.126D+00 0.756D+00
 Coeff:     -0.168D-01 0.350D-03-0.309D-03-0.340D-01 0.256D+00 0.491D-01
 Coeff:      0.237D+00 0.509D+00
 Gap=     0.048 Goal=   None    Shift=    0.000
 RMSDP=2.96D-04 MaxDP=8.93D-03 DE=-1.18D-02 OVMax= 0.00D+00

 Cycle  22  Pass 1  IDiag  1:
 RMSU=  1.29D-04    CP:  9.97D-01  9.62D-02  2.54D-01  6.22D-01  5.38D-01
                    CP:  5.16D-01  4.72D-01  8.29D-01
 E= -2378.74856064530     Delta-E=       -0.002773624254 Rises=F Damp=F
 DIIS: error= 1.90D-03 at cycle   9 NSaved=   9.
 NSaved= 9 IEnMin= 9 EnMin= -2378.74856064530     IErMin= 9 ErrMin= 1.90D-03
 ErrMax= 1.90D-03  0.00D+00 EMaxC= 1.00D-01 BMatC= 2.51D-04 BMatP= 3.17D-03
 IDIUse=3 WtCom= 9.81D-01 WtEn= 1.90D-02
 Coeff-Com:  0.228D-03 0.108D-03 0.604D-03-0.278D-02 0.618D-01-0.199D-01
 Coeff-Com:  0.832D-01 0.306D+00 0.571D+00
 Coeff-En:   0.000D+00 0.000D+00 0.000D+00 0.000D+00 0.653D-02 0.000D+00
 Coeff-En:   0.000D+00 0.000D+00 0.993D+00
 Coeff:      0.224D-03 0.106D-03 0.592D-03-0.273D-02 0.608D-01-0.195D-01
 Coeff:      0.816D-01 0.300D+00 0.579D+00
 Gap=     0.048 Goal=   None    Shift=    0.000
 RMSDP=1.37D-04 MaxDP=4.20D-03 DE=-2.77D-03 OVMax= 0.00D+00

 Cycle  23  Pass 1  IDiag  1:
 RMSU=  8.03D-05    CP:  9.96D-01  9.83D-02  2.60D-01  6.40D-01  5.56D-01
                    CP:  5.42D-01  4.72D-01  1.07D+00  1.08D+00
 E= -2378.74880595523     Delta-E=       -0.000245309931 Rises=F Damp=F
 DIIS: error= 6.29D-04 at cycle  10 NSaved=  10.
 NSaved=10 IEnMin=10 EnMin= -2378.74880595523     IErMin=10 ErrMin= 6.29D-04
 ErrMax= 6.29D-04  0.00D+00 EMaxC= 1.00D-01 BMatC= 2.72D-05 BMatP= 2.51D-04
 IDIUse=3 WtCom= 9.94D-01 WtEn= 6.29D-03
 Coeff-Com:  0.256D-02 0.418D-04 0.608D-03 0.278D-03 0.276D-01-0.202D-01
 Coeff-Com:  0.453D-01 0.170D+00 0.415D+00 0.358D+00
 Coeff-En:   0.000D+00 0.000D+00 0.000D+00 0.000D+00 0.000D+00 0.000D+00
 Coeff-En:   0.000D+00 0.000D+00 0.000D+00 0.100D+01
 Coeff:      0.254D-02 0.415D-04 0.604D-03 0.276D-03 0.274D-01-0.200D-01
 Coeff:      0.450D-01 0.169D+00 0.413D+00 0.362D+00
 Gap=     0.048 Goal=   None    Shift=    0.000
 RMSDP=6.97D-05 MaxDP=1.46D-03 DE=-2.45D-04 OVMax= 0.00D+00

 Cycle  24  Pass 1  IDiag  1:
 RMSU=  3.58D-05    CP:  9.96D-01  9.84D-02  2.60D-01  6.34D-01  5.59D-01
                    CP:  5.54D-01  4.96D-01  1.22D+00  1.32D+00  8.51D-01
 E= -2378.74883037717     Delta-E=       -0.000024421940 Rises=F Damp=F
 DIIS: error= 5.56D-04 at cycle  11 NSaved=  11.
 NSaved=11 IEnMin=11 EnMin= -2378.74883037717     IErMin=11 ErrMin= 5.56D-04
 ErrMax= 5.56D-04  0.00D+00 EMaxC= 1.00D-01 BMatC= 2.01D-05 BMatP= 2.72D-05
 IDIUse=3 WtCom= 9.94D-01 WtEn= 5.56D-03
 Coeff-Com:  0.227D-02-0.479D-06 0.421D-03 0.345D-02-0.105D-01-0.148D-01
 Coeff-Com:  0.493D-03 0.133D-01 0.139D+00 0.209D+00 0.657D+00
 Coeff-En:   0.000D+00 0.000D+00 0.000D+00 0.000D+00 0.000D+00 0.000D+00
 Coeff-En:   0.000D+00 0.000D+00 0.000D+00 0.000D+00 0.100D+01
 Coeff:      0.226D-02-0.477D-06 0.418D-03 0.343D-02-0.104D-01-0.147D-01
 Coeff:      0.490D-03 0.132D-01 0.138D+00 0.208D+00 0.659D+00
 Gap=     0.048 Goal=   None    Shift=    0.000
 RMSDP=9.74D-05 MaxDP=3.13D-03 DE=-2.44D-05 OVMax= 0.00D+00

 Cycle  25  Pass 1  IDiag  1:
 RMSU=  2.43D-05    CP:  9.96D-01  9.93D-02  2.63D-01  6.37D-01  5.66D-01
                    CP:  5.76D-01  5.21D-01  1.39D+00  1.70D+00  1.47D+00
                    CP:  1.18D+00
 E= -2378.74887414853     Delta-E=       -0.000043771362 Rises=F Damp=F
 DIIS: error= 1.23D-04 at cycle  12 NSaved=  12.
 NSaved=12 IEnMin=12 EnMin= -2378.74887414853     IErMin=12 ErrMin= 1.23D-04
 ErrMax= 1.23D-04  0.00D+00 EMaxC= 1.00D-01 BMatC= 1.89D-06 BMatP= 2.01D-05
 IDIUse=3 WtCom= 9.99D-01 WtEn= 1.23D-03
 Coeff-Com: -0.145D-03-0.186D-04 0.267D-04 0.501D-02-0.417D-01-0.169D-02
 Coeff-Com: -0.439D-01-0.133D+00-0.165D+00-0.136D+00 0.824D+00 0.693D+00
 Coeff-En:   0.000D+00 0.000D+00 0.000D+00 0.000D+00 0.000D+00 0.000D+00
 Coeff-En:   0.000D+00 0.000D+00 0.000D+00 0.000D+00 0.000D+00 0.100D+01
 Coeff:     -0.145D-03-0.186D-04 0.267D-04 0.501D-02-0.416D-01-0.169D-02
 Coeff:     -0.438D-01-0.133D+00-0.164D+00-0.136D+00 0.823D+00 0.693D+00
 Gap=     0.048 Goal=   None    Shift=    0.000
 RMSDP=1.53D-04 MaxDP=5.20D-03 DE=-4.38D-05 OVMax= 0.00D+00

 Cycle  26  Pass 1  IDiag  1:
 RMSU=  1.70D-05    CP:  9.96D-01  1.00D-01  2.64D-01  6.38D-01  5.75D-01
                    CP:  6.21D-01  5.57D-01  1.72D+00  2.30D+00  2.19D+00
                    CP:  2.45D+00  1.69D+00
 E= -2378.74891245990     Delta-E=       -0.000038311377 Rises=F Damp=F
 DIIS: error= 2.06D-04 at cycle  13 NSaved=  13.
 NSaved=13 IEnMin=13 EnMin= -2378.74891245990     IErMin=12 ErrMin= 1.23D-04
 ErrMax= 2.06D-04  0.00D+00 EMaxC= 1.00D-01 BMatC= 2.54D-06 BMatP= 1.89D-06
 IDIUse=3 WtCom= 9.99D-01 WtEn= 1.23D-03
 Coeff-Com: -0.141D-02-0.101D-04-0.475D-04 0.271D-02-0.190D-01-0.612D-03
 Coeff-Com: -0.217D-01 0.335D-02 0.488D-01-0.152D+00-0.663D-01-0.352D+00
 Coeff-Com:  0.156D+01
 Coeff-En:   0.000D+00 0.000D+00 0.000D+00 0.000D+00 0.000D+00 0.000D+00
 Coeff-En:   0.000D+00 0.000D+00 0.000D+00 0.000D+00 0.000D+00 0.000D+00
 Coeff-En:   0.100D+01
 Coeff:     -0.140D-02-0.101D-04-0.474D-04 0.270D-02-0.190D-01-0.612D-03
 Coeff:     -0.217D-01 0.334D-02 0.487D-01-0.152D+00-0.662D-01-0.352D+00
 Coeff:      0.156D+01
 Gap=     0.047 Goal=   None    Shift=    0.000
 RMSDP=1.90D-04 MaxDP=6.81D-03 DE=-3.83D-05 OVMax= 0.00D+00

 Cycle  27  Pass 1  IDiag  1:
 RMSU=  4.50D-05    CP:  9.96D-01  1.00D-01  2.64D-01  6.36D-01  5.85D-01
                    CP:  6.77D-01  5.85D-01  2.11D+00  3.00D+00  3.00D+00
                    CP:  3.00D+00  3.00D+00  2.86D+00
 E= -2378.74895320833     Delta-E=       -0.000040748427 Rises=F Damp=F
 DIIS: error= 1.04D-04 at cycle  14 NSaved=  14.
 NSaved=14 IEnMin=14 EnMin= -2378.74895320833     IErMin=14 ErrMin= 1.04D-04
 ErrMax= 1.04D-04  0.00D+00 EMaxC= 1.00D-01 BMatC= 1.24D-06 BMatP= 1.89D-06
 IDIUse=3 WtCom= 9.99D-01 WtEn= 1.04D-03
 Coeff-Com: -0.438D-03-0.108D-04 0.536D-04-0.882D-03 0.180D-01-0.397D-02
 Coeff-Com:  0.199D-01 0.145D+00 0.274D+00-0.985D-01-0.761D+00-0.132D+01
 Coeff-Com:  0.167D+01 0.106D+01
 Coeff-En:   0.000D+00 0.000D+00 0.000D+00 0.000D+00 0.000D+00 0.000D+00
 Coeff-En:   0.000D+00 0.000D+00 0.000D+00 0.000D+00 0.000D+00 0.000D+00
 Coeff-En:   0.000D+00 0.100D+01
 Coeff:     -0.437D-03-0.108D-04 0.536D-04-0.881D-03 0.180D-01-0.397D-02
 Coeff:      0.199D-01 0.145D+00 0.273D+00-0.984D-01-0.760D+00-0.132D+01
 Coeff:      0.167D+01 0.106D+01
 Gap=     0.046 Goal=   None    Shift=    0.000
 RMSDP=2.76D-04 MaxDP=9.92D-03 DE=-4.07D-05 OVMax= 0.00D+00

 Cycle  28  Pass 1  IDiag  1:
 RMSU=  1.74D-04    CP:  9.96D-01  1.00D-01  2.64D-01  6.32D-01  5.94D-01
                    CP:  7.50D-01  6.28D-01  2.64D+00  3.00D+00  3.00D+00
                    CP:  3.00D+00  3.00D+00  3.00D+00  3.00D+00
 E= -2378.74898775341     Delta-E=       -0.000034545083 Rises=F Damp=F
 DIIS: error= 3.29D-04 at cycle  15 NSaved=  15.
 NSaved=15 IEnMin=15 EnMin= -2378.74898775341     IErMin=14 ErrMin= 1.04D-04
 ErrMax= 3.29D-04  0.00D+00 EMaxC= 1.00D-01 BMatC= 7.32D-06 BMatP= 1.24D-06
 IDIUse=3 WtCom= 9.99D-01 WtEn= 1.04D-03
 Coeff-Com:  0.664D-03 0.420D-05 0.993D-05-0.326D-03 0.932D-02-0.162D-02
 Coeff-Com:  0.909D-02 0.134D-01 0.172D-01-0.132D+00-0.621D-01-0.205D+00
 Coeff-Com:  0.168D+00 0.225D+00 0.957D+00
 Coeff-En:   0.000D+00 0.000D+00 0.000D+00 0.000D+00 0.000D+00 0.000D+00
 Coeff-En:   0.000D+00 0.000D+00 0.000D+00 0.000D+00 0.000D+00 0.000D+00
 Coeff-En:   0.000D+00 0.000D+00 0.100D+01
 Coeff:      0.663D-03 0.419D-05 0.992D-05-0.326D-03 0.931D-02-0.162D-02
 Coeff:      0.908D-02 0.134D-01 0.172D-01-0.131D+00-0.621D-01-0.205D+00
 Coeff:      0.168D+00 0.225D+00 0.957D+00
 Gap=     0.046 Goal=   None    Shift=    0.000
 RMSDP=1.14D-04 MaxDP=3.98D-03 DE=-3.45D-05 OVMax= 0.00D+00

 Cycle  29  Pass 1  IDiag  1:
 RMSU=  4.51D-05    CP:  9.96D-01  1.01D-01  2.65D-01  6.29D-01  5.96D-01
                    CP:  7.71D-01  6.48D-01  2.85D+00  3.00D+00  3.00D+00
                    CP:  3.00D+00  3.00D+00  3.00D+00  3.00D+00  1.49D+00
 E= -2378.74900221932     Delta-E=       -0.000014465908 Rises=F Damp=F
 DIIS: error= 2.37D-04 at cycle  16 NSaved=  16.
 NSaved=16 IEnMin=16 EnMin= -2378.74900221932     IErMin=14 ErrMin= 1.04D-04
 ErrMax= 2.37D-04  0.00D+00 EMaxC= 1.00D-01 BMatC= 3.56D-06 BMatP= 1.24D-06
 IDIUse=3 WtCom= 9.99D-01 WtEn= 1.04D-03
 Coeff-Com:  0.250D-03 0.459D-05-0.103D-03 0.124D-02-0.545D-02 0.140D-02
 Coeff-Com: -0.872D-02-0.950D-01-0.187D+00-0.641D-01 0.478D+00 0.782D+00
 Coeff-Com: -0.817D+00-0.628D+00 0.736D+00 0.806D+00
 Coeff-En:   0.000D+00 0.000D+00 0.000D+00 0.000D+00 0.000D+00 0.000D+00
 Coeff-En:   0.000D+00 0.000D+00 0.000D+00 0.000D+00 0.000D+00 0.000D+00
 Coeff-En:   0.000D+00 0.000D+00 0.000D+00 0.100D+01
 Coeff:      0.250D-03 0.459D-05-0.103D-03 0.124D-02-0.544D-02 0.140D-02
 Coeff:     -0.871D-02-0.949D-01-0.186D+00-0.640D-01 0.478D+00 0.781D+00
 Coeff:     -0.816D+00-0.627D+00 0.735D+00 0.806D+00
 Gap=     0.046 Goal=   None    Shift=    0.000
 RMSDP=4.93D-05 MaxDP=1.39D-03 DE=-1.45D-05 OVMax= 0.00D+00

 Cycle  30  Pass 1  IDiag  1:
 RMSU=  1.42D-05    CP:  9.96D-01  1.01D-01  2.66D-01  6.29D-01  5.96D-01
                    CP:  7.73D-01  6.54D-01  2.90D+00  3.00D+00  3.00D+00
                    CP:  3.00D+00  3.00D+00  3.00D+00  3.00D+00  1.69D+00
                    CP:  1.55D+00
 E= -2378.74900926341     Delta-E=       -0.000007044086 Rises=F Damp=F
 DIIS: error= 3.87D-05 at cycle  17 NSaved=  17.
 NSaved=17 IEnMin=17 EnMin= -2378.74900926341     IErMin=17 ErrMin= 3.87D-05
 ErrMax= 3.87D-05  0.00D+00 EMaxC= 1.00D-01 BMatC= 1.10D-07 BMatP= 1.24D-06
 IDIUse=1 WtCom= 1.00D+00 WtEn= 0.00D+00
 Coeff-Com: -0.896D-03 0.511D-06-0.111D-03 0.897D-03-0.435D-02 0.207D-02
 Coeff-Com: -0.662D-02-0.470D-01-0.101D+00 0.142D+00 0.192D+00 0.602D+00
 Coeff-Com: -0.763D+00-0.669D+00-0.162D+00 0.526D+00 0.129D+01
 Coeff:     -0.896D-03 0.511D-06-0.111D-03 0.897D-03-0.435D-02 0.207D-02
 Coeff:     -0.662D-02-0.470D-01-0.101D+00 0.142D+00 0.192D+00 0.602D+00
 Coeff:     -0.763D+00-0.669D+00-0.162D+00 0.526D+00 0.129D+01
 Gap=     0.045 Goal=   None    Shift=    0.000
 RMSDP=1.77D-04 MaxDP=6.14D-03 DE=-7.04D-06 OVMax= 0.00D+00

 Cycle  31  Pass 1  IDiag  1:
 RMSU=  4.89D-05    CP:  9.96D-01  1.02D-01  2.67D-01  6.26D-01  5.99D-01
                    CP:  8.08D-01  6.72D-01  3.00D+00  3.00D+00  3.00D+00
                    CP:  3.00D+00  3.00D+00  3.00D+00  3.00D+00  2.47D+00
                    CP:  3.00D+00  2.01D+00
 E= -2378.74901644045     Delta-E=       -0.000007177041 Rises=F Damp=F
 DIIS: error= 1.19D-05 at cycle  18 NSaved=  18.
 NSaved=18 IEnMin=18 EnMin= -2378.74901644045     IErMin=18 ErrMin= 1.19D-05
 ErrMax= 1.19D-05  0.00D+00 EMaxC= 1.00D-01 BMatC= 2.63D-08 BMatP= 1.10D-07
 IDIUse=1 WtCom= 1.00D+00 WtEn= 0.00D+00
 Coeff-Com: -0.498D-03-0.402D-05-0.463D-04 0.313D-03-0.165D-02 0.112D-02
 Coeff-Com: -0.280D-02-0.180D-01-0.410D-01 0.820D-01 0.604D-01 0.253D+00
 Coeff-Com: -0.347D+00-0.328D+00-0.145D+00 0.234D+00 0.765D+00 0.487D+00
 Coeff:     -0.498D-03-0.402D-05-0.463D-04 0.313D-03-0.165D-02 0.112D-02
 Coeff:     -0.280D-02-0.180D-01-0.410D-01 0.820D-01 0.604D-01 0.253D+00
 Coeff:     -0.347D+00-0.328D+00-0.145D+00 0.234D+00 0.765D+00 0.487D+00
 Gap=     0.045 Goal=   None    Shift=    0.000
 RMSDP=2.56D-05 MaxDP=8.58D-04 DE=-7.18D-06 OVMax= 0.00D+00

 Cycle  32  Pass 1  IDiag  1:
 RMSU=  9.19D-06    CP:  9.96D-01  1.02D-01  2.67D-01  6.26D-01  5.99D-01
                    CP:  8.14D-01  6.77D-01  3.00D+00  3.00D+00  3.00D+00
                    CP:  3.00D+00  3.00D+00  3.00D+00  3.00D+00  2.57D+00
                    CP:  3.00D+00  2.11D+00  1.26D+00
 E= -2378.74901672678     Delta-E=       -0.000000286328 Rises=F Damp=F
 DIIS: error= 9.45D-06 at cycle  19 NSaved=  19.
 NSaved=19 IEnMin=19 EnMin= -2378.74901672678     IErMin=19 ErrMin= 9.45D-06
 ErrMax= 9.45D-06  0.00D+00 EMaxC= 1.00D-01 BMatC= 5.99D-09 BMatP= 2.63D-08
 IDIUse=1 WtCom= 1.00D+00 WtEn= 0.00D+00
 Coeff-Com:  0.185D-03 0.214D-05 0.225D-04-0.274D-03 0.247D-02-0.717D-03
 Coeff-Com:  0.298D-02 0.175D-01 0.351D-01-0.234D-01-0.634D-01-0.149D+00
 Coeff-Com:  0.199D+00 0.123D+00 0.130D-01-0.940D-01-0.268D+00-0.365D-01
 Coeff-Com:  0.124D+01
 Coeff:      0.185D-03 0.214D-05 0.225D-04-0.274D-03 0.247D-02-0.717D-03
 Coeff:      0.298D-02 0.175D-01 0.351D-01-0.234D-01-0.634D-01-0.149D+00
 Coeff:      0.199D+00 0.123D+00 0.130D-01-0.940D-01-0.268D+00-0.365D-01
 Coeff:      0.124D+01
 Gap=     0.045 Goal=   None    Shift=    0.000
 RMSDP=9.29D-06 MaxDP=3.34D-04 DE=-2.86D-07 OVMax= 0.00D+00

 Cycle  33  Pass 1  IDiag  1:
 RMSU=  7.63D-06    CP:  9.96D-01  1.02D-01  2.67D-01  6.26D-01  5.99D-01
                    CP:  8.14D-01  6.77D-01  3.00D+00  3.00D+00  3.00D+00
                    CP:  3.00D+00  3.00D+00  3.00D+00  3.00D+00  2.57D+00
                    CP:  3.00D+00  2.41D+00  1.28D+00  1.32D+00
 E= -2378.74901688972     Delta-E=       -0.000000162941 Rises=F Damp=F
 DIIS: error= 1.28D-05 at cycle  20 NSaved=  20.
 NSaved=20 IEnMin=20 EnMin= -2378.74901688972     IErMin=19 ErrMin= 9.45D-06
 ErrMax= 1.28D-05  0.00D+00 EMaxC= 1.00D-01 BMatC= 8.40D-09 BMatP= 5.99D-09
 IDIUse=1 WtCom= 1.00D+00 WtEn= 0.00D+00
 Coeff-Com:  0.235D-03-0.336D-06 0.255D-04-0.244D-03 0.211D-02-0.819D-03
 Coeff-Com:  0.285D-02 0.205D-01 0.444D-01-0.611D-01-0.789D-01-0.239D+00
 Coeff-Com:  0.340D+00 0.250D+00 0.620D-01-0.184D+00-0.595D+00-0.293D+00
 Coeff-Com:  0.809D+00 0.920D+00
 Coeff:      0.235D-03-0.336D-06 0.255D-04-0.244D-03 0.211D-02-0.819D-03
 Coeff:      0.285D-02 0.205D-01 0.444D-01-0.611D-01-0.789D-01-0.239D+00
 Coeff:      0.340D+00 0.250D+00 0.620D-01-0.184D+00-0.595D+00-0.293D+00
 Coeff:      0.809D+00 0.920D+00
 Gap=     0.045 Goal=   None    Shift=    0.000
 RMSDP=1.41D-05 MaxDP=5.16D-04 DE=-1.63D-07 OVMax= 0.00D+00

 Cycle  34  Pass 1  IDiag  1:
 Restarting incremental Fock formation.
 E= -2378.74901704556     Delta-E=       -0.000000155843 Rises=F Damp=F
 DIIS: error= 1.08D-05 at cycle  21 NSaved=  20.
 NSaved=20 IEnMin=20 EnMin= -2378.74901704556     IErMin=18 ErrMin= 9.45D-06
 ErrMax= 1.08D-05  0.00D+00 EMaxC= 1.00D-01 BMatC= 6.20D-09 BMatP= 5.99D-09
 IDIUse=1 WtCom= 1.00D+00 WtEn= 0.00D+00
 Coeff-Com: -0.111D-03-0.138D-04 0.119D-03-0.231D-03 0.903D-04-0.207D-03
 Coeff-Com:  0.355D-03 0.390D-02-0.115D-01 0.435D-03-0.187D-01 0.478D-01
 Coeff-Com:  0.287D-01 0.259D-01-0.877D-02-0.176D+00-0.143D+00-0.306D+00
 Coeff-Com:  0.538D+00 0.102D+01
 Coeff:     -0.111D-03-0.138D-04 0.119D-03-0.231D-03 0.903D-04-0.207D-03
 Coeff:      0.355D-03 0.390D-02-0.115D-01 0.435D-03-0.187D-01 0.478D-01
 Coeff:      0.287D-01 0.259D-01-0.877D-02-0.176D+00-0.143D+00-0.306D+00
 Coeff:      0.538D+00 0.102D+01
 Gap=     0.045 Goal=   None    Shift=    0.000
 RMSDP=9.70D-06 MaxDP=4.04D-04 DE=-1.56D-07 OVMax= 0.00D+00

 Cycle  35  Pass 1  IDiag  1:
 RMSU=  9.70D-06    CP:  1.00D+00
 E= -2378.74901713777     Delta-E=       -0.000000092213 Rises=F Damp=F
 DIIS: error= 4.90D-06 at cycle  22 NSaved=  20.
 NSaved=20 IEnMin=20 EnMin= -2378.74901713777     IErMin=20 ErrMin= 4.90D-06
 ErrMax= 4.90D-06  0.00D+00 EMaxC= 1.00D-01 BMatC= 1.24D-09 BMatP= 5.99D-09
 IDIUse=1 WtCom= 1.00D+00 WtEn= 0.00D+00
 Coeff-Com: -0.550D-04 0.184D-05 0.628D-04 0.959D-04 0.273D-04-0.249D-02
 Coeff-Com: -0.418D-02 0.245D-01 0.533D-02 0.438D-01-0.738D-01-0.686D-01
 Coeff-Com: -0.234D-01 0.552D-01 0.144D+00 0.118D+00-0.118D+00-0.383D+00
 Coeff-Com: -0.153D+00 0.144D+01
 Coeff:     -0.550D-04 0.184D-05 0.628D-04 0.959D-04 0.273D-04-0.249D-02
 Coeff:     -0.418D-02 0.245D-01 0.533D-02 0.438D-01-0.738D-01-0.686D-01
 Coeff:     -0.234D-01 0.552D-01 0.144D+00 0.118D+00-0.118D+00-0.383D+00
 Coeff:     -0.153D+00 0.144D+01
 Gap=     0.045 Goal=   None    Shift=    0.000
 RMSDP=7.47D-06 MaxDP=3.44D-04 DE=-9.22D-08 OVMax= 0.00D+00

 Cycle  36  Pass 1  IDiag  1:
 RMSU=  3.70D-06    CP:  1.00D+00  1.67D+00
 E= -2378.74901718463     Delta-E=       -0.000000046860 Rises=F Damp=F
 DIIS: error= 7.26D-06 at cycle  23 NSaved=  20.
 NSaved=20 IEnMin=20 EnMin= -2378.74901718463     IErMin=19 ErrMin= 4.90D-06
 ErrMax= 7.26D-06  0.00D+00 EMaxC= 1.00D-01 BMatC= 2.87D-09 BMatP= 1.24D-09
 IDIUse=1 WtCom= 1.00D+00 WtEn= 0.00D+00
 Coeff-Com: -0.168D-05-0.203D-03 0.142D-03-0.443D-03-0.589D-02-0.120D-01
 Coeff-Com:  0.334D-01 0.174D-01 0.778D-01-0.123D+00-0.112D+00-0.465D-01
 Coeff-Com:  0.806D-01 0.291D+00 0.213D+00 0.648D-01-0.713D+00-0.763D+00
 Coeff-Com:  0.121D+01 0.788D+00
 Coeff:     -0.168D-05-0.203D-03 0.142D-03-0.443D-03-0.589D-02-0.120D-01
 Coeff:      0.334D-01 0.174D-01 0.778D-01-0.123D+00-0.112D+00-0.465D-01
 Coeff:      0.806D-01 0.291D+00 0.213D+00 0.648D-01-0.713D+00-0.763D+00
 Coeff:      0.121D+01 0.788D+00
 Gap=     0.045 Goal=   None    Shift=    0.000
 RMSDP=5.40D-06 MaxDP=2.02D-04 DE=-4.69D-08 OVMax= 0.00D+00

 Cycle  37  Pass 1  IDiag  1:
 RMSU=  2.70D-06    CP:  1.00D+00  2.12D+00  1.43D+00
 E= -2378.74901721337     Delta-E=       -0.000000028735 Rises=F Damp=F
 DIIS: error= 7.55D-06 at cycle  24 NSaved=  20.
 NSaved=20 IEnMin=20 EnMin= -2378.74901721337     IErMin=18 ErrMin= 4.90D-06
 ErrMax= 7.55D-06  0.00D+00 EMaxC= 1.00D-01 BMatC= 2.72D-09 BMatP= 1.24D-09
 IDIUse=1 WtCom= 1.00D+00 WtEn= 0.00D+00
 Coeff-Com:  0.167D-03-0.597D-04 0.220D-04 0.127D-02 0.233D-02 0.279D-02
 Coeff-Com: -0.779D-02-0.124D-01 0.162D-01-0.392D-02-0.307D-01 0.807D-03
 Coeff-Com:  0.689D-01 0.272D-01 0.185D+00-0.200D+00-0.368D+00-0.276D+00
 Coeff-Com:  0.228D+00 0.137D+01
 Coeff:      0.167D-03-0.597D-04 0.220D-04 0.127D-02 0.233D-02 0.279D-02
 Coeff:     -0.779D-02-0.124D-01 0.162D-01-0.392D-02-0.307D-01 0.807D-03
 Coeff:      0.689D-01 0.272D-01 0.185D+00-0.200D+00-0.368D+00-0.276D+00
 Coeff:      0.228D+00 0.137D+01
 Gap=     0.045 Goal=   None    Shift=    0.000
 RMSDP=7.18D-06 MaxDP=2.83D-04 DE=-2.87D-08 OVMax= 0.00D+00

 Cycle  38  Pass 1  IDiag  1:
 RMSU=  8.65D-07    CP:  1.00D+00  2.73D+00  2.07D+00  2.21D+00
 E= -2378.74901724025     Delta-E=       -0.000000026877 Rises=F Damp=F
 DIIS: error= 3.93D-06 at cycle  25 NSaved=  20.
 NSaved=20 IEnMin=20 EnMin= -2378.74901724025     IErMin=20 ErrMin= 3.93D-06
 ErrMax= 3.93D-06  0.00D+00 EMaxC= 1.00D-01 BMatC= 6.36D-10 BMatP= 1.24D-09
 IDIUse=1 WtCom= 1.00D+00 WtEn= 0.00D+00
 Coeff-Com:  0.502D-05-0.818D-04 0.479D-03 0.838D-03-0.383D-02-0.205D-02
 Coeff-Com: -0.125D-01 0.184D-01 0.111D-01-0.134D-01-0.710D-02 0.220D-02
 Coeff-Com: -0.250D-01 0.524D-01-0.519D-02-0.101D-01-0.416D+00-0.125D+00
 Coeff-Com:  0.808D+00 0.726D+00
 Coeff:      0.502D-05-0.818D-04 0.479D-03 0.838D-03-0.383D-02-0.205D-02
 Coeff:     -0.125D-01 0.184D-01 0.111D-01-0.134D-01-0.710D-02 0.220D-02
 Coeff:     -0.250D-01 0.524D-01-0.519D-02-0.101D-01-0.416D+00-0.125D+00
 Coeff:      0.808D+00 0.726D+00
 Gap=     0.045 Goal=   None    Shift=    0.000
 RMSDP=4.70D-06 MaxDP=1.97D-04 DE=-2.69D-08 OVMax= 0.00D+00

 Cycle  39  Pass 1  IDiag  1:
 RMSU=  1.35D-06    CP:  1.00D+00  3.00D+00  2.83D+00  2.17D+00  1.47D+00
 E= -2378.74901724896     Delta-E=       -0.000000008713 Rises=F Damp=F
 DIIS: error= 1.91D-06 at cycle  26 NSaved=  20.
 NSaved=20 IEnMin=20 EnMin= -2378.74901724896     IErMin=20 ErrMin= 1.91D-06
 ErrMax= 1.91D-06  0.00D+00 EMaxC= 1.00D-01 BMatC= 2.11D-10 BMatP= 6.36D-10
 IDIUse=1 WtCom= 1.00D+00 WtEn= 0.00D+00
 Coeff-Com:  0.997D-04-0.266D-03-0.621D-03 0.326D-02 0.150D-02 0.804D-02
 Coeff-Com: -0.179D-01-0.271D-02-0.924D-03 0.966D-02 0.885D-02-0.134D-01
 Coeff-Com: -0.145D+00 0.872D-01 0.278D+00 0.276D-01-0.229D+00-0.551D+00
 Coeff-Com:  0.376D+00 0.116D+01
 Coeff:      0.997D-04-0.266D-03-0.621D-03 0.326D-02 0.150D-02 0.804D-02
 Coeff:     -0.179D-01-0.271D-02-0.924D-03 0.966D-02 0.885D-02-0.134D-01
 Coeff:     -0.145D+00 0.872D-01 0.278D+00 0.276D-01-0.229D+00-0.551D+00
 Coeff:      0.376D+00 0.116D+01
 Gap=     0.045 Goal=   None    Shift=    0.000
 RMSDP=2.84D-06 MaxDP=1.15D-04 DE=-8.71D-09 OVMax= 0.00D+00

 Cycle  40  Pass 1  IDiag  1:
 RMSU=  1.41D-06    CP:  1.00D+00  3.00D+00  3.00D+00  2.41D+00  2.24D+00
                    CP:  2.43D+00
 E= -2378.74901725202     Delta-E=       -0.000000003060 Rises=F Damp=F
 DIIS: error= 8.87D-07 at cycle  27 NSaved=  20.
 NSaved=20 IEnMin=20 EnMin= -2378.74901725202     IErMin=20 ErrMin= 8.87D-07
 ErrMax= 8.87D-07  0.00D+00 EMaxC= 1.00D-01 BMatC= 5.03D-11 BMatP= 2.11D-10
 IDIUse=1 WtCom= 1.00D+00 WtEn= 0.00D+00
 Coeff-Com: -0.299D-03-0.594D-03 0.365D-02 0.496D-03 0.730D-02-0.102D-01
 Coeff-Com: -0.730D-02-0.611D-02 0.810D-02 0.217D-01 0.988D-02 0.130D-01
 Coeff-Com: -0.251D-01-0.383D-01 0.624D-01 0.695D-02-0.140D+00-0.132D+00
 Coeff-Com:  0.224D+00 0.100D+01
 Coeff:     -0.299D-03-0.594D-03 0.365D-02 0.496D-03 0.730D-02-0.102D-01
 Coeff:     -0.730D-02-0.611D-02 0.810D-02 0.217D-01 0.988D-02 0.130D-01
 Coeff:     -0.251D-01-0.383D-01 0.624D-01 0.695D-02-0.140D+00-0.132D+00
 Coeff:      0.224D+00 0.100D+01
 Gap=     0.045 Goal=   None    Shift=    0.000
 RMSDP=1.76D-06 MaxDP=7.06D-05 DE=-3.06D-09 OVMax= 0.00D+00

 Cycle  41  Pass 1  IDiag  1:
 RMSU=  7.97D-07    CP:  1.00D+00  3.00D+00  3.00D+00  2.97D+00  2.58D+00
                    CP:  2.54D+00  1.02D+00
 E= -2378.74901725240     Delta-E=       -0.000000000384 Rises=F Damp=F
 DIIS: error= 1.79D-06 at cycle  28 NSaved=  20.
 NSaved=20 IEnMin=20 EnMin= -2378.74901725240     IErMin=19 ErrMin= 8.87D-07
 ErrMax= 1.79D-06  0.00D+00 EMaxC= 1.00D-01 BMatC= 2.18D-10 BMatP= 5.03D-11
 IDIUse=1 WtCom= 1.00D+00 WtEn= 0.00D+00
 Coeff-Com:  0.143D-03 0.148D-02-0.101D-02 0.145D-02-0.160D-02-0.169D-02
 Coeff-Com:  0.746D-03 0.408D-02-0.410D-02 0.147D-02 0.795D-02-0.923D-02
 Coeff-Com: -0.357D-01 0.108D+00 0.501D-01-0.675D-01-0.320D+00-0.271D+00
 Coeff-Com:  0.815D+00 0.722D+00
 Coeff:      0.143D-03 0.148D-02-0.101D-02 0.145D-02-0.160D-02-0.169D-02
 Coeff:      0.746D-03 0.408D-02-0.410D-02 0.147D-02 0.795D-02-0.923D-02
 Coeff:     -0.357D-01 0.108D+00 0.501D-01-0.675D-01-0.320D+00-0.271D+00
 Coeff:      0.815D+00 0.722D+00
 Gap=     0.045 Goal=   None    Shift=    0.000
 RMSDP=1.54D-06 MaxDP=5.80D-05 DE=-3.84D-10 OVMax= 0.00D+00

 Cycle  42  Pass 1  IDiag  1:
 RMSU=  4.40D-07    CP:  1.00D+00  3.00D+00  3.00D+00  2.81D+00  2.92D+00
                    CP:  3.00D+00  1.66D+00  3.47D-01
 E= -2378.74901725296     Delta-E=       -0.000000000555 Rises=F Damp=F
 DIIS: error= 3.48D-07 at cycle  29 NSaved=  20.
 NSaved=20 IEnMin=20 EnMin= -2378.74901725296     IErMin=20 ErrMin= 3.48D-07
 ErrMax= 3.48D-07  0.00D+00 EMaxC= 1.00D-01 BMatC= 7.98D-12 BMatP= 5.03D-11
 IDIUse=1 WtCom= 1.00D+00 WtEn= 0.00D+00
 Coeff-Com:  0.466D-03-0.136D-03 0.532D-04 0.265D-03-0.934D-03-0.347D-04
 Coeff-Com:  0.205D-02-0.212D-02 0.324D-03 0.142D-02-0.175D-02-0.123D-01
 Coeff-Com:  0.212D-01 0.123D-01 0.317D-01-0.824D-01-0.112D+00 0.778D-01
 Coeff-Com:  0.170D+00 0.894D+00
 Coeff:      0.466D-03-0.136D-03 0.532D-04 0.265D-03-0.934D-03-0.347D-04
 Coeff:      0.205D-02-0.212D-02 0.324D-03 0.142D-02-0.175D-02-0.123D-01
 Coeff:      0.212D-01 0.123D-01 0.317D-01-0.824D-01-0.112D+00 0.778D-01
 Coeff:      0.170D+00 0.894D+00
 Gap=     0.045 Goal=   None    Shift=    0.000
 RMSDP=1.76D-07 MaxDP=5.34D-06 DE=-5.55D-10 OVMax= 0.00D+00

 Cycle  43  Pass 1  IDiag  1:
 RMSU=  7.93D-08    CP:  1.00D+00  3.00D+00  3.00D+00  2.86D+00  2.94D+00
                    CP:  3.00D+00  1.62D+00  4.72D-01  1.03D+00
 E= -2378.74901725296     Delta-E=       -0.000000000005 Rises=F Damp=F
 DIIS: error= 2.65D-07 at cycle  30 NSaved=  20.
 NSaved=20 IEnMin=20 EnMin= -2378.74901725296     IErMin=20 ErrMin= 2.65D-07
 ErrMax= 2.65D-07  0.00D+00 EMaxC= 1.00D-01 BMatC= 4.73D-12 BMatP= 7.98D-12
 IDIUse=1 WtCom= 1.00D+00 WtEn= 0.00D+00
 Coeff-Com:  0.653D-04-0.583D-03 0.970D-03-0.131D-03-0.109D-03 0.703D-03
 Coeff-Com: -0.141D-02-0.416D-03-0.631D-03 0.183D-02 0.387D-03-0.135D-01
 Coeff-Com: -0.901D-02 0.478D-01 0.250D-01-0.918D-02-0.158D+00-0.648D-01
 Coeff-Com:  0.608D+00 0.573D+00
 Coeff:      0.653D-04-0.583D-03 0.970D-03-0.131D-03-0.109D-03 0.703D-03
 Coeff:     -0.141D-02-0.416D-03-0.631D-03 0.183D-02 0.387D-03-0.135D-01
 Coeff:     -0.901D-02 0.478D-01 0.250D-01-0.918D-02-0.158D+00-0.648D-01
 Coeff:      0.608D+00 0.573D+00
 Gap=     0.045 Goal=   None    Shift=    0.000
 RMSDP=1.07D-07 MaxDP=2.99D-06 DE=-5.46D-12 OVMax= 0.00D+00

 Cycle  44  Pass 1  IDiag  1:
 RMSU=  2.37D-08    CP:  1.00D+00  3.00D+00  3.00D+00  2.88D+00  2.94D+00
                    CP:  3.00D+00  1.60D+00  5.39D-01  9.90D-01  1.58D+00
 E= -2378.74901725295     Delta-E=        0.000000000015 Rises=F Damp=F
 DIIS: error= 1.43D-07 at cycle  31 NSaved=  20.
 NSaved=20 IEnMin=19 EnMin= -2378.74901725296     IErMin=20 ErrMin= 1.43D-07
 ErrMax= 1.43D-07  0.00D+00 EMaxC= 1.00D-01 BMatC= 1.04D-12 BMatP= 4.73D-12
 IDIUse=1 WtCom= 1.00D+00 WtEn= 0.00D+00
 Coeff-Com: -0.275D-03 0.230D-03-0.231D-03-0.498D-03 0.240D-03 0.121D-02
 Coeff-Com:  0.695D-03-0.848D-04-0.666D-03 0.249D-02-0.175D-01-0.147D-01
 Coeff-Com:  0.235D-01 0.534D-01 0.431D-01-0.146D+00-0.112D+00 0.869D-01
 Coeff-Com:  0.175D+00 0.905D+00
 Coeff:     -0.275D-03 0.230D-03-0.231D-03-0.498D-03 0.240D-03 0.121D-02
 Coeff:      0.695D-03-0.848D-04-0.666D-03 0.249D-02-0.175D-01-0.147D-01
 Coeff:      0.235D-01 0.534D-01 0.431D-01-0.146D+00-0.112D+00 0.869D-01
 Coeff:      0.175D+00 0.905D+00
 Gap=     0.045 Goal=   None    Shift=    0.000
 RMSDP=6.13D-08 MaxDP=1.54D-06 DE= 1.55D-11 OVMax= 0.00D+00

 Cycle  45  Pass 1  IDiag  1:
 RMSU=  1.82D-08    CP:  1.00D+00  3.00D+00  3.00D+00  2.89D+00  2.94D+00
[...]
 86438,0.00268045,-0.00455322,0.00582591,-0.01092971,-0.00512758,0.0153
 4460,0.00021588,0.00007601,0.00006677,0.00043585,-0.00003050,-0.000095
 20,0.00001167,0.00018096,-0.00007533,-0.00002401,-0.00015416,-0.000302
 49,-0.03612566,-0.00395843,-0.01502909,0.00001334,0.00060924,0.0008644
 4,-0.00095308,0.00011135,-0.00220870,0.00095654,-0.00077340,0.00237668
 ,0.00069584,0.00103309,-0.00270325,-0.00051972,-0.00418234,0.00157046,
 -0.00170464,0.00051982,-0.00205979,0.00559354,0.00041746,0.00668149,0.
 00048415,-0.00214306,-0.00365193,-0.00000178,0.00004643,-0.00020062,-0
 .00012250,-0.00001227,-0.00003868,-0.00008769,-0.00011538,0.00004096,0
 .00008239,0.00000058,-0.00012187,0.00730084,-0.00416941,0.00005060,-0.
 01284101,0.00906899,-0.00252277,0.01029344,-0.01020124,0.00406530,-0.2
 3048511,0.05275670,0.15730479,-0.05598581,0.03311258,0.02180295,0.0026
 1698,0.00030439,-0.00249413,-0.00252726,-0.00062982,0.00983018,0.31357
 467,-0.00054126,-0.00178110,-0.00081019,0.00114112,0.00367625,0.001288
 52,-0.00017913,-0.00355895,-0.00086643,-0.00201303,0.00538453,0.001707
 31,0.00379196,-0.00639207,-0.00386264,0.00229231,0.00451459,0.00076311
 ,-0.00489239,-0.01391501,0.01080865,-0.00175142,0.00143086,0.00146328,
 0.00012619,0.00024586,-0.00004176,0.00008452,0.00007448,0.00002818,-0.
 00014723,0.00019771,-0.00001011,0.00015178,-0.00001119,0.00010670,0.00
 074575,-0.04246006,-0.00787205,0.00006338,-0.00001951,-0.00084229,0.00
 032847,-0.00053795,0.00134641,-0.00090762,0.00031069,-0.00194869,0.000
 47828,-0.00221757,0.00090177,-0.00070331,-0.00080622,-0.00023589,0.001
 19945,0.00018766,0.00178099,0.00085027,0.00489769,0.00690928,-0.002354
 84,0.00288989,-0.01119344,0.00007420,0.00004168,0.00007531,0.00006393,
 -0.00003755,-0.00019033,-0.00014326,0.00001194,0.00003242,-0.00023234,
 0.00012249,0.00001871,0.00117188,0.00164194,-0.00514674,0.00126109,-0.
 00069258,0.00463289,-0.01699841,0.00923943,0.00108158,0.04776535,-0.06
 146255,-0.00813790,0.03777748,-0.00323214,-0.01348335,-0.00319432,-0.0
 0041316,0.01224553,0.00418745,0.00002962,-0.00207673,-0.06871809,0.103
 36927,-0.00282148,0.00123435,0.00065014,-0.00038037,-0.00201240,-0.000
 74128,-0.00193271,0.00255075,0.00088800,-0.00042062,-0.00667305,-0.000
 79430,0.00159513,0.00243734,0.00284367,0.00092419,-0.00311525,-0.00198
 675,-0.00678592,0.00482691,-0.00327429,0.01349690,0.00330187,-0.015820
 91,-0.00037129,-0.00024586,-0.00010413,-0.00038788,-0.00001100,0.00009
 692,-0.00013265,0.00004489,0.00004024,-0.00001812,-0.00012069,0.000041
 49,0.00822374,0.00596528,0.02186284,-0.00161037,-0.00369374,-0.0006866
 9,0.00239118,0.00198518,0.00422890,-0.00340232,0.00012353,-0.00658978,
 0.00217723,-0.00163410,0.00556335,0.00143588,0.00654267,-0.00292714,0.
 00181044,0.00034244,0.00530539,-0.01214752,-0.00176174,-0.02701394,-0.
 00643307,-0.00501672,-0.02111770,0.00018957,-0.00014361,0.00040748,-0.
 00007578,0.00008321,0.00002994,0.00025154,0.00038487,-0.00021711,0.000
 37099,-0.00026924,0.00006430,-0.00929387,-0.00052904,0.01606794,0.0146
 3111,-0.00610940,-0.00625012,0.02293525,-0.01133621,-0.00930231,0.1532
 8287,-0.00702264,-0.22992179,0.02560474,-0.01206417,0.01308559,0.00090
 435,0.01030553,-0.02366443,-0.01095750,0.01173130,-0.00805669,-0.19502
 928,0.01424232,0.28399982,-0.00005404,0.00001465,0.00001494,-0.0000146
 8,-0.00003100,-0.00002236,-0.00013157,0.00007061,0.00004548,0.00013894
 ,-0.00017937,-0.00008519,0.00005661,0.00022698,0.00014779,-0.00002798,
 -0.00015363,-0.00006284,0.00007409,-0.00017185,-0.00004890,0.00004947,
 0.00009982,0.00013139,-0.00002458,-0.00002183,0.00000059,-0.00003010,-
 0.00000400,0.00000267,-0.00001361,0.00000093,0.00001446,-0.00000570,-0
 .00001739,-0.00000327,-0.00020955,0.00019211,-0.00068751,-0.00000344,0
 .00000345,-0.00002740,0.00007752,-0.00004027,0.00018670,-0.00002882,0.
 00017184,-0.00012392,-0.00004915,-0.00018981,-0.00007260,-0.00009772,0
 .00016270,-0.00012143,0.00009052,-0.00005799,0.00019192,-0.00003544,-0
 .00008258,-0.00000720,0.00003494,0.00016502,0.00002029,0.00001151,-0.0
 0000388,0.00003874,0.00000935,0.00001605,0.00002644,0.00000726,0.00000
 775,0.00000105,0.00000560,-0.00001078,0.00001706,-0.22580218,0.0710771
 5,0.14397148,-0.01913374,0.00008930,0.02366895,0.00254633,0.00302081,-
 0.00479516,-0.00028605,0.00047363,-0.00186221,0.00439985,-0.00024389,-
 0.00175606,-0.00131329,0.00080127,-0.00419921,0.00005185,-0.00016035,0
 .00116518,-0.00026489,-0.00015890,0.00065774,0.24010815,0.00007775,-0.
 00001295,-0.00004114,-0.00000755,0.00004144,-0.00000910,0.00005360,-0.
 00002265,-0.00003644,-0.00006704,0.00000221,0.00000690,0.00002697,-0.0
 0003896,0.00009149,-0.00007602,0.00004378,-0.00001718,0.00003165,-0.00
 008778,0.00009651,0.00005768,0.00001206,0.00014602,0.00000543,0.000009
 01,-0.00000677,0.00000997,0.00000494,-0.00001289,0.00000714,-0.0000096
 9,0.00002545,0.00000425,-0.00000516,0.00002133,0.00003467,-0.00004232,
 -0.00043244,-0.00001859,-0.00006772,-0.00001491,0.00000305,0.00004276,
 -0.00000274,-0.00004100,-0.00009346,-0.00003704,0.00002621,0.00012517,
 -0.00001439,-0.00008348,-0.00014129,0.00007043,0.00000939,0.00005954,-
 0.00001423,0.00001493,-0.00011114,0.00011549,-0.00004070,0.00014814,-0
 .00004149,-0.00000404,-0.00000080,-0.00000583,-0.00000005,-0.00000649,
 -0.00000962,-0.00000233,-0.00000244,-0.00000392,0.00000365,-0.00000119
 ,-0.00000477,0.07067592,-0.04611306,-0.02033656,0.01414835,-0.00405350
 ,-0.01884781,0.00198434,0.00088049,0.00487303,-0.00057616,-0.00043321,
 -0.00010905,0.00232884,0.00016218,0.00286589,-0.01336262,0.00248026,0.
 00667124,-0.00066790,0.00091469,0.00025736,-0.00017583,0.00002379,-0.0
 0007909,-0.07302227,0.04779531,0.00022377,-0.00004564,-0.00008814,0.00
 001250,0.00010630,0.00002918,0.00026577,-0.00014438,-0.00009551,-0.000
 23676,0.00026727,0.00010791,-0.00001991,-0.00032496,-0.00008712,-0.000
 10940,0.00025823,0.00009261,0.00008718,0.00004601,0.00026583,-0.000068
 91,-0.00008176,0.00015620,0.00003652,0.00003992,-0.00001582,0.00005236
 ,0.00001138,-0.00002284,0.00002728,-0.00001483,0.00001176,0.00001221,0
 .00001104,0.00003283,-0.00065678,0.00015383,-0.00024130,-0.00001753,-0
 .00014831,0.00005151,-0.00009771,0.00015803,-0.00027622,-0.00001022,-0
 .00037714,0.00012558,0.00010852,0.00049003,0.00001066,0.00009987,-0.00
 040938,0.00038192,-0.00013508,0.00018610,-0.00033625,0.00017465,-0.000
 08312,0.00001700,-0.00005199,-0.00007275,0.00008035,-0.00001993,0.0000
 0132,-0.00005743,-0.00001389,-0.00002901,-0.00004432,-0.00001579,-0.00
 001931,-0.00000708,-0.00000296,0.00000494,-0.00002409,0.14625684,-0.02
 116506,-0.17625353,-0.01186276,0.00247923,0.00840582,-0.00201030,0.003
 12610,-0.00077873,0.00093757,-0.00145005,0.00131623,-0.00656480,0.0058
 6199,-0.00288049,0.02881086,-0.01398704,-0.01119781,0.00214404,-0.0003
 8378,-0.00115223,0.00023596,-0.00015814,0.00007984,-0.15637149,0.02737
 988,0.17930118,-0.00000222,-0.00000440,0.00000336,-0.00000055,0.000004
 78,-0.00000387,-0.00002223,0.00000094,0.00000236,0.00004229,-0.0000037
 5,-0.00000940,0.00001295,0.00003452,0.00001222,-0.00000358,-0.00001870
 ,-0.00000471,0.00003010,-0.00001620,-0.00001016,0.00002002,-0.00005125
 ,0.00006236,-0.00000296,-0.00000499,0.00000331,-0.00000492,-0.00000170
 ,0.00000158,-0.00000212,0.,0.00000160,-0.00000183,-0.00000392,-0.00000
 445,-0.00039046,0.00021952,-0.00059877,-0.00000590,0.00001456,-0.00001
 425,0.00001891,-0.00002647,0.00005163,0.00000105,0.00005251,-0.0000297
 8,0.00000254,-0.00007290,0.00001555,-0.00001640,0.00005662,-0.00004224
 ,0.00002534,-0.00001877,0.00006803,0.00008936,-0.00000945,0.00001164,0
 .00003410,0.00001465,0.00000216,0.00000356,-0.00000068,0.00000891,-0.0
 0000056,0.00000320,0.00000740,0.00000131,0.00000011,0.00000112,0.00000
 163,-0.00000212,0.00000480,0.00672312,0.00756697,-0.02936681,-0.064168
 45,0.01779416,0.01584920,0.00541598,-0.01430027,0.02676345,-0.00392602
 ,0.00543097,0.00018328,0.00039475,-0.00094472,-0.00009614,-0.00335301,
 0.00419462,0.00302861,0.00009717,-0.00021659,0.00003141,0.00073884,-0.
 00062810,0.00203979,-0.00011132,-0.00282052,-0.00060211,0.05770933,-0.
 00009906,0.00007375,0.00004094,-0.00006491,-0.00017029,-0.00005663,-0.
 00010660,0.00020490,0.00007900,0.00012771,-0.00030566,-0.00016041,-0.0
 0006939,0.00034691,0.00011926,-0.00002741,-0.00025383,-0.00010108,0.00
 002120,0.00016246,-0.00001632,0.00020288,0.00001062,-0.00008655,-0.000
 02727,-0.00002565,-0.00000278,-0.00003167,-0.00000456,0.00000402,-0.00
 000715,-0.00000223,0.00001330,-0.00000454,-0.00001459,0.00000393,0.000
 18432,-0.00074872,0.00075943,-0.00005560,-0.00013065,-0.00003841,0.000
 11578,0.00005690,0.00023042,-0.00012744,0.00003964,-0.00027304,0.00005
 832,-0.00001134,0.00016792,-0.00001377,0.00013794,-0.00015147,0.000104
 33,0.00001797,0.00025586,-0.00001264,-0.00004372,-0.00022096,-0.000008
 83,0.00005574,-0.00015836,0.00001495,-0.00000580,0.00003124,0.00000565
 ,0.00000953,0.00001324,0.00001234,0.00001817,-0.00000826,0.00001414,-0
 .00001358,0.00000991,-0.00737480,-0.00533117,0.02257759,0.01863180,-0.
 08003428,0.10899365,-0.00052470,0.00367767,-0.00839077,0.00288173,0.00
 316035,0.00000209,-0.00066381,-0.00066892,-0.00004019,0.00640310,0.002
 85914,-0.00215304,-0.00050186,0.00016594,-0.00021610,0.00053211,0.0012
 5040,-0.00071712,-0.00240398,-0.00277676,-0.00211727,-0.01549270,0.079
 86674,0.00027020,-0.00012582,-0.00010858,0.00014531,0.00034269,0.00010
 051,0.00029590,-0.00042873,-0.00018018,-0.00037435,0.00055979,0.000275
 39,-0.00003698,-0.00073742,-0.00025643,0.00000478,0.00057957,0.0002106
 2,-0.00015529,-0.00005838,0.00019349,-0.00035789,-0.00009630,0.0000726
 5,0.00006861,0.00007061,-0.00000536,0.00008620,0.00001681,-0.00002429,
 0.00003176,-0.00001182,-0.00000535,0.00001731,0.00003321,0.00002602,0.
 00029670,0.00018146,-0.00111345,0.00006014,0.00003946,0.00011997,-0.00
 025630,0.00008630,-0.00058998,0.00015445,-0.00043791,0.00049966,0.0000
 4122,0.00053847,-0.00028078,0.00011554,-0.00069840,0.00052864,-0.00029
 323,0.00016769,-0.00069320,0.00009748,0.00021874,0.00040250,-0.0000600
 1,-0.00012978,0.00028522,-0.00003753,0.00001052,-0.00009228,-0.0000251
 7,-0.00003597,-0.00005568,-0.00002839,-0.00003950,0.00000335,-0.000019
 05,0.00002154,-0.00003804,0.00648057,0.00030139,-0.01109607,0.01542427
 ,0.10998615,-0.31575051,-0.00826478,0.01212411,-0.01757770,0.00568781,
 -0.00344818,0.00451493,-0.00140086,0.00039435,-0.00025003,-0.00106907,
 0.00101541,0.00459272,-0.00008641,-0.00013237,0.00055057,-0.00008791,0
 .00079818,-0.00037779,-0.00149715,-0.00159652,0.00089454,-0.01481552,-
 0.11883717,0.33474380,0.00005733,-0.00004960,-0.00000571,0.00004972,0.
 00010243,0.00002058,0.00004074,-0.00012359,-0.00003762,-0.00004224,0.0
 0014649,0.00004832,-0.00001819,-0.00011657,-0.00005593,0.00002680,0.00
 012751,0.00005445,0.00020744,-0.00010555,-0.00024877,-0.00004283,-0.00
 009688,0.00005837,0.00001967,0.00000695,0.00001526,0.00001980,-0.00000
 142,0.00000190,0.00000940,-0.00000484,-0.00001079,0.00000067,0.0000020
 6,-0.00001549,-0.00029001,0.00054119,-0.00018051,0.00000613,0.00007482
 ,-0.00002489,-0.00003418,-0.00008041,-0.00004524,0.00005986,0.00006856
 ,0.00008738,-0.00004560,-0.00016982,0.00004169,-0.00000808,0.00014700,
 0.00007051,0.00001028,-0.00004073,0.00001144,-0.00000571,0.00008470,-0
 .00003268,0.00007764,-0.00003468,-0.00011094,-0.00000262,0.00000031,-0
 .00000681,-0.00000270,-0.00000579,-0.00000329,-0.00000042,-0.00002121,
 0.00000367,0.00000010,0.00000337,-0.00000003,0.00354998,-0.00239887,0.
 00600625,-0.01953347,0.01687829,-0.01760485,-0.21779184,0.15115554,-0.
 06607343,0.00184090,-0.00268778,0.00176082,0.00483474,0.00045421,0.002
 25002,-0.00138728,-0.00015890,0.00092661,-0.00016330,-0.00081648,-0.00
 098530,-0.00064055,-0.00074439,-0.00023735,-0.00073731,0.00226756,0.00
 025030,0.00011801,-0.00233046,-0.00058908,0.22999195,-0.00019579,0.000
 06995,0.00003745,-0.00004154,-0.00014451,-0.00005475,-0.00024181,0.000
 21046,0.00007833,0.00022387,-0.00028224,-0.00025035,-0.00014229,0.0003
 8350,0.00013195,0.00006069,-0.00023980,-0.00016375,0.00021427,0.000016
 06,0.00003048,0.00029089,0.00001685,-0.00006333,-0.00003044,-0.0000230
 5,-0.00000702,-0.00004058,-0.00000647,0.00000762,-0.00001360,-0.000000
 94,0.00002009,-0.00000230,-0.00001990,0.00001389,0.00026535,-0.0000861
 5,0.00089577,-0.00008708,-0.00025046,-0.00003208,0.00013644,0.00015357
 ,0.00022967,-0.00019886,-0.00009106,-0.00034457,0.00011861,0.00019531,
 0.00020500,0.00002511,-0.00002707,-0.00011071,0.00008996,0.00008635,0.
 00026265,-0.00018758,0.00020104,-0.00044805,-0.00019712,-0.00004902,-0
 .00004097,0.00001827,-0.00000963,0.00002611,0.00001004,0.00000585,0.00
 000363,0.00000861,0.00002291,-0.00001385,0.00001838,-0.00001776,0.0000
 0615,-0.00100341,0.00439810,-0.00109511,0.00237831,-0.00722014,0.00485
 069,0.15226534,-0.13954373,0.07673191,0.00877247,-0.00597871,-0.001340
 65,0.00007301,0.00538180,0.00372042,-0.00001370,-0.00073182,-0.0005526
 8,-0.00032298,-0.00175717,-0.00009579,-0.00005940,-0.00076023,-0.00250
 972,0.00178554,0.00190150,0.00089027,-0.00203125,-0.00222078,-0.001680
 54,-0.16185372,0.14686656,0.00017463,-0.00009019,-0.00005653,0.0000654
 9,0.00018408,0.00005509,0.00017761,-0.00023540,-0.00008087,-0.00014928
 ,0.00036916,0.00013693,-0.00000157,-0.00035148,-0.00015923,-0.00002035
 ,0.00029037,0.00013241,0.00015842,-0.00010695,-0.00003900,-0.00022634,
 -0.00011187,0.00015102,0.00003398,0.00002673,0.00000322,0.00004180,0.0
 0000476,-0.00000973,0.00001921,-0.00000852,-0.00000868,0.00000714,0.00
 000694,0.00000132,-0.00079229,0.00066390,-0.00026624,0.00002222,-0.000
 00355,0.00005149,-0.00010929,0.00003936,-0.00025752,0.00007797,-0.0001
 6751,0.00022338,0.00000364,0.00019831,-0.00008979,0.00006105,-0.000218
 84,0.00031565,-0.00011128,0.00006842,-0.00028095,0.00007687,0.00009378
 ,0.00007410,0.00006513,-0.00010921,0.00011063,-0.00001404,0.00000176,-
 0.00003770,-0.00000939,-0.00001674,-0.00002282,-0.00001210,-0.00002775
 ,0.00000132,-0.00000620,0.00000400,-0.00001135,0.00339433,0.00062613,-
 0.00302406,0.01616981,-0.01552080,0.00980219,-0.06876256,0.07813003,-0
 .10123833,-0.02745854,0.01676177,-0.00172167,0.00571253,0.00158141,-0.
 00443768,-0.00088420,0.00004417,0.00015011,-0.00160687,0.00063766,-0.0
 0141963,-0.00055998,-0.00234577,0.00428283,0.00141312,0.00013535,0.000
 88946,-0.00142613,-0.00127844,0.00105937,0.07483271,-0.07911241,0.0954
 5694,-0.00024787,0.00009763,0.00008680,0.00000811,-0.00019161,-0.00004
 648,-0.00027390,0.00018671,0.00015312,0.00036997,-0.00026020,-0.000264
 86,-0.00015965,0.00042998,0.00008938,0.00012378,-0.00028667,-0.0001010
 5,0.00019385,0.00002991,0.00003776,0.00012333,0.00003170,-0.00008627,-
 0.00003452,-0.00003167,-0.00000496,-0.00004452,-0.00001092,0.00001330,
 -0.00001105,-0.00000188,-0.00000737,-0.00000637,-0.00002927,-0.0000102
 4,0.00018902,0.00015444,0.00029201,-0.00004147,-0.00015789,-0.00003698
 ,0.00018418,0.00005184,0.00034444,-0.00014086,0.00010177,-0.00039720,0
 .00001910,-0.00003369,0.00023621,0.00006524,0.00029108,-0.00022463,0.0
 0018360,-0.00003525,0.00034266,-0.00019676,-0.00007355,-0.00045522,-0.
 00008053,-0.00014106,0.00010529,0.00002132,-0.00001217,0.00004755,0.00
 000630,0.00001082,0.00002353,0.00001476,0.00001036,-0.00000836,0.00000
 974,-0.00002726,0.00002933,0.00026168,-0.00481744,0.00450863,0.0032701
 6,-0.00100460,0.00075885,-0.00111318,-0.00023000,0.00153266,0.00122393
 ,0.00106973,0.00521441,-0.01504194,0.01423002,-0.01518128,-0.23486982,
 0.15251715,-0.06562610,0.00194702,-0.00205605,-0.00296930,-0.00177507,
 0.00075320,-0.00048454,0.00071317,-0.00080527,-0.00086788,0.00053216,0
 .00063824,0.00017671,-0.00017486,-0.00009171,-0.00035724,0.24475197,-0
 .00014941,0.00005852,0.00008727,0.00003672,-0.00008452,-0.00003547,-0.
 00013181,0.00006325,0.00003299,0.00015848,-0.00007298,-0.00008272,-0.0
 0013188,0.00011566,-0.00002920,0.00014477,-0.00006202,-0.00002879,0.00
 004857,0.00013321,-0.00044691,-0.00006762,0.00004081,-0.00019066,0.000
 00363,-0.00000955,0.00002295,-0.00000549,-0.00000755,0.00001848,0.0000
 0028,-0.00000048,-0.00001596,-0.00000448,0.00001057,-0.00002181,0.0006
 5594,0.00047313,0.00110924,-0.00000446,0.00013649,-0.00006498,-0.00003
 606,-0.00012509,0.00001440,0.00000625,0.00010238,0.00005199,-0.0000212
 3,-0.00022667,0.00020153,-0.00004856,0.00019218,-0.00018171,0.00002143
 ,-0.00008738,0.00010433,-0.00008134,0.00008326,0.00005359,-0.00003487,
 -0.00020073,-0.00014618,-0.00000132,0.00000190,-0.00000386,0.00000021,
 0.00000036,-0.00000079,0.00001435,-0.00000591,-0.00000084,0.00000198,0
 .00001486,-0.00000945,0.01044434,-0.00989377,-0.00214553,-0.00352732,0
 .00386640,0.00211880,0.00094994,-0.00083035,-0.00037771,0.00074904,0.0
 0708731,0.00009146,0.00391013,-0.00453985,0.00452913,0.14962837,-0.126
 13191,0.06903101,-0.00193463,-0.00228485,-0.00072749,0.00007622,-0.001
 24294,-0.00103764,-0.00142584,-0.00062671,-0.00045995,0.00128132,0.000
 64776,0.00100837,-0.00021927,-0.00044921,-0.00016268,-0.16030641,0.133
 85442,-0.00005143,0.00006194,0.00002929,-0.00002837,-0.00013688,-0.000
 03346,-0.00002700,0.00012607,0.00005900,0.00009797,-0.00011627,-0.0001
 2747,-0.00013233,0.00019396,0.00000761,-0.00000665,-0.00012577,-0.0000
 3138,0.00010299,0.00017328,0.00002502,0.00001632,0.00004600,-0.0000736
 9,-0.00000919,-0.00000748,-0.00000724,-0.00000758,-0.00000229,0.000000
 49,0.00000450,-0.00000635,0.00000155,-0.00000002,-0.00000792,0.0000074
 6,0.00022886,-0.00047303,0.00146382,-0.00003976,-0.00016775,0.00001051
 ,0.00004809,0.00012497,0.00004368,-0.00010265,-0.00013955,-0.00014954,
 0.00007281,0.00024774,0.00014464,0.00005625,-0.00008451,0.00002053,0.0
 0001378,0.00008367,0.00002493,-0.00005009,-0.00001541,-0.00017878,-0.0
 0008585,-0.00011752,0.00003521,0.00000424,-0.00000524,-0.00000042,0.00
 000127,-0.00000445,-0.00000893,0.00000367,0.00000492,-0.00000947,0.000
 00747,-0.00001021,-0.00000082,-0.03105868,0.01738553,-0.00379328,0.006
 36959,-0.00116749,-0.00468195,-0.00088158,0.00022244,0.00009484,0.0037
 8948,0.00156023,-0.00203441,0.01515168,-0.01351777,0.01234372,-0.06364
 787,0.06894678,-0.09582812,-0.00293831,-0.00017213,0.00119325,0.001234
 19,-0.00100870,-0.00069153,0.00002791,-0.00108243,0.00130850,-0.001129
 45,0.00172260,-0.00057823,-0.00017157,-0.00022574,0.00026431,0.0731373
 1,-0.07230524,0.09115036\\-0.00000195,0.00000137,-0.00000045,0.0000001
 8,-0.00000201,0.00000109,-0.00000001,0.00000061,0.00000105,-0.00000060
 ,-0.00000013,-0.00000051,-0.00000199,-0.00000012,0.00000092,0.00000046
 ,-0.00000004,-0.00000082,-0.00000046,0.00000259,-0.00000362,0.00000344
 ,0.00000168,0.00000482,0.,-0.00000008,0.00000058,-0.00000004,0.0000000
 8,0.00000057,-0.00000025,-0.00000006,0.00000012,-0.00000052,-0.0000002
 8,0.00000026,-0.00000529,-0.00000077,-0.00000360,-0.00000045,0.0000000
 2,-0.00000133,0.00000061,-0.00000396,0.00000146,-0.00000038,0.00000249
 ,-0.00000190,-0.00000108,0.00000065,-0.00000178,0.00000175,-0.00000188
 ,0.00000451,0.00000043,-0.00000001,-0.00000003,0.00000185,-0.00000348,
 -0.00000556,-0.00000355,0.00000336,0.00000110,0.00000047,-0.00000008,-
 0.00000057,0.00000048,-0.00000006,-0.00000086,0.00000012,-0.00000013,-
 0.00000070,-0.00000025,-0.00000034,-0.00000023,-0.00000113,0.00000326,
 -0.00000157,0.00000072,0.00000050,0.00000079,0.,0.00000044,0.00000058,
 0.00000123,0.00000022,-0.00000147,0.00000069,-0.00000048,0.00000056,0.
 00000132,-0.00000115,0.00000138,-0.00000004,0.00000181,0.00000184,0.00
 000178,-0.00000624,0.00000060,0.00000070,0.00000076,0.00000105,0.00000
 123,0.00000089,0.00000097,0.00000054,0.00000054,0.00000012,-0.00000002
 ,0.,0.00000061\\\@
 The archive entry for this job was punched.


 HOW IS IT THAT THE SKY FEEDS THE STARS?

                           -- LUCRETIUS
 Job cpu time:       0 days  0 hours 19 minutes 26.9 seconds.
 Elapsed time:       0 days  0 hours  0 minutes 11.2 seconds.
 File lengths (MBytes):  RWF=    127 Int=      0 D2E=      0 Chk=     32 Scr=      1
 Normal termination of Gaussian 16 at Thu Sep 26 10:49:16 2024.
