52
deferipronate_red_low_spin.log	Energy: -1599564.7986593
C         -1.14429        3.59962       -1.73080
C         -0.59743        2.51442       -0.80841
C          0.00216        2.63195        0.52348
O          0.31288        1.36895        0.94993
C          0.29261        3.74598        1.34780
C          0.08893        5.15480        1.13180
N         -0.44323        5.73412        0.03952
C         -0.51129        7.24368        0.14969
O         -0.61742        1.23505       -1.17726
H         -2.22297        3.44538       -1.90502
H         -0.96030        4.57983       -1.21476
H         -0.63401        3.56276       -2.70792
H          0.75368        3.48081        2.30592
H          0.42532        5.78254        1.98549
H         -1.56452        7.57244        0.04803
H         -0.11173        7.65095        1.10038
H          0.05481        7.69889       -0.68694
Fe         0.00066       -0.00352       -0.12861
C          3.69135       -0.81568       -1.73453
C          2.47971       -0.74468       -0.81017
C          2.28406       -1.31926        0.52358
O          1.03490       -0.95741        0.95059
C          3.10597       -2.12419        1.34913
C          4.42928       -2.64902        1.13373
N          5.19636       -2.47779        0.04096
C          6.53989       -3.16920        0.15232
O          1.38074       -0.08946       -1.17919
H          4.09389        0.19568       -1.91552
H          4.45097       -1.46022       -1.21633
H          3.40351       -1.24572       -2.70857
H          2.64721       -2.38956        2.30830
H          4.80675       -3.25127        1.98862
H          7.34884       -2.41906        0.04920
H          6.69466       -3.71658        1.10403
H          6.65331       -3.88825       -0.68298
C         -2.55271       -2.79358       -1.72746
C         -1.88397       -1.77805       -0.80605
C         -2.28324       -1.31717        0.52638
O         -1.34207       -0.41925        0.95251
C         -3.39343       -1.62015        1.35138
C         -4.51570       -2.49558        1.13444
N         -4.75574       -3.24252        0.04065
C         -6.03317       -4.04990        0.14979
O         -0.76530       -1.15759       -1.17602
H         -2.77182       -2.33464       -2.70614
H         -1.88313       -3.65397       -1.89814
H         -3.49596       -3.11929       -1.21250
H         -3.39169       -1.08957        2.31021
H         -5.22705       -2.51664        1.98859
H         -6.58374       -3.90760        1.10160
H         -6.71008       -3.78095       -0.68515
H         -5.79713       -5.12733        0.04435
