 Entering Gaussian System, Link 0=g16
 Input=salicylate_red_low_spin.com
 Output=salicylate_red_low_spin.log
 Initial command:
 /gpfs/fs1/soft/improv/software/custom-built/gaussian/g16/l1.exe "/scratch/Gau-2441786.inp" -scrdir="/scratch/"
 Default CPUs for threads: 0-127
 Default linda workers: i375.lcrc.anl.gov
 Default is to use 128 SMP processors on each worker.
 Entering Link 1 = /gpfs/fs1/soft/improv/software/custom-built/gaussian/g16/l1.exe PID=   2441787.
  
 Copyright (c) 1988-2021, Gaussian, Inc.  All Rights Reserved.
  
 This is part of the Gaussian(R) 16 program.  It is based on
 the Gaussian(R) 09 system (copyright 2009, Gaussian, Inc.),
 the Gaussian(R) 03 system (copyright 2003, Gaussian, Inc.),
 the Gaussian(R) 98 system (copyright 1998, Gaussian, Inc.),
 the Gaussian(R) 94 system (copyright 1995, Gaussian, Inc.),
 the Gaussian 92(TM) system (copyright 1992, Gaussian, Inc.),
 the Gaussian 90(TM) system (copyright 1990, Gaussian, Inc.),
 the Gaussian 88(TM) system (copyright 1988, Gaussian, Inc.),
 the Gaussian 86(TM) system (copyright 1986, Carnegie Mellon
 University), and the Gaussian 82(TM) system (copyright 1983,
 Carnegie Mellon University). Gaussian is a federally registered
 trademark of Gaussian, Inc.
  
 This software contains proprietary and confidential information,
 including trade secrets, belonging to Gaussian, Inc.
  
 This software is provided under written license and may be
 used, copied, transmitted, or stored only in accord with that
 written license.
  
 The following legend is applicable only to US Government
 contracts under FAR:
  
                    RESTRICTED RIGHTS LEGEND
  
 Use, reproduction and disclosure by the US Government is
 subject to restrictions as set forth in subparagraphs (a)
 and (c) of the Commercial Computer Software - Restricted
 Rights clause in FAR 52.227-19.
  
 Gaussian, Inc.
 340 Quinnipiac St., Bldg. 40, Wallingford CT 06492
  
  
 ---------------------------------------------------------------
 Warning -- This program may not be used in any manner that
 competes with the business of Gaussian, Inc. or will provide
 assistance to any competitor of Gaussian, Inc.  The licensee
 of this program is prohibited from giving any competitor of
 Gaussian, Inc. access to this program.  By using this program,
 the user acknowledges that Gaussian, Inc. is engaged in the
 business of creating and licensing software in the field of
 computational chemistry and represents and warrants to the
 licensee that it is not a competitor of Gaussian, Inc. and that
 it will not use this program in any manner prohibited above.
 ---------------------------------------------------------------
  

 Cite this work as:
 Gaussian 16, Revision C.02,
 M. J. Frisch, G. W. Trucks, H. B. Schlegel, G. E. Scuseria, 
 M. A. Robb, J. R. Cheeseman, G. Scalmani, V. Barone, 
 G. A. Petersson, H. Nakatsuji, X. Li, M. Caricato, A. V. Marenich, 
 J. Bloino, B. G. Janesko, R. Gomperts, B. Mennucci, H. P. Hratchian, 
 J. V. Ortiz, A. F. Izmaylov, J. L. Sonnenberg, D. Williams-Young, 
 F. Ding, F. Lipparini, F. Egidi, J. Goings, B. Peng, A. Petrone, 
 T. Henderson, D. Ranasinghe, V. G. Zakrzewski, J. Gao, N. Rega, 
 G. Zheng, W. Liang, M. Hada, M. Ehara, K. Toyota, R. Fukuda, 
 J. Hasegawa, M. Ishida, T. Nakajima, Y. Honda, O. Kitao, H. Nakai, 
 T. Vreven, K. Throssell, J. A. Montgomery, Jr., J. E. Peralta, 
 F. Ogliaro, M. J. Bearpark, J. J. Heyd, E. N. Brothers, K. N. Kudin, 
 V. N. Staroverov, T. A. Keith, R. Kobayashi, J. Normand, 
 K. Raghavachari, A. P. Rendell, J. C. Burant, S. S. Iyengar, 
 J. Tomasi, M. Cossi, J. M. Millam, M. Klene, C. Adamo, R. Cammi, 
 J. W. Ochterski, R. L. Martin, K. Morokuma, O. Farkas, 
 J. B. Foresman, and D. J. Fox, Gaussian, Inc., Wallingford CT, 2019.
 
 ******************************************
 Gaussian 16:  ES64L-G16RevC.02  7-Dec-2021
                26-Sep-2024 
 ******************************************
 %chk=salicylate_red_low_spin.chk
 SetSPE:  set environment variable "OMP_PROC_BIND" = "true"
 SetSPE:  set environment variable "OMP_PLACES" = "{0},{1},{2},{3},{4},{5},{6},{7},{8},{9},{10},{11},{12},{13},{14},{15},{16},{17},{18},{19},{20},{21},{22},{23},{24},{25},{26},{27},{28},{29},{30},{31},{32},{33},{34},{35},{36},{37},{38},{39},{40},{41},{42},{43},{44},{45},{46},{47},{48},{49},{50},{51},{52},{53},{54},{55},{56},{57},{58},{59},{60},{61},{62},{63},{64},{65},{66},{67},{68},{69},{70},{71},{72},{73},{74},{75},{76},{77},{78},{79},{80},{81},{82},{83},{84},{85},{86},{87},{88},{89},{90},{91},{92},{93},{94},{95},{96},{97},{98},{99},{100},{101},{102},{103},{104},{105},{106},{107},{108},{109},{110},{111},{112},{113},{114},{115},{116},{117},{118},{119},{120},{121},{122},{123},{124},{125},{126},{127}"
 SetLPE:    new flags="-opt 'Tsnet.Node.lindarsharg: ssh'  -nodelist 'i375.lcrc.anl.gov' -env GAUSS_MDEF=13421772800 -env GAUSS_EXEDIR="/gpfs/fs1/soft/improv/software/custom-built/gaussian/g16/bsd:/gpfs/fs1/soft/improv/software/custom-built/gaussian/g16" -env "OMP_PROC_BIND=true" -env "OMP_PLACES={0},{1},{2},{3},{4},{5},{6},{7},{8},{9},{10},{11},{12},{13},{14},{15},{16},{17},{18},{19},{20},{21},{22},{23},{24},{25},{26},{27},{28},{29},{30},{31},{32},{33},{34},{35},{36},{37},{38},{39},{40},{41},{42},{43},{44},{45},{46},{47},{48},{49},{50},{51},{52},{53},{54},{55},{56},{57},{58},{59},{60},{61},{62},{63},{64},{65},{66},{67},{68},{69},{70},{71},{72},{73},{74},{75},{76},{77},{78},{79},{80},{81},{82},{83},{84},{85},{86},{87},{88},{89},{90},{91},{92},{93},{94},{95},{96},{97},{98},{99},{100},{101},{102},{103},{104},{105},{106},{107},{108},{109},{110},{111},{112},{113},{114},{115},{116},{117},{118},{119},{120},{121},{122},{123},{124},{125},{126},{127}" -env GAUSS_ADEF="0,1,2,3,4,5,6,7,8,9,10,11,12,13,14,15,16,17,18,19,20,21,22,23,24,25,26,27,28,29,30,31,32,33,34,35,36,37,38,39,40,41,42,43,44,45,46,47,48,49,50,51,52,53,54,55,56,57,58,59,60,61,62,63,64,65,66,67,68,69,70,71,72,73,74,75,76,77,78,79,80,81,82,83,84,85,86,87,88,89,90,91,92,93,94,95,96,97,98,99,100,101,102,103,104,105,106,107,108,109,110,111,112,113,114,115,116,117,118,119,120,121,122,123,124,125,126,127""
 Will use up to    1 processors via Linda.
 ----------------------------------------------------------------------
 #p B3LYP empiricaldispersion=gd3 opt=(cartesian,calcall,maxcycles=500)
  freq scf=(maxcycles=500,xqc,maxconventional=50)
 ----------------------------------------------------------------------
 1/6=500,10=4,18=10,26=3,38=1/1,3;
 2/12=2,17=6,18=5,29=2,40=1/2;
 3/11=2,25=1,30=1,71=2,74=-5,124=31,140=1/1,2,3;
 4//1;
 5/5=2,7=500,8=3,13=1,38=5,85=50/2,8;
 8/6=4,10=90,11=11/1;
 11/6=1,8=1,9=11,15=111,16=1/1,2,10;
 10/6=1/2;
 6/7=2,8=2,9=2,10=2,18=1,28=1/1;
 7/7=1,10=1,25=1/1,2,3,16;
 1/6=500,10=4,18=10,26=3/3(3);
 2/29=1/2;
 7/7=1,8=1,9=1,25=1,44=-1/16;
 99/12=1/99;
 2/29=1/2;
 3/11=2,25=1,30=1,71=2,74=-5,124=31,140=1/1,2,3;
 4/5=5,16=3,69=1/1;
 5/5=2,7=500,8=3,13=1,38=5,85=50/2,8;
 8/6=4,10=90,11=11/1;
 11/6=1,8=1,9=11,15=111,16=1/1,2,10;
 10/6=1/2;
 7/7=1,10=1,25=1/1,2,3,16;
 1/6=500,10=4,18=10,26=3/3(-8);
 2/29=1/2;
 6/7=2,8=2,9=2,10=2,18=1,19=2,28=1/1;
 7/7=1,8=1,9=1,25=1,44=-1/16;
 99/12=1/99;
 Leave Link    1 at Thu Sep 26 11:05:31 2024, MaxMem=           0 cpu:               3.6 elap:               0.1
 (Enter /gpfs/fs1/soft/improv/software/custom-built/gaussian/g16/l101.exe)
 ----------------------------
 salicylate red low_spin spin
 ----------------------------
 Symbolic Z-matrix:
 Charge = -4 Multiplicity = 1
 C                    -0.77243  -1.38399  -0.48915 
 C                    -1.49928  -0.60256   0.35179 
 C                    -0.92213   0.52661   0.95145 
 C                     0.41947   0.86813   0.69175 
 C                     1.16275   0.06687  -0.17551 
 C                     0.56383  -1.05287  -0.77044 
 C                     2.62382   0.37476  -0.49703 
 O                     3.25404   1.3176    0.04277 
 O                     3.24642  -0.37768  -1.36027 
 O                     0.88884   1.89456   1.2569 
 H                    -1.22282  -2.25414  -0.93873 
 H                    -2.52435  -0.85007   0.55931 
 H                    -1.50706   1.13452   1.61613 
 H                     1.1352   -1.65872  -1.43986 
 Fe                    2.62359   2.50346   1.28722 
 C                    -0.0091    1.70974   5.81716 
 C                    -0.2845    2.99704   5.49085 
 C                     0.38935   3.61177   4.41995 
 C                     1.33666   2.89196   3.68175 
 C                     1.66277   1.59428   4.07899 
 C                     0.96075   0.99392   5.1138 
 C                     2.80862   0.84041   3.4133 
 O                     3.43114   1.39245   2.48789 
 O                     3.14819  -0.34432   3.82781 
 O                     1.86083   3.44403   2.66481 
 H                    -0.52974   1.23788   6.6197 
 H                    -1.01564   3.54098   6.052 
 H                     0.18075   4.6318    4.16317 
 H                     1.17522  -0.01756   5.37595 
 C                     3.62102   3.80935  -3.66123 
 C                     2.28685   4.0285   -3.48962 
 C                     1.71582   4.00927  -2.20569 
 C                     2.52069   3.76062  -1.09001 
 C                     3.89018   3.58067  -1.26131 
 C                     4.44726   3.58603  -2.55127 
 C                     4.77836   3.4186   -0.02195 
 O                     4.2559    3.29305   1.11505 
 O                     6.06788   3.42508  -0.15506 
 O                     2.02661   3.71558   0.06615 
 H                     4.04087   3.81483  -4.64707 
 H                     1.66247   4.22092  -4.3389 
 H                     0.66613   4.18418  -2.08709 
 H                     5.5009    3.42775  -2.69014 
 
 ITRead=  0  0  0  0  0  0  0  0  0  0  0  0  0  0  0  0  0  0  0  0
 ITRead=  0  0  0  0  0  0  0  0  0  0  0  0  0  0  0  0  0  0  0  0
 ITRead=  0  0  0
 MicOpt= -1 -1 -1 -1 -1 -1 -1 -1 -1 -1 -1 -1 -1 -1 -1 -1 -1 -1 -1 -1
 MicOpt= -1 -1 -1 -1 -1 -1 -1 -1 -1 -1 -1 -1 -1 -1 -1 -1 -1 -1 -1 -1
 MicOpt= -1 -1 -1
 NAtoms=     43 NQM=       43 NQMF=       0 NMMI=      0 NMMIF=      0
                NMic=       0 NMicF=      0.
                    Isotopes and Nuclear Properties:
 (Nuclear quadrupole moments (NQMom) in fm**2, nuclear magnetic moments (NMagM)
  in nuclear magnetons)

  Atom         1           2           3           4           5           6           7           8           9          10
 IAtWgt=          12          12          12          12          12          12          12          16          16          16
 AtmWgt=  12.0000000  12.0000000  12.0000000  12.0000000  12.0000000  12.0000000  12.0000000  15.9949146  15.9949146  15.9949146
 NucSpn=           0           0           0           0           0           0           0           0           0           0
 AtZEff=  -0.0000000  -0.0000000  -0.0000000  -0.0000000  -0.0000000  -0.0000000  -0.0000000  -0.0000000  -0.0000000  -0.0000000
 NQMom=    0.0000000   0.0000000   0.0000000   0.0000000   0.0000000   0.0000000   0.0000000   0.0000000   0.0000000   0.0000000
 NMagM=    0.0000000   0.0000000   0.0000000   0.0000000   0.0000000   0.0000000   0.0000000   0.0000000   0.0000000   0.0000000
 AtZNuc=   6.0000000   6.0000000   6.0000000   6.0000000   6.0000000   6.0000000   6.0000000   8.0000000   8.0000000   8.0000000

  Atom        11          12          13          14          15          16          17          18          19          20
 IAtWgt=           1           1           1           1          56          12          12          12          12          12
 AtmWgt=   1.0078250   1.0078250   1.0078250   1.0078250  55.9349393  12.0000000  12.0000000  12.0000000  12.0000000  12.0000000
 NucSpn=           1           1           1           1           0           0           0           0           0           0
 AtZEff=  -0.0000000  -0.0000000  -0.0000000  -0.0000000  -0.0000000  -0.0000000  -0.0000000  -0.0000000  -0.0000000  -0.0000000
 NQMom=    0.0000000   0.0000000   0.0000000   0.0000000   0.0000000   0.0000000   0.0000000   0.0000000   0.0000000   0.0000000
 NMagM=    2.7928460   2.7928460   2.7928460   2.7928460   0.0000000   0.0000000   0.0000000   0.0000000   0.0000000   0.0000000
 AtZNuc=   1.0000000   1.0000000   1.0000000   1.0000000  26.0000000   6.0000000   6.0000000   6.0000000   6.0000000   6.0000000

  Atom        21          22          23          24          25          26          27          28          29          30
 IAtWgt=          12          12          16          16          16           1           1           1           1          12
 AtmWgt=  12.0000000  12.0000000  15.9949146  15.9949146  15.9949146   1.0078250   1.0078250   1.0078250   1.0078250  12.0000000
 NucSpn=           0           0           0           0           0           1           1           1           1           0
 AtZEff=  -0.0000000  -0.0000000  -0.0000000  -0.0000000  -0.0000000  -0.0000000  -0.0000000  -0.0000000  -0.0000000  -0.0000000
 NQMom=    0.0000000   0.0000000   0.0000000   0.0000000   0.0000000   0.0000000   0.0000000   0.0000000   0.0000000   0.0000000
 NMagM=    0.0000000   0.0000000   0.0000000   0.0000000   0.0000000   2.7928460   2.7928460   2.7928460   2.7928460   0.0000000
 AtZNuc=   6.0000000   6.0000000   8.0000000   8.0000000   8.0000000   1.0000000   1.0000000   1.0000000   1.0000000   6.0000000

  Atom        31          32          33          34          35          36          37          38          39          40
 IAtWgt=          12          12          12          12          12          12          16          16          16           1
 AtmWgt=  12.0000000  12.0000000  12.0000000  12.0000000  12.0000000  12.0000000  15.9949146  15.9949146  15.9949146   1.0078250
 NucSpn=           0           0           0           0           0           0           0           0           0           1
 AtZEff=  -0.0000000  -0.0000000  -0.0000000  -0.0000000  -0.0000000  -0.0000000  -0.0000000  -0.0000000  -0.0000000  -0.0000000
 NQMom=    0.0000000   0.0000000   0.0000000   0.0000000   0.0000000   0.0000000   0.0000000   0.0000000   0.0000000   0.0000000
 NMagM=    0.0000000   0.0000000   0.0000000   0.0000000   0.0000000   0.0000000   0.0000000   0.0000000   0.0000000   2.7928460
 AtZNuc=   6.0000000   6.0000000   6.0000000   6.0000000   6.0000000   6.0000000   8.0000000   8.0000000   8.0000000   1.0000000

  Atom        41          42          43
 IAtWgt=           1           1           1
 AtmWgt=   1.0078250   1.0078250   1.0078250
 NucSpn=           1           1           1
 AtZEff=  -0.0000000  -0.0000000  -0.0000000
 NQMom=    0.0000000   0.0000000   0.0000000
 NMagM=    2.7928460   2.7928460   2.7928460
 AtZNuc=   1.0000000   1.0000000   1.0000000
 Leave Link  101 at Thu Sep 26 11:05:31 2024, MaxMem= 13421772800 cpu:               0.4 elap:               0.1
 (Enter /gpfs/fs1/soft/improv/software/custom-built/gaussian/g16/l103.exe)

 GradGradGradGradGradGradGradGradGradGradGradGradGradGradGradGradGradGrad
 Berny optimization.
 Initialization pass.
 No Z-matrix variables, so optimization will use Cartesian coordinates.
 Trust Radius=3.00D-01 FncErr=1.00D-07 GrdErr=1.00D-06 EigMax=2.50D+02 EigMin=1.00D-04
 Number of steps in this run=    258 maximum allowed number of steps=    258.
 GradGradGradGradGradGradGradGradGradGradGradGradGradGradGradGradGradGrad

 Leave Link  103 at Thu Sep 26 11:05:32 2024, MaxMem= 13421772800 cpu:               0.3 elap:               0.0
 (Enter /gpfs/fs1/soft/improv/software/custom-built/gaussian/g16/l202.exe)
 ---------------------------------------------------------------------------------------------------
                            Z-MATRIX (ANGSTROMS AND DEGREES)
   CD    Cent   Atom    N1       Length/X        N2       Alpha/Y        N3        Beta/Z          J
 ---------------------------------------------------------------------------------------------------
      1      1  C        0  -0.772426         -1.383989         -0.489154
      2      2  C        0  -1.499276         -0.602557          0.351787
      3      3  C        0  -0.922129          0.526615          0.951451
      4      4  C        0   0.419468          0.868133          0.691752
      5      5  C        0   1.162747          0.066872         -0.175511
      6      6  C        0   0.563826         -1.052867         -0.770443
      7      7  C        0   2.623820          0.374755         -0.497029
      8      8  O        0   3.254040          1.317596          0.042772
      9      9  O        0   3.246416         -0.377676         -1.360274
     10     10  O        0   0.888840          1.894561          1.256904
     11     11  H        0  -1.222818         -2.254136         -0.938730
     12     12  H        0  -2.524354         -0.850072          0.559312
     13     13  H        0  -1.507063          1.134524          1.616134
     14     14  H        0   1.135198         -1.658718         -1.439861
     15     15  Fe       0   2.623585          2.503456          1.287217
     16     16  C        0  -0.009102          1.709745          5.817164
     17     17  C        0  -0.284502          2.997037          5.490850
     18     18  C        0   0.389348          3.611772          4.419948
     19     19  C        0   1.336657          2.891955          3.681749
     20     20  C        0   1.662774          1.594281          4.078991
     21     21  C        0   0.960754          0.993915          5.113798
     22     22  C        0   2.808620          0.840406          3.413304
     23     23  O        0   3.431144          1.392448          2.487886
     24     24  O        0   3.148190         -0.344325          3.827813
     25     25  O        0   1.860834          3.444029          2.664806
     26     26  H        0  -0.529744          1.237881          6.619695
     27     27  H        0  -1.015645          3.540976          6.052004
     28     28  H        0   0.180750          4.631803          4.163166
     29     29  H        0   1.175222         -0.017557          5.375952
     30     30  C        0   3.621020          3.809353         -3.661228
     31     31  C        0   2.286846          4.028500         -3.489619
     32     32  C        0   1.715821          4.009271         -2.205687
     33     33  C        0   2.520685          3.760618         -1.090013
     34     34  C        0   3.890180          3.580672         -1.261311
     35     35  C        0   4.447258          3.586033         -2.551272
     36     36  C        0   4.778363          3.418605         -0.021951
     37     37  O        0   4.255897          3.293045          1.115051
     38     38  O        0   6.067881          3.425085         -0.155060
     39     39  O        0   2.026613          3.715581          0.066152
     40     40  H        0   4.040866          3.814828         -4.647068
     41     41  H        0   1.662474          4.220916         -4.338900
     42     42  H        0   0.666128          4.184181         -2.087092
     43     43  H        0   5.500902          3.427750         -2.690144
 ---------------------------------------------------------------------------------------------------
                         Z-Matrix orientation:                         
 ---------------------------------------------------------------------
 Center     Atomic      Atomic             Coordinates (Angstroms)
 Number     Number       Type             X           Y           Z
 ---------------------------------------------------------------------
      1          6           0       -0.772426   -1.383989   -0.489154
      2          6           0       -1.499276   -0.602557    0.351787
      3          6           0       -0.922129    0.526615    0.951451
      4          6           0        0.419468    0.868133    0.691752
      5          6           0        1.162747    0.066872   -0.175511
      6          6           0        0.563826   -1.052867   -0.770443
      7          6           0        2.623820    0.374755   -0.497029
      8          8           0        3.254040    1.317596    0.042772
      9          8           0        3.246416   -0.377676   -1.360274
     10          8           0        0.888840    1.894561    1.256904
     11          1           0       -1.222818   -2.254136   -0.938730
     12          1           0       -2.524354   -0.850072    0.559312
     13          1           0       -1.507063    1.134524    1.616134
     14          1           0        1.135198   -1.658718   -1.439861
     15         26           0        2.623585    2.503456    1.287217
     16          6           0       -0.009102    1.709745    5.817164
     17          6           0       -0.284502    2.997037    5.490850
     18          6           0        0.389348    3.611772    4.419948
     19          6           0        1.336657    2.891955    3.681749
     20          6           0        1.662774    1.594281    4.078991
     21          6           0        0.960754    0.993915    5.113798
     22          6           0        2.808620    0.840406    3.413304
     23          8           0        3.431144    1.392448    2.487886
     24          8           0        3.148190   -0.344325    3.827813
     25          8           0        1.860834    3.444029    2.664806
     26          1           0       -0.529744    1.237881    6.619695
     27          1           0       -1.015645    3.540976    6.052004
     28          1           0        0.180750    4.631803    4.163166
     29          1           0        1.175222   -0.017557    5.375952
     30          6           0        3.621020    3.809353   -3.661228
     31          6           0        2.286846    4.028500   -3.489619
     32          6           0        1.715821    4.009271   -2.205687
     33          6           0        2.520685    3.760618   -1.090013
     34          6           0        3.890180    3.580672   -1.261311
     35          6           0        4.447258    3.586033   -2.551272
     36          6           0        4.778363    3.418605   -0.021951
     37          8           0        4.255897    3.293045    1.115051
     38          8           0        6.067881    3.425085   -0.155060
     39          8           0        2.026613    3.715581    0.066152
     40          1           0        4.040866    3.814828   -4.647068
     41          1           0        1.662474    4.220916   -4.338900
     42          1           0        0.666128    4.184181   -2.087092
     43          1           0        5.500902    3.427750   -2.690144
 ---------------------------------------------------------------------
                    Distance matrix (angstroms):
                    1          2          3          4          5
     1  C    0.000000
     2  C    1.358723   0.000000
     3  C    2.397532   1.402756   0.000000
     4  C    2.808417   2.441329   1.408532   0.000000
     5  C    2.438906   2.795093   2.414149   1.395216   0.000000
     6  C    1.405110   2.391352   2.769069   2.418490   1.402307
     7  C    3.824621   4.321521   3.833394   2.552604   1.527384
     8  O    4.877902   5.135805   4.346463   2.942446   2.446521
     9  O    4.233510   5.050081   4.851659   3.708704   2.437820
    10  O    4.069080   3.571825   2.290020   1.262244   2.338223
    11  H    1.078021   2.114137   3.375763   3.886405   3.414748
    12  H    2.110355   1.074763   2.148526   3.411138   3.869814
    13  H    3.363753   2.148508   1.074013   2.153362   3.387884
    14  H    2.149034   3.356475   3.837531   3.382458   2.139393
    15  Fe   5.458994   5.245983   4.073418   2.808379   3.195398
    16  C    7.065656   6.118636   5.090047   5.211701   6.323323
    17  C    7.429125   6.390831   5.207273   5.297089   6.541257
    18  C    7.099762   6.154462   4.823757   4.629028   5.855143
    19  C    6.334695   5.598463   4.260455   3.725208   4.784328
    20  C    5.972288   5.358797   4.195610   3.680555   4.547944
    21  C    6.328618   5.592604   4.592249   4.456826   5.373733
    22  C    5.744649   5.478412   4.480812   3.621555   4.023289
    23  O    5.851612   5.731667   4.696945   3.545588   3.741185
    24  O    5.923541   5.809336   5.059595   4.330226   4.487502
    25  O    6.339658   5.745890   4.380842   3.550452   4.467652
    26  H    7.580820   6.604081   5.726156   6.014834   7.100043
    27  H    8.191531   7.063657   5.925433   6.159216   7.456322
    28  H    7.664358   6.689367   5.327666   5.125711   6.373934
    29  H    6.329291   5.721661   4.926582   4.826732   5.552119
    30  C    7.505679   7.860449   7.259021   6.152165   5.674459
    31  C    6.903403   7.108995   6.502602   5.564070   5.285963
    32  C    6.182646   6.176284   5.390287   4.465695   4.468782
    33  C    6.137800   6.105422   5.145807   3.994530   4.040305
    34  C    6.854485   7.010544   6.114074   4.818522   4.578716
    35  C    7.496569   7.831558   7.103480   5.841855   5.368123
    36  C    7.354892   7.464461   6.465813   5.100416   4.932583
    37  O    7.052102   6.991445   5.872977   4.558241   4.652023
    38  O    8.368310   8.587238   7.647597   6.257768   5.944607
    39  O    5.843680   5.582096   4.432645   3.329001   3.757359
    40  H    8.214848   8.671506   8.172337   7.092286   6.505810
    41  H    7.222481   7.434049   6.950960   6.172007   5.902509
    42  H    5.968865   5.792233   5.013292   4.333472   4.566508
    43  H    8.206815   8.631292   7.933040   6.618899   6.036428
                    6          7          8          9         10
     6  C    0.000000
     7  C    2.521197   0.000000
     8  O    3.676637   1.255990   0.000000
     9  O    2.828440   1.303446   2.200578   0.000000
    10  O    3.592088   2.897627   2.720510   4.191760   0.000000
    11  H    2.159507   4.680043   5.810584   4.865477   5.146999
    12  H    3.368416   5.396272   6.193177   6.099980   4.435036
    13  H    3.843047   4.701797   5.017677   5.808728   2.539105
    14  H    1.068477   2.690714   3.942859   2.470758   4.467552
    15  Fe   4.596086   2.777571   1.830951   3.962077   1.838753
    16  C    7.166368   6.970186   6.644206   8.152996   4.651497
    17  C    7.505009   7.154676   6.709945   8.413916   4.529734
    18  C    6.980648   6.296650   5.712213   7.582183   3.633614
    19  C    5.998408   5.045321   4.404216   6.305527   2.659927
    20  C    5.633123   4.832267   4.347384   5.998512   2.941652
    21  C    6.242688   5.884770   5.574876   7.001366   3.961309
    22  C    5.111489   3.942294   3.433162   4.945952   3.073575
    23  O    4.981745   3.255332   2.452662   4.239788   2.868927
    24  O    5.322117   4.415461   4.135181   5.189124   4.089847
    25  O    5.805620   4.472112   3.652095   5.720711   2.308205
    26  H    7.813933   7.831839   7.588102   8.974927   5.585977
    27  H    8.375195   8.133910   7.699643   9.405470   5.415785
    28  H    7.536757   6.768195   6.116104   8.062356   4.054657
    29  H    6.262893   6.061703   5.877663   7.056647   4.550249
    30  C    6.429949   4.775251   4.479190   4.792278   5.943000
    31  C    6.015231   4.734871   4.556561   4.986910   5.388654
    32  C    5.386303   4.117485   3.829726   4.722579   4.140704
    33  C    5.205867   3.438944   2.790944   4.210131   3.413665
    34  C    5.724968   3.530679   2.688274   4.011577   4.265257
    35  C    6.306488   4.225772   3.646730   4.309465   5.479564
    36  C    6.190042   3.759358   2.596534   4.306939   4.368818
    37  O    6.006115   3.711993   2.460874   4.540978   3.648691
    38  O    7.122174   4.613351   3.521129   4.886123   5.581990
    39  O    5.057443   3.440196   2.693967   4.503040   2.455307
    40  H    7.128287   5.573594   5.371206   5.386210   6.962727
    41  H    6.461710   5.520608   5.491939   5.703344   6.109292
    42  H    5.400990   4.568652   4.410319   5.291190   4.058850
    43  H    6.938003   4.733723   4.119462   4.618715   6.261067
                   11         12         13         14         15
    11  H    0.000000
    12  H    2.430950   0.000000
    13  H    4.253369   2.467869   0.000000
    14  H    2.483122   4.247696   4.911501   0.000000
    15  Fe   6.510326   6.186863   4.363991   5.193837   0.000000
    16  C    7.926384   6.365859   4.497045   8.082102   5.299191
    17  C    8.354325   6.643587   4.469567   8.469141   5.135282
    18  C    8.106996   6.580442   4.194580   7.916547   4.004271
    19  C    7.374415   6.217700   3.929640   6.854203   2.746070
    20  C    6.950862   5.991247   4.040409   6.427913   3.089297
    21  C    7.207699   6.024086   4.282936   7.072294   4.436940
    22  C    6.690956   6.280414   4.684170   5.709569   2.705590
    23  O    6.833641   6.649531   5.021192   5.477973   1.824307
    24  O    6.743369   6.566326   5.361893   5.790351   3.852232
    25  O    7.413735   6.488627   4.216189   6.588844   1.834180
    26  H    8.354898   6.713141   5.099163   8.724607   6.323012
    27  H    9.082764   7.192161   5.070448   9.369684   6.084705
    28  H    8.684211   7.096218   4.644033   8.477944   4.332249
    29  H    7.115342   6.130250   4.760060   7.010729   5.017072
    30  C    8.224395   8.791406   7.829591   6.404184   5.214150
    31  C    7.635202   7.958766   6.988387   6.154043   5.025666
    32  C    7.033567   7.016945   5.766928   5.748888   3.910486
    33  C    7.086182   7.030730   5.517459   5.604567   2.691147
    34  C    7.764779   8.005773   6.587379   5.922247   3.042968
    35  C    8.298050   8.829391   7.670144   6.301777   4.385403
    36  C    8.308710   8.478747   6.885269   6.407990   2.682254
    37  O    8.062603   7.965304   6.174301   6.386415   1.821410
    38  O    9.274804   9.623606   8.109474   7.199106   3.846133
    39  O    6.870671   6.465269   4.642323   5.652060   1.821161
    40  H    8.848191   9.590089   8.785855   6.977735   6.240523
    41  H    7.862084   8.199812   7.418504   6.576666   5.960419
    42  H    6.807260   6.521222   5.266597   5.897321   4.247639
    43  H    8.975505   9.657301   8.538998   6.818705   4.995265
                   16         17         18         19         20
    16  C    0.000000
    17  C    1.356262   0.000000
    18  C    2.393466   1.406700   0.000000
    19  C    2.787236   2.431470   1.400167   0.000000
    20  C    2.414486   2.784413   2.410007   1.395748   0.000000
    21  C    1.395620   2.388583   2.767870   2.407202   1.387118
    22  C    3.804451   4.305190   3.814011   2.539210   1.524608
    23  O    4.797922   5.039695   4.232114   2.839138   2.387360
    24  O    4.259719   5.070874   4.859273   3.711670   2.455147
    25  O    4.054844   3.576143   2.296505   1.270323   2.336817
    26  H    1.066668   2.104534   3.364368   3.853692   3.374808
    27  H    2.102781   1.070202   2.154674   3.401861   3.854390
    28  H    3.363060   2.156772   1.072340   2.143584   3.380831
    29  H    2.140295   3.351383   3.834523   3.370703   2.125519
    30  C   10.364654   9.983661   8.705639   7.744627   8.285666
    31  C    9.862262   9.398115   8.144655   7.322781   7.974882
    32  C    8.522283   8.016395   6.768794   6.004504   6.732917
    33  C    7.636426   7.194435   5.909690   4.992616   5.669889
    34  C    8.295153   7.959917   6.673342   5.606127   6.117672
    35  C    9.664901   9.349449   8.066301   7.000581   7.461958
    36  C    7.741788   7.496753   6.247499   5.083315   5.463770
    37  O    6.542699   6.312722   5.096482   3.907783   4.288942
    38  O    8.691350   8.509542   7.294607   6.114721   6.378401
    39  O    6.421966   5.940110   4.652629   3.771862   4.553589
    40  H   11.416381  11.052374   9.776789   8.805319   9.312908
    41  H   10.594610  10.095176   8.871827   8.136529   8.818168
    42  H    8.309995   7.729049   6.538029   5.949704   6.761764
    43  H   10.280368  10.029211   8.758725   7.630795   7.994625
                   21         22         23         24         25
    21  C    0.000000
    22  C    2.515920   0.000000
    23  O    3.627267   1.244462   0.000000
    24  O    2.868714   1.300274   2.211752   0.000000
    25  O    3.579212   2.870087   2.589625   4.166712   0.000000
    26  H    2.132799   4.645815   5.725764   4.881104   5.120850
    27  H    3.357663   5.374087   6.090405   6.113927   4.444844
    28  H    3.840095   4.673615   4.885186   5.803448   2.545304
    29  H    1.066675   2.693710   3.926604   2.529054   4.450050
    30  C    9.591912   7.715157   6.609772   8.576849   6.576505
    31  C    9.218785   7.621453   6.632402   8.567865   6.196776
    32  C    7.952192   6.542857   5.640898   7.576846   4.905326
    33  C    6.969599   5.374980   4.386175   6.436562   3.825480
    34  C    7.477624   5.525474   4.365263   6.469570   4.421686
    35  C    8.810680   6.767553   5.589044   7.604473   5.823849
    36  C    6.843185   4.725249   3.495653   5.624747   3.966268
    37  O    5.668680   3.659510   2.485389   4.670819   2.856722
    38  O    7.730084   5.480563   4.250783   6.212593   5.064706
    39  O    5.832860   4.481250   3.637919   5.647200   2.618058
    40  H   10.616927   8.679586   7.559580   9.482564   7.638948
    41  H   10.012963   8.534528   7.598252   9.473330   7.049453
    42  H    7.881460   6.784206   6.030714   7.852012   4.955368
    43  H    9.350829   7.155055   5.936189   7.889712   6.475017
                   26         27         28         29         30
    26  H    0.000000
    27  H    2.421285   0.000000
    28  H    4.249476   2.487764   0.000000
    29  H    2.455592   4.233214   4.906767   0.000000
    30  C   11.381507  10.766502   8.586794  10.114237   0.000000
    31  C   10.859050  10.108743   7.960197   9.808396   1.362899
    32  C    9.518957   8.710319   6.580751   8.601676   2.405899
    33  C    8.666541   7.972596   5.816370   7.608783   2.797187
    34  C    9.334595   8.806433   6.655051   8.023185   2.425767
    35  C   10.695373  10.191256   8.023740   9.302309   1.401622
    36  C    8.777415   8.395143   6.334438   7.343513   3.838811
    37  O    7.578071   7.226626   5.262138   6.213365   4.845873
    38  O    9.706174   9.418992   7.400105   8.147514   4.292786
    39  O    7.458076   6.716863   4.586088   6.546385   4.055156
    40  H   12.428640  11.836952   9.653402  11.106755   1.071532
    41  H   11.566984  10.752000   8.639992  10.610391   2.112943
    42  H    9.269246   8.335883   6.285036   8.579673   3.368945
    43  H   11.306517  10.904281   8.759088   9.779751   2.150019
                   31         32         33         34         35
    31  C    0.000000
    32  C    1.405319   0.000000
    33  C    2.425809   1.397985   0.000000
    34  C    2.781471   2.409021   1.391847   0.000000
    35  C    2.396591   2.785554   2.424343   1.405121   0.000000
    36  C    4.313276   3.807461   2.520881   1.533346   2.556390
    37  O    5.061723   4.241729   2.844625   2.421482   3.682987
    38  O    5.077363   4.846316   3.683656   2.447526   2.897267
    39  O    3.578986   2.311730   1.258115   2.291995   3.567522
    40  H    2.112328   3.376979   3.868659   3.397188   2.147059
    41  H    1.071514   2.144350   3.391705   3.852809   3.369527
    42  H    2.148964   1.070754   2.147779   3.382402   3.856188
    43  H    3.366038   3.860014   3.398957   2.158558   1.074479
                   36         37         38         39         40
    36  C    0.000000
    37  O    1.257581   0.000000
    38  O    1.296386   2.216733   0.000000
    39  O    2.769131   2.499687   4.057730   0.000000
    40  H    4.700277   5.789690   4.943564   5.126549   0.000000
    41  H    5.384099   6.110022   6.127437   4.448869   2.432412
    42  H    4.664911   4.892268   5.786874   2.589780   4.251913
    43  H    2.764308   4.005957   2.597715   4.444176   2.472061
                   41         42         43
    41  H    0.000000
    42  H    2.462660   0.000000
    43  H    4.252180   4.930608   0.000000
 Stoichiometry    C21H12FeO9(4-)
 Framework group  C1[X(C21H12FeO9)]
 Deg. of freedom   123
 Full point group                 C1      NOp   1
 Largest Abelian subgroup         C1      NOp   1
 Largest concise Abelian subgroup C1      NOp   1
                         Standard orientation:                         
 ---------------------------------------------------------------------
 Center     Atomic      Atomic             Coordinates (Angstroms)
 Number     Number       Type             X           Y           Z
 ---------------------------------------------------------------------
      1          6           0        0.720614    4.584125    0.157009
      2          6           0        1.573950    4.094936   -0.780348
      3          6           0        1.588195    2.725636   -1.084556
      4          6           0        0.718751    1.836333   -0.423368
      5          6           0       -0.159766    2.341400    0.535664
      6          6           0       -0.163034    3.714841    0.818709
      7          6           0       -1.125210    1.433699    1.295202
      8          8           0       -1.140955    0.186192    1.150328
      9          8           0       -1.961530    1.974262    2.136233
     10          8           0        0.772342    0.614509   -0.735677
     11          1           0        0.722973    5.636828    0.389260
     12          1           0        2.243024    4.761227   -1.293680
     13          1           0        2.269361    2.351575   -1.825903
     14          1           0       -0.843183    4.097580    1.548469
     15         26           0       -0.071036   -0.816171    0.053549
     16          6           0        5.188837   -0.838037   -0.590406
     17          6           0        4.709366   -1.392025   -1.731744
     18          6           0        3.342106   -1.703474   -1.843115
     19          6           0        2.472050   -1.431021   -0.780457
     20          6           0        2.995015   -0.932169    0.413597
     21          6           0        4.338950   -0.597389    0.490119
     22          6           0        2.113811   -0.785579    1.649081
     23          8           0        0.910521   -1.092062    1.566336
     24          8           0        2.619239   -0.378308    2.775752
     25          8           0        1.229574   -1.638266   -0.944843
     26          1           0        6.222675   -0.588031   -0.510042
     27          1           0        5.376133   -1.590550   -2.544973
     28          1           0        2.959726   -2.148861   -2.740517
     29          1           0        4.721538   -0.163631    1.386376
     30          6           0       -5.137902    0.004602   -0.863271
     31          6           0       -4.483088    0.553749   -1.924944
     32          6           0       -3.114670    0.307663   -2.129382
     33          6           0       -2.413079   -0.506453   -1.235319
     34          6           0       -3.091754   -1.102583   -0.176420
     35          6           0       -4.456313   -0.836310    0.027150
     36          6           0       -2.337262   -2.080151    0.732565
     37          8           0       -1.092435   -2.215464    0.615917
     38          8           0       -2.993740   -2.772531    1.610211
     39          8           0       -1.182596   -0.721137   -1.385905
     40          1           0       -6.178622    0.210599   -0.712780
     41          1           0       -5.013030    1.178163   -2.615894
     42          1           0       -2.614471    0.745603   -2.968741
     43          1           0       -4.979918   -1.278376    0.854748
 ---------------------------------------------------------------------
 Rotational constants (GHZ):           0.2280355           0.1337506           0.1106120
 Leave Link  202 at Thu Sep 26 11:05:32 2024, MaxMem= 13421772800 cpu:               0.5 elap:               0.0
 (Enter /gpfs/fs1/soft/improv/software/custom-built/gaussian/g16/l301.exe)
 Standard basis: STO-3G (5D, 7F)
 Ernie: Thresh=  0.10000D-02 Tol=  0.10000D-05 Strict=F.
 There are   181 symmetry adapted cartesian basis functions of A   symmetry.
 There are   180 symmetry adapted basis functions of A   symmetry.
   180 basis functions,   543 primitive gaussians,   181 cartesian basis functions
   120 alpha electrons      120 beta electrons
       nuclear repulsion energy      3887.7107036336 Hartrees.
 IExCor=  402 DFT=T Ex+Corr=B3LYP ExCW=0 ScaHFX=  0.200000
 ScaDFX=  0.800000  0.720000  1.000000  0.810000 ScalE2=  1.000000  1.000000
 IRadAn=      5 IRanWt=     -1 IRanGd=            0 ICorTp=0 IEmpDi=131
 NAtoms=   43 NActive=   43 NUniq=   43 SFac= 1.00D+00 NAtFMM=   60 NAOKFM=F Big=F
 Integral buffers will be    131072 words long.
 Raffenetti 2 integral format.
 Two-electron integral symmetry is turned on.
 R6Disp:  Grimme-D3 Dispersion energy=       -0.0528673165 Hartrees.
 Nuclear repulsion after empirical dispersion term =     3887.6578363170 Hartrees.
 Leave Link  301 at Thu Sep 26 11:05:32 2024, MaxMem= 13421772800 cpu:               0.4 elap:               0.0
 (Enter /gpfs/fs1/soft/improv/software/custom-built/gaussian/g16/l302.exe)
 NPDir=0 NMtPBC=     1 NCelOv=     1 NCel=       1 NClECP=     1 NCelD=      1
         NCelK=      1 NCelE2=     1 NClLst=     1 CellRange=     0.0.
 One-electron integrals computed using PRISM.
 One-electron integral symmetry used in STVInt
 NBasis=   180 RedAO= T EigKep=  1.68D-01  NBF=   180
 NBsUse=   180 1.00D-06 EigRej= -1.00D+00 NBFU=   180
 Precomputing XC quadrature grid using
 IXCGrd= 4 IRadAn=           5 IRanWt=          -1 IRanGd=           0 AccXCQ= 0.00D+00.
 Generated NRdTot=       0 NPtTot=           0 NUsed=           0 NTot=          32
 NSgBfM=   174   174   174   174   174 MxSgAt=    43 MxSgA2=    43.
 Leave Link  302 at Thu Sep 26 11:05:32 2024, MaxMem= 13421772800 cpu:              13.2 elap:               0.2
 (Enter /gpfs/fs1/soft/improv/software/custom-built/gaussian/g16/l303.exe)
 DipDrv:  MaxL=1.
 Leave Link  303 at Thu Sep 26 11:05:32 2024, MaxMem= 13421772800 cpu:               0.7 elap:               0.0
 (Enter /gpfs/fs1/soft/improv/software/custom-built/gaussian/g16/l401.exe)
 ExpMin= 9.65D-02 ExpMax= 1.45D+03 ExpMxC= 1.45D+03 IAcc=3 IRadAn=         5 AccDes= 0.00D+00
 Harris functional with IExCor=  402 and IRadAn=       5 diagonalized for initial guess.
 HarFok:  IExCor=  402 AccDes= 0.00D+00 IRadAn=         5 IDoV= 1 UseB2=F ITyADJ=14
 ICtDFT=  3500011 ScaDFX=  1.000000  1.000000  1.000000  1.000000
 FoFCou: FMM=F IPFlag=           0 FMFlag=      100000 FMFlg1=           0
         NFxFlg=           0 DoJE=T BraDBF=F KetDBF=T FulRan=T
         wScrn=  0.000000 ICntrl=       500 IOpCl=  0 I1Cent=   200000004 NGrid=           0
         NMat0=    1 NMatS0=      1 NMatT0=    0 NMatD0=    1 NMtDS0=    0 NMtDT0=    0
 Petite list used in FoFCou.
 Harris En= -2716.67671367268    
 JPrj=0 DoOrth=F DoCkMO=F.
 Leave Link  401 at Thu Sep 26 11:05:32 2024, MaxMem= 13421772800 cpu:              22.1 elap:               0.3
 (Enter /gpfs/fs1/soft/improv/software/custom-built/gaussian/g16/l502.exe)
 Integral symmetry usage will be decided dynamically.
 Closed shell SCF:
 Using DIIS extrapolation, IDIIS=  1040.
 NGot= 13421772800 LenX= 13421680107 LenY= 13421646905
 Requested convergence on RMS density matrix=1.00D-08 within  50 cycles.
 Requested convergence on MAX density matrix=1.00D-06.
 Requested convergence on             energy=1.00D-06.
 No special actions if energy rises.
 Fock matrices will be formed incrementally for  20 cycles.
 Integral accuracy reduced to 1.0D-05 until final iterations.

 Cycle   1  Pass 0  IDiag  1:
 FoFJK:  IHMeth= 1 ICntrl=       0 DoSepK=F KAlg= 0 I1Cent=           0 FoldK=F
 IRaf= 780000000 NMat=       1 IRICut=       1 DoRegI=T DoRafI=F ISym2E= 0 IDoP0=0 IntGTp=1.
 FoFCou: FMM=F IPFlag=           0 FMFlag=      100000 FMFlg1=           0
         NFxFlg=           0 DoJE=F BraDBF=F KetDBF=F FulRan=T
         wScrn=  0.000000 ICntrl=         0 IOpCl=  0 I1Cent=           0 NGrid=           0
         NMat0=    1 NMatS0=      1 NMatT0=    0 NMatD0=    1 NMtDS0=    0 NMtDT0=    0
 Symmetry not used in FoFCou.
 E= -2704.28073969407    
 DIIS: error= 1.79D-01 at cycle   1 NSaved=   1.
 NSaved= 1 IEnMin= 1 EnMin= -2704.28073969407     IErMin= 1 ErrMin= 1.79D-01
 ErrMax= 1.79D-01  0.00D+00 EMaxC= 1.00D-01 BMatC= 4.27D+00 BMatP= 4.27D+00
 IDIUse=3 WtCom= 0.00D+00 WtEn= 1.00D+00
 Coeff-Com:  0.100D+01
 Coeff-En:   0.100D+01
 Coeff:      0.100D+01
 Gap=    -0.037 Goal=   None    Shift=    0.000
 GapD=   -0.037 DampG=0.250 DampE=0.125 DampFc=0.1250 IDamp=-1.
 Damping current iteration by 1.25D-01
 RMSDP=4.93D-02 MaxDP=2.39D+00              OVMax= 0.00D+00

 Cycle   2  Pass 0  IDiag  1:
 RMSU=  6.13D-03    CP:  9.89D-01
 E= -2708.41818239483     Delta-E=       -4.137442700756 Rises=F Damp=T
 DIIS: error= 1.22D-01 at cycle   2 NSaved=   2.
 NSaved= 2 IEnMin= 2 EnMin= -2708.41818239483     IErMin= 2 ErrMin= 1.22D-01
 ErrMax= 1.22D-01  0.00D+00 EMaxC= 1.00D-01 BMatC= 1.63D+00 BMatP= 4.27D+00
 IDIUse=3 WtCom= 0.00D+00 WtEn= 1.00D+00
 Coeff-Com: -0.104D+01 0.204D+01
 Coeff-En:   0.000D+00 0.100D+01
 Coeff:      0.000D+00 0.100D+01
 Gap=    -0.043 Goal=   None    Shift=    0.000
 RMSDP=2.12D-02 MaxDP=8.62D-01 DE=-4.14D+00 OVMax= 0.00D+00

 Cycle   3  Pass 0  IDiag  1:
 RMSU=  1.97D-02    CP:  9.35D-01  2.17D+00
 E= -2696.76879229113     Delta-E=       11.649390103693 Rises=F Damp=F
 DIIS: error= 1.23D-01 at cycle   3 NSaved=   3.
 NSaved= 3 IEnMin= 2 EnMin= -2708.41818239483     IErMin= 2 ErrMin= 1.22D-01
 ErrMax= 1.23D-01  0.00D+00 EMaxC= 1.00D-01 BMatC= 4.80D+00 BMatP= 1.63D+00
 IDIUse=2 WtCom= 0.00D+00 WtEn= 1.00D+00
 EnCoef did   100 forward-backward iterations
 Coeff-En:   0.556D+00 0.295D-01 0.415D+00
 Coeff:      0.556D+00 0.295D-01 0.415D+00
 Gap=    -0.265 Goal=   None    Shift=    0.000
 RMSDP=2.44D-02 MaxDP=8.32D-01 DE= 1.16D+01 OVMax= 0.00D+00

 Cycle   4  Pass 0  IDiag  1:
 RMSU=  2.11D-02    CP:  9.23D-01  1.09D+00  4.80D-01
 E= -2694.22260138069     Delta-E=        2.546190910444 Rises=F Damp=F
 DIIS: error= 2.45D-01 at cycle   4 NSaved=   4.
 NSaved= 4 IEnMin= 2 EnMin= -2708.41818239483     IErMin= 2 ErrMin= 1.22D-01
 ErrMax= 2.45D-01  0.00D+00 EMaxC= 1.00D-01 BMatC= 8.11D+00 BMatP= 1.63D+00
 IDIUse=2 WtCom= 0.00D+00 WtEn= 1.00D+00
 EnCoef did   100 forward-backward iterations
 Coeff-En:   0.531D+00 0.197D-01 0.340D+00 0.110D+00
 Coeff:      0.531D+00 0.197D-01 0.340D+00 0.110D+00
 Gap=     0.049 Goal=   None    Shift=    0.000
 RMSDP=1.97D-02 MaxDP=7.05D-01 DE= 2.55D+00 OVMax= 0.00D+00

 Cycle   5  Pass 0  IDiag  1:
 RMSU=  1.15D-02    CP:  9.46D-01  8.19D-01  5.76D-01  2.55D-01
 E= -2710.82223586042     Delta-E=      -16.599634479735 Rises=F Damp=F
 DIIS: error= 2.62D-01 at cycle   5 NSaved=   5.
 NSaved= 5 IEnMin= 5 EnMin= -2710.82223586042     IErMin= 2 ErrMin= 1.22D-01
 ErrMax= 2.62D-01  0.00D+00 EMaxC= 1.00D-01 BMatC= 2.99D+00 BMatP= 1.63D+00
 IDIUse=2 WtCom= 0.00D+00 WtEn= 1.00D+00
 EnCoef did   100 forward-backward iterations
 Coeff-En:   0.342D+00 0.159D-01 0.000D+00 0.000D+00 0.642D+00
 Coeff:      0.342D+00 0.159D-01 0.000D+00 0.000D+00 0.642D+00
 Gap=     0.178 Goal=   None    Shift=    0.000
 RMSDP=1.44D-02 MaxDP=7.84D-01 DE=-1.66D+01 OVMax= 0.00D+00

 Cycle   6  Pass 0  IDiag  1:
 RMSU=  1.22D-02    CP:  9.51D-01  1.18D+00  4.23D-01  2.74D-01  4.20D-01
 E= -2709.19224961531     Delta-E=        1.629986245111 Rises=F Damp=F
 DIIS: error= 1.11D-01 at cycle   6 NSaved=   6.
 NSaved= 6 IEnMin= 5 EnMin= -2710.82223586042     IErMin= 6 ErrMin= 1.11D-01
 ErrMax= 1.11D-01  0.00D+00 EMaxC= 1.00D-01 BMatC= 2.61D+00 BMatP= 1.63D+00
 IDIUse=2 WtCom= 0.00D+00 WtEn= 1.00D+00
 EnCoef did   100 forward-backward iterations
 Coeff-En:   0.327D+00 0.939D-02 0.000D+00 0.000D+00 0.535D+00 0.129D+00
 Coeff:      0.327D+00 0.939D-02 0.000D+00 0.000D+00 0.535D+00 0.129D+00
 Gap=    -0.033 Goal=   None    Shift=    0.000
 RMSDP=1.18D-02 MaxDP=7.79D-01 DE= 1.63D+00 OVMax= 0.00D+00

 Cycle   7  Pass 0  IDiag  1:
 RMSU=  7.32D-03    CP:  9.59D-01  8.35D-01  4.57D-01  1.36D-01  6.40D-01
                    CP:  3.30D-01
 E= -2713.79863878708     Delta-E=       -4.606389171762 Rises=F Damp=F
 DIIS: error= 3.51D-02 at cycle   7 NSaved=   7.
 NSaved= 7 IEnMin= 7 EnMin= -2713.79863878708     IErMin= 7 ErrMin= 3.51D-02
 ErrMax= 3.51D-02  0.00D+00 EMaxC= 1.00D-01 BMatC= 3.17D-01 BMatP= 1.63D+00
 IDIUse=3 WtCom= 6.49D-01 WtEn= 3.51D-01
 EnCoef did   100 forward-backward iterations
 Coeff-Com:  0.158D+00 0.104D+00 0.245D-01 0.242D-01 0.171D+00 0.602D-03
 Coeff-Com:  0.518D+00
 Coeff-En:   0.148D+00 0.355D-02 0.000D+00 0.000D+00 0.151D+00 0.000D+00
 Coeff-En:   0.698D+00
 Coeff:      0.155D+00 0.685D-01 0.159D-01 0.157D-01 0.164D+00 0.391D-03
 Coeff:      0.581D+00
 Gap=     0.084 Goal=   None    Shift=    0.000
 RMSDP=1.27D-02 MaxDP=7.49D-01 DE=-4.61D+00 OVMax= 0.00D+00

 Cycle   8  Pass 0  IDiag  1:
 RMSU=  7.70D-03    CP:  9.56D-01  6.83D-01  3.94D-01  3.48D-01  6.06D-01
                    CP:  3.74D-01 -2.09D-01
 E= -2711.03209257137     Delta-E=        2.766546215704 Rises=F Damp=F
 DIIS: error= 9.72D-02 at cycle   8 NSaved=   8.
 NSaved= 8 IEnMin= 7 EnMin= -2713.79863878708     IErMin= 7 ErrMin= 3.51D-02
 ErrMax= 9.72D-02  0.00D+00 EMaxC= 1.00D-01 BMatC= 1.59D+00 BMatP= 3.17D-01
 IDIUse=2 WtCom= 0.00D+00 WtEn= 1.00D+00
 EnCoef did   100 forward-backward iterations
 Coeff-En:   0.118D+00 0.168D-02 0.000D+00 0.000D+00 0.246D-01 0.000D+00
 Coeff-En:   0.720D+00 0.135D+00
 Coeff:      0.118D+00 0.168D-02 0.000D+00 0.000D+00 0.246D-01 0.000D+00
 Coeff:      0.720D+00 0.135D+00
 Gap=    -0.019 Goal=   None    Shift=    0.000
 RMSDP=1.28D-02 MaxDP=7.58D-01 DE= 2.77D+00 OVMax= 0.00D+00

 Cycle   9  Pass 0  IDiag  1:
 RMSU=  8.48D-03    CP:  9.79D-01  1.93D-01  2.30D-01  1.71D-01  4.00D-01
                    CP: -8.65D-02 -1.39D-01  4.32D-01
 E= -2710.52762857611     Delta-E=        0.504463995266 Rises=F Damp=F
 DIIS: error= 1.25D-01 at cycle   9 NSaved=   9.
 NSaved= 9 IEnMin= 7 EnMin= -2713.79863878708     IErMin= 7 ErrMin= 3.51D-02
 ErrMax= 1.25D-01  0.00D+00 EMaxC= 1.00D-01 BMatC= 2.97D+00 BMatP= 3.17D-01
 IDIUse=2 WtCom= 0.00D+00 WtEn= 1.00D+00
 EnCoef did   100 forward-backward iterations
 Coeff-En:   0.169D-02 0.000D+00 0.000D+00 0.000D+00 0.000D+00 0.000D+00
 Coeff-En:   0.717D+00 0.815D-01 0.200D+00
 Coeff:      0.169D-02 0.000D+00 0.000D+00 0.000D+00 0.000D+00 0.000D+00
 Coeff:      0.717D+00 0.815D-01 0.200D+00
 Gap=     0.015 Goal=   None    Shift=    0.000
 RMSDP=1.28D-02 MaxDP=4.70D-01 DE= 5.04D-01 OVMax= 0.00D+00

 Problem detected with inexpensive integrals.
 Switching to full accuracy and repeating last cycle.
 Cycle  10  Pass 1  IDiag  1:
 E= -2710.52764445917     Delta-E=       -0.000015883068 Rises=F Damp=F
 DIIS: error= 1.25D-01 at cycle   1 NSaved=   1.
 NSaved= 1 IEnMin= 1 EnMin= -2710.52764445917     IErMin= 1 ErrMin= 1.25D-01
 ErrMax= 1.25D-01  0.00D+00 EMaxC= 1.00D-01 BMatC= 2.97D+00 BMatP= 2.97D+00
 IDIUse=3 WtCom= 0.00D+00 WtEn= 1.00D+00
 Coeff-Com:  0.100D+01
 Coeff-En:   0.100D+01
 Coeff:      0.100D+01
 Gap=     0.037 Goal=   None    Shift=    0.000
 GapD=    0.037 DampG=0.250 DampE=0.250 DampFc=0.2500 IDamp=-1.
 Damping current iteration by 2.50D-01
 RMSDP=4.98D-02 MaxDP=2.22D+00 DE=-1.59D-05 OVMax= 0.00D+00

 Cycle  11  Pass 1  IDiag  1:
 RMSU=  1.24D-02    CP:  9.78D-01
 E= -2710.95093543397     Delta-E=       -0.423290974794 Rises=F Damp=T
 DIIS: error= 2.36D-02 at cycle   2 NSaved=   2.
 NSaved= 2 IEnMin= 2 EnMin= -2710.95093543397     IErMin= 2 ErrMin= 2.36D-02
 ErrMax= 2.36D-02  0.00D+00 EMaxC= 1.00D-01 BMatC= 2.39D-01 BMatP= 2.97D+00
 IDIUse=3 WtCom= 7.64D-01 WtEn= 2.36D-01
 Coeff-Com:  0.143D+00 0.857D+00
 Coeff-En:   0.459D+00 0.541D+00
 Coeff:      0.218D+00 0.782D+00
 Gap=    -0.203 Goal=   None    Shift=    0.000
 RMSDP=1.93D-02 MaxDP=7.07D-01 DE=-4.23D-01 OVMax= 0.00D+00

 Cycle  12  Pass 1  IDiag  1:
 RMSU=  1.73D-02    CP:  9.48D-01  3.32D-01
 E= -2700.15591583471     Delta-E=       10.795019599259 Rises=F Damp=F
 DIIS: error= 1.62D-01 at cycle   3 NSaved=   3.
 NSaved= 3 IEnMin= 2 EnMin= -2710.95093543397     IErMin= 2 ErrMin= 2.36D-02
 ErrMax= 1.62D-01  0.00D+00 EMaxC= 1.00D-01 BMatC= 5.14D+00 BMatP= 2.39D-01
 IDIUse=2 WtCom= 0.00D+00 WtEn= 1.00D+00
 EnCoef did     2 forward-backward iterations
 Coeff-En:   0.513D+00 0.297D+00 0.191D+00
 Coeff:      0.513D+00 0.297D+00 0.191D+00
 Gap=     0.353 Goal=   None    Shift=    0.000
 RMSDP=2.02D-02 MaxDP=8.18D-01 DE= 1.08D+01 OVMax= 0.00D+00

 Cycle  13  Pass 1  IDiag  1:
 RMSU=  1.72D-02    CP:  9.29D-01  8.04D-01  5.04D-01
 E= -2695.92646823765     Delta-E=        4.229447597059 Rises=F Damp=F
 DIIS: error= 1.24D-01 at cycle   4 NSaved=   4.
 NSaved= 4 IEnMin= 2 EnMin= -2710.95093543397     IErMin= 2 ErrMin= 2.36D-02
 ErrMax= 1.24D-01  0.00D+00 EMaxC= 1.00D-01 BMatC= 5.57D+00 BMatP= 2.39D-01
 IDIUse=2 WtCom= 0.00D+00 WtEn= 1.00D+00
 EnCoef did   100 forward-backward iterations
 Coeff-En:   0.668D+00 0.191D-01 0.920D-01 0.221D+00
 Coeff:      0.668D+00 0.191D-01 0.920D-01 0.221D+00
 Gap=    -0.117 Goal=   None    Shift=    0.000
 RMSDP=1.59D-02 MaxDP=7.36D-01 DE= 4.23D+00 OVMax= 0.00D+00

 Cycle  14  Pass 1  IDiag  1:
 RMSU=  1.09D-02    CP:  9.55D-01  4.71D-01  4.32D-01  3.86D-01
 E= -2711.45785976509     Delta-E=      -15.531391527440 Rises=F Damp=F
 DIIS: error= 1.26D-01 at cycle   5 NSaved=   5.
 NSaved= 5 IEnMin= 5 EnMin= -2711.45785976509     IErMin= 2 ErrMin= 2.36D-02
 ErrMax= 1.26D-01  0.00D+00 EMaxC= 1.00D-01 BMatC= 2.12D+00 BMatP= 2.39D-01
 IDIUse=2 WtCom= 0.00D+00 WtEn= 1.00D+00
 EnCoef did   100 forward-backward iterations
 Coeff-En:   0.457D+00 0.620D-02 0.414D-03 0.136D-03 0.536D+00
 Coeff:      0.457D+00 0.620D-02 0.414D-03 0.136D-03 0.536D+00
 Gap=     0.300 Goal=   None    Shift=    0.000
 RMSDP=1.64D-02 MaxDP=7.82D-01 DE=-1.55D+01 OVMax= 0.00D+00

 Cycle  15  Pass 1  IDiag  1:
 RMSU=  1.35D-02    CP:  9.44D-01  6.07D-01  2.72D-01  5.73D-01  2.66D-01
 E= -2706.79082062859     Delta-E=        4.667039136501 Rises=F Damp=F
 DIIS: error= 1.31D-01 at cycle   6 NSaved=   6.
 NSaved= 6 IEnMin= 5 EnMin= -2711.45785976509     IErMin= 2 ErrMin= 2.36D-02
 ErrMax= 1.31D-01  0.00D+00 EMaxC= 1.00D-01 BMatC= 3.07D+00 BMatP= 2.39D-01
 IDIUse=2 WtCom= 0.00D+00 WtEn= 1.00D+00
 EnCoef did   100 forward-backward iterations
 Coeff-En:   0.445D+00 0.289D-02 0.193D-03 0.636D-04 0.478D+00 0.737D-01
 Coeff:      0.445D+00 0.289D-02 0.193D-03 0.636D-04 0.478D+00 0.737D-01
 Gap=    -0.043 Goal=   None    Shift=    0.000
 RMSDP=1.39D-02 MaxDP=7.35D-01 DE= 4.67D+00 OVMax= 0.00D+00

 Cycle  16  Pass 1  IDiag  1:
 RMSU=  6.51D-03    CP:  9.65D-01  3.65D-01  3.39D-01  3.62D-01  6.28D-01
                    CP:  2.25D-01
 E= -2713.53478731527     Delta-E=       -6.743966686679 Rises=F Damp=F
 DIIS: error= 7.13D-02 at cycle   7 NSaved=   7.
 NSaved= 7 IEnMin= 7 EnMin= -2713.53478731527     IErMin= 2 ErrMin= 2.36D-02
 ErrMax= 7.13D-02  0.00D+00 EMaxC= 1.00D-01 BMatC= 5.21D-01 BMatP= 2.39D-01
 IDIUse=2 WtCom= 0.00D+00 WtEn= 1.00D+00
 Coeff-En:   0.280D+00 0.000D+00 0.000D+00 0.000D+00 0.000D+00 0.000D+00
 Coeff-En:   0.720D+00
 Coeff:      0.280D+00 0.000D+00 0.000D+00 0.000D+00 0.000D+00 0.000D+00
 Coeff:      0.720D+00
 Gap=    -0.044 Goal=   None    Shift=    0.000
 RMSDP=1.62D-02 MaxDP=7.78D-01 DE=-6.74D+00 OVMax= 0.00D+00

 Cycle  17  Pass 1  IDiag  1:
 RMSU=  1.22D-02    CP:  9.67D-01  3.74D-01  1.66D-01  1.45D-01  3.78D-01
                    CP:  4.30D-01 -3.37D-01
 E= -2705.86144690380     Delta-E=        7.673340411466 Rises=F Damp=F
 DIIS: error= 1.90D-01 at cycle   8 NSaved=   8.
 NSaved= 8 IEnMin= 7 EnMin= -2713.53478731527     IErMin= 2 ErrMin= 2.36D-02
 ErrMax= 1.90D-01  0.00D+00 EMaxC= 1.00D-01 BMatC= 5.46D+00 BMatP= 2.39D-01
 IDIUse=2 WtCom= 0.00D+00 WtEn= 1.00D+00
 EnCoef did    19 forward-backward iterations
 Coeff-En:   0.195D+00 0.000D+00 0.000D+00 0.000D+00 0.000D+00 0.000D+00
 Coeff-En:   0.730D+00 0.742D-01
 Coeff:      0.195D+00 0.000D+00 0.000D+00 0.000D+00 0.000D+00 0.000D+00
 Coeff:      0.730D+00 0.742D-01
 Gap=    -0.002 Goal=   None    Shift=    0.000
 RMSDP=1.44D-02 MaxDP=2.93D-01 DE= 7.67D+00 OVMax= 0.00D+00

 Cycle  18  Pass 1  IDiag  1:
 RMSU=  5.93D-03    CP:  9.89D-01  1.68D-01  8.05D-02  1.47D-01  3.43D-01
                    CP: -1.30D-02 -7.30D-03  9.34D-02
 E= -2712.76761680864     Delta-E=       -6.906169904834 Rises=F Damp=F
 DIIS: error= 1.05D-01 at cycle   9 NSaved=   9.
 NSaved= 9 IEnMin= 7 EnMin= -2713.53478731527     IErMin= 2 ErrMin= 2.36D-02
 ErrMax= 1.05D-01  0.00D+00 EMaxC= 1.00D-01 BMatC= 1.26D+00 BMatP= 2.39D-01
 IDIUse=2 WtCom= 0.00D+00 WtEn= 1.00D+00
 EnCoef did     7 forward-backward iterations
 Coeff-En:   0.976D-03 0.000D+00 0.000D+00 0.000D+00 0.000D+00 0.000D+00
 Coeff-En:   0.601D+00 0.000D+00 0.398D+00
 Coeff:      0.976D-03 0.000D+00 0.000D+00 0.000D+00 0.000D+00 0.000D+00
 Coeff:      0.601D+00 0.000D+00 0.398D+00
 Gap=    -0.018 Goal=   None    Shift=    0.000
 RMSDP=1.07D-02 MaxDP=2.30D-01 DE=-6.91D+00 OVMax= 0.00D+00

 Cycle  19  Pass 1  IDiag  1:
 RMSU=  7.09D-03    CP:  9.80D-01  2.27D-01  1.48D-01  1.45D-01  2.73D-01
                    CP:  2.53D-01  1.94D-01  4.20D-01  4.40D-02
 E= -2711.61028588859     Delta-E=        1.157330920049 Rises=F Damp=F
 DIIS: error= 1.15D-01 at cycle  10 NSaved=  10.
 NSaved=10 IEnMin= 7 EnMin= -2713.53478731527     IErMin= 2 ErrMin= 2.36D-02
 ErrMax= 1.15D-01  0.00D+00 EMaxC= 1.00D-01 BMatC= 2.20D+00 BMatP= 2.39D-01
 IDIUse=2 WtCom= 0.00D+00 WtEn= 1.00D+00
 EnCoef did    11 forward-backward iterations
 Coeff-En:   0.000D+00 0.000D+00 0.000D+00 0.000D+00 0.000D+00 0.000D+00
 Coeff-En:   0.606D+00 0.000D+00 0.286D+00 0.108D+00
 Coeff:      0.000D+00 0.000D+00 0.000D+00 0.000D+00 0.000D+00 0.000D+00
 Coeff:      0.606D+00 0.000D+00 0.286D+00 0.108D+00
 Gap=     0.014 Goal=   None    Shift=    0.000
 RMSDP=1.06D-02 MaxDP=5.18D-01 DE= 1.16D+00 OVMax= 0.00D+00

 Cycle  20  Pass 1  IDiag  1:
 RMSU=  3.74D-03    CP:  9.70D-01  2.95D-01  3.10D-01  2.79D-01  6.19D-01
                    CP:  1.53D-01  7.49D-01  8.18D-02  1.55D-01  1.27D-01
 E= -2714.00887775906     Delta-E=       -2.398591870476 Rises=F Damp=F
 DIIS: error= 4.18D-02 at cycle  11 NSaved=  11.
 NSaved=11 IEnMin=11 EnMin= -2714.00887775906     IErMin= 2 ErrMin= 2.36D-02
 ErrMax= 4.18D-02  0.00D+00 EMaxC= 1.00D-01 BMatC= 1.98D-01 BMatP= 2.39D-01
 IDIUse=3 WtCom= 5.82D-01 WtEn= 4.18D-01
 EnCoef did   100 forward-backward iterations
 Coeff-Com:  0.113D-01 0.283D+00 0.255D-01-0.151D-01-0.506D-01-0.984D-02
 Coeff-Com:  0.202D+00 0.140D-01 0.895D-01 0.705D-01 0.380D+00
 Coeff-En:   0.147D-02 0.000D+00 0.000D+00 0.000D+00 0.000D+00 0.000D+00
 Coeff-En:   0.288D+00 0.000D+00 0.199D+00 0.100D+00 0.411D+00
 Coeff:      0.721D-02 0.165D+00 0.148D-01-0.880D-02-0.294D-01-0.572D-02
 Coeff:      0.238D+00 0.815D-02 0.135D+00 0.829D-01 0.393D+00
 Gap=    -0.008 Goal=   None    Shift=    0.000
 RMSDP=1.09D-02 MaxDP=5.09D-01 DE=-2.40D+00 OVMax= 0.00D+00

 Cycle  21  Pass 1  IDiag  1:
 RMSU=  3.03D-03    CP:  9.94D-01  1.08D-01  4.67D-02  1.01D-01  1.66D-01
                    CP:  1.58D-02  1.56D-01  4.51D-02  5.03D-01  2.00D-02
                    CP: -3.38D-01
 E= -2712.07085237828     Delta-E=        1.938025380782 Rises=F Damp=F
 DIIS: error= 1.18D-01 at cycle  12 NSaved=  12.
 NSaved=12 IEnMin=11 EnMin= -2714.00887775906     IErMin= 2 ErrMin= 2.36D-02
 ErrMax= 1.18D-01  0.00D+00 EMaxC= 1.00D-01 BMatC= 1.85D+00 BMatP= 1.98D-01
 IDIUse=2 WtCom= 0.00D+00 WtEn= 1.00D+00
 EnCoef did   100 forward-backward iterations
 Coeff-En:   0.000D+00 0.000D+00 0.000D+00 0.000D+00 0.000D+00 0.000D+00
 Coeff-En:   0.144D+00 0.000D+00 0.215D-02 0.213D-01 0.610D+00 0.223D+00
 Coeff:      0.000D+00 0.000D+00 0.000D+00 0.000D+00 0.000D+00 0.000D+00
 Coeff:      0.144D+00 0.000D+00 0.215D-02 0.213D-01 0.610D+00 0.223D+00
 Gap=    -0.004 Goal=   None    Shift=    0.000
 RMSDP=1.17D-02 MaxDP=1.96D-01 DE= 1.94D+00 OVMax= 0.00D+00

 Cycle  22  Pass 1  IDiag  1:
 RMSU=  4.91D-03    CP:  9.69D-01  3.78D-01  1.88D-01  3.08D-01  5.05D-01
                    CP:  3.34D-01  5.92D-01  3.52D-01  3.89D-01  5.66D-01
                    CP: -1.19D-02  1.79D-02
 E= -2713.28500962089     Delta-E=       -1.214157242613 Rises=F Damp=F
 DIIS: error= 6.99D-02 at cycle  13 NSaved=  13.
 NSaved=13 IEnMin=11 EnMin= -2714.00887775906     IErMin= 2 ErrMin= 2.36D-02
 ErrMax= 6.99D-02  0.00D+00 EMaxC= 1.00D-01 BMatC= 7.40D-01 BMatP= 1.98D-01
 IDIUse=2 WtCom= 0.00D+00 WtEn= 1.00D+00
 EnCoef did   100 forward-backward iterations
 Coeff-En:   0.000D+00 0.000D+00 0.000D+00 0.000D+00 0.000D+00 0.000D+00
 Coeff-En:   0.992D-01 0.000D+00 0.111D-02 0.555D-02 0.613D+00 0.166D+00
 Coeff-En:   0.115D+00
 Coeff:      0.000D+00 0.000D+00 0.000D+00 0.000D+00 0.000D+00 0.000D+00
 Coeff:      0.992D-01 0.000D+00 0.111D-02 0.555D-02 0.613D+00 0.166D+00
 Coeff:      0.115D+00
 Gap=     0.018 Goal=   None    Shift=    0.000
 RMSDP=7.89D-03 MaxDP=2.86D-01 DE=-1.21D+00 OVMax= 0.00D+00

 Cycle  23  Pass 1  IDiag  1:
 RMSU=  2.86D-03    CP:  9.74D-01  3.00D-01  2.49D-01  2.76D-01  5.19D-01
                    CP:  1.49D-01  7.55D-01  1.36D-01  3.60D-01  9.01D-02
                    CP:  6.06D-01  7.08D-01  1.79D-01
 E= -2714.20349100294     Delta-E=       -0.918481382048 Rises=F Damp=F
 DIIS: error= 1.25D-02 at cycle  14 NSaved=  14.
 NSaved=14 IEnMin=14 EnMin= -2714.20349100294     IErMin=14 ErrMin= 1.25D-02
 ErrMax= 1.25D-02  0.00D+00 EMaxC= 1.00D-01 BMatC= 3.37D-02 BMatP= 1.98D-01
 IDIUse=3 WtCom= 8.75D-01 WtEn= 1.25D-01
 EnCoef did   100 forward-backward iterations
 Coeff-Com: -0.427D-02-0.213D-01 0.506D-02-0.155D-02-0.157D-01-0.378D-02
 Coeff-Com: -0.791D-01-0.736D-02-0.434D-01 0.464D-02 0.415D+00 0.586D-01
 Coeff-Com:  0.855D-01 0.608D+00
 Coeff-En:   0.000D+00 0.000D+00 0.000D+00 0.000D+00 0.000D+00 0.000D+00
 Coeff-En:   0.000D+00 0.000D+00 0.216D-03 0.829D-03 0.341D+00 0.621D-01
 Coeff-En:   0.296D-01 0.566D+00
 Coeff:     -0.374D-02-0.186D-01 0.442D-02-0.135D-02-0.138D-01-0.331D-02
 Coeff:     -0.692D-01-0.644D-02-0.380D-01 0.417D-02 0.406D+00 0.590D-01
 Coeff:      0.785D-01 0.602D+00
 Gap=    -0.013 Goal=   None    Shift=    0.000
 RMSDP=9.45D-03 MaxDP=1.98D-01 DE=-9.18D-01 OVMax= 0.00D+00

 Cycle  24  Pass 1  IDiag  1:
 RMSU=  4.26D-03    CP:  9.81D-01  2.15D-01  1.21D-01  2.36D-01  4.29D-01
                    CP:  9.66D-02  4.35D-01 -6.33D-02  3.80D-01 -2.50D-01
                    CP: -6.12D-02  3.79D-02  6.88D-01 -9.33D-01
 E= -2713.69101384999     Delta-E=        0.512477152952 Rises=F Damp=F
 DIIS: error= 3.94D-02 at cycle  15 NSaved=  15.
 NSaved=15 IEnMin=14 EnMin= -2714.20349100294     IErMin=14 ErrMin= 1.25D-02
 ErrMax= 3.94D-02  0.00D+00 EMaxC= 1.00D-01 BMatC= 2.66D-01 BMatP= 3.37D-02
 IDIUse=2 WtCom= 0.00D+00 WtEn= 1.00D+00
 EnCoef did   100 forward-backward iterations
 Coeff-En:   0.000D+00 0.000D+00 0.000D+00 0.000D+00 0.000D+00 0.000D+00
 Coeff-En:   0.000D+00 0.000D+00 0.000D+00 0.585D-02 0.282D+00 0.283D-02
 Coeff-En:   0.145D-01 0.576D+00 0.119D+00
 Coeff:      0.000D+00 0.000D+00 0.000D+00 0.000D+00 0.000D+00 0.000D+00
 Coeff:      0.000D+00 0.000D+00 0.000D+00 0.585D-02 0.282D+00 0.283D-02
 Coeff:      0.145D-01 0.576D+00 0.119D+00
 Gap=    -0.009 Goal=   None    Shift=    0.000
 RMSDP=9.85D-03 MaxDP=1.73D-01 DE= 5.12D-01 OVMax= 0.00D+00

 Cycle  25  Pass 1  IDiag  1:
 RMSU=  2.58D-03    CP:  9.73D-01  2.88D-01  2.10D-01  2.49D-01  4.48D-01
                    CP:  2.58D-01  6.23D-01  2.70D-01  2.82D-01  5.21D-01
                    CP:  5.80D-01  1.62D-01  7.69D-01  2.80D-01  6.62D-02
 E= -2713.67631154565     Delta-E=        0.014702304339 Rises=F Damp=F
 DIIS: error= 6.12D-02 at cycle  16 NSaved=  16.
 NSaved=16 IEnMin=14 EnMin= -2714.20349100294     IErMin=14 ErrMin= 1.25D-02
 ErrMax= 6.12D-02  0.00D+00 EMaxC= 1.00D-01 BMatC= 5.22D-01 BMatP= 3.37D-02
 IDIUse=2 WtCom= 0.00D+00 WtEn= 1.00D+00
 EnCoef did   100 forward-backward iterations
 Coeff-En:   0.000D+00 0.000D+00 0.000D+00 0.000D+00 0.000D+00 0.000D+00
 Coeff-En:   0.000D+00 0.000D+00 0.000D+00 0.115D-02 0.291D+00 0.559D-03
 Coeff-En:   0.288D-02 0.528D+00 0.864D-01 0.901D-01
 Coeff:      0.000D+00 0.000D+00 0.000D+00 0.000D+00 0.000D+00 0.000D+00
 Coeff:      0.000D+00 0.000D+00 0.000D+00 0.115D-02 0.291D+00 0.559D-03
 Coeff:      0.288D-02 0.528D+00 0.864D-01 0.901D-01
 Gap=     0.013 Goal=   None    Shift=    0.000
 RMSDP=5.05D-03 MaxDP=1.81D-01 DE= 1.47D-02 OVMax= 0.00D+00

 Cycle  26  Pass 1  IDiag  1:
 RMSU=  1.19D-03    CP:  9.74D-01  2.77D-01  2.63D-01  2.57D-01  5.14D-01
                    CP:  1.64D-01  7.64D-01  1.48D-01  2.14D-01  1.66D-01
                    CP:  8.79D-01  4.50D-01  2.65D-01  6.46D-01  9.15D-02
                    CP:  4.14D-01
 E= -2714.23868655792     Delta-E=       -0.562375012273 Rises=F Damp=F
 DIIS: error= 5.99D-03 at cycle  17 NSaved=  17.
 NSaved=17 IEnMin=17 EnMin= -2714.23868655792     IErMin=17 ErrMin= 5.99D-03
 ErrMax= 5.99D-03  0.00D+00 EMaxC= 1.00D-01 BMatC= 8.91D-03 BMatP= 3.37D-02
 IDIUse=3 WtCom= 9.40D-01 WtEn= 5.99D-02
 EnCoef did     8 forward-backward iterations
 Coeff-Com: -0.164D-02 0.278D-01 0.494D-03 0.952D-04-0.219D-02 0.170D-02
 Coeff-Com: -0.866D-02-0.169D-02 0.146D-01-0.288D-02 0.118D+00-0.901D-02
 Coeff-Com: -0.620D-02 0.292D+00 0.488D-01 0.903D-02 0.520D+00
 Coeff-En:   0.000D+00 0.000D+00 0.000D+00 0.000D+00 0.000D+00 0.000D+00
 Coeff-En:   0.000D+00 0.000D+00 0.000D+00 0.000D+00 0.363D-01 0.000D+00
 Coeff-En:   0.000D+00 0.189D+00 0.152D-01 0.000D+00 0.759D+00
 Coeff:     -0.154D-02 0.261D-01 0.465D-03 0.895D-04-0.206D-02 0.160D-02
 Coeff:     -0.814D-02-0.158D-02 0.137D-01-0.270D-02 0.113D+00-0.847D-02
 Coeff:     -0.583D-02 0.286D+00 0.468D-01 0.849D-02 0.534D+00
 Gap=     0.005 Goal=   None    Shift=    0.000
 RMSDP=3.59D-03 MaxDP=6.45D-02 DE=-5.62D-01 OVMax= 0.00D+00

 Cycle  27  Pass 1  IDiag  1:
 RMSU=  1.72D-03    CP:  9.74D-01  2.79D-01  2.46D-01  2.66D-01  5.31D-01
                    CP:  1.44D-01  7.22D-01  9.26D-02  1.55D-01  7.82D-03
                    CP:  7.83D-01  3.35D-01  4.00D-01  1.88D-01  3.29D-01
                    CP:  2.52D-02  2.54D+00
 E= -2714.24553122748     Delta-E=       -0.006844669559 Rises=F Damp=F
 DIIS: error= 4.34D-03 at cycle  18 NSaved=  18.
 NSaved=18 IEnMin=18 EnMin= -2714.24553122748     IErMin=18 ErrMin= 4.34D-03
 ErrMax= 4.34D-03  0.00D+00 EMaxC= 1.00D-01 BMatC= 4.58D-03 BMatP= 8.91D-03
 IDIUse=3 WtCom= 9.57D-01 WtEn= 4.34D-02
 Coeff-Com: -0.555D-03 0.163D-01-0.274D-04 0.446D-03-0.133D-02 0.524D-03
 Coeff-Com: -0.131D-01 0.912D-04 0.306D-02 0.641D-02 0.772D-01-0.701D-02
 Coeff-Com:  0.235D-02 0.230D+00 0.486D-02-0.845D-02 0.403D+00 0.287D+00
 Coeff-En:   0.000D+00 0.000D+00 0.000D+00 0.000D+00 0.000D+00 0.000D+00
 Coeff-En:   0.000D+00 0.000D+00 0.000D+00 0.000D+00 0.000D+00 0.000D+00
 Coeff-En:   0.000D+00 0.000D+00 0.000D+00 0.000D+00 0.359D+00 0.641D+00
 Coeff:     -0.531D-03 0.156D-01-0.262D-04 0.426D-03-0.127D-02 0.501D-03
 Coeff:     -0.125D-01 0.872D-04 0.293D-02 0.613D-02 0.739D-01-0.671D-02
 Coeff:      0.225D-02 0.220D+00 0.465D-02-0.808D-02 0.401D+00 0.302D+00
 Gap=     0.014 Goal=   None    Shift=    0.000
 RMSDP=8.45D-04 MaxDP=1.52D-02 DE=-6.84D-03 OVMax= 0.00D+00

 Cycle  28  Pass 1  IDiag  1:
 RMSU=  4.19D-04    CP:  9.74D-01  2.80D-01  2.49D-01  2.64D-01  5.25D-01
                    CP:  1.45D-01  7.21D-01  1.16D-01  1.53D-01  4.86D-02
                    CP:  8.06D-01  4.07D-01  3.64D-01  3.23D-01  3.15D-01
                    CP:  1.09D-01  2.42D+00  8.59D-01
 E= -2714.25344698179     Delta-E=       -0.007915754308 Rises=F Damp=F
 DIIS: error= 3.82D-03 at cycle  19 NSaved=  19.
 NSaved=19 IEnMin=19 EnMin= -2714.25344698179     IErMin=19 ErrMin= 3.82D-03
 ErrMax= 3.82D-03  0.00D+00 EMaxC= 1.00D-01 BMatC= 1.70D-03 BMatP= 4.58D-03
 IDIUse=3 WtCom= 9.62D-01 WtEn= 3.82D-02
 Coeff-Com: -0.606D-03 0.134D-01 0.804D-05 0.602D-03-0.141D-02 0.279D-03
 Coeff-Com: -0.651D-02 0.813D-04 0.294D-02 0.776D-02 0.692D-01-0.782D-02
 Coeff-Com:  0.681D-02 0.176D+00 0.769D-03-0.165D-01 0.324D+00 0.131D+00
 Coeff-Com:  0.300D+00
 Coeff-En:   0.000D+00 0.000D+00 0.000D+00 0.000D+00 0.000D+00 0.000D+00
 Coeff-En:   0.000D+00 0.000D+00 0.000D+00 0.000D+00 0.000D+00 0.000D+00
 Coeff-En:   0.000D+00 0.000D+00 0.000D+00 0.000D+00 0.000D+00 0.000D+00
 Coeff-En:   0.100D+01
 Coeff:     -0.583D-03 0.129D-01 0.773D-05 0.579D-03-0.136D-02 0.268D-03
 Coeff:     -0.626D-02 0.782D-04 0.282D-02 0.746D-02 0.666D-01-0.752D-02
 Coeff:      0.655D-02 0.169D+00 0.740D-03-0.158D-01 0.312D+00 0.126D+00
 Coeff:      0.327D+00
 Gap=     0.016 Goal=   None    Shift=    0.000
 RMSDP=3.52D-04 MaxDP=9.91D-03 DE=-7.92D-03 OVMax= 0.00D+00

 Cycle  29  Pass 1  IDiag  1:
 RMSU=  1.04D-04    CP:  9.74D-01  2.79D-01  2.46D-01  2.63D-01  5.23D-01
                    CP:  1.44D-01  7.13D-01  1.14D-01  1.47D-01  4.45D-02
                    CP:  7.89D-01  3.91D-01  3.79D-01  2.63D-01  3.46D-01
                    CP:  1.19D-01  2.55D+00  9.08D-01  1.30D+00
 E= -2714.25244194825     Delta-E=        0.001005033539 Rises=F Damp=F
 DIIS: error= 5.07D-03 at cycle  20 NSaved=  20.
 NSaved=20 IEnMin=19 EnMin= -2714.25344698179     IErMin=19 ErrMin= 3.82D-03
 ErrMax= 5.07D-03  0.00D+00 EMaxC= 1.00D-01 BMatC= 3.04D-03 BMatP= 1.70D-03
 IDIUse=3 WtCom= 9.62D-01 WtEn= 3.82D-02
 Rare condition: small coef for last iteration:  0.000D+00
 Coeff-Com:  0.798D-03 0.139D-01-0.185D-03 0.523D-03-0.793D-03 0.268D-03
 Coeff-Com: -0.572D-02 0.181D-03 0.326D-02 0.724D-02 0.488D-01-0.950D-02
 Coeff-Com:  0.811D-02 0.155D+00 0.134D-02-0.151D-01 0.323D+00 0.176D+00
 Coeff-Com:  0.923D+00-0.630D+00
 Coeff-En:   0.000D+00 0.000D+00 0.000D+00 0.000D+00 0.000D+00 0.000D+00
 Coeff-En:   0.000D+00 0.000D+00 0.000D+00 0.000D+00 0.949D-02 0.000D+00
 Coeff-En:   0.000D+00 0.000D+00 0.000D+00 0.000D+00 0.000D+00 0.000D+00
 Coeff-En:   0.000D+00 0.991D+00
 Coeff:      0.798D-03 0.139D-01-0.185D-03 0.523D-03-0.793D-03 0.268D-03
 Coeff:     -0.572D-02 0.181D-03 0.326D-02 0.724D-02 0.488D-01-0.950D-02
 Coeff:      0.811D-02 0.155D+00 0.134D-02-0.151D-01 0.323D+00 0.176D+00
 Coeff:      0.923D+00-0.630D+00
 Gap=     0.015 Goal=   None    Shift=    0.000
 RMSDP=2.94D-04 MaxDP=6.36D-03 DE= 1.01D-03 OVMax= 0.00D+00

 Cycle  30  Pass 1  IDiag  1:
 Restarting incremental Fock formation.
 E= -2714.24766476025     Delta-E=        0.004777188003 Rises=F Damp=F
 DIIS: error= 7.94D-03 at cycle  21 NSaved=  20.
 NSaved=20 IEnMin=18 EnMin= -2714.25344698179     IErMin=18 ErrMin= 3.82D-03
 ErrMax= 7.94D-03  0.00D+00 EMaxC= 1.00D-01 BMatC= 6.55D-03 BMatP= 1.70D-03
 IDIUse=3 WtCom= 9.62D-01 WtEn= 3.82D-02
 Rare condition: small coef for last iteration:  0.000D+00
 Coeff-Com:  0.780D-03 0.905D-02 0.268D-04-0.747D-03 0.669D-03-0.738D-02
 Coeff-Com: -0.181D-03 0.353D-02 0.101D-02 0.483D-01-0.197D-02 0.125D-02
 Coeff-Com:  0.113D+00-0.365D-02-0.725D-02 0.158D+00-0.255D-01-0.984D+00
 Coeff-Com:  0.331D+01-0.161D+01
 Coeff-En:   0.000D+00 0.000D+00 0.000D+00 0.000D+00 0.000D+00 0.000D+00
 Coeff-En:   0.000D+00 0.000D+00 0.000D+00 0.181D-01 0.000D+00 0.000D+00
 Coeff-En:   0.000D+00 0.000D+00 0.000D+00 0.212D+00 0.220D+00 0.000D+00
 Coeff-En:   0.000D+00 0.550D+00
 Coeff:      0.780D-03 0.905D-02 0.268D-04-0.747D-03 0.669D-03-0.738D-02
 Coeff:     -0.181D-03 0.353D-02 0.101D-02 0.483D-01-0.197D-02 0.125D-02
 Coeff:      0.113D+00-0.365D-02-0.725D-02 0.158D+00-0.255D-01-0.984D+00
 Coeff:      0.331D+01-0.161D+01
 Gap=     0.019 Goal=   None    Shift=    0.000
 RMSDP=1.00D-03 MaxDP=3.37D-02 DE= 4.78D-03 OVMax= 0.00D+00

 Cycle  31  Pass 1  IDiag  1:
 RMSU=  9.99D-04    CP:  1.00D+00
 E= -2714.25448413757     Delta-E=       -0.006819377322 Rises=F Damp=F
 DIIS: error= 5.91D-03 at cycle  22 NSaved=  20.
 NSaved=20 IEnMin=20 EnMin= -2714.25448413757     IErMin=17 ErrMin= 3.82D-03
 ErrMax= 5.91D-03  0.00D+00 EMaxC= 1.00D-01 BMatC= 3.60D-03 BMatP= 1.70D-03
 IDIUse=3 WtCom= 9.62D-01 WtEn= 3.82D-02
 Coeff-Com:  0.128D-02 0.709D-02-0.221D-03 0.125D-03-0.761D-03-0.361D-03
 Coeff-Com:  0.301D-02-0.356D-02 0.318D-01 0.250D-03 0.285D-02 0.585D-01
 Coeff-Com: -0.688D-02-0.115D-02 0.800D-01 0.116D-01-0.880D+00 0.308D+01
 Coeff-Com: -0.195D+01 0.570D+00
 Coeff-En:   0.000D+00 0.000D+00 0.000D+00 0.000D+00 0.000D+00 0.000D+00
 Coeff-En:   0.000D+00 0.000D+00 0.175D-01 0.000D+00 0.000D+00 0.000D+00
 Coeff-En:   0.000D+00 0.000D+00 0.000D+00 0.000D+00 0.000D+00 0.000D+00
 Coeff-En:   0.000D+00 0.982D+00
 Coeff:      0.123D-02 0.682D-02-0.213D-03 0.120D-03-0.731D-03-0.347D-03
 Coeff:      0.289D-02-0.342D-02 0.312D-01 0.241D-03 0.274D-02 0.562D-01
 Coeff:     -0.661D-02-0.111D-02 0.769D-01 0.112D-01-0.846D+00 0.296D+01
 Coeff:     -0.188D+01 0.585D+00
 Gap=     0.021 Goal=   None    Shift=    0.000
 RMSDP=6.59D-04 MaxDP=1.99D-02 DE=-6.82D-03 OVMax= 0.00D+00

 Cycle  32  Pass 1  IDiag  1:
 RMSU=  2.77D-04    CP:  1.00D+00  1.60D+00
 E= -2714.25830522134     Delta-E=       -0.003821083772 Rises=F Damp=F
 DIIS: error= 3.83D-03 at cycle  23 NSaved=  20.
 NSaved=20 IEnMin=20 EnMin= -2714.25830522134     IErMin=16 ErrMin= 3.82D-03
 ErrMax= 3.83D-03  0.00D+00 EMaxC= 1.00D-01 BMatC= 1.61D-03 BMatP= 1.70D-03
 IDIUse=3 WtCom= 9.62D-01 WtEn= 3.82D-02
 Coeff-Com:  0.762D-03 0.699D-02-0.181D-03-0.158D-03 0.210D-02 0.121D-02
 Coeff-Com: -0.376D-02 0.272D-01 0.101D-02 0.178D-02 0.464D-01-0.474D-02
 Coeff-Com:  0.924D-03 0.756D-01 0.123D+00-0.193D+00 0.127D+01-0.114D+01
 Coeff-Com:  0.298D+00 0.494D+00
 Coeff-En:   0.000D+00 0.000D+00 0.000D+00 0.000D+00 0.000D+00 0.000D+00
 Coeff-En:   0.000D+00 0.000D+00 0.000D+00 0.000D+00 0.000D+00 0.000D+00
 Coeff-En:   0.000D+00 0.000D+00 0.000D+00 0.000D+00 0.000D+00 0.000D+00
 Coeff-En:   0.000D+00 0.100D+01
 Coeff:      0.733D-03 0.672D-02-0.174D-03-0.152D-03 0.202D-02 0.116D-02
 Coeff:     -0.362D-02 0.262D-01 0.967D-03 0.172D-02 0.446D-01-0.456D-02
 Coeff:      0.888D-03 0.727D-01 0.118D+00-0.186D+00 0.122D+01-0.110D+01
 Coeff:      0.286D+00 0.513D+00
 Gap=     0.020 Goal=   None    Shift=    0.000
 RMSDP=2.92D-04 MaxDP=8.24D-03 DE=-3.82D-03 OVMax= 0.00D+00

 Cycle  33  Pass 1  IDiag  1:
 RMSU=  2.49D-04    CP:  1.00D+00  1.64D+00  4.70D-01
 E= -2714.25866728052     Delta-E=       -0.000362059173 Rises=F Damp=F
 DIIS: error= 3.27D-03 at cycle  24 NSaved=  20.
 NSaved=20 IEnMin=20 EnMin= -2714.25866728052     IErMin=20 ErrMin= 3.27D-03
 ErrMax= 3.27D-03  0.00D+00 EMaxC= 1.00D-01 BMatC= 1.23D-03 BMatP= 1.61D-03
 IDIUse=3 WtCom= 9.67D-01 WtEn= 3.27D-02
 Coeff-Com:  0.103D-02 0.523D-02-0.176D-03 0.149D-02 0.141D-02-0.316D-02
 Coeff-Com:  0.219D-01-0.381D-03 0.135D-02 0.432D-01-0.436D-02 0.539D-02
 Coeff-Com:  0.909D-01 0.962D-01 0.593D+00-0.106D+01 0.176D+00-0.590D+00
 Coeff-Com:  0.281D+00 0.134D+01
 Coeff-En:   0.000D+00 0.000D+00 0.000D+00 0.000D+00 0.000D+00 0.000D+00
 Coeff-En:   0.000D+00 0.000D+00 0.000D+00 0.000D+00 0.000D+00 0.000D+00
 Coeff-En:   0.000D+00 0.000D+00 0.000D+00 0.000D+00 0.000D+00 0.000D+00
 Coeff-En:   0.000D+00 0.100D+01
 Coeff:      0.993D-03 0.506D-02-0.171D-03 0.144D-02 0.136D-02-0.306D-02
 Coeff:      0.212D-01-0.368D-03 0.130D-02 0.418D-01-0.421D-02 0.522D-02
 Coeff:      0.879D-01 0.930D-01 0.574D+00-0.103D+01 0.170D+00-0.570D+00
 Coeff:      0.272D+00 0.133D+01
 Gap=     0.020 Goal=   None    Shift=    0.000
 RMSDP=4.95D-04 MaxDP=1.85D-02 DE=-3.62D-04 OVMax= 0.00D+00

 Cycle  34  Pass 1  IDiag  1:
 RMSU=  1.62D-04    CP:  9.99D-01  2.05D+00  1.19D+00  1.36D+00
 E= -2714.26064329521     Delta-E=       -0.001976014690 Rises=F Damp=F
 DIIS: error= 1.43D-03 at cycle  25 NSaved=  20.
 NSaved=20 IEnMin=20 EnMin= -2714.26064329521     IErMin=20 ErrMin= 1.43D-03
 ErrMax= 1.43D-03  0.00D+00 EMaxC= 1.00D-01 BMatC= 3.06D-04 BMatP= 1.23D-03
 IDIUse=3 WtCom= 9.86D-01 WtEn= 1.43D-02
 Coeff-Com:  0.152D-02 0.237D-03 0.362D-02 0.230D-02-0.902D-03 0.240D-02
 Coeff-Com: -0.130D-02 0.638D-03-0.385D-03-0.429D-03 0.422D-02 0.226D-01
 Coeff-Com: -0.154D+00 0.344D+00-0.761D+00 0.607D+00-0.940D+00-0.379D+00
 Coeff-Com:  0.927D+00 0.132D+01
 Coeff-En:   0.000D+00 0.000D+00 0.000D+00 0.000D+00 0.000D+00 0.000D+00
 Coeff-En:   0.000D+00 0.000D+00 0.000D+00 0.000D+00 0.000D+00 0.000D+00
 Coeff-En:   0.000D+00 0.000D+00 0.000D+00 0.000D+00 0.000D+00 0.000D+00
 Coeff-En:   0.000D+00 0.100D+01
 Coeff:      0.150D-02 0.233D-03 0.357D-02 0.227D-02-0.889D-03 0.236D-02
 Coeff:     -0.128D-02 0.629D-03-0.379D-03-0.423D-03 0.416D-02 0.223D-01
 Coeff:     -0.151D+00 0.339D+00-0.750D+00 0.599D+00-0.927D+00-0.373D+00
 Coeff:      0.914D+00 0.132D+01
 Gap=     0.021 Goal=   None    Shift=    0.000
 RMSDP=7.37D-04 MaxDP=2.79D-02 DE=-1.98D-03 OVMax= 0.00D+00

 Cycle  35  Pass 1  IDiag  1:
 RMSU=  2.62D-04    CP:  9.99D-01  2.63D+00  2.13D+00  2.35D+00  1.63D+00
 E= -2714.26109772298     Delta-E=       -0.000454427777 Rises=F Damp=F
 DIIS: error= 1.88D-03 at cycle  26 NSaved=  20.
 NSaved=20 IEnMin=20 EnMin= -2714.26109772298     IErMin=19 ErrMin= 1.43D-03
 ErrMax= 1.88D-03  0.00D+00 EMaxC= 1.00D-01 BMatC= 4.35D-04 BMatP= 3.06D-04
 IDIUse=3 WtCom= 9.86D-01 WtEn= 1.43D-02
 Coeff-Com:  0.213D-03 0.203D-02 0.237D-02-0.172D-04 0.402D-02-0.178D-02
 Coeff-Com:  0.329D-03 0.990D-02 0.217D-03 0.158D-02 0.197D-01-0.155D+00
 Coeff-Com:  0.162D+00-0.688D-01 0.274D+00-0.612D+00-0.624D+00 0.435D+00
 Coeff-Com:  0.121D+01 0.338D+00
 Coeff-En:   0.000D+00 0.000D+00 0.000D+00 0.000D+00 0.000D+00 0.000D+00
 Coeff-En:   0.000D+00 0.000D+00 0.000D+00 0.000D+00 0.000D+00 0.000D+00
 Coeff-En:   0.000D+00 0.000D+00 0.000D+00 0.000D+00 0.000D+00 0.000D+00
 Coeff-En:   0.000D+00 0.100D+01
 Coeff:      0.210D-03 0.201D-02 0.234D-02-0.169D-04 0.396D-02-0.176D-02
 Coeff:      0.324D-03 0.976D-02 0.214D-03 0.156D-02 0.194D-01-0.153D+00
 Coeff:      0.160D+00-0.678D-01 0.270D+00-0.603D+00-0.615D+00 0.429D+00
 Coeff:      0.119D+01 0.348D+00
 Gap=     0.021 Goal=   None    Shift=    0.000
 RMSDP=2.52D-04 MaxDP=6.77D-03 DE=-4.54D-04 OVMax= 0.00D+00

 Cycle  36  Pass 1  IDiag  1:
 RMSU=  1.05D-04    CP:  9.99D-01  2.51D+00  1.75D+00  2.77D+00  2.01D+00
                    CP:  5.89D-01
 E= -2714.26160207029     Delta-E=       -0.000504347308 Rises=F Damp=F
 DIIS: error= 3.61D-04 at cycle  27 NSaved=  20.
 NSaved=20 IEnMin=20 EnMin= -2714.26160207029     IErMin=20 ErrMin= 3.61D-04
 ErrMax= 3.61D-04  0.00D+00 EMaxC= 1.00D-01 BMatC= 2.97D-05 BMatP= 3.06D-04
 IDIUse=3 WtCom= 9.96D-01 WtEn= 3.61D-03
 Coeff-Com:  0.155D-02 0.174D-02-0.290D-03 0.107D-02-0.300D-03 0.516D-03
 Coeff-Com: -0.336D-02-0.776D-03-0.384D-04-0.463D-02-0.136D+00-0.287D+00
 Coeff-Com:  0.881D+00-0.277D+00-0.458D-01-0.317D+00-0.279D+00 0.616D+00
 Coeff-Com:  0.137D+00 0.713D+00
 Coeff-En:   0.000D+00 0.000D+00 0.000D+00 0.000D+00 0.000D+00 0.000D+00
 Coeff-En:   0.000D+00 0.000D+00 0.000D+00 0.000D+00 0.000D+00 0.000D+00
 Coeff-En:   0.000D+00 0.000D+00 0.000D+00 0.000D+00 0.000D+00 0.000D+00
 Coeff-En:   0.318D-02 0.997D+00
 Coeff:      0.154D-02 0.173D-02-0.289D-03 0.106D-02-0.299D-03 0.514D-03
 Coeff:     -0.335D-02-0.773D-03-0.383D-04-0.462D-02-0.136D+00-0.286D+00
 Coeff:      0.878D+00-0.276D+00-0.456D-01-0.316D+00-0.278D+00 0.613D+00
 Coeff:      0.137D+00 0.714D+00
 Gap=     0.022 Goal=   None    Shift=    0.000
 RMSDP=1.89D-04 MaxDP=7.23D-03 DE=-5.04D-04 OVMax= 0.00D+00

 Cycle  37  Pass 1  IDiag  1:
 RMSU=  5.42D-05    CP:  9.99D-01  2.63D+00  1.94D+00  2.65D+00  2.52D+00
                    CP:  8.74D-01  1.41D+00
 E= -2714.26164536939     Delta-E=       -0.000043299101 Rises=F Damp=F
 DIIS: error= 8.44D-04 at cycle  28 NSaved=  20.
 NSaved=20 IEnMin=20 EnMin= -2714.26164536939     IErMin=19 ErrMin= 3.61D-04
 ErrMax= 8.44D-04  0.00D+00 EMaxC= 1.00D-01 BMatC= 7.81D-05 BMatP= 2.97D-05
 IDIUse=3 WtCom= 9.96D-01 WtEn= 3.61D-03
 Coeff-Com:  0.346D-03 0.359D-03 0.161D-02 0.254D-03 0.114D-02-0.312D-02
 Coeff-Com: -0.399D-03-0.969D-03-0.134D-01-0.634D-01-0.588D+00 0.151D+01
 Coeff-Com: -0.659D+00 0.330D+00-0.217D+00-0.608D+00 0.403D-01-0.817D-01
 Coeff-Com:  0.627D+00 0.727D+00
 Coeff-En:   0.000D+00 0.000D+00 0.000D+00 0.000D+00 0.000D+00 0.000D+00
[...]
 14,-0.00685775,-0.00183174,-0.00917900,0.01509966,0.00547967,-0.005520
 14,0.00916661,-0.00497319,0.01026442,-0.01400296,-0.00345220,-0.000314
 71,-0.00152706,-0.09630214,-0.20347818,0.27105239,-0.00003304,0.000048
 38,0.00006606,-0.00010872,-0.00022566,-0.00018546,0.00007240,0.0002052
 3,0.00018562,0.00000834,-0.00012439,-0.00010965,0.00023135,0.00028143,
 0.00015653,-0.00007632,-0.00023976,-0.00018072,-0.00030558,-0.00003757
 ,0.00003439,0.00014661,0.00006461,0.00002237,0.00012189,-0.00004783,-0
 .00006571,0.00007110,0.00009698,0.00001226,-0.00001482,-0.00002255,-0.
 00001580,-0.00001364,-0.00000238,-0.00000785,0.00000419,-0.00000684,-0
 .00000338,-0.00001697,-0.00000060,-0.00000151,-0.00076622,-0.00042339,
 0.00043033,0.00006057,-0.00011895,-0.00001293,-0.00008268,0.00014051,0
 .00018028,0.00010512,-0.00014683,-0.00025312,-0.00014223,0.00024969,0.
 00014197,0.00019262,-0.00030223,-0.00022462,-0.00006617,0.00008566,0.0
 0020366,-0.00014019,0.00028036,0.00017847,0.00012302,0.00010356,-0.000
 30226,0.00006842,-0.00016686,0.00007651,0.00007643,-0.00004605,-0.0001
 9785,-0.00000442,0.00000212,0.00003132,-0.00000295,0.00000873,0.000008
 00,-0.00001105,0.00001546,-0.00000727,-0.00000013,-0.00000434,0.000009
 51,-0.13691962,-0.10390972,0.07517674,-0.00808544,-0.02344505,0.027423
 61,-0.00370067,0.00125266,-0.00687964,-0.00028683,-0.00003920,0.000366
 36,-0.00102194,-0.00050782,-0.00387891,0.01076712,0.01348679,-0.011494
 30,0.00063115,-0.00054064,0.00038947,0.00049617,0.00069248,-0.00054497
 ,0.00021458,0.00019453,-0.00005935,0.00044502,0.00056809,-0.00009753,0
 .13682909,-0.00003895,0.00009318,0.00010574,-0.00019571,-0.00039399,-0
 .00031875,0.00016686,0.00036908,0.00031340,-0.00002539,-0.00021219,-0.
 00018295,0.00039524,0.00045280,0.00025568,-0.00015387,-0.00039183,-0.0
 0029611,-0.00049374,-0.00002627,0.00006372,0.00020311,0.00006541,0.000
 05815,0.00019407,-0.00009820,-0.00012269,0.00008899,0.00019521,0.00002
 147,-0.00002531,-0.00003649,-0.00002663,-0.00001941,-0.00000338,-0.000
 01245,0.00000574,-0.00001188,-0.00000405,-0.00002475,-0.00000262,0.000
 00112,-0.00045081,-0.00040938,0.00048233,0.00006825,-0.00011290,-0.000
 02260,-0.00009844,0.00015553,0.00026630,0.00010969,-0.00016728,-0.0003
 3935,-0.00013850,0.00027451,0.00015509,0.00018096,-0.00037839,-0.00027
 674,-0.00006375,0.00009786,0.00026282,-0.00022020,0.00034166,0.0002106
 9,0.00011753,0.00016354,-0.00026369,0.00009224,-0.00020438,0.00010000,
 0.00007165,-0.00005055,-0.00015886,-0.00000696,0.00000307,0.00004247,0
 .00000011,0.00001524,0.00001292,-0.00001554,0.00001593,-0.00000760,-0.
 00000383,-0.00000633,0.00001251,-0.10382643,-0.16937968,0.13443391,0.0
 0150790,-0.00591411,0.00690337,-0.00193020,0.00518076,-0.00056693,0.00
 010374,-0.00078371,-0.00017474,0.00197537,0.00625047,0.00235664,-0.011
 24643,-0.00874028,0.00427996,-0.00118310,-0.00000849,0.00148999,0.0008
 5985,-0.00005426,-0.00028517,0.00010233,0.00000150,-0.00009682,0.00041
 315,0.00000747,-0.00072424,0.11120287,0.17710119,0.00004925,-0.0000845
 8,-0.00009924,0.00017114,0.00035999,0.00029359,-0.00011474,-0.00033490
 ,-0.00028245,-0.00002130,0.00019760,0.00016726,-0.00031039,-0.00043303
 ,-0.00023891,0.00012653,0.00036379,0.00027845,0.00039238,0.00002141,-0
 .00006834,-0.00016826,-0.00001085,0.00000188,-0.00015462,0.00007315,0.
 00008996,-0.00002028,-0.00009464,-0.00002268,0.00002267,0.00003284,0.0
 0002395,0.00001904,0.00000540,0.00001035,-0.00000565,0.00001138,0.0000
 0459,0.00002445,0.00000261,-0.00000090,0.00012981,0.00024421,-0.000241
 69,-0.00006066,0.00010813,0.00002760,0.00009817,-0.00014811,-0.0002762
 1,-0.00011563,0.00014605,0.00033551,0.00013771,-0.00024731,-0.00010078
 ,-0.00019803,0.00034089,0.00028424,0.00007092,-0.00008440,-0.00027091,
 0.00015027,-0.00035708,-0.00021042,0.00003587,-0.00009125,0.00036941,-
 0.00007977,0.00018064,-0.00007635,-0.00006302,-0.00006882,0.00011542,0
 .00000661,-0.00000219,-0.00004132,0.00000436,-0.00001343,-0.00001376,0
 .00001370,-0.00001471,0.00000697,0.00000445,0.00000464,-0.00001330,0.0
 7481109,0.13465710,-0.16158951,-0.00546024,-0.00689494,0.00466830,-0.0
 0261939,0.00095422,0.00280642,-0.00035057,-0.00026084,-0.00076042,-0.0
 0667429,0.00142437,0.00131941,0.02127752,0.01765285,-0.01225882,0.0008
 9053,0.00150584,0.00020987,-0.00041412,-0.00019151,-0.00060625,0.00003
 228,-0.00003750,-0.00006512,0.00009663,-0.00043213,-0.00004249,-0.0837
 3685,-0.14366614,0.16632582,0.00007959,0.00000001,-0.00001517,-0.00002
 754,0.00001047,0.00001538,0.00005198,0.00000769,-0.00000045,-0.0000601
 8,-0.00001660,0.00000181,0.00002262,0.00000964,0.00000718,-0.00006335,
 -0.00002131,0.00000040,-0.00001747,-0.00002667,-0.00001788,0.00005349,
 -0.00000005,-0.00002976,0.00000268,0.00002491,0.00001567,0.00002848,0.
 00003366,0.00000585,0.00000364,0.00000284,0.00000017,0.00000630,0.0000
 0312,-0.00000201,0.00000159,0.00000133,0.00000112,-0.00000037,0.000000
 08,-0.00000229,-0.00050970,-0.00001395,0.00025568,0.00000933,-0.000036
 92,-0.00001046,-0.00001334,0.00003217,0.00002538,0.00002648,-0.0000522
 2,-0.00005512,-0.00004845,0.00006280,0.00009372,0.00007241,-0.00003905
 ,-0.00005713,-0.00001693,0.00002631,0.00004075,0.00000080,0.00004190,0
 .00002652,0.00017363,0.00001251,-0.00003971,-0.00002813,-0.00004407,0.
 00000953,0.00001507,-0.00006066,-0.00012005,0.00000033,0.00000039,0.00
 000123,0.00000147,-0.00000186,-0.00000243,-0.00000124,0.00000662,-0.00
 000162,0.00000524,0.00000249,-0.00000091,-0.00885634,0.01928159,-0.029
 71810,-0.13352571,0.04097215,-0.12201606,0.01068457,-0.00688374,0.0158
 6965,-0.00246394,-0.00342223,0.00076358,0.00052238,0.00005087,0.000643
 76,-0.00408664,-0.00543817,0.00248573,-0.00021219,-0.00001020,0.000273
 76,0.00013760,0.00008749,-0.00022765,0.00031561,0.00021770,-0.00014332
 ,0.00123739,0.00006447,0.00018338,0.00106262,0.00111943,0.00134686,0.1
 3514991,-0.00022414,-0.00001708,0.00003383,0.00008325,0.00000015,-0.00
 002498,-0.00017993,-0.00005305,-0.00001157,0.00020368,0.00010478,0.000
 03925,-0.00005116,-0.00004212,-0.00003323,0.00019293,0.00006955,0.0000
 0238,0.00000877,0.00010479,0.00010690,-0.00003303,-0.00010946,0.000030
 82,0.00004516,-0.00007671,-0.00007475,-0.00007291,-0.00016130,-0.00000
 014,-0.00000923,-0.00000750,-0.00000008,-0.00001987,-0.00000697,0.0000
 0238,-0.00000383,-0.00000462,-0.00000202,-0.00000111,-0.00000112,0.000
 00258,0.00046146,0.00010887,-0.00097574,0.00000497,0.00003723,0.000029
 86,0.00000354,-0.00001517,-0.00002606,-0.00001815,0.00006987,0.0000666
 1,0.00006373,-0.00004774,-0.00017761,-0.00009902,-0.00002925,0.0000675
 8,0.00001883,-0.00002896,-0.00004366,-0.00001515,-0.00004977,-0.000029
 16,-0.00032432,0.00002308,0.00010453,0.00008639,0.00002935,0.00003182,
 0.00000551,0.00017496,0.00026655,-0.00000227,0.00000028,0.00000554,-0.
 00000478,0.00000656,0.00000720,-0.00000531,-0.00000640,0.00000034,-0.0
 0001301,-0.00000876,0.00000488,-0.00478221,0.00313368,-0.01017694,0.04
 136413,-0.08524131,0.11628063,0.01633746,-0.00548241,0.01534625,-0.004
 91886,0.00199805,0.00095799,0.00025901,-0.00036908,-0.00043726,-0.0029
 4453,0.00188183,0.00130699,0.00023492,-0.00016679,-0.00042350,-0.00001
 986,0.00014292,0.00007586,0.00000199,-0.00000629,0.00009319,0.00004625
 ,-0.00120605,0.00247016,0.00169593,-0.00165738,-0.00208357,-0.04761632
 ,0.08643392,-0.00007774,-0.00002935,-0.00000570,0.00014547,0.00017147,
 0.00012550,-0.00010143,-0.00017739,-0.00013906,0.00000439,-0.00004044,
 -0.00002709,-0.00013205,-0.00016110,-0.00007098,0.00014881,0.00017198,
 0.00010993,0.00003166,-0.00016384,-0.00010864,-0.00008384,0.00029255,0
 .00005655,-0.00005046,0.00007645,0.00005126,0.00015793,0.00018251,-0.0
 0004409,0.00001567,0.00002147,0.00001850,0.00001395,0.00000566,0.00000
 817,0.00000097,0.00000316,0.00000100,0.00000544,0.00000873,0.00000500,
 0.00040119,-0.00079737,0.00099496,-0.00000005,0.00002403,0.00002970,0.
 00005308,-0.00005946,-0.00023636,-0.00003520,0.00005835,0.00023926,0.0
 0004666,-0.00008141,-0.00001088,-0.00012655,0.00014459,0.00016173,0.00
 003101,-0.00002482,-0.00018374,0.00001340,-0.00020593,-0.00003612,-0.0
 0011304,0.00013248,-0.00009487,0.00002020,0.00012711,-0.00005353,-0.00
 002968,-0.00008892,-0.00010400,0.00000490,-0.00000177,-0.00003123,0.00
 000185,-0.00001400,-0.00001449,0.00000267,-0.00000380,0.00000205,-0.00
 000203,-0.00000177,-0.00001214,0.00337686,0.00332804,-0.00506441,-0.12
 335867,0.11669160,-0.24364212,-0.01533354,0.00176905,-0.01211214,0.002
 99391,0.00180844,0.00314820,0.00043553,-0.00056771,0.00014593,-0.00073
 181,-0.00007910,0.00358010,0.00008116,-0.00058863,0.00022849,0.0000065
 2,0.00025202,-0.00022903,-0.00004434,0.00018007,-0.00016982,-0.0004891
 1,0.00202755,-0.00207112,0.00058552,-0.00237998,-0.00033171,0.13190902
 ,-0.12128356,0.25530460,-0.00024391,-0.00019860,-0.00009777,0.00041782
 ,0.00062661,0.00046236,-0.00055736,-0.00068510,-0.00046370,0.00035634,
 0.00040282,0.00023706,-0.00067895,-0.00070818,-0.00035751,0.00051615,0
 .00063892,0.00043261,0.00068702,0.00020090,0.00001430,-0.00017474,-0.0
 0027445,-0.00028068,-0.00016211,0.00003408,0.00011571,-0.00003046,-0.0
 0045191,-0.00005283,0.00002127,0.00004074,0.00003145,-0.00001109,0.000
 00080,0.00001121,-0.00001219,0.00001229,0.00000282,0.00002773,0.000001
 47,-0.00000623,-0.00013841,0.00073204,-0.00074254,0.00002062,-0.000044
 16,0.00008613,0.00002610,0.00000930,-0.00027177,-0.00005275,0.00008459
 ,0.00027629,0.00005529,-0.00002975,-0.00025419,-0.00009200,0.00004278,
 0.00020961,0.00000597,-0.00001671,-0.00018213,0.00021934,-0.00011784,-
 0.00005954,-0.00033093,0.00001447,0.00014897,-0.00002384,0.00005059,-0
 .00000978,0.00015900,0.00025224,0.00019187,0.00000174,-0.00000211,-0.0
 0001628,0.00000566,0.00000131,-0.00000253,-0.00001271,-0.00000988,-0.0
 0000241,-0.00000804,-0.00001214,0.00000125,0.00499544,-0.00247282,0.00
 350511,-0.01272544,0.00204190,-0.00869846,-0.34806760,-0.08526678,-0.0
 6524430,-0.01038064,-0.00622118,0.00162910,0.00195121,-0.00002572,-0.0
 0247406,0.00003078,0.00143993,-0.00168473,-0.00097959,-0.00038845,0.00
 001392,0.00006443,-0.00022588,0.00010681,0.00009433,0.00035687,-0.0002
 1775,-0.00028346,-0.00133587,0.00339265,-0.00066020,-0.00055741,-0.000
 38147,0.00092966,0.00090582,0.00101303,0.36524837,0.00019210,0.0000497
 5,-0.00001368,-0.00015858,-0.00015438,-0.00009087,0.00022655,0.0001990
 1,0.00011765,-0.00015392,-0.00004464,-0.00002302,0.00019131,0.00021413
 ,0.00004805,-0.00024140,-0.00018284,-0.00010558,-0.00011767,0.00002784
 ,0.00006276,0.00011868,-0.00012790,0.00004342,0.00003671,-0.00001043,-
 0.00004611,-0.00004397,0.00009314,0.00003835,-0.00000256,-0.00000901,-
 0.00001062,0.00001316,0.00000074,-0.00000329,0.00000739,0.00000241,-0.
 00000538,-0.00000382,-0.00000614,-0.00000153,0.00030187,0.00002524,-0.
 00037060,-0.00003085,0.00006022,-0.00002869,0.00002491,-0.00005429,0.0
 0004891,-0.00001730,0.00002844,-0.00002083,0.00002362,-0.00007470,0.00
 002408,-0.00002844,0.00006023,-0.00002682,0.00002295,-0.00002550,0.000
 01081,0.00003169,-0.00001996,-0.00002581,0.00005086,0.00000578,0.00012
 117,-0.00002521,-0.00000791,-0.00000069,-0.00003087,-0.00004348,-0.000
 02909,-0.00000009,-0.00000074,0.00000117,0.00000001,-0.00000103,0.0000
 0056,0.00000696,-0.00001168,0.00000265,0.00000230,0.00000408,-0.000001
 22,0.00019505,0.00072637,0.00562812,-0.02164054,-0.00388356,-0.0095967
 6,-0.08552082,-0.06291876,0.00420423,0.01564617,0.00611140,0.00280597,
 -0.00081941,0.00254639,0.00506300,-0.00009103,-0.00057866,0.00011046,0
 .00063214,0.00079400,-0.00014492,-0.00012830,-0.00021396,0.00010823,0.
 00028807,-0.00042979,0.00004711,-0.00002650,-0.00105970,-0.00350167,-0
 .00158182,0.00045789,0.00034562,0.00142847,-0.00119260,-0.00189071,0.0
 9102027,0.05998127,0.00011362,-0.00006219,-0.00007816,0.00005255,0.000
 19310,0.00017790,-0.00002088,-0.00019117,-0.00011425,-0.00003359,0.000
 17547,0.00010138,-0.00009296,-0.00019873,-0.00013510,-0.00000404,0.000
 14708,0.00013283,0.00012599,0.00004306,0.00001791,0.00008052,-0.000118
 15,-0.00005129,-0.00002759,0.00002752,0.00001887,0.00002683,-0.0000527
 9,0.00000272,0.00000969,0.00000989,0.00000506,0.00000877,0.00000273,0.
 00000240,0.00000229,0.00001350,-0.00000665,0.00001149,-0.00000661,-0.0
 0000799,-0.00021221,-0.00016874,0.00007380,-0.00001203,0.00001586,0.00
 000941,0.00003034,-0.00003206,-0.00008301,-0.00001934,0.00003364,0.000
 09108,0.00001059,-0.00003478,-0.00001392,-0.00001991,0.00004444,0.0000
 4364,0.00001715,-0.00001432,-0.00006220,0.00006512,-0.00005257,-0.0000
 2557,0.00005401,0.00006321,0.00008339,-0.00002518,-0.00001204,0.000005
 01,0.00005086,-0.00004976,-0.00005432,0.00000147,-0.00000116,-0.000005
 90,0.00000048,-0.00000328,-0.00000316,0.00000402,-0.00001180,0.0000008
 4,0.00000306,-0.00000032,-0.00000176,-0.00032196,0.00423128,-0.0010715
 0,0.02321611,0.00363297,0.00594287,-0.06615699,0.00453047,-0.06620553,
 -0.02709457,-0.01003114,0.00013341,-0.00166069,0.00565024,-0.00178107,
 0.00028279,0.00070218,-0.00125913,-0.00149184,-0.00086331,0.00102342,0
 .00017946,-0.00007332,-0.00009702,-0.00000139,0.00010834,-0.00075459,0
 .00188337,-0.00343244,0.00176689,0.00099176,0.00094221,0.00070316,0.00
 039447,-0.00223405,0.00004440,0.06950239,-0.00242768,0.06152635,0.0000
 4016,0.00001109,-0.00000023,-0.00006224,-0.00006946,-0.00004291,0.0000
 7509,0.00006232,0.00006150,-0.00005573,0.00004564,0.00003915,0.0001379
 8,0.00000055,0.00003700,-0.00007037,-0.00006043,-0.00003258,-0.0001457
 4,0.00001369,0.00001004,-0.00005445,0.00002539,0.00013465,0.00006386,-
 0.00004630,-0.00005012,-0.00004768,-0.00002191,-0.00000634,-0.00000722
 ,-0.00000939,-0.00000848,-0.00000506,-0.00000145,-0.00000260,-0.000001
 10,0.00000070,-0.00000111,-0.00000033,-0.00000234,-0.00000253,0.000401
 21,0.00044452,-0.00043188,-0.00000679,0.00001478,-0.00001331,-0.000015
 11,0.00001634,0.00013195,0.00004283,-0.00000328,-0.00012174,-0.0000393
 3,0.00000983,0.00000742,0.00009634,-0.00003328,-0.00004896,0.00000030,
 0.00000713,0.00008186,-0.00014080,0.00006198,-0.00008172,0.00020763,-0
 .00015161,0.00010273,0.00002561,-0.00005111,0.00004152,-0.00015953,-0.
 00012776,0.00010018,-0.00000290,0.00000189,0.00001707,-0.00001414,0.00
 000132,0.00000633,0.00000698,0.00000385,0.00000033,0.00000483,0.000002
 84,0.00000667,-0.01447578,-0.00816889,0.00263839,0.00612457,0.00212946
 ,-0.00264024,-0.00038754,-0.00028494,0.00065824,0.00325466,-0.00280750
 ,0.00121211,-0.01150423,-0.00222793,-0.00451624,-0.33834443,-0.0822778
 8,-0.06825906,-0.00124608,0.00140272,-0.00200265,-0.00085167,-0.000433
 89,0.00051920,0.00084449,0.00062151,0.00019242,-0.00098396,0.00017606,
 0.00023471,0.00073204,0.00173968,0.00103706,-0.00066335,-0.00066473,-0
 .00079123,-0.00020790,0.00020185,0.00007603,0.35743488,0.00015696,0.00
 003206,-0.00000299,-0.00015025,-0.00014972,-0.00008211,0.00023467,0.00
 016597,0.00011629,-0.00016897,0.00005041,0.00004087,0.00025583,0.00012
 238,-0.00000489,-0.00020299,-0.00014390,-0.00006184,-0.00022537,0.0000
 5792,0.00008706,0.00020461,-0.00006990,0.00003432,0.00010641,-0.000060
 75,-0.00008326,-0.00005444,0.00007643,0.00002041,-0.00000787,-0.000014
 94,-0.00001225,0.00000322,-0.00000252,-0.00000200,-0.00000010,0.000005
 96,-0.00000515,-0.00000221,-0.00000232,-0.00000743,0.00002595,0.000406
 97,-0.00020305,-0.00004648,0.00010132,-0.00004161,0.00001353,-0.000050
 80,0.00014292,-0.00000058,0.00001751,-0.00008363,0.00002375,-0.0000287
 4,0.00001380,0.00003167,-0.00001594,-0.00008581,0.00001838,-0.00004252
 ,0.00004839,-0.00012144,0.00003602,-0.00002960,0.00005034,-0.00003754,
 0.00007006,0.00008104,-0.00006814,0.00006284,-0.00001715,-0.00008639,0
 .00005897,-0.00000138,0.00000308,0.00001397,-0.00000709,0.00000458,0.0
 0000756,0.00000535,-0.00000209,0.00000322,0.00000272,0.00000424,0.0000
 0137,0.01605652,0.00436505,0.00306211,-0.00053190,0.00180147,0.0043947
 2,-0.00004510,-0.00060923,-0.00056551,-0.00045183,0.00170000,0.0073398
 4,-0.02165005,-0.00153327,-0.00824231,-0.08498697,-0.06577462,0.000775
 67,-0.00155856,-0.00133601,-0.00146897,0.00054120,0.00012920,-0.000491
 82,0.00161532,0.00105056,-0.00155885,-0.00122719,-0.00109579,-0.001296
 09,0.00126444,-0.00219832,-0.00308079,0.00018288,0.00166804,0.00116376
 ,0.00013419,-0.00033669,-0.00049474,0.09044893,0.06186095,0.00018868,0
 .00003798,-0.00001200,-0.00011126,-0.00009194,-0.00003481,0.00024899,0
 .00012790,0.00006630,-0.00022189,-0.00004869,-0.00002300,0.00014605,0.
 00007974,-0.00000956,-0.00020140,-0.00009132,-0.00001882,-0.00010352,-
 0.00005398,-0.00002970,0.00005264,0.00006254,0.00003974,0.00000073,0.0
 0001557,0.00000746,-0.00002598,0.00019575,-0.00000031,0.00000172,-0.00
 000247,-0.00000437,0.00001635,0.00000099,0.00000256,0.00000194,0.00000
 751,-0.00000353,0.00000238,-0.00000008,-0.00000056,0.00086024,-0.00016
 608,0.00067332,-0.00006538,0.00013530,-0.00003518,0.00005788,-0.000123
 26,0.00001019,-0.00006876,0.00008171,0.00006235,0.00010628,-0.00017745
 ,-0.00001675,-0.00012917,0.00019083,0.00005355,0.00004883,-0.00007237,
 -0.00006982,0.00000587,-0.00013561,-0.00011069,-0.00006486,-0.00007931
 ,0.00013253,-0.00000339,0.00008429,-0.00003644,-0.00007621,-0.00006938
 ,0.00006194,0.00000199,-0.00000004,-0.00001052,0.00000253,-0.00000180,
 -0.00000080,0.00000997,-0.00001306,0.00000684,0.00000227,0.00000737,-0
 .00000669,-0.02874465,-0.01079444,-0.00218903,0.00090161,0.00584049,-0
 .00194668,0.00035534,-0.00066339,0.00003069,-0.00140250,0.00590013,-0.
 00117426,0.02045687,0.00285313,0.00931853,-0.06539458,0.00242251,-0.06
 897047,0.00276844,-0.00005950,-0.00020874,-0.00108627,-0.00088278,0.00
 053587,-0.00140909,-0.00224437,0.00137568,0.00136947,-0.00011199,-0.00
 062645,0.00158891,-0.00284399,-0.00043060,-0.00191049,0.00070376,0.000
 53791,0.00011603,-0.00046673,-0.00009459,0.07170738,0.00044654,0.06314
 893\\0.00000074,0.00000026,0.00000081,0.00000051,0.00000042,0.00000120
 ,0.00000054,0.00000032,0.00000061,0.00000015,0.00000077,0.00000055,0.0
 0000034,0.00000062,0.00000014,0.00000036,0.00000077,0.00000070,0.00000
 029,0.00000117,-0.00000017,0.00000006,0.00000126,-0.00000047,0.0000001
 1,0.00000142,-0.00000033,0.00000032,0.00000080,0.00000005,0.00000041,0
 .00000033,0.00000127,0.00000056,0.00000020,0.00000140,0.00000044,0.000
 00051,0.00000093,0.00000016,0.00000066,0.00000053,0.00000030,0.0000008
 3,0.00000016,-0.00000148,-0.00000187,0.00000034,-0.00000120,-0.0000017
 6,0.00000039,-0.00000073,-0.00000071,0.00000165,-0.00000023,-0.0000001
 6,0.00000033,-0.00000044,-0.00000040,0.00000056,-0.00000090,-0.0000014
 6,-0.00000045,0.00000024,-0.00000008,-0.00000031,0.00000053,0.00000080
 ,0.00000025,0.00000033,0.00000011,-0.00000114,0.00000007,0.00000058,0.
 00000165,-0.00000178,-0.00000255,-0.00000081,-0.00000148,-0.00000201,0
 .00000088,-0.00000046,-0.00000043,0.00000155,-0.00000110,-0.00000138,-
 0.00000065,0.00000020,-0.00000073,-0.00000169,0.00000011,-0.00000085,-
 0.00000066,0.00000053,0.00000083,-0.00000096,0.00000003,0.00000037,-0.
 00000008,0.00000022,0.00000063,-0.00000104,0.00000026,-0.00000084,-0.0
 0000076,0.00000005,0.00000098,-0.00000067,0.00000021,0.00000138,-0.000
 00020,0.00000008,0.00000086,-0.00000050,0.00000065,0.00000199,-0.00000
 040,0.00000006,-0.00000231,-0.00000142,0.00000032,-0.00000098,-0.00000
 126,0.00000040,0.00000063,-0.00000034,0.00000023,-0.00000100,-0.000001
 62\\\@
 The archive entry for this job was punched.


 BUT 'GLORY' DOESN'T MEAN 'A NICE KNOCK DOWN ARGUMENT', ALICE OBJECTED.
 WHEN I USE A WORD, HUMPTY DUMPTY SAID, IN A RATHER SCORNFUL TONE,
 IT MEANS JUST WHAT I CHOOSE IT TO MEAN....
 NEITHER MORE NOR LESS....
 THE QUESTION IS, SAID ALICE,
 WHETHER YOU CAN MAKE WORDS MEAN SO MANY DIFFERENT THINGS...
 THE QUESTION IS, SAID HUMPTY DUMPTY,
 WHICH IS TO BE MASTER....
 THAT IS ALL.....

 ALICE THROUGH THE LOOKING GLASS
 Job cpu time:       0 days  0 hours 28 minutes 10.0 seconds.
 Elapsed time:       0 days  0 hours  0 minutes 17.8 seconds.
 File lengths (MBytes):  RWF=    206 Int=      0 D2E=      0 Chk=     32 Scr=      1
 Normal termination of Gaussian 16 at Thu Sep 26 11:13:18 2024.
