19
Ti_2_PBE0.log	Energy: -820307.3974744
Ti        -0.00000       -0.00000       -0.00000
O          0.41688        1.77961       -1.22194
H          1.10373        1.87868       -1.89132
O         -1.33298        1.24909        1.22345
H         -2.29582        1.20067        1.24798
O         -1.74836       -0.52797       -1.22416
H         -2.18799       -1.38592       -1.24994
O         -0.41688       -1.77961        1.22194
H          0.10602       -2.58954        1.24646
O          1.33298       -1.24909       -1.22345
H          2.29582       -1.20066       -1.24799
O          1.74836        0.52798        1.22416
H          2.18799        1.38592        1.24993
H          2.17708       -0.01777        1.89350
H         -1.07563        1.89269        1.89369
H         -0.10601        2.58954       -1.24645
H          1.07564       -1.89271       -1.89367
H         -2.17708        0.01778       -1.89350
H         -1.10374       -1.87868        1.89132
