19
Cu_2.log	Energy: -1316985.4479446
Cu         0.00004        0.00009       -0.00003
O         -0.05466       -1.75126        1.00194
H         -0.84447       -2.11963        1.42324
O          0.38041        1.02004        1.68867
H          0.32098        1.98579        1.72594
O          2.24399       -0.19869       -0.23721
H          2.76831       -0.65059       -0.91144
O          0.05447        1.75147       -1.00202
H         -0.72548        2.23812       -1.30498
O         -0.38029       -1.01970       -1.68884
H         -0.32099       -1.98546       -1.72617
O         -2.24402        0.19787        0.23754
H         -2.76848        0.64956        0.91180
H         -2.87533       -0.17950       -0.38963
H          0.25747        0.67068        2.58277
H          0.72516       -2.23802        1.30504
H         -0.25704       -0.67030       -2.58288
H          2.87544        0.17875        0.38978
H          0.84416        2.12015       -1.42325
