31
Fe_CN6_minus2_LS.log	Energy: -1430311.8675669
Fe         0.16971       -0.10235        0.14478
C         -1.22545       -0.33787        1.51564
C          1.03626        1.27753        1.25314
C          1.27390       -1.49589        0.99391
C          1.54948        0.13256       -1.24183
C         -0.72519       -1.46436       -0.96214
C         -0.92299        1.29116       -0.71652
N         -2.07184       -0.47703        2.32097
N          1.54290        2.11348        1.90779
N          1.94535       -2.32411        1.49145
N          2.36813        0.27443       -2.07490
N         -1.27923       -2.26989       -1.61669
N         -1.57933        2.11858       -1.23561
H         -3.67962        2.19959       -3.22595
H         -2.71523        2.82172       -2.22972
H          2.68457        1.78740       -4.52130
H          3.13758        0.80828       -3.45092
H          1.31428        4.97755        2.22866
H          1.89925        3.61081        2.54140
H          3.23980       -3.32846        1.77818
H          4.55990       -3.47027        1.03974
H         -3.52164       -0.31941        3.12296
H         -4.73947        0.53316        2.80674
H         -3.73054       -3.79356       -1.42111
H         -2.44069       -3.36359       -2.09858
O          1.98114        4.59676        2.80912
O          3.45207        1.24043       -4.32536
O          4.11608       -3.86018        1.79979
O         -4.45840       -0.09949        3.47563
O         -3.24358       -3.98598       -2.22899
O         -3.44964        3.07482       -2.89755
