31
Fe_CN6_minus2_LS.log	Energy: -1430311.8538747
Fe         0.02488        0.24274       -0.15318
C         -0.80103       -1.13855       -1.28956
C          1.46348        0.48355       -1.47812
C         -1.05185        1.63580       -1.03780
C          0.85537        1.60276        1.00614
C         -1.41192       -0.01985        1.16847
C          1.09048       -1.15250        0.73877
N         -1.29892       -1.97494       -1.95045
N          2.32745        0.61498       -2.26574
N         -1.70415        2.46737       -1.55477
N          1.35973        2.40185        1.70694
N         -2.27119       -0.19037        1.95401
N          1.72281       -1.99178        1.26853
H          2.30963       -3.50068        1.65792
H          1.95475       -4.87270        1.10909
H          3.33920        2.42159        3.81406
H          2.33337        3.07136        2.87905
H          4.84753       -0.64914       -2.91313
H          3.74204        0.37540       -3.10795
H         -2.96026        3.51017       -1.86980
H         -4.28468        3.70640       -1.15113
H         -2.34380       -3.18388       -2.42256
H         -3.54397       -3.78380       -1.71000
H         -2.82133       -1.99285        4.15115
H         -3.14323       -0.83974        3.21477
O          4.64203        0.08361       -3.50260
O          2.99403        3.30079        3.62833
O         -3.81739        4.07156       -1.90936
O         -3.07080       -3.89568       -2.54089
O         -3.53245       -1.36028        4.00687
O          2.54788       -4.49130        1.76445
