19
Cr_2_BLYP.log	Energy: -943031.5531966
Cr        -0.00000       -0.00001       -0.00000
O         -0.86766       -0.00074       -1.90255
H         -1.83752       -0.00084       -2.02893
O          0.00028       -2.09396        0.00066
H          0.30617       -2.66954        0.72839
O          2.32622       -0.00001       -0.70229
H          2.85923        0.77558       -0.96798
O          0.86765        0.00072        1.90255
H          0.44020        0.00096        2.78147
O         -0.00028        2.09395       -0.00067
H         -0.30602        2.66953       -0.72846
O         -2.32621        0.00004        0.70231
H         -2.85922       -0.77553        0.96805
H         -2.85929        0.77577        0.96747
H         -0.30563       -2.67008       -0.72662
H         -0.44022       -0.00104       -2.78148
H          0.30552        2.67007        0.72665
H          2.85931       -0.77572       -0.96749
H          1.83750        0.00087        2.02894
