19
Cr_2_B3LYP.log	Energy: -943093.2217900
Cr        -0.00000       -0.00000       -0.00000
O         -0.27054        0.00000       -2.07362
H         -1.12827        0.00000       -2.52277
O          0.00000       -2.09505       -0.00000
H          0.09624       -2.66573        0.77519
O          2.36795        0.00000       -0.23540
H          2.94815        0.77030       -0.31545
O          0.27054       -0.00000        2.07362
H         -0.42353       -0.00000        2.74850
O         -0.00000        2.09505        0.00000
H         -0.09624        2.66573       -0.77519
O         -2.36795       -0.00000        0.23541
H         -2.94815       -0.77030        0.31545
H         -2.94815        0.77029        0.31545
H         -0.09623       -2.66573       -0.77519
H          0.42353        0.00000       -2.74850
H          0.09623        2.66573        0.77519
H          2.94815       -0.77029       -0.31545
H          1.12827        0.00000        2.52277
