19
Cr_2_HSE06.log	Energy: -942668.2447860
Cr        -0.00000        0.00001       -0.00013
O         -0.03384        0.04600       -2.08133
H         -0.82502        0.05803       -2.63331
O         -0.00022       -2.08565       -0.04605
H          0.01167       -2.67191        0.71929
O          2.36670        0.00043       -0.02913
H          2.95089        0.76761       -0.02217
O          0.03384       -0.04597        2.08106
H         -0.73675       -0.05850        2.66137
O          0.00021        2.08568        0.04568
H          0.01226        2.63780        0.83599
O         -2.36668       -0.00051        0.03008
H         -2.95084       -0.76771        0.02309
H         -2.95079        0.76630        0.05697
H         -0.01211       -2.63774       -0.83639
H          0.73675        0.05860       -2.66165
H         -0.01184        2.67188       -0.71969
H          2.95077       -0.76640       -0.05590
H          0.82503       -0.05805        2.63301
