19
Cr_2_PBE0.log	Energy: -942636.7494081
Cr         0.00000       -0.00000       -0.00000
O         -0.28718       -0.00002       -2.06036
H         -1.14602       -0.00002       -2.50011
O          0.00001       -2.08383        0.00001
H          0.10188       -2.65295        0.77142
O          2.34917        0.00000       -0.25001
H          2.92709        0.76707       -0.33614
O          0.28718        0.00001        2.06036
H         -0.39771        0.00002        2.73979
O         -0.00001        2.08383       -0.00001
H         -0.10188        2.65295       -0.77142
O         -2.34917       -0.00000        0.25001
H         -2.92709       -0.76707        0.33614
H         -2.92709        0.76706        0.33613
H         -0.10187       -2.65296       -0.77139
H          0.39771       -0.00002       -2.73979
H          0.10187        2.65296        0.77139
H          2.92709       -0.76706       -0.33613
H          1.14602        0.00002        2.50011
