19
Cr_3_PBE0.log	Energy: -942515.0960424
Cr         0.00000       -0.00000        0.00000
O          1.16850        1.05970       -1.21702
H          1.83093        0.69913       -1.83082
O         -0.82917        1.68328        0.66973
H         -0.52044        2.21138        1.42563
O         -1.38489       -0.11366       -1.42782
H         -1.32105        0.27170       -2.31833
O         -1.16850       -1.05970        1.21702
H         -1.17640       -2.02835        1.30198
O          0.82917       -1.68328       -0.66973
H          1.61357       -2.12146       -0.29786
O          1.38489        0.11366        1.42782
H          2.24335        0.56487        1.35686
H          1.32105       -0.27170        2.31833
H         -1.61357        2.12145        0.29787
H          1.17639        2.02835       -1.30199
H          0.52045       -2.21138       -1.42563
H         -2.24335       -0.56488       -1.35686
H         -1.83092       -0.69913        1.83083
