19
Cr_3_HSE06.log	Energy: -942546.4128751
Cr        -0.00002        0.00001        0.00003
O         -1.39512        0.10647       -1.42181
H         -2.20919       -0.42400       -1.46522
O          0.96740       -1.39108       -1.05274
H          1.79529       -1.83131       -0.79434
O          1.04804        1.42565       -0.92111
H          0.96910        2.38300       -0.76874
O          1.39499       -0.10615        1.42199
H          1.38316       -0.69959        2.19248
O         -0.96745        1.39108        1.05275
H         -1.79133        1.83670        0.79082
O         -1.04781       -1.42599        0.92089
H         -0.96601       -2.38345        0.77071
H         -1.73105       -1.28674        1.59896
H          0.69469       -1.74887       -1.91507
H         -1.38166        0.69773       -2.19395
H         -0.69879        1.74349        1.91853
H          1.72870        1.28607       -1.60170
H          2.20722        0.42696        1.46726
