19
Mn_3_B3LYP.log	Energy: -1009781.0178489
Mn        -0.00000        0.00000       -0.00000
O         -0.00002        0.00226       -1.96954
H         -0.79793        0.00288       -2.53575
O         -0.00000       -1.97720       -0.00225
H         -0.00004       -2.54859        0.79060
O          2.15232       -0.00000       -0.00001
H          2.73954        0.77741        0.00085
O          0.00002       -0.00227        1.96954
H         -0.79789       -0.00288        2.53576
O          0.00001        1.97720        0.00225
H         -0.00005        2.54859       -0.79059
O         -2.15232        0.00000        0.00001
H         -2.73954       -0.77741       -0.00088
H         -2.73954        0.77742        0.00092
H          0.00003       -2.54679       -0.79639
H          0.79789        0.00291       -2.53576
H          0.00006        2.54679        0.79639
H          2.73953       -0.77742       -0.00089
H          0.79793       -0.00291        2.53574
