19
Mn_3_BLYP.log	Energy: -1009733.8410031
Mn        -0.00000        0.00000        0.00000
O         -0.00007       -0.00613       -1.98677
H         -0.80646       -0.00788       -2.55738
O          0.00001       -2.00189        0.00606
H         -0.00026       -2.57539        0.80884
O          2.17693       -0.00000       -0.00007
H          2.77081        0.78476       -0.00258
O          0.00007        0.00614        1.98677
H         -0.80628        0.00793        2.55742
O         -0.00000        2.00189       -0.00606
H         -0.00054        2.57539       -0.80885
O         -2.17693       -0.00001        0.00007
H         -2.77080       -0.78478        0.00236
H         -2.77082        0.78475       -0.00216
H          0.00023       -2.58017       -0.79328
H          0.80629       -0.00758       -2.55742
H          0.00050        2.58018        0.79328
H          2.77081       -0.78477        0.00238
H          0.80647        0.00758        2.55737
