19
Ti_3_BLYP.log	Energy: -820590.4864550
Ti        -0.00000       -0.00001       -0.00000
O          0.76888       -1.56409        1.18270
H          1.16298       -1.50045        2.08429
O          1.73796       -0.11840       -1.18422
H          1.87902        0.25343       -2.08648
O         -0.97286       -1.44775       -1.18085
H         -1.75808       -1.98348       -0.91772
O         -0.76886        1.56409       -1.18270
H         -0.84006        2.51242       -0.92115
O         -1.73796        0.11840        1.18423
H         -1.87899       -0.25338        2.08653
O          0.97283        1.44777        1.18084
H          1.75810        1.98345        0.91776
H          0.72244        1.75734        2.08290
H          2.59496       -0.53097       -0.92315
H          0.84019       -2.51242        0.92110
H         -2.59495        0.53099        0.92316
H         -0.72254       -1.75726       -2.08295
H         -1.16302        1.50045       -2.08427
