19
V_2_HSE06.log	Energy: -879651.9409238
V          0.00002        0.00054       -0.00015
O          1.34439       -1.47089       -0.80906
H          1.19094       -2.40643       -0.98431
O          1.35157        0.03643        1.67287
H          1.20353        0.35493        2.57068
O          1.34856        1.43234       -0.87141
H          1.20385        2.04368       -1.60271
O         -1.34665        1.47352        0.80247
H         -2.05753        1.82482        0.25238
O         -1.35312       -0.04320       -1.67202
H         -2.05628       -0.70354       -1.70358
O         -1.34482       -1.43017        0.87775
H         -1.18747       -2.35335        1.10697
H         -2.06180       -1.12769        1.44869
H          2.06353       -0.61264        1.72957
H          2.05558       -1.19743       -1.40136
H         -1.21248        0.24611       -2.58088
H          2.05628        1.81238       -0.33650
H         -1.19802        2.12243        1.49977
