19
V_2_BLYP.log	Energy: -880012.8044821
V         -0.00000       -0.00001        0.00000
O         -1.56411       -0.00461        1.49515
H         -2.36869       -0.55885        1.49216
O         -1.05605        1.53775       -1.09653
H         -0.77393        1.95285       -1.93474
O          1.06187        1.52266        1.11183
H          1.72877        1.37412        1.81018
O          1.56422        0.00463       -1.49503
H          1.60002       -0.54551       -2.30160
O          1.05601       -1.53783        1.09647
H          0.77329       -1.95380        1.93405
O         -1.06194       -1.52258       -1.11189
H         -1.72930       -1.37392       -1.80977
H         -0.96287       -2.48953       -1.01336
H         -1.90628        1.94905       -0.84660
H         -1.59949        0.54513        2.30201
H          1.90681       -1.94831        0.84713
H          0.96319        2.48959        1.01276
H          2.36848        0.55932       -1.49222
