19
V_2_PBE0.log	Energy: -879621.8408696
V          0.00005       -0.00008       -0.00009
O          1.34927        1.49563        0.75064
H          1.19938        2.43763        0.89040
O          1.35069       -0.09839       -1.66975
H          1.20295       -0.45132       -2.55460
O          1.34918       -1.39780        0.92052
H          1.20043       -1.98773        1.66833
O         -1.35026       -1.49823       -0.74435
H         -2.05893       -1.82972       -0.17917
O         -1.35011        0.10501        1.66950
H         -2.06039        0.75847        1.67261
O         -1.34891        1.39408       -0.92625
H         -1.19890        2.31223       -1.17896
H         -2.06008        1.07046       -1.49283
H          2.06048        0.55036       -1.75253
H          2.06043        1.24285        1.35219
H         -1.20101       -0.13610        2.59091
H          2.05857       -1.79461        0.40010
H         -1.20307       -2.17318       -1.41677
