19
V_3_BLYP.log	Energy: -879890.6966427
V         -0.00065        0.00001       -0.00011
O          0.52604       -1.61084       -1.17777
H          0.10058       -2.49985       -1.18537
O          1.65520       -0.35063        1.18116
H          2.01613        0.24754        1.87691
O          1.13473        1.25803       -1.17826
H          0.79977        1.87224       -1.87340
O         -0.52513        1.61118        1.17792
H         -1.22895        1.62854        1.86807
O         -1.65566        0.35112       -1.18147
H         -2.02448       -0.25299       -1.86821
O         -1.13373       -1.25884        1.17866
H         -0.79616       -1.87527        1.87010
H         -2.11685       -1.33148        1.18806
H          2.21288       -1.16364        1.18711
H          1.22566       -1.62471       -1.87175
H         -2.20701        1.16822       -1.19508
H          2.11808        1.33205       -1.18199
H         -0.09628        2.49894        1.18615
