      -----------------------------------------------------------      
     |                   =====================                   |     
     |                           x T B                           |     
     |                   =====================                   |     
     |                         S. Grimme                         |     
     |          Mulliken Center for Theoretical Chemistry        |     
     |                    University of Bonn                     |     
      -----------------------------------------------------------      

   * xtb version 6.6.0 (conda-forge) compiled by 'runner@Mac-1676020848589.local' on 2023-02-10

   xtb is free software: you can redistribute it and/or modify it under
   the terms of the GNU Lesser General Public License as published by
   the Free Software Foundation, either version 3 of the License, or
   (at your option) any later version.
   
   xtb is distributed in the hope that it will be useful,
   but WITHOUT ANY WARRANTY; without even the implied warranty of
   MERCHANTABILITY or FITNESS FOR A PARTICULAR PURPOSE.  See the
   GNU Lesser General Public License for more details.
   
   Cite this work as:
   * C. Bannwarth, E. Caldeweyher, S. Ehlert, A. Hansen, P. Pracht,
     J. Seibert, S. Spicher, S. Grimme, WIREs Comput. Mol. Sci., 2020, 11,
     e01493. DOI: 10.1002/wcms.1493
   
   for GFN2-xTB:
   * C. Bannwarth, S. Ehlert and S. Grimme., J. Chem. Theory Comput., 2019,
     15, 1652-1671. DOI: 10.1021/acs.jctc.8b01176
   for GFN1-xTB:
   * S. Grimme, C. Bannwarth, P. Shushkov, J. Chem. Theory Comput., 2017,
     13, 1989-2009. DOI: 10.1021/acs.jctc.7b00118
   for GFN0-xTB:
   * P. Pracht, E. Caldeweyher, S. Ehlert, S. Grimme, ChemRxiv, 2019, preprint.
     DOI: 10.26434/chemrxiv.8326202.v1
   for GFN-FF:
   * S. Spicher and S. Grimme, Angew. Chem. Int. Ed., 2020, 59, 15665-15673.
     DOI: 10.1002/anie.202004239
   
   for ALPB and GBSA implicit solvation:
   * S. Ehlert, M. Stahn, S. Spicher, S. Grimme, J. Chem. Theory Comput.,
     2021, 17, 4250-4261. DOI: 10.1021/acs.jctc.1c00471
   
   for DFT-D4:
   * E. Caldeweyher, C. Bannwarth and S. Grimme, J. Chem. Phys., 2017,
     147, 034112. DOI: 10.1063/1.4993215
   * E. Caldeweyher, S. Ehlert, A. Hansen, H. Neugebauer, S. Spicher,
     C. Bannwarth and S. Grimme, J. Chem. Phys., 2019, 150, 154122.
     DOI: 10.1063/1.5090222
   * E. Caldeweyher, J.-M. Mewes, S. Ehlert and S. Grimme, Phys. Chem. Chem. Phys.
     2020, 22, 8499-8512. DOI: 10.1039/D0CP00502A
   
   for sTDA-xTB:
   * S. Grimme and C. Bannwarth, J. Chem. Phys., 2016, 145, 054103.
     DOI: 10.1063/1.4959605
   
   in the mass-spec context:
   * V. Asgeirsson, C. Bauer and S. Grimme, Chem. Sci., 2017, 8, 4879.
     DOI: 10.1039/c7sc00601b
   * J. Koopman and S. Grimme, ACS Omega 2019, 4, 12, 15120-15133.
     DOI: 10.1021/acsomega.9b02011
   
   for metadynamics refer to:
   * S. Grimme, J. Chem. Theory Comput., 2019, 155, 2847-2862
     DOI: 10.1021/acs.jctc.9b00143
   
   for SPH calculations refer to:
   * S. Spicher and S. Grimme, J. Chem. Theory Comput., 2021, 17, 1701-1714
     DOI: 10.1021/acs.jctc.0c01306
   
   with help from (in alphabetical order)
   P. Atkinson, C. Bannwarth, F. Bohle, G. Brandenburg, E. Caldeweyher
   M. Checinski, S. Dohm, S. Ehlert, S. Ehrlich, I. Gerasimov, C. Hölzer
   A. Katbashev, J. Koopman, C. Lavigne, S. Lehtola, F. März, M. Müller,
   F. Musil, H. Neugebauer, J. Pisarek, C. Plett, P. Pracht, F. Pultar,
   J. Seibert, P. Shushkov, S. Spicher, M. Stahn, M. Steiner, T. Strunk,
   J. Stückrath, T. Rose, and J. Unsleber
   
 * started run on 2024/05/10 at 17:51:20.255     

           -------------------------------------------------
          |                Calculation Setup                |
           -------------------------------------------------

          program call               : xtb Fe_6H2O.xyz --opt extreme --gfn2 --chrg 3 --uhf 6 --alpb water
          coordinate file            : Fe_6H2O.xyz
          omp threads                :                     8

   ID    Z sym.   atoms
    1   26 Fe     1
    2    8 O      2, 4, 6, 8, 10, 12
    3    1 H      3, 5, 7, 9, 11, 13-19

molecular fragmentation (1/2 indicates fragments):
1111122222222222222
# atoms in fragment 1/2:     5    14
 fragment masses (1/2) :       89.86       74.08
CMA distance (Bohr)    :   2.664
constraining FC (au)   :  0.0500

           -------------------------------------------------
          |                 G F N 2 - x T B                 |
           -------------------------------------------------

        Reference                      10.1021/acs.jctc.8b01176
      * Hamiltonian:
        H0-scaling (s, p, d)           1.850000    2.230000    2.230000
        zeta-weighting                 0.500000
      * Dispersion:
        s8                             2.700000
        a1                             0.520000
        a2                             5.000000
        s9                             5.000000
      * Repulsion:
        kExp                           1.500000    1.000000
        rExp                           1.000000
      * Coulomb:
        alpha                          2.000000
        third order                    shell-resolved
        anisotropic                    true
        a3                             3.000000
        a5                             4.000000
        cn-shift                       1.200000
        cn-exp                         4.000000
        max-rad                        5.000000

      * Solvation model:               ALPB
        Solvent                        water
        Parameter file                 internal GFN2-xTB/ALPB
        Dielectric constant                8.0200E+01
        Reference state                gsolv [1 M gas/solution]
        Free energy shift                  1.0808E-03 Eh       6.7819E-01 kcal/mol
        Temperature                        2.9815E+02 K
        Density                            1.0000E+00 kg/L
        Solvent mass                       1.8000E+01 g/mol
        Interaction kernel             P16
        Born radius scaling (c1)           1.4744E+00
        Born radii integrator          GBOBC
        Born offset                        0.0000E+00 a0       0.0000E+00 AA
        H-bond correction              true
        Ion screening                  false
        Surface tension                    1.0000E-05 Eh       1.5569E+01 dyn/cm
        Grid points                               230 per atom

          ...................................................
          :                      SETUP                      :
          :.................................................:
          :  # basis functions                  46          :
          :  # atomic orbitals                  45          :
          :  # shells                           27          :
          :  # electrons                        53          :
          :  max. iterations                   250          :
          :  Hamiltonian                  GFN2-xTB          :
          :  restarted?                      false          :
          :  GBSA solvation                   true          :
          :  PC potential                    false          :
          :  electronic temp.          300.0000000     K    :
          :  accuracy                    1.0000000          :
          :  -> integral cutoff          0.2500000E+02      :
          :  -> integral neglect         0.1000000E-07      :
          :  -> SCF convergence          0.1000000E-05 Eh   :
          :  -> wf. convergence          0.1000000E-03 e    :
          :  Broyden damping             0.4000000          :
          ...................................................

 iter      E             dE          RMSdq      gap      omega  full diag
   1    -32.9084460 -0.329084E+02  0.528E+00    8.08       0.0  T
   2    -32.9405061 -0.320601E-01  0.285E+00    8.95       1.0  T
   3    -32.8375142  0.102992E+00  0.342E+00    9.88       1.0  T
   4    -32.2008588  0.636655E+00  0.812E+00   10.09       1.0  T
   5    -32.9522927 -0.751434E+00  0.341E-01    9.79       1.0  T
   6    -32.9527270 -0.434386E-03  0.180E-01    9.78       1.0  T
   7    -32.9527992 -0.721946E-04  0.966E-02    9.80       1.0  T
   8    -32.9528033 -0.402566E-05  0.577E-02    9.82       1.0  T
   9    -32.9528070 -0.375164E-05  0.475E-02    9.82       1.0  T
  10    -32.9528204 -0.133898E-04  0.276E-02    9.83       1.0  T
  11    -32.9528250 -0.461044E-05  0.125E-02    9.83       1.8  T
  12    -32.9528257 -0.730193E-06  0.785E-03    9.83       2.9  T
  13    -32.9528258 -0.102445E-06  0.686E-03    9.83       3.3  T
  14    -32.9528262 -0.366280E-06  0.365E-04    9.84      62.9  T
  15    -32.9528262 -0.640853E-09  0.202E-04    9.84     113.6  T

   *** convergence criteria satisfied after 15 iterations ***

         #    Occupation            Energy/Eh            Energy/eV
      -------------------------------------------------------------
         1        2.0000           -0.7097413             -19.3130
       ...           ...                  ...                  ...
        23        2.0000           -0.4807438             -13.0817
        24        2.0000           -0.4786106             -13.0237
        25        1.0000           -0.4497797             -12.2391
        26        1.0000           -0.4468315             -12.1589
        27        1.0000           -0.4467884             -12.1577
        28        1.0000           -0.4240394             -11.5387
        29        1.0000           -0.4240280             -11.5384 (HOMO)
        30                         -0.0625886              -1.7031 (LUMO)
        31                          0.0410043               1.1158
        32                          0.0465698               1.2672
        33                          0.0466112               1.2684
        34                          0.1140048               3.1022
       ...                                ...                  ...
        45                          0.7646321              20.8067
      -------------------------------------------------------------
                  HL-Gap            0.3614394 Eh            9.8353 eV
             Fermi-level           -0.3537219 Eh           -9.6253 eV

 SCC (total)                   0 d,  0 h,  0 min,  0.023 sec
 SCC setup                      ...        0 min,  0.004 sec ( 16.614%)
 Dispersion                     ...        0 min,  0.001 sec (  3.200%)
 classical contributions        ...        0 min,  0.000 sec (  1.144%)
 integral evaluation            ...        0 min,  0.002 sec (  6.745%)
 iterations                     ...        0 min,  0.015 sec ( 63.691%)
 molecular gradient             ...        0 min,  0.002 sec (  6.549%)
 printout                       ...        0 min,  0.000 sec (  1.985%)

         :::::::::::::::::::::::::::::::::::::::::::::::::::::
         ::                     SUMMARY                     ::
         :::::::::::::::::::::::::::::::::::::::::::::::::::::
         :: total energy             -32.753588356445 Eh    ::
         :: total w/o Gsasa/hb       -32.667855804156 Eh    ::
         :: gradient norm              0.034818190117 Eh/a0 ::
         :: HOMO-LUMO gap              9.835267606607 eV    ::
         ::.................................................::
         :: SCC energy               -32.952826209362 Eh    ::
         :: -> isotropic ES            0.785076367414 Eh    ::
         :: -> anisotropic ES         -0.026410149449 Eh    ::
         :: -> anisotropic XC          0.001648930410 Eh    ::
         :: -> dispersion             -0.005359615275 Eh    ::
         :: -> Gsolv                  -0.761088865120 Eh    ::
         ::    -> Gelec               -0.675356312832 Eh    ::
         ::    -> Gsasa                0.000347282978 Eh    ::
         ::    -> Ghb                 -0.087160594964 Eh    ::
         ::    -> Gshift               0.001080759698 Eh    ::
         :: repulsion energy           0.199098728040 Eh    ::
         :: add. restraining           0.000000000000 Eh    ::
         :: total charge               3.000000000049 e     ::
         :::::::::::::::::::::::::::::::::::::::::::::::::::::

      ----------------------------------------------------------- 
     |                   =====================                   |
     |                        A N C O P T                        |
     |                   =====================                   |
     |               Approximate Normal Coordinate               |
     |                Rational Function Optimizer                |
      ----------------------------------------------------------- 

          ...................................................
          :                      SETUP                      :
          :.................................................:
          :   optimization level           extreme          :
          :   max. optcycles                   380          :
          :   ANC micro-cycles                  20          :
          :   degrees of freedom                51          :
          :.................................................:
          :   RF solver                   davidson          :
          :   write xtbopt.log                true          :
          :   linear?                        false          :
          :   energy convergence         0.5000000E-07 Eh   :
          :   grad. convergence          0.5000000E-04 Eh/α :
          :   maxmium RF displ.          1.0000000          :
          :   Hlow (freq-cutoff)         0.1000000E-01      :
          :   Hmax (freq-cutoff)         5.0000000          :
          :   S6 in model hess.         20.0000000          :
          ...................................................

generating ANC from model Hessian ...
Using Lindh-Hessian (1995)
 Shifting diagonal of input Hessian by    9.9536587581623304E-003
 Lowest  eigenvalues of input Hessian
    0.000000    0.000000    0.000000    0.000000    0.000000    0.000000
    0.010000    0.010044    0.010045    0.010164    0.010165    0.010253
    0.010274    0.010275    0.010391    0.010575    0.010576    0.010590
 Highest eigenvalues
    1.418984    1.419010    1.419177    1.419195    1.419218    1.419317


........................................................................
.............................. CYCLE    1 ..............................
........................................................................

 iter      E             dE          RMSdq      gap      omega  full diag
   1    -32.9528262 -0.329528E+02  0.159E-04    9.84       0.0  T
   2    -32.9528262 -0.162977E-09  0.714E-05    9.84     321.4  T
   3    -32.9528262 -0.412044E-10  0.113E-05    9.84    2035.7  T
     SCC iter.                  ...        0 min,  0.002 sec
     gradient                   ...        0 min,  0.001 sec
 * total energy  :   -32.7535884 Eh     change       -0.3232827E-09 Eh
   gradient norm :     0.0348192 Eh/α   predicted     0.0000000E+00 (-100.00%)
   displ. norm   :     0.5190916 α      lambda       -0.1054747E-01
   maximum displ.:     0.5047843 α      in ANC's #30, #19, #14, ...

........................................................................
.............................. CYCLE    2 ..............................
........................................................................

 iter      E             dE          RMSdq      gap      omega  full diag
   1    -32.9539345 -0.329539E+02  0.247E-01    9.59       0.0  T
   2    -32.9542100 -0.275560E-03  0.110E-01    9.66       1.0  T
   3    -32.9542199 -0.992647E-05  0.658E-02    9.65       1.0  T
   4    -32.9542224 -0.247420E-05  0.659E-03    9.66       3.5  T
   5    -32.9542225 -0.534026E-07  0.322E-03    9.66       7.1  T
   6    -32.9542225 -0.174151E-07  0.160E-03    9.66      14.3  T
   7    -32.9542225 -0.213701E-07  0.226E-04    9.66     101.3  T
   8    -32.9542225  0.349019E-10  0.186E-04    9.66     123.6  T
     SCC iter.                  ...        0 min,  0.004 sec
     gradient                   ...        0 min,  0.001 sec
 * total energy  :   -32.7616723 Eh     change       -0.8083954E-02 Eh
   gradient norm :     0.0147072 Eh/α   predicted    -0.6694825E-02 ( -17.18%)
   displ. norm   :     0.6358266 α      lambda       -0.7236905E-02
   maximum displ.:     0.5468397 α      in ANC's #30, #19, #1, ...

........................................................................
.............................. CYCLE    3 ..............................
........................................................................

 iter      E             dE          RMSdq      gap      omega  full diag
   1    -32.9596384 -0.329596E+02  0.242E-01    9.37       0.0  T
   2    -32.9598221 -0.183734E-03  0.982E-02    9.43       1.0  T
   3    -32.9598242 -0.205623E-05  0.514E-02    9.44       1.0  T
   4    -32.9598249 -0.751541E-06  0.586E-03    9.44       3.9  T
   5    -32.9598250 -0.157589E-07  0.175E-03    9.44      13.1  T
   6    -32.9598250 -0.917773E-09  0.749E-04    9.44      30.6  T
   7    -32.9598250 -0.241073E-09  0.739E-05    9.44     310.3  T
     SCC iter.                  ...        0 min,  0.004 sec
     gradient                   ...        0 min,  0.001 sec
 * total energy  :   -32.7654007 Eh     change       -0.3728424E-02 Eh
   gradient norm :     0.0037699 Eh/α   predicted    -0.5081312E-02 (  36.29%)
   displ. norm   :     0.1833420 α      lambda       -0.5622212E-03
   maximum displ.:     0.1078728 α      in ANC's #19, #14, #1, ...

........................................................................
.............................. CYCLE    4 ..............................
........................................................................

 iter      E             dE          RMSdq      gap      omega  full diag
   1    -32.9576219 -0.329576E+02  0.850E-02    9.39       0.0  T
   2    -32.9576268 -0.493436E-05  0.492E-02    9.40       1.0  T
   3    -32.9576274 -0.594358E-06  0.139E-02    9.40       1.6  T
   4    -32.9576275 -0.567668E-07  0.238E-03    9.40       9.6  T
   5    -32.9576275 -0.194047E-08  0.755E-04    9.40      30.4  T
   6    -32.9576275 -0.170182E-09  0.280E-04    9.40      82.0  T
     SCC iter.                  ...        0 min,  0.004 sec
     gradient                   ...        0 min,  0.001 sec
 * total energy  :   -32.7656281 Eh     change       -0.2273600E-03 Eh
   gradient norm :     0.0081063 Eh/α   predicted    -0.2907892E-03 (  27.90%)
   displ. norm   :     0.1176225 α      lambda       -0.2161392E-03
   maximum displ.:     0.0900360 α      in ANC's #1, #14, #9, ...

........................................................................
.............................. CYCLE    5 ..............................
........................................................................

 iter      E             dE          RMSdq      gap      omega  full diag
   1    -32.9585116 -0.329585E+02  0.377E-02    9.42       0.0  T
   2    -32.9585121 -0.550637E-06  0.215E-02    9.41       1.1  T
   3    -32.9585122 -0.878315E-07  0.596E-03    9.41       3.9  T
   4    -32.9585122 -0.817662E-08  0.110E-03    9.41      20.9  T
   5    -32.9585122 -0.716149E-09  0.350E-04    9.41      65.6  T
   6    -32.9585122 -0.425047E-10  0.149E-04    9.41     153.8  T
     SCC iter.                  ...        0 min,  0.004 sec
     gradient                   ...        0 min,  0.001 sec
 * total energy  :   -32.7657945 Eh     change       -0.1663633E-03 Eh
   gradient norm :     0.0044101 Eh/α   predicted    -0.1095728E-03 ( -34.14%)
   displ. norm   :     0.2416108 α      lambda       -0.3348688E-03
   maximum displ.:     0.1593451 α      in ANC's #1, #14, #6, ...

........................................................................
.............................. CYCLE    6 ..............................
........................................................................

 iter      E             dE          RMSdq      gap      omega  full diag
   1    -32.9589769 -0.329590E+02  0.849E-02    9.43       0.0  T
   2    -32.9589798 -0.288128E-05  0.472E-02    9.43       1.0  T
   3    -32.9589802 -0.365553E-06  0.140E-02    9.43       1.6  T
   4    -32.9589802 -0.371012E-07  0.300E-03    9.43       7.6  T
   5    -32.9589802 -0.323820E-08  0.729E-04    9.43      31.4  T
   6    -32.9589802 -0.164533E-09  0.326E-04    9.43      70.3  T
     SCC iter.                  ...        0 min,  0.003 sec
     gradient                   ...        0 min,  0.001 sec
 * total energy  :   -32.7659190 Eh     change       -0.1245122E-03 Eh
   gradient norm :     0.0066611 Eh/α   predicted    -0.1772112E-03 (  42.32%)
   displ. norm   :     0.1864995 α      lambda       -0.2692155E-03
   maximum displ.:     0.1141947 α      in ANC's #1, #14, #6, ...

........................................................................
.............................. CYCLE    7 ..............................
........................................................................

 iter      E             dE          RMSdq      gap      omega  full diag
   1    -32.9585298 -0.329585E+02  0.568E-02    9.42       0.0  T
   2    -32.9585304 -0.546545E-06  0.320E-02    9.42       1.0  T
   3    -32.9585305 -0.155530E-06  0.721E-03    9.42       3.2  T
   4    -32.9585305 -0.117734E-07  0.104E-03    9.42      22.1  T
   5    -32.9585305 -0.315538E-09  0.491E-04    9.42      46.7  T
   6    -32.9585305 -0.767741E-10  0.985E-05    9.42     232.9  T
     SCC iter.                  ...        0 min,  0.003 sec
     gradient                   ...        0 min,  0.001 sec
 * total energy  :   -32.7660872 Eh     change       -0.1682734E-03 Eh
   gradient norm :     0.0059895 Eh/α   predicted    -0.1392900E-03 ( -17.22%)
   displ. norm   :     0.2573726 α      lambda       -0.2896584E-03
   maximum displ.:     0.1621425 α      in ANC's #1, #6, #14, ...

........................................................................
.............................. CYCLE    8 ..............................
........................................................................

 iter      E             dE          RMSdq      gap      omega  full diag
   1    -32.9585205 -0.329585E+02  0.751E-02    9.42       0.0  T
   2    -32.9585222 -0.164858E-05  0.427E-02    9.43       1.0  T
   3    -32.9585226 -0.383708E-06  0.100E-02    9.43       2.3  T
   4    -32.9585226 -0.310958E-07  0.204E-03    9.43      11.3  T
   5    -32.9585226 -0.207133E-08  0.772E-04    9.43      29.7  T
   6    -32.9585226 -0.320597E-09  0.266E-04    9.43      86.2  T
     SCC iter.                  ...        0 min,  0.004 sec
     gradient                   ...        0 min,  0.001 sec
 * total energy  :   -32.7661396 Eh     change       -0.5231270E-04 Eh
   gradient norm :     0.0118299 Eh/α   predicted    -0.1544267E-03 ( 195.20%)
   displ. norm   :     0.1566406 α      lambda       -0.3431040E-03
   maximum displ.:     0.1066544 α      in ANC's #1, #6, #17, ...

........................................................................
.............................. CYCLE    9 ..............................
........................................................................

 iter      E             dE          RMSdq      gap      omega  full diag
   1    -32.9609840 -0.329610E+02  0.458E-02    9.46       0.0  T
   2    -32.9609848 -0.781272E-06  0.265E-02    9.47       1.0  T
   3    -32.9609850 -0.255596E-06  0.692E-03    9.47       3.3  T
   4    -32.9609850 -0.229236E-07  0.183E-03    9.47      12.6  T
   5    -32.9609850 -0.211885E-08  0.669E-04    9.47      34.3  T
   6    -32.9609850 -0.286342E-09  0.196E-04    9.47     117.2  T
     SCC iter.                  ...        0 min,  0.003 sec
     gradient                   ...        0 min,  0.001 sec
 * total energy  :   -32.7663297 Eh     change       -0.1901784E-03 Eh
   gradient norm :     0.0056550 Eh/α   predicted    -0.1757630E-03 (  -7.58%)
   displ. norm   :     0.1717202 α      lambda       -0.1859280E-03
   maximum displ.:     0.1181217 α      in ANC's #1, #6, #18, ...

........................................................................
.............................. CYCLE   10 ..............................
........................................................................

 iter      E             dE          RMSdq      gap      omega  full diag
   1    -32.9607245 -0.329607E+02  0.559E-02    9.47       0.0  T
   2    -32.9607252 -0.645835E-06  0.315E-02    9.47       1.0  T
   3    -32.9607254 -0.230820E-06  0.875E-03    9.47       2.6  T
   4    -32.9607254 -0.213106E-07  0.200E-03    9.47      11.5  T
   5    -32.9607254 -0.166290E-08  0.547E-04    9.47      41.9  T
   6    -32.9607254 -0.128267E-09  0.770E-05    9.47     298.1  T
     SCC iter.                  ...        0 min,  0.004 sec
     gradient                   ...        0 min,  0.001 sec
 * total energy  :   -32.7663815 Eh     change       -0.5179318E-04 Eh
   gradient norm :     0.0066686 Eh/α   predicted    -0.9570911E-04 (  84.79%)
   displ. norm   :     0.1250199 α      lambda       -0.1644732E-03
   maximum displ.:     0.0797468 α      in ANC's #1, #6, #20, ...

........................................................................
.............................. CYCLE   11 ..............................
........................................................................

 iter      E             dE          RMSdq      gap      omega  full diag
   1    -32.9603497 -0.329603E+02  0.476E-02    9.47       0.0  T
   2    -32.9603502 -0.529670E-06  0.263E-02    9.47       1.0  T
   3    -32.9603504 -0.209569E-06  0.794E-03    9.47       2.9  T
   4    -32.9603505 -0.249736E-07  0.162E-03    9.47      14.2  T
   5    -32.9603505 -0.141058E-08  0.570E-04    9.47      40.3  T
   6    -32.9603505 -0.229420E-09  0.854E-05    9.47     268.7  T
     SCC iter.                  ...        0 min,  0.004 sec
     gradient                   ...        0 min,  0.001 sec
 * total energy  :   -32.7664056 Eh     change       -0.2404863E-04 Eh
   gradient norm :     0.0079022 Eh/α   predicted    -0.8352526E-04 ( 247.32%)
   displ. norm   :     0.0894281 α      lambda       -0.1670215E-03
   maximum displ.:     0.0425278 α      in ANC's #1, #20, #6, ...

........................................................................
.............................. CYCLE   12 ..............................
........................................................................

 iter      E             dE          RMSdq      gap      omega  full diag
   1    -32.9610410 -0.329610E+02  0.472E-02    9.49       0.0  T
   2    -32.9610417 -0.749746E-06  0.242E-02    9.49       1.0  T
   3    -32.9610419 -0.186547E-06  0.100E-02    9.49       2.3  T
   4    -32.9610420 -0.390712E-07  0.174E-03    9.49      13.1  T
   5    -32.9610420 -0.141874E-08  0.538E-04    9.49      42.6  T
   6    -32.9610420 -0.143785E-09  0.149E-04    9.49     153.5  T
     SCC iter.                  ...        0 min,  0.003 sec
     gradient                   ...        0 min,  0.001 sec
 * total energy  :   -32.7664476 Eh     change       -0.4198689E-04 Eh
   gradient norm :     0.0062885 Eh/α   predicted    -0.8418093E-04 ( 100.49%)
   displ. norm   :     0.0804965 α      lambda       -0.1293764E-03
   maximum displ.:     0.0352319 α      in ANC's #1, #17, #18, ...

........................................................................
.............................. CYCLE   13 ..............................
........................................................................

 iter      E             dE          RMSdq      gap      omega  full diag
   1    -32.9611256 -0.329611E+02  0.388E-02    9.49       0.0  T
   2    -32.9611259 -0.394032E-06  0.225E-02    9.49       1.0  T
   3    -32.9611261 -0.165965E-06  0.621E-03    9.49       3.7  T
   4    -32.9611261 -0.170055E-07  0.132E-03    9.49      17.4  T
   5    -32.9611261 -0.810310E-09  0.439E-04    9.49      52.3  T
   6    -32.9611261 -0.113765E-09  0.121E-04    9.49     189.0  T
     SCC iter.                  ...        0 min,  0.004 sec
     gradient                   ...        0 min,  0.001 sec
 * total energy  :   -32.7664741 Eh     change       -0.2655773E-04 Eh
   gradient norm :     0.0058779 Eh/α   predicted    -0.6510887E-04 ( 145.16%)
   displ. norm   :     0.0671010 α      lambda       -0.7991581E-04
   maximum displ.:     0.0427096 α      in ANC's #1, #11, #6, ...

........................................................................
.............................. CYCLE   14 ..............................
........................................................................

 iter      E             dE          RMSdq      gap      omega  full diag
   1    -32.9601983 -0.329602E+02  0.249E-02    9.48       0.0  T
   2    -32.9601984 -0.125147E-06  0.141E-02    9.48       1.6  T
   3    -32.9601984 -0.467086E-07  0.397E-03    9.48       5.8  T
   4    -32.9601984 -0.485119E-08  0.906E-04    9.48      25.3  T
   5    -32.9601984 -0.402807E-09  0.309E-04    9.48      74.1  T
     SCC iter.                  ...        0 min,  0.003 sec
     gradient                   ...        0 min,  0.001 sec
 * total energy  :   -32.7665135 Eh     change       -0.3936498E-04 Eh
   gradient norm :     0.0020777 Eh/α   predicted    -0.4013951E-04 (   1.97%)
   displ. norm   :     0.0637442 α      lambda       -0.3717824E-04
   maximum displ.:     0.0405848 α      in ANC's #1, #16, #6, ...

........................................................................
.............................. CYCLE   15 ..............................
........................................................................

 iter      E             dE          RMSdq      gap      omega  full diag
   1    -32.9602167 -0.329602E+02  0.213E-02    9.48       0.0  T
   2    -32.9602168 -0.115091E-06  0.126E-02    9.48       1.8  T
   3    -32.9602168 -0.506288E-07  0.310E-03    9.48       7.4  T
   4    -32.9602168 -0.374975E-08  0.703E-04    9.48      32.6  T
   5    -32.9602168 -0.251859E-09  0.241E-04    9.48      95.3  T
     SCC iter.                  ...        0 min,  0.003 sec
     gradient                   ...        0 min,  0.001 sec
 * total energy  :   -32.7665217 Eh     change       -0.8185006E-05 Eh
   gradient norm :     0.0035725 Eh/α   predicted    -0.1866811E-04 ( 128.08%)
   displ. norm   :     0.0680144 α      lambda       -0.4067475E-04
   maximum displ.:     0.0402389 α      in ANC's #1, #2, #14, ...

........................................................................
.............................. CYCLE   16 ..............................
........................................................................

 iter      E             dE          RMSdq      gap      omega  full diag
   1    -32.9607888 -0.329608E+02  0.164E-02    9.50       0.0  T
   2    -32.9607889 -0.460312E-07  0.982E-03    9.50       2.3  T
   3    -32.9607889 -0.180808E-07  0.125E-03    9.50      18.3  T
   4    -32.9607889 -0.781824E-09  0.451E-04    9.50      50.8  T
   5    -32.9607889 -0.127173E-09  0.175E-04    9.50     131.3  T
     SCC iter.                  ...        0 min,  0.002 sec
     gradient                   ...        0 min,  0.001 sec
 * total energy  :   -32.7665512 Eh     change       -0.2949513E-04 Eh
   gradient norm :     0.0020912 Eh/α   predicted    -0.2043388E-04 ( -30.72%)
   displ. norm   :     0.1424584 α      lambda       -0.5127410E-04
   maximum displ.:     0.0949993 α      in ANC's #1, #2, #6, ...

........................................................................
.............................. CYCLE   17 ..............................
........................................................................

 iter      E             dE          RMSdq      gap      omega  full diag
   1    -32.9601173 -0.329601E+02  0.267E-02    9.49       0.0  T
   2    -32.9601174 -0.104520E-06  0.154E-02    9.49       1.5  T
   3    -32.9601175 -0.284167E-07  0.281E-03    9.49       8.2  T
   4    -32.9601175 -0.262687E-08  0.542E-04    9.49      42.3  T
   5    -32.9601175 -0.208651E-09  0.258E-04    9.49      88.9  T
     SCC iter.                  ...        0 min,  0.004 sec
     gradient                   ...        0 min,  0.001 sec
 * total energy  :   -32.7665848 Eh     change       -0.3359776E-04 Eh
   gradient norm :     0.0023044 Eh/α   predicted    -0.2616062E-04 ( -22.14%)
   displ. norm   :     0.1186207 α      lambda       -0.2792611E-04
   maximum displ.:     0.0807987 α      in ANC's #1, #2, #6, ...

........................................................................
.............................. CYCLE   18 ..............................
........................................................................

 iter      E             dE          RMSdq      gap      omega  full diag
   1    -32.9601180 -0.329601E+02  0.194E-02    9.49       0.0  T
   2    -32.9601180 -0.542762E-07  0.110E-02    9.49       2.1  T
   3    -32.9601180 -0.106297E-07  0.341E-03    9.49       6.7  T
   4    -32.9601180 -0.158644E-08  0.736E-04    9.49      31.2  T
   5    -32.9601180 -0.281922E-09  0.169E-04    9.49     135.7  T
     SCC iter.                  ...        0 min,  0.003 sec
     gradient                   ...        0 min,  0.001 sec
 * total energy  :   -32.7666067 Eh     change       -0.2197005E-04 Eh
   gradient norm :     0.0020262 Eh/α   predicted    -0.1416042E-04 ( -35.55%)
   displ. norm   :     0.1205536 α      lambda       -0.2913086E-04
   maximum displ.:     0.0838938 α      in ANC's #1, #2, #6, ...

........................................................................
.............................. CYCLE   19 ..............................
........................................................................

 iter      E             dE          RMSdq      gap      omega  full diag
   1    -32.9600097 -0.329600E+02  0.196E-02    9.49       0.0  T
   2    -32.9600097 -0.619335E-07  0.109E-02    9.49       2.1  T
   3    -32.9600097 -0.954065E-08  0.348E-03    9.49       6.6  T
   4    -32.9600097 -0.140427E-08  0.797E-04    9.49      28.8  T
   5    -32.9600097 -0.250324E-09  0.156E-04    9.49     147.1  T
     SCC iter.                  ...        0 min,  0.004 sec
     gradient                   ...        0 min,  0.001 sec
 * total energy  :   -32.7666340 Eh     change       -0.2728430E-04 Eh
   gradient norm :     0.0014094 Eh/α   predicted    -0.1477943E-04 ( -45.83%)
   displ. norm   :     0.4923361 α      lambda       -0.8129614E-04
   maximum displ.:     0.3442984 α      in ANC's #1, #2, #7, ...

........................................................................
.............................. CYCLE   20 ..............................
........................................................................

 iter      E             dE          RMSdq      gap      omega  full diag
   1    -32.9589250 -0.329589E+02  0.794E-02    9.48       0.0  T
   2    -32.9589260 -0.932325E-06  0.447E-02    9.48       1.0  T
   3    -32.9589261 -0.151913E-06  0.141E-02    9.48       1.6  T
   4    -32.9589261 -0.242383E-07  0.280E-03    9.48       8.2  T
   5    -32.9589261 -0.372432E-08  0.654E-04    9.48      35.1  T
   6    -32.9589261 -0.396412E-09  0.209E-04    9.48     109.6  T
     SCC iter.                  ...        0 min,  0.004 sec
     gradient                   ...        0 min,  0.001 sec
 * total energy  :   -32.7666501 Eh     change       -0.1607108E-04 Eh
   gradient norm :     0.0059396 Eh/α   predicted    -0.4502900E-04 ( 180.19%)
   displ. norm   :     0.0608325 α      lambda       -0.7848252E-04
   maximum displ.:     0.0385425 α      in ANC's #8, #2, #14, ...
 * RMSD in coord.:     0.5789558 α      energy gain  -0.1306173E-01 Eh

generating ANC from model Hessian ...
Using Lindh-Hessian (1995)
 Shifting diagonal of input Hessian by    9.8805775603003406E-003
 Lowest  eigenvalues of input Hessian
    0.000000    0.000000    0.000000    0.000000    0.000000    0.000000
    0.010000    0.010101    0.010216    0.010304    0.010436    0.010534
    0.010585    0.010624    0.010839    0.011074    0.011124    0.011140
 Highest eigenvalues
    1.401804    1.403647    1.404590    1.405046    1.406188    1.408494


........................................................................
.............................. CYCLE   21 ..............................
........................................................................

 iter      E             dE          RMSdq      gap      omega  full diag
   1    -32.9599882 -0.329600E+02  0.235E-02    9.49       0.0  T
   2    -32.9599885 -0.260231E-06  0.958E-03    9.49       2.4  T
   3    -32.9599885 -0.133653E-07  0.492E-03    9.49       4.7  T
   4    -32.9599885 -0.445392E-08  0.846E-04    9.49      27.1  T
   5    -32.9599885 -0.396525E-09  0.216E-04    9.49     106.5  T
     SCC iter.                  ...        0 min,  0.003 sec
     gradient                   ...        0 min,  0.001 sec
 * total energy  :   -32.7667069 Eh     change       -0.5685364E-04 Eh
   gradient norm :     0.0036216 Eh/α   predicted     0.0000000E+00 (-100.00%)
   displ. norm   :     0.0686245 α      lambda       -0.6995760E-04
   maximum displ.:     0.0324588 α      in ANC's #1, #16, #5, ...

........................................................................
.............................. CYCLE   22 ..............................
........................................................................

 iter      E             dE          RMSdq      gap      omega  full diag
   1    -32.9602719 -0.329603E+02  0.256E-02    9.50       0.0  T
   2    -32.9602722 -0.207820E-06  0.131E-02    9.50       1.8  T
   3    -32.9602722 -0.453812E-07  0.542E-03    9.50       4.2  T
   4    -32.9602722 -0.854732E-08  0.122E-03    9.50      18.8  T
   5    -32.9602722 -0.657003E-09  0.229E-04    9.50     100.4  T
   6    -32.9602722 -0.180762E-10  0.657E-05    9.50     349.3  T
     SCC iter.                  ...        0 min,  0.003 sec
     gradient                   ...        0 min,  0.001 sec
 * total energy  :   -32.7667523 Eh     change       -0.4539471E-04 Eh
   gradient norm :     0.0013960 Eh/α   predicted    -0.3528337E-04 ( -22.27%)
   displ. norm   :     0.1742109 α      lambda       -0.7343337E-04
   maximum displ.:     0.0944077 α      in ANC's #1, #7, #5, ...

........................................................................
.............................. CYCLE   23 ..............................
........................................................................

 iter      E             dE          RMSdq      gap      omega  full diag
   1    -32.9608064 -0.329608E+02  0.461E-02    9.52       0.0  T
   2    -32.9608070 -0.576182E-06  0.207E-02    9.52       1.1  T
   3    -32.9608071 -0.553480E-07  0.104E-02    9.52       2.2  T
   4    -32.9608071 -0.144757E-07  0.166E-03    9.52      13.9  T
   5    -32.9608071 -0.129913E-08  0.340E-04    9.52      67.4  T
   6    -32.9608071 -0.647873E-10  0.105E-04    9.52     219.5  T
     SCC iter.                  ...        0 min,  0.004 sec
     gradient                   ...        0 min,  0.002 sec
 * total energy  :   -32.7668059 Eh     change       -0.5357756E-04 Eh
   gradient norm :     0.0038860 Eh/α   predicted    -0.3721218E-04 ( -30.55%)
   displ. norm   :     0.0515034 α      lambda       -0.2623945E-04
   maximum displ.:     0.0365312 α      in ANC's #1, #5, #2, ...

........................................................................
.............................. CYCLE   24 ..............................
........................................................................

 iter      E             dE          RMSdq      gap      omega  full diag
   1    -32.9605886 -0.329606E+02  0.133E-02    9.52       0.0  T
   2    -32.9605887 -0.371323E-07  0.727E-03    9.52       3.2  T
   3    -32.9605887 -0.950401E-08  0.231E-03    9.52      10.0  T
   4    -32.9605887 -0.112173E-08  0.425E-04    9.52      54.0  T
   5    -32.9605887 -0.757865E-10  0.118E-04    9.52     195.1  T
     SCC iter.                  ...        0 min,  0.002 sec
     gradient                   ...        0 min,  0.001 sec
 * total energy  :   -32.7668248 Eh     change       -0.1886649E-04 Eh
   gradient norm :     0.0022730 Eh/α   predicted    -0.1315604E-04 ( -30.27%)
   displ. norm   :     0.0757982 α      lambda       -0.3618135E-04
   maximum displ.:     0.0561481 α      in ANC's #1, #2, #5, ...

........................................................................
.............................. CYCLE   25 ..............................
........................................................................

 iter      E             dE          RMSdq      gap      omega  full diag
   1    -32.9601952 -0.329602E+02  0.193E-02    9.51       0.0  T
   2    -32.9601953 -0.118457E-06  0.854E-03    9.51       2.7  T
   3    -32.9601953 -0.163206E-07  0.376E-03    9.51       6.1  T
   4    -32.9601953 -0.331828E-08  0.811E-04    9.51      28.3  T
   5    -32.9601953 -0.296282E-09  0.180E-04    9.51     127.1  T
     SCC iter.                  ...        0 min,  0.004 sec
     gradient                   ...        0 min,  0.001 sec
 * total energy  :   -32.7668450 Eh     change       -0.2026549E-04 Eh
   gradient norm :     0.0018976 Eh/α   predicted    -0.1819862E-04 ( -10.20%)
   displ. norm   :     0.0684756 α      lambda       -0.1343284E-04
   maximum displ.:     0.0542311 α      in ANC's #1, #4, #6, ...

........................................................................
.............................. CYCLE   26 ..............................
........................................................................

 iter      E             dE          RMSdq      gap      omega  full diag
   1    -32.9602714 -0.329603E+02  0.136E-02    9.52       0.0  T
   2    -32.9602715 -0.689941E-07  0.621E-03    9.52       3.7  T
   3    -32.9602715 -0.747607E-08  0.238E-03    9.52       9.6  T
   4    -32.9602715 -0.808477E-09  0.505E-04    9.52      45.4  T
   5    -32.9602715 -0.820890E-10  0.886E-05    9.52     258.9  T
     SCC iter.                  ...        0 min,  0.003 sec
     gradient                   ...        0 min,  0.001 sec
 * total energy  :   -32.7668622 Eh     change       -0.1715834E-04 Eh
   gradient norm :     0.0021146 Eh/α   predicted    -0.6730866E-05 ( -60.77%)
   displ. norm   :     0.0661414 α      lambda       -0.2200789E-04
   maximum displ.:     0.0472449 α      in ANC's #1, #4, #8, ...

........................................................................
.............................. CYCLE   27 ..............................
........................................................................

 iter      E             dE          RMSdq      gap      omega  full diag
   1    -32.9604867 -0.329605E+02  0.126E-02    9.53       0.0  T
   2    -32.9604867 -0.539253E-07  0.619E-03    9.53       3.7  T
   3    -32.9604868 -0.632508E-08  0.222E-03    9.53      10.3  T
   4    -32.9604868 -0.748514E-09  0.468E-04    9.53      49.0  T
   5    -32.9604868 -0.858051E-10  0.102E-04    9.53     224.1  T
     SCC iter.                  ...        0 min,  0.003 sec
     gradient                   ...        0 min,  0.002 sec
 * total energy  :   -32.7668825 Eh     change       -0.2032747E-04 Eh
   gradient norm :     0.0011586 Eh/α   predicted    -0.1105418E-04 ( -45.62%)
   displ. norm   :     0.2655472 α      lambda       -0.5408567E-04
   maximum displ.:     0.1831767 α      in ANC's #1, #4, #8, ...

........................................................................
.............................. CYCLE   28 ..............................
........................................................................

 iter      E             dE          RMSdq      gap      omega  full diag
   1    -32.9607233 -0.329607E+02  0.511E-02    9.54       0.0  T
   2    -32.9607240 -0.736044E-06  0.258E-02    9.54       1.0  T
   3    -32.9607241 -0.843133E-07  0.952E-03    9.54       2.4  T
   4    -32.9607241 -0.110948E-07  0.191E-03    9.54      12.0  T
   5    -32.9607241 -0.153665E-08  0.388E-04    9.54      59.1  T
   6    -32.9607241 -0.121645E-09  0.144E-04    9.54     159.8  T
     SCC iter.                  ...        0 min,  0.003 sec
     gradient                   ...        0 min,  0.001 sec
 * total energy  :   -32.7669157 Eh     change       -0.3320821E-04 Eh
   gradient norm :     0.0029544 Eh/α   predicted    -0.2789376E-04 ( -16.00%)
   displ. norm   :     0.0337565 α      lambda       -0.2341270E-04
   maximum displ.:     0.0162761 α      in ANC's #8, #20, #4, ...

........................................................................
.............................. CYCLE   29 ..............................
........................................................................

 iter      E             dE          RMSdq      gap      omega  full diag
   1    -32.9607646 -0.329608E+02  0.132E-02    9.54       0.0  T
   2    -32.9607646 -0.688473E-07  0.693E-03    9.54       3.3  T
   3    -32.9607647 -0.128891E-07  0.251E-03    9.54       9.1  T
   4    -32.9607647 -0.188503E-08  0.472E-04    9.54      48.6  T
   5    -32.9607647 -0.800995E-10  0.124E-04    9.54     184.7  T
     SCC iter.                  ...        0 min,  0.002 sec
     gradient                   ...        0 min,  0.001 sec
 * total energy  :   -32.7669311 Eh     change       -0.1539078E-04 Eh
   gradient norm :     0.0019085 Eh/α   predicted    -0.1172429E-04 ( -23.82%)
   displ. norm   :     0.0706081 α      lambda       -0.2011816E-04
   maximum displ.:     0.0403784 α      in ANC's #4, #8, #7, ...

........................................................................
.............................. CYCLE   30 ..............................
........................................................................

 iter      E             dE          RMSdq      gap      omega  full diag
   1    -32.9607674 -0.329608E+02  0.237E-02    9.53       0.0  T
   2    -32.9607678 -0.349437E-06  0.104E-02    9.53       2.2  T
   3    -32.9607678 -0.262014E-07  0.485E-03    9.53       4.7  T
   4    -32.9607678 -0.517841E-08  0.114E-03    9.53      20.1  T
   5    -32.9607678 -0.558096E-09  0.212E-04    9.53     108.0  T
   6    -32.9607678 -0.224603E-10  0.111E-04    9.53     206.7  T
     SCC iter.                  ...        0 min,  0.002 sec
     gradient                   ...        0 min,  0.001 sec
 * total energy  :   -32.7669418 Eh     change       -0.1064723E-04 Eh
   gradient norm :     0.0010394 Eh/α   predicted    -0.1008540E-04 (  -5.28%)
   displ. norm   :     0.0484114 α      lambda       -0.1150539E-04
   maximum displ.:     0.0373047 α      in ANC's #1, #10, #17, ...

........................................................................
.............................. CYCLE   31 ..............................
........................................................................

 iter      E             dE          RMSdq      gap      omega  full diag
   1    -32.9606276 -0.329606E+02  0.138E-02    9.53       0.0  T
   2    -32.9606276 -0.297528E-07  0.820E-03    9.53       2.8  T
   3    -32.9606277 -0.146345E-07  0.129E-03    9.53      17.8  T
   4    -32.9606277 -0.580975E-09  0.223E-04    9.53     103.1  T
   5    -32.9606277 -0.134293E-10  0.119E-04    9.53     192.3  T
     SCC iter.                  ...        0 min,  0.003 sec
     gradient                   ...        0 min,  0.001 sec
 * total energy  :   -32.7669516 Eh     change       -0.9804143E-05 Eh
   gradient norm :     0.0009051 Eh/α   predicted    -0.5760346E-05 ( -41.25%)
   displ. norm   :     0.0605625 α      lambda       -0.1157227E-04
   maximum displ.:     0.0424283 α      in ANC's #1, #11, #8, ...

........................................................................
.............................. CYCLE   32 ..............................
........................................................................

 iter      E             dE          RMSdq      gap      omega  full diag
   1    -32.9604596 -0.329605E+02  0.152E-02    9.54       0.0  T
   2    -32.9604597 -0.583136E-07  0.855E-03    9.54       2.7  T
   3    -32.9604597 -0.114592E-07  0.206E-03    9.54      11.2  T
   4    -32.9604597 -0.108884E-08  0.454E-04    9.54      50.5  T
   5    -32.9604597 -0.886970E-10  0.142E-04    9.54     161.2  T
     SCC iter.                  ...        0 min,  0.003 sec
     gradient                   ...        0 min,  0.001 sec
 * total energy  :   -32.7669641 Eh     change       -0.1249548E-04 Eh
   gradient norm :     0.0006940 Eh/α   predicted    -0.5798075E-05 ( -53.60%)
   displ. norm   :     0.1088360 α      lambda       -0.1730622E-04
   maximum displ.:     0.0700003 α      in ANC's #1, #11, #10, ...

........................................................................
.............................. CYCLE   33 ..............................
........................................................................

 iter      E             dE          RMSdq      gap      omega  full diag
   1    -32.9603089 -0.329603E+02  0.264E-02    9.54       0.0  T
   2    -32.9603090 -0.106470E-06  0.150E-02    9.54       1.5  T
   3    -32.9603090 -0.157245E-07  0.350E-03    9.54       6.6  T
   4    -32.9603090 -0.180753E-08  0.527E-04    9.54      43.6  T
   5    -32.9603090 -0.153612E-09  0.191E-04    9.54     120.1  T
     SCC iter.                  ...        0 min,  0.002 sec
     gradient                   ...        0 min,  0.001 sec
 * total energy  :   -32.7669822 Eh     change       -0.1811536E-04 Eh
   gradient norm :     0.0012351 Eh/α   predicted    -0.8702619E-05 ( -51.96%)
   displ. norm   :     0.1311691 α      lambda       -0.2118108E-04
   maximum displ.:     0.0844960 α      in ANC's #1, #11, #10, ...

........................................................................
.............................. CYCLE   34 ..............................
........................................................................

 iter      E             dE          RMSdq      gap      omega  full diag
   1    -32.9599838 -0.329600E+02  0.369E-02    9.54       0.0  T
   2    -32.9599840 -0.215841E-06  0.198E-02    9.54       1.2  T
   3    -32.9599840 -0.295137E-07  0.643E-03    9.54       3.6  T
   4    -32.9599840 -0.404970E-08  0.880E-04    9.54      26.1  T
   5    -32.9599840 -0.297234E-09  0.240E-04    9.54      95.6  T
     SCC iter.                  ...        0 min,  0.002 sec
     gradient                   ...        0 min,  0.001 sec
 * total energy  :   -32.7669974 Eh     change       -0.1525251E-04 Eh
   gradient norm :     0.0024217 Eh/α   predicted    -0.1067257E-04 ( -30.03%)
   displ. norm   :     0.0593727 α      lambda       -0.2268252E-04
   maximum displ.:     0.0406559 α      in ANC's #1, #11, #12, ...

........................................................................
.............................. CYCLE   35 ..............................
........................................................................

 iter      E             dE          RMSdq      gap      omega  full diag
   1    -32.9602154 -0.329602E+02  0.141E-02    9.54       0.0  T
   2    -32.9602154 -0.358253E-07  0.756E-03    9.54       3.0  T
   3    -32.9602154 -0.450154E-08  0.283E-03    9.54       8.1  T
   4    -32.9602154 -0.804064E-09  0.314E-04    9.54      73.0  T
   5    -32.9602154 -0.417231E-10  0.951E-05    9.54     241.3  T
     SCC iter.                  ...        0 min,  0.002 sec
     gradient                   ...        0 min,  0.001 sec
 * total energy  :   -32.7670169 Eh     change       -0.1945749E-04 Eh
   gradient norm :     0.0016106 Eh/α   predicted    -0.1138482E-04 ( -41.49%)
   displ. norm   :     0.2993142 α      lambda       -0.6101762E-04
   maximum displ.:     0.2156063 α      in ANC's #1, #11, #4, ...

........................................................................
.............................. CYCLE   36 ..............................
........................................................................

 iter      E             dE          RMSdq      gap      omega  full diag
   1    -32.9605069 -0.329605E+02  0.624E-02    9.55       0.0  T
   2    -32.9605076 -0.626664E-06  0.345E-02    9.55       1.0  T
   3    -32.9605076 -0.905765E-07  0.993E-03    9.55       2.3  T
   4    -32.9605077 -0.116316E-07  0.154E-03    9.55      14.9  T
   5    -32.9605077 -0.893337E-09  0.417E-04    9.55      55.0  T
   6    -32.9605077 -0.862883E-10  0.193E-04    9.55     118.9  T
     SCC iter.                  ...        0 min,  0.002 sec
     gradient                   ...        0 min,  0.001 sec
 * total energy  :   -32.7670382 Eh     change       -0.2128940E-04 Eh
   gradient norm :     0.0042824 Eh/α   predicted    -0.3172730E-04 (  49.03%)
   displ. norm   :     0.0554379 α      lambda       -0.4282496E-04
   maximum displ.:     0.0374814 α      in ANC's #11, #1, #18, ...

........................................................................
.............................. CYCLE   37 ..............................
........................................................................

 iter      E             dE          RMSdq      gap      omega  full diag
   1    -32.9610548 -0.329611E+02  0.202E-02    9.56       0.0  T
   2    -32.9610549 -0.123600E-06  0.106E-02    9.56       2.2  T
   3    -32.9610549 -0.188685E-07  0.438E-03    9.56       5.2  T
   4    -32.9610550 -0.382839E-08  0.575E-04    9.56      39.9  T
   5    -32.9610550 -0.187924E-09  0.180E-04    9.56     127.8  T
     SCC iter.                  ...        0 min,  0.002 sec
     gradient                   ...        0 min,  0.001 sec
 * total energy  :   -32.7670672 Eh     change       -0.2901199E-04 Eh
   gradient norm :     0.0027585 Eh/α   predicted    -0.2147957E-04 ( -25.96%)
   displ. norm   :     0.0438284 α      lambda       -0.2811396E-04
   maximum displ.:     0.0220780 α      in ANC's #11, #4, #1, ...

........................................................................
.............................. CYCLE   38 ..............................
........................................................................

 iter      E             dE          RMSdq      gap      omega  full diag
   1    -32.9609979 -0.329610E+02  0.183E-02    9.56       0.0  T
   2    -32.9609980 -0.100326E-06  0.711E-03    9.56       3.2  T
   3    -32.9609980 -0.111931E-07  0.377E-03    9.56       6.1  T
   4    -32.9609981 -0.324437E-08  0.643E-04    9.56      35.7  T
   5    -32.9609981 -0.254168E-09  0.152E-04    9.56     150.7  T
     SCC iter.                  ...        0 min,  0.002 sec
     gradient                   ...        0 min,  0.001 sec
 * total energy  :   -32.7670877 Eh     change       -0.2053954E-04 Eh
   gradient norm :     0.0010687 Eh/α   predicted    -0.1408708E-04 ( -31.41%)
   displ. norm   :     0.1052262 α      lambda       -0.2266182E-04
   maximum displ.:     0.0599382 α      in ANC's #1, #2, #11, ...

........................................................................
.............................. CYCLE   39 ..............................
........................................................................

 iter      E             dE          RMSdq      gap      omega  full diag
   1    -32.9608684 -0.329609E+02  0.287E-02    9.56       0.0  T
   2    -32.9608686 -0.273317E-06  0.121E-02    9.56       1.9  T
   3    -32.9608687 -0.292146E-07  0.594E-03    9.56       3.9  T
   4    -32.9608687 -0.587350E-08  0.104E-03    9.56      22.1  T
   5    -32.9608687 -0.594930E-09  0.207E-04    9.56     110.6  T
   6    -32.9608687 -0.325358E-10  0.731E-05    9.56     313.7  T
     SCC iter.                  ...        0 min,  0.002 sec
     gradient                   ...        0 min,  0.001 sec
 * total energy  :   -32.7671097 Eh     change       -0.2197057E-04 Eh
   gradient norm :     0.0016659 Eh/α   predicted    -0.1138989E-04 ( -48.16%)
   displ. norm   :     0.0847168 α      lambda       -0.1422164E-04
   maximum displ.:     0.0613147 α      in ANC's #1, #2, #7, ...

........................................................................
.............................. CYCLE   40 ..............................
........................................................................

 iter      E             dE          RMSdq      gap      omega  full diag
   1    -32.9607093 -0.329607E+02  0.117E-02    9.56       0.0  T
   2    -32.9607093 -0.555240E-07  0.579E-03    9.56       4.0  T
   3    -32.9607093 -0.482935E-08  0.206E-03    9.56      11.1  T
   4    -32.9607093 -0.555090E-09  0.290E-04    9.56      79.2  T
   5    -32.9607093 -0.368914E-10  0.779E-05    9.56     294.6  T
     SCC iter.                  ...        0 min,  0.002 sec
     gradient                   ...        0 min,  0.001 sec
 * total energy  :   -32.7671286 Eh     change       -0.1892996E-04 Eh
   gradient norm :     0.0014223 Eh/α   predicted    -0.7134787E-05 ( -62.31%)
   displ. norm   :     0.1206830 α      lambda       -0.2179852E-04
   maximum displ.:     0.0881998 α      in ANC's #1, #2, #7, ...

........................................................................
.............................. CYCLE   41 ..............................
........................................................................

 iter      E             dE          RMSdq      gap      omega  full diag
   1    -32.9607390 -0.329607E+02  0.163E-02    9.56       0.0  T
   2    -32.9607391 -0.732237E-07  0.900E-03    9.56       2.5  T
   3    -32.9607391 -0.856470E-08  0.259E-03    9.56       8.9  T
   4    -32.9607391 -0.109106E-08  0.699E-04    9.56      32.8  T
   5    -32.9607391 -0.172790E-09  0.148E-04    9.56     154.9  T
     SCC iter.                  ...        0 min,  0.002 sec
     gradient                   ...        0 min,  0.001 sec
 * total energy  :   -32.7671558 Eh     change       -0.2714193E-04 Eh
   gradient norm :     0.0006737 Eh/α   predicted    -0.1097187E-04 ( -59.58%)
   displ. norm   :     0.1709806 α      lambda       -0.2695589E-04
   maximum displ.:     0.1242418 α      in ANC's #1, #2, #15, ...

........................................................................
.............................. CYCLE   42 ..............................
........................................................................

 iter      E             dE          RMSdq      gap      omega  full diag
   1    -32.9605604 -0.329606E+02  0.242E-02    9.57       0.0  T
   2    -32.9605605 -0.108042E-06  0.136E-02    9.57       1.7  T
   3    -32.9605605 -0.142181E-07  0.412E-03    9.57       5.6  T
   4    -32.9605605 -0.178759E-08  0.830E-04    9.57      27.7  T
   5    -32.9605605 -0.335199E-09  0.182E-04    9.57     125.8  T
     SCC iter.                  ...        0 min,  0.002 sec
     gradient                   ...        0 min,  0.001 sec
 * total energy  :   -32.7671922 Eh     change       -0.3640599E-04 Eh
   gradient norm :     0.0015372 Eh/α   predicted    -0.1365631E-04 ( -62.49%)
   displ. norm   :     0.3327740 α      lambda       -0.5309276E-04
   maximum displ.:     0.2356951 α      in ANC's #1, #2, #15, ...
 * RMSD in coord.:     0.3853041 α      energy gain  -0.5421043E-03 Eh

generating ANC from model Hessian ...
Using Lindh-Hessian (1995)
 Shifting diagonal of input Hessian by    9.9268017429297341E-003
 Lowest  eigenvalues of input Hessian
    0.000000    0.000000    0.000000    0.000000    0.000000    0.000000
    0.010000    0.010193    0.010297    0.010432    0.010525    0.010681
    0.010709    0.010758    0.010817    0.011197    0.011238    0.011263
 Highest eigenvalues
    1.399536    1.403399    1.406112    1.406199    1.407199    1.409378


........................................................................
.............................. CYCLE   43 ..............................
........................................................................

 iter      E             dE          RMSdq      gap      omega  full diag
   1    -32.9601233 -0.329601E+02  0.520E-02    9.57       0.0  T
   2    -32.9601238 -0.509505E-06  0.293E-02    9.57       1.0  T
   3    -32.9601239 -0.531063E-07  0.943E-03    9.57       2.4  T
   4    -32.9601239 -0.793401E-08  0.156E-03    9.57      14.7  T
   5    -32.9601239 -0.135015E-08  0.382E-04    9.57      60.0  T
   6    -32.9601239 -0.103675E-09  0.182E-04    9.57     126.0  T
     SCC iter.                  ...        0 min,  0.003 sec
     gradient                   ...        0 min,  0.001 sec
 * total energy  :   -32.7672534 Eh     change       -0.6121080E-04 Eh
   gradient norm :     0.0034809 Eh/α   predicted     0.0000000E+00 (-100.00%)
   displ. norm   :     0.0697123 α      lambda       -0.7722880E-04
   maximum displ.:     0.0291289 α      in ANC's #9, #1, #19, ...

........................................................................
.............................. CYCLE   44 ..............................
........................................................................

 iter      E             dE          RMSdq      gap      omega  full diag
   1    -32.9606258 -0.329606E+02  0.315E-02    9.58       0.0  T
   2    -32.9606260 -0.276601E-06  0.184E-02    9.58       1.2  T
   3    -32.9606261 -0.895097E-07  0.415E-03    9.58       5.5  T
   4    -32.9606261 -0.603649E-08  0.856E-04    9.58      26.8  T
   5    -32.9606261 -0.250431E-09  0.273E-04    9.58      84.1  T
     SCC iter.                  ...        0 min,  0.003 sec
     gradient                   ...        0 min,  0.001 sec
 * total energy  :   -32.7672875 Eh     change       -0.3409109E-04 Eh
   gradient norm :     0.0016383 Eh/α   predicted    -0.3890359E-04 (  14.12%)
   displ. norm   :     0.1205585 α      lambda       -0.6310629E-04
   maximum displ.:     0.0538761 α      in ANC's #9, #1, #2, ...

........................................................................
.............................. CYCLE   45 ..............................
........................................................................

 iter      E             dE          RMSdq      gap      omega  full diag
   1    -32.9616829 -0.329617E+02  0.293E-02    9.59       0.0  T
   2    -32.9616832 -0.268839E-06  0.152E-02    9.59       1.5  T
   3    -32.9616832 -0.336646E-07  0.551E-03    9.59       4.2  T
   4    -32.9616832 -0.518655E-08  0.791E-04    9.59      29.0  T
   5    -32.9616832 -0.271569E-09  0.267E-04    9.59      86.0  T
     SCC iter.                  ...        0 min,  0.002 sec
     gradient                   ...        0 min,  0.001 sec
 * total energy  :   -32.7673462 Eh     change       -0.5867131E-04 Eh
   gradient norm :     0.0029047 Eh/α   predicted    -0.3176185E-04 ( -45.86%)
   displ. norm   :     0.1003942 α      lambda       -0.4439221E-04
   maximum displ.:     0.0527407 α      in ANC's #1, #2, #9, ...

........................................................................
.............................. CYCLE   46 ..............................
........................................................................

 iter      E             dE          RMSdq      gap      omega  full diag
   1    -32.9614456 -0.329614E+02  0.230E-02    9.59       0.0  T
   2    -32.9614458 -0.136667E-06  0.126E-02    9.59       1.8  T
   3    -32.9614458 -0.281793E-07  0.400E-03    9.59       5.7  T
   4    -32.9614458 -0.343388E-08  0.649E-04    9.59      35.4  T
   5    -32.9614458 -0.256399E-09  0.208E-04    9.59     110.1  T
     SCC iter.                  ...        0 min,  0.002 sec
     gradient                   ...        0 min,  0.001 sec
 * total energy  :   -32.7673740 Eh     change       -0.2787173E-04 Eh
   gradient norm :     0.0022734 Eh/α   predicted    -0.2242021E-04 ( -19.56%)
   displ. norm   :     0.1015809 α      lambda        0.1180745E-04
   maximum displ.:     0.0534384 α      in ANC's #1, #2, #9, ...

........................................................................
.............................. CYCLE   47 ..............................
........................................................................

 iter      E             dE          RMSdq      gap      omega  full diag
   1    -32.9610236 -0.329610E+02  0.234E-02    9.59       0.0  T
   2    -32.9610237 -0.144725E-06  0.127E-02    9.59       1.8  T
   3    -32.9610237 -0.286158E-07  0.419E-03    9.59       5.5  T
   4    -32.9610237 -0.365485E-08  0.669E-04    9.59      34.3  T
   5    -32.9610237 -0.284786E-09  0.210E-04    9.59     109.3  T
     SCC iter.                  ...        0 min,  0.002 sec
     gradient                   ...        0 min,  0.001 sec
 * total energy  :   -32.7673695 Eh     change        0.4561288E-05 Eh
   gradient norm :     0.0020392 Eh/α   predicted     0.5962676E-05 (  30.72%)
   displ. norm   :     0.0373101 α      lambda       -0.3808521E-04
   maximum displ.:     0.0172184 α      in ANC's #17, #18, #8, ...

........................................................................
.............................. CYCLE   48 ..............................
........................................................................

 iter      E             dE          RMSdq      gap      omega  full diag
   1    -32.9609060 -0.329609E+02  0.202E-02    9.58       0.0  T
   2    -32.9609061 -0.140432E-06  0.117E-02    9.58       2.0  T
   3    -32.9609062 -0.430302E-07  0.257E-03    9.58       8.9  T
   4    -32.9609062 -0.279933E-08  0.501E-04    9.58      45.8  T
   5    -32.9609062 -0.802132E-10  0.188E-04    9.58     122.3  T
     SCC iter.                  ...        0 min,  0.002 sec
     gradient                   ...        0 min,  0.001 sec
 * total energy  :   -32.7673900 Eh     change       -0.2052800E-04 Eh
   gradient norm :     0.0007398 Eh/α   predicted    -0.1907398E-04 (  -7.08%)
   displ. norm   :     0.0501303 α      lambda       -0.1240874E-04
   maximum displ.:     0.0227129 α      in ANC's #6, #5, #9, ...

........................................................................
.............................. CYCLE   49 ..............................
........................................................................

 iter      E             dE          RMSdq      gap      omega  full diag
   1    -32.9609730 -0.329610E+02  0.187E-02    9.59       0.0  T
   2    -32.9609730 -0.790528E-07  0.106E-02    9.59       2.2  T
   3    -32.9609731 -0.228074E-07  0.247E-03    9.59       9.3  T
   4    -32.9609731 -0.202601E-08  0.431E-04    9.59      53.2  T
   5    -32.9609731 -0.727312E-10  0.191E-04    9.59     120.1  T
     SCC iter.                  ...        0 min,  0.002 sec
     gradient                   ...        0 min,  0.001 sec
 * total energy  :   -32.7673981 Eh     change       -0.8106972E-05 Eh
   gradient norm :     0.0011472 Eh/α   predicted    -0.6214190E-05 ( -23.35%)
   displ. norm   :     0.0734162 α      lambda       -0.1385189E-04
   maximum displ.:     0.0420824 α      in ANC's #1, #12, #6, ...

........................................................................
.............................. CYCLE   50 ..............................
........................................................................

 iter      E             dE          RMSdq      gap      omega  full diag
   1    -32.9609892 -0.329610E+02  0.247E-02    9.59       0.0  T
   2    -32.9609894 -0.129552E-06  0.123E-02    9.59       1.9  T
   3    -32.9609894 -0.216759E-07  0.405E-03    9.59       5.7  T
   4    -32.9609894 -0.292164E-08  0.387E-04    9.59      59.3  T
   5    -32.9609894 -0.784723E-10  0.174E-04    9.59     131.7  T
     SCC iter.                  ...        0 min,  0.002 sec
     gradient                   ...        0 min,  0.001 sec
 * total energy  :   -32.7674078 Eh     change       -0.9661666E-05 Eh
   gradient norm :     0.0015093 Eh/α   predicted    -0.6943672E-05 ( -28.13%)
   displ. norm   :     0.0718134 α      lambda       -0.9325470E-05
   maximum displ.:     0.0449406 α      in ANC's #1, #2, #12, ...

........................................................................
.............................. CYCLE   51 ..............................
........................................................................

 iter      E             dE          RMSdq      gap      omega  full diag
   1    -32.9608531 -0.329609E+02  0.149E-02    9.59       0.0  T
   2    -32.9608531 -0.548811E-07  0.817E-03    9.59       2.8  T
   3    -32.9608531 -0.622268E-08  0.267E-03    9.59       8.6  T
   4    -32.9608531 -0.791815E-09  0.420E-04    9.59      54.6  T
   5    -32.9608531 -0.107661E-09  0.110E-04    9.59     207.9  T
     SCC iter.                  ...        0 min,  0.002 sec
     gradient                   ...        0 min,  0.001 sec
 * total energy  :   -32.7674176 Eh     change       -0.9847798E-05 Eh
   gradient norm :     0.0006801 Eh/α   predicted    -0.4674095E-05 ( -52.54%)
   displ. norm   :     0.0668911 α      lambda       -0.6554937E-05
   maximum displ.:     0.0452069 α      in ANC's #1, #2, #12, ...

........................................................................
.............................. CYCLE   52 ..............................
........................................................................

 iter      E             dE          RMSdq      gap      omega  full diag
   1    -32.9609419 -0.329609E+02  0.148E-02    9.59       0.0  T
   2    -32.9609420 -0.423381E-07  0.861E-03    9.59       2.7  T
   3    -32.9609420 -0.832978E-08  0.196E-03    9.59      11.7  T
   4    -32.9609420 -0.819504E-09  0.369E-04    9.59      62.2  T
   5    -32.9609420 -0.837730E-10  0.142E-04    9.59     161.3  T
     SCC iter.                  ...        0 min,  0.002 sec
     gradient                   ...        0 min,  0.001 sec
 * total energy  :   -32.7674238 Eh     change       -0.6147932E-05 Eh
   gradient norm :     0.0005756 Eh/α   predicted    -0.3286002E-05 ( -46.55%)
   displ. norm   :     0.0587786 α      lambda       -0.4433508E-05
   maximum displ.:     0.0395739 α      in ANC's #1, #2, #12, ...

........................................................................
.............................. CYCLE   53 ..............................
........................................................................

 iter      E             dE          RMSdq      gap      omega  full diag
   1    -32.9611303 -0.329611E+02  0.129E-02    9.60       0.0  T
   2    -32.9611303 -0.513623E-07  0.754E-03    9.60       3.0  T
   3    -32.9611304 -0.927965E-08  0.152E-03    9.60      15.1  T
   4    -32.9611304 -0.829218E-09  0.322E-04    9.60      71.3  T
   5    -32.9611304 -0.596572E-10  0.116E-04    9.60     198.0  T
     SCC iter.                  ...        0 min,  0.002 sec
     gradient                   ...        0 min,  0.001 sec
 * total energy  :   -32.7674263 Eh     change       -0.2504059E-05 Eh
   gradient norm :     0.0010670 Eh/α   predicted    -0.2222571E-05 ( -11.24%)
   displ. norm   :     0.0299502 α      lambda       -0.3039032E-05
   maximum displ.:     0.0202433 α      in ANC's #1, #2, #7, ...

........................................................................
.............................. CYCLE   54 ..............................
........................................................................

 iter      E             dE          RMSdq      gap      omega  full diag
   1    -32.9611207 -0.329611E+02  0.668E-03    9.60       0.0  T
   2    -32.9611207 -0.124517E-07  0.380E-03    9.60       6.0  T
   3    -32.9611207 -0.338046E-08  0.956E-04    9.60      24.0  T
   4    -32.9611207 -0.296687E-09  0.204E-04    9.60     112.6  T
     SCC iter.                  ...        0 min,  0.002 sec
     gradient                   ...        0 min,  0.001 sec
 * total energy  :   -32.7674293 Eh     change       -0.2980506E-05 Eh
   gradient norm :     0.0003750 Eh/α   predicted    -0.1523356E-05 ( -48.89%)
   displ. norm   :     0.0284796 α      lambda       -0.2173897E-05
   maximum displ.:     0.0164426 α      in ANC's #1, #2, #3, ...

........................................................................
.............................. CYCLE   55 ..............................
........................................................................

 iter      E             dE          RMSdq      gap      omega  full diag
   1    -32.9610837 -0.329611E+02  0.809E-03    9.60       0.0  T
   2    -32.9610837 -0.155638E-07  0.465E-03    9.60       4.9  T
   3    -32.9610837 -0.559898E-08  0.109E-03    9.60      21.0  T
   4    -32.9610837 -0.417749E-09  0.154E-04    9.60     149.0  T
   5    -32.9610837 -0.838440E-11  0.756E-05    9.60     303.3  T
     SCC iter.                  ...        0 min,  0.002 sec
     gradient                   ...        0 min,  0.001 sec
 * total energy  :   -32.7674300 Eh     change       -0.7592674E-06 Eh
   gradient norm :     0.0006131 Eh/α   predicted    -0.1089632E-05 (  43.51%)
   displ. norm   :     0.0233487 α      lambda       -0.2250067E-05
   maximum displ.:     0.0113755 α      in ANC's #1, #2, #3, ...

........................................................................
.............................. CYCLE   56 ..............................
........................................................................

 iter      E             dE          RMSdq      gap      omega  full diag
   1    -32.9610867 -0.329611E+02  0.631E-03    9.60       0.0  T
   2    -32.9610867 -0.776641E-08  0.365E-03    9.60       6.3  T
   3    -32.9610867 -0.246170E-08  0.798E-04    9.60      28.8  T
   4    -32.9610867 -0.167248E-09  0.145E-04    9.60     158.2  T
     SCC iter.                  ...        0 min,  0.002 sec
     gradient                   ...        0 min,  0.001 sec
 * total energy  :   -32.7674319 Eh     change       -0.1906476E-05 Eh
   gradient norm :     0.0003706 Eh/α   predicted    -0.1127201E-05 ( -40.88%)
   displ. norm   :     0.0166306 α      lambda       -0.8945262E-06
   maximum displ.:     0.0080474 α      in ANC's #1, #3, #2, ...

........................................................................
.............................. CYCLE   57 ..............................
........................................................................

 iter      E             dE          RMSdq      gap      omega  full diag
   1    -32.9610342 -0.329610E+02  0.491E-03    9.60       0.0  T
   2    -32.9610342 -0.540987E-08  0.278E-03    9.60       8.3  T
   3    -32.9610342 -0.127804E-08  0.886E-04    9.60      25.9  T
   4    -32.9610342 -0.157733E-09  0.147E-04    9.60     156.2  T
     SCC iter.                  ...        0 min,  0.002 sec
     gradient                   ...        0 min,  0.001 sec
 * total energy  :   -32.7674326 Eh     change       -0.6890856E-06 Eh
   gradient norm :     0.0001738 Eh/α   predicted    -0.4479856E-06 ( -34.99%)
   displ. norm   :     0.0187956 α      lambda       -0.7141525E-06
   maximum displ.:     0.0100367 α      in ANC's #3, #2, #1, ...

........................................................................
.............................. CYCLE   58 ..............................
........................................................................

 iter      E             dE          RMSdq      gap      omega  full diag
   1    -32.9610118 -0.329610E+02  0.548E-03    9.60       0.0  T
   2    -32.9610118 -0.726740E-08  0.308E-03    9.60       7.4  T
   3    -32.9610118 -0.161504E-08  0.819E-04    9.60      28.0  T
   4    -32.9610119 -0.162487E-09  0.167E-04    9.60     137.8  T
     SCC iter.                  ...        0 min,  0.002 sec
     gradient                   ...        0 min,  0.001 sec
 * total energy  :   -32.7674330 Eh     change       -0.3925152E-06 Eh
   gradient norm :     0.0003419 Eh/α   predicted    -0.3577565E-06 (  -8.86%)
   displ. norm   :     0.0077916 α      lambda       -0.3344191E-06
   maximum displ.:     0.0037683 α      in ANC's #3, #2, #16, ...

........................................................................
.............................. CYCLE   59 ..............................
........................................................................

 iter      E             dE          RMSdq      gap      omega  full diag
   1    -32.9610414 -0.329610E+02  0.248E-03    9.60       0.0  T
   2    -32.9610414 -0.209909E-08  0.147E-03    9.60      15.6  T
   3    -32.9610414 -0.519883E-09  0.270E-04    9.60      85.1  T
   4    -32.9610414 -0.367706E-10  0.689E-05    9.60     332.9  T
     SCC iter.                  ...        0 min,  0.002 sec
     gradient                   ...        0 min,  0.001 sec
 * total energy  :   -32.7674333 Eh     change       -0.2852174E-06 Eh
   gradient norm :     0.0000906 Eh/α   predicted    -0.1708301E-06 ( -40.11%)
   displ. norm   :     0.0052091 α      lambda       -0.8626793E-07
   maximum displ.:     0.0029777 α      in ANC's #3, #10, #4, ...

........................................................................
.............................. CYCLE   60 ..............................
........................................................................

 iter      E             dE          RMSdq      gap      omega  full diag
   1    -32.9610372 -0.329610E+02  0.134E-03    9.60       0.0  T
   2    -32.9610372 -0.536950E-09  0.767E-04    9.60      29.9  T
   3    -32.9610372 -0.833182E-10  0.171E-04    9.60     133.8  T
     SCC iter.                  ...        0 min,  0.002 sec
     gradient                   ...        0 min,  0.001 sec
 * total energy  :   -32.7674334 Eh     change       -0.9938563E-07 Eh
   gradient norm :     0.0000469 Eh/α   predicted    -0.4692364E-07 ( -52.79%)
   displ. norm   :     0.0060445 α      lambda       -0.6138937E-07
   maximum displ.:     0.0033014 α      in ANC's #3, #10, #4, ...

........................................................................
.............................. CYCLE   61 ..............................
........................................................................

 iter      E             dE          RMSdq      gap      omega  full diag
   1    -32.9610307 -0.329610E+02  0.129E-03    9.60       0.0  T
   2    -32.9610307 -0.475140E-09  0.763E-04    9.60      30.1  T
   3    -32.9610307 -0.545768E-10  0.136E-04    9.60     168.3  T
     SCC iter.                  ...        0 min,  0.001 sec
     gradient                   ...        0 min,  0.001 sec
 * total energy  :   -32.7674335 Eh     change       -0.6573332E-07 Eh
   gradient norm :     0.0000504 Eh/α   predicted    -0.3188751E-07 ( -51.49%)
   displ. norm   :     0.0060445 α      lambda        0.0000000E+00
   maximum displ.:     0.0033014 α      in ANC's #3, #10, #4, ...

........................................................................
.............................. CYCLE   62 ..............................
........................................................................

 iter      E             dE          RMSdq      gap      omega  full diag
   1    -32.9610235 -0.329610E+02  0.130E-03    9.60       0.0  T
   2    -32.9610235 -0.457014E-09  0.768E-04    9.60      29.9  T
   3    -32.9610235 -0.550813E-10  0.135E-04    9.60     170.0  T
     SCC iter.                  ...        0 min,  0.002 sec
     gradient                   ...        0 min,  0.001 sec
 * total energy  :   -32.7674335 Eh     change       -0.2096471E-08 Eh
   gradient norm :     0.0000983 Eh/α   predicted     0.2620911E-08 (-225.02%)
   displ. norm   :     0.0020146 α      lambda       -0.1831493E-07
[...]
   displ. norm   :     0.0020146 α      lambda        0.0000000E+00
   maximum displ.:     0.0010243 α      in ANC's #4, #10, #8, ...

   *** GEOMETRY OPTIMIZATION CONVERGED AFTER 63 ITERATIONS ***

------------------------------------------------------------------------
 total energy gain   :        -0.0138451 Eh       -8.6879 kcal/mol
 total RMSD          :         0.9739175 a0        0.5154 Å
 total power (kW/mol):        -0.5769900 (step) -114.1206 (real)
------------------------------------------------------------------------

 ANCopt (total)                0 d,  0 h,  0 min,  0.319 sec
 optimizer setup                ...        0 min,  0.000 sec (  0.074%)
 model hessian                  ...        0 min,  0.011 sec (  3.307%)
 ANC generation                 ...        0 min,  0.004 sec (  1.100%)
 coordinate transformation      ...        0 min,  0.000 sec (  0.088%)
 single point calculation       ...        0 min,  0.289 sec ( 90.723%)
 optimization log               ...        0 min,  0.005 sec (  1.536%)
 hessian update                 ...        0 min,  0.001 sec (  0.373%)
 rational function              ...        0 min,  0.007 sec (  2.170%)

================
 final structure:
================
19
 xtb: 6.6.0 (conda-forge)
Fe          -0.78006553251855        0.70984857027475        0.02349579389128
O           -1.57251117232866        2.75183936843688        0.21107536799871
H           -1.98142433462814        3.30315860462223       -0.46954483138419
O            1.18822857603172        1.67337799026996       -0.19541411496755
H            2.04750679301265        1.25387209423000       -0.33499722366048
O           -0.42068789468141        0.82837796993632        2.19084792107342
H           -0.98957989705712        0.51720418316258        2.90743755858488
O           -0.73718995829567       -1.42688075673182        0.54549886604068
H           -1.46678129942004       -2.05783750803188        0.48544880458623
O           -2.87608405580398        0.38150592782843       -0.55297953787835
H           -3.20966366503934        0.09301504835470       -1.41298038028704
O           -0.28942878530585        0.06905940301953       -2.02165113801018
H           -0.16529831577100        0.61540612050945       -2.80947156155758
H           -0.08455116085088       -0.83079268857008       -2.30846365725355
H            1.36541090118822        2.62219261615257       -0.24406353258009
H           -1.63902278689046        3.26729412722004        1.02556576980787
H           -3.66631694795816        0.54847867385952       -0.02255025858447
H            0.38172509777689        1.14514036231812        2.62615419620192
H           -0.01578313148194       -1.91818033687159        0.96063736797501

 Bond Distances (Angstroems)
 ---------------------------
Fe1-O2=2.1984        Fe1-O4=2.2024        Fe1-O6=2.2001        Fe1-O8=2.2000        Fe1-O10=2.1985       Fe1-O12=2.1986       
O2-Fe1=2.1984        O2-H3=0.9666         O2-H16=0.9662        H3-O2=0.9666         O4-Fe1=2.2024        O4-H5=0.9663         
O4-H15=0.9664        H5-O4=0.9663         O6-Fe1=2.2001        O6-H7=0.9664         O6-H18=0.9663        H7-O6=0.9664         
O8-Fe1=2.2000        O8-H9=0.9664         O8-H19=0.9665        H9-O8=0.9664         O10-Fe1=2.1985       O10-H11=0.9665       
O10-H17=0.9663       H11-O10=0.9665       O12-Fe1=2.1986       O12-H13=0.9667       O12-H14=0.9664       H13-O12=0.9667       
H14-O12=0.9664       H15-O4=0.9664        H16-O2=0.9662        H17-O10=0.9663       H18-O6=0.9663        H19-O8=0.9665        
 O  H  Rav=0.9664 sigma=0.0001  Rmin=0.9662  Rmax=0.9667    12
 Fe O  Rav=2.1997 sigma=0.0014  Rmin=2.1984  Rmax=2.2024     6

 selected bond angles (degree)
 --------------------
O4-Fe1-O2= 85.66               O6-Fe1-O2= 85.69               O6-Fe1-O4= 85.89               O8-Fe1-O2=152.74               
O8-Fe1-O4=115.54               O8-Fe1-O6= 79.36               O10-Fe1-O2= 79.48              O10-Fe1-O4=153.04              
O10-Fe1-O6=114.97              O10-Fe1-O8= 86.32              O12-Fe1-O2=115.50              O12-Fe1-O4= 80.54              
O12-Fe1-O6=153.58              O12-Fe1-O8= 86.18              O12-Fe1-O10= 85.72             H3-O2-Fe1=128.48               
H16-O2-Fe1=126.32              H16-O2-H3=105.08               H5-O4-Fe1=128.25               H15-O4-Fe1=126.75              
H15-O4-H5=104.83               H7-O6-Fe1=128.09               H18-O6-Fe1=126.66              H18-O6-H7=105.09               
H9-O8-Fe1=127.20               H19-O8-Fe1=127.60              H19-O8-H9=104.97               H11-O10-Fe1=127.37             
H17-O10-Fe1=127.59             H17-O10-H11=104.94             

 selected dihedral angles (degree)
 ---------------------------------
H3-O2-Fe1-O4= 97.78           H3-O2-Fe1-O6=183.98           H3-O2-Fe1-O8=240.57           H3-O2-Fe1-O10=300.37          
H3-O2-Fe1-O12= 20.42          H16-O2-Fe1-O4=273.08          H16-O2-Fe1-O6=359.28          H16-O2-Fe1-O8= 55.88          
H16-O2-Fe1-O10=115.67         H16-O2-Fe1-O12=195.73         H5-O4-Fe1-O2=180.72           H5-O4-Fe1-O6= 94.74           
H5-O4-Fe1-O8= 18.60           H5-O4-Fe1-O10=237.14          H5-O4-Fe1-O12=297.49          H15-O4-Fe1-O2=355.29          
H15-O4-Fe1-O6=269.31          H15-O4-Fe1-O8=193.16          H15-O4-Fe1-O10= 51.70         H15-O4-Fe1-O12=112.05         
H7-O6-Fe1-O2= 95.12           H7-O6-Fe1-O4=181.06           H7-O6-Fe1-O8=298.01           H7-O6-Fe1-O10= 18.83          
H7-O6-Fe1-O12=240.06          H18-O6-Fe1-O2=269.91          H18-O6-Fe1-O4=355.85          H18-O6-Fe1-O8=112.80          
H18-O6-Fe1-O10=193.62         H18-O6-Fe1-O12= 54.85         H9-O8-Fe1-O2= 57.15           H9-O8-Fe1-O4=195.22           
H9-O8-Fe1-O6=115.04           H9-O8-Fe1-O10=358.78          H9-O8-Fe1-O12=272.83          H19-O8-Fe1-O2=243.46          
H19-O8-Fe1-O4= 21.52          H19-O8-Fe1-O6=301.34          H19-O8-Fe1-O10=185.08         H19-O8-Fe1-O12= 99.14         
H11-O10-Fe1-O2=115.76         H11-O10-Fe1-O4= 58.10         H11-O10-Fe1-O6=195.92         H11-O10-Fe1-O8=272.39         
H11-O10-Fe1-O12=358.82        H17-O10-Fe1-O2=300.10         H17-O10-Fe1-O4=242.45         H17-O10-Fe1-O6= 20.27         
H17-O10-Fe1-O8= 96.73         H17-O10-Fe1-O12=183.17        

 CMA Distance (Angstroems)
 ---------------------------
R(CMA):  1.3580
           -------------------------------------------------
          |                Final Singlepoint                |
           -------------------------------------------------

          ...................................................
          :                      SETUP                      :
          :.................................................:
          :  # basis functions                  46          :
          :  # atomic orbitals                  45          :
          :  # shells                           27          :
          :  # electrons                        53          :
          :  max. iterations                   250          :
          :  Hamiltonian                  GFN2-xTB          :
          :  restarted?                      false          :
          :  GBSA solvation                   true          :
          :  PC potential                    false          :
          :  electronic temp.          300.0000000     K    :
          :  accuracy                    1.0000000          :
          :  -> integral cutoff          0.2500000E+02      :
          :  -> integral neglect         0.1000000E-07      :
          :  -> SCF convergence          0.1000000E-05 Eh   :
          :  -> wf. convergence          0.1000000E-03 e    :
          :  Broyden damping             0.4000000          :
          ...................................................

 iter      E             dE          RMSdq      gap      omega  full diag
   1    -32.9610334 -0.329610E+02  0.202E-05    9.60       0.0  T
   2    -32.9610334 -0.198952E-12  0.104E-05    9.60    2204.0  T
   3    -32.9610334  0.284217E-13  0.350E-06    9.60    6555.7  T

   *** convergence criteria satisfied after 3 iterations ***

         #    Occupation            Energy/Eh            Energy/eV
      -------------------------------------------------------------
         1        2.0000           -0.7125341             -19.3890
       ...           ...                  ...                  ...
        23        2.0000           -0.4810494             -13.0900
        24        2.0000           -0.4798650             -13.0578
        25        1.0000           -0.4294094             -11.6848
        26        1.0000           -0.4272077             -11.6249
        27        1.0000           -0.4269431             -11.6177
        28        1.0000           -0.3968680             -10.7993
        29        1.0000           -0.3965816             -10.7915 (HOMO)
        30                         -0.0439343              -1.1955 (LUMO)
        31                          0.0479396               1.3045
        32                          0.0545905               1.4855
        33                          0.0552065               1.5022
        34                          0.1203688               3.2754
       ...                                ...                  ...
        45                          1.0954815              29.8096
      -------------------------------------------------------------
                  HL-Gap            0.3526473 Eh            9.5960 eV
             Fermi-level           -0.3374000 Eh           -9.1811 eV

 SCC (total)                   0 d,  0 h,  0 min,  0.003 sec
 SCC setup                      ...        0 min,  0.000 sec (  5.606%)
 Dispersion                     ...        0 min,  0.000 sec (  1.987%)
 classical contributions        ...        0 min,  0.000 sec (  1.090%)
 integral evaluation            ...        0 min,  0.001 sec ( 14.830%)
 iterations                     ...        0 min,  0.001 sec ( 41.653%)
 molecular gradient             ...        0 min,  0.001 sec ( 33.169%)
 printout                       ...        0 min,  0.000 sec (  1.432%)

         :::::::::::::::::::::::::::::::::::::::::::::::::::::
         ::                     SUMMARY                     ::
         :::::::::::::::::::::::::::::::::::::::::::::::::::::
         :: total energy             -32.767433480301 Eh    ::
         :: total w/o Gsasa/hb       -32.680669492332 Eh    ::
         :: gradient norm              0.000147745856 Eh/a0 ::
         :: HOMO-LUMO gap              9.596022089416 eV    ::
         ::.................................................::
         :: SCC energy               -32.961033394831 Eh    ::
         :: -> isotropic ES            0.789088937700 Eh    ::
         :: -> anisotropic ES         -0.024228021530 Eh    ::
         :: -> anisotropic XC          0.002400778101 Eh    ::
         :: -> dispersion             -0.006006963448 Eh    ::
         :: -> Gsolv                  -0.783102661933 Eh    ::
         ::    -> Gelec               -0.696338673965 Eh    ::
         ::    -> Gsasa               -0.000282923308 Eh    ::
         ::    -> Ghb                 -0.087561824359 Eh    ::
         ::    -> Gshift               0.001080759698 Eh    ::
         :: repulsion energy           0.193471417007 Eh    ::
         :: add. restraining           0.000000000000 Eh    ::
         :: total charge               3.000000000001 e     ::
         :::::::::::::::::::::::::::::::::::::::::::::::::::::

           -------------------------------------------------
          |                Property Printout                |
           -------------------------------------------------

    * Orbital Energies and Occupations

         #    Occupation            Energy/Eh            Energy/eV
      -------------------------------------------------------------
         1        2.0000           -0.7125341             -19.3890
       ...           ...                  ...                  ...
        17        2.0000           -0.5463928             -14.8681
        18        2.0000           -0.5463269             -14.8663
        19        2.0000           -0.4900856             -13.3359
        20        2.0000           -0.4895510             -13.3214
        21        2.0000           -0.4891293             -13.3099
        22        2.0000           -0.4816790             -13.1072
        23        2.0000           -0.4810494             -13.0900
        24        2.0000           -0.4798650             -13.0578
        25        1.0000           -0.4294094             -11.6848
        26        1.0000           -0.4272077             -11.6249
        27        1.0000           -0.4269431             -11.6177
        28        1.0000           -0.3968680             -10.7993
        29        1.0000           -0.3965816             -10.7915 (HOMO)
        30                         -0.0439343              -1.1955 (LUMO)
        31                          0.0479396               1.3045
        32                          0.0545905               1.4855
        33                          0.0552065               1.5022
        34                          0.1203688               3.2754
        35                          0.1207297               3.2852
        36                          0.2559042               6.9635
        37                          0.2569266               6.9913
        38                          0.2570550               6.9948
        39                          0.2573627               7.0032
        40                          0.2576282               7.0104
       ...                                ...                  ...
        45                          1.0954815              29.8096
      -------------------------------------------------------------
                  HL-Gap            0.3526473 Eh            9.5960 eV
             Fermi-level           -0.3374000 Eh           -9.1811 eV

     #   Z          covCN         q      C6AA      α(0)
     1  26 Fe       2.522     1.806     4.498     6.841
     2   8 O        2.032    -0.651    26.353     6.933
     3   1 H        0.805     0.427     0.437     1.039
     4   8 O        2.026    -0.652    26.370     6.935
     5   1 H        0.805     0.426     0.439     1.041
     6   8 O        2.029    -0.652    26.370     6.935
     7   1 H        0.805     0.427     0.438     1.040
     8   8 O        2.029    -0.652    26.368     6.935
     9   1 H        0.805     0.425     0.442     1.044
    10   8 O        2.031    -0.651    26.351     6.933
    11   1 H        0.805     0.425     0.442     1.044
    12   8 O        2.031    -0.652    26.382     6.937
    13   1 H        0.805     0.427     0.438     1.039
    14   1 H        0.805     0.424     0.442     1.045
    15   1 H        0.805     0.423     0.444     1.046
    16   1 H        0.805     0.424     0.443     1.046
    17   1 H        0.805     0.426     0.439     1.041
    18   1 H        0.805     0.424     0.443     1.046
    19   1 H        0.805     0.426     0.439     1.041

 Mol. C6AA /au·bohr⁶  :       1591.398292
 Mol. C8AA /au·bohr⁸  :      31681.437253
 Mol. α(0) /au        :         60.960237


Wiberg/Mayer (AO) data.
largest (>0.10) Wiberg bond orders for each atom

 ---------------------------------------------------------------------------
     #   Z sym  total        # sym  WBO       # sym  WBO       # sym  WBO
 ---------------------------------------------------------------------------
     1  26 Fe   1.699 --    10 O    0.280     2 O    0.280    12 O    0.280
                             8 O    0.280     6 O    0.279     4 O    0.278
     2   8 O    1.918 --    16 H    0.812     3 H    0.809     1 Fe   0.280
     3   1 H    0.812 --     2 O    0.809
     4   8 O    1.917 --    15 H    0.812     5 H    0.810     1 Fe   0.278
     5   1 H    0.813 --     4 O    0.810
     6   8 O    1.917 --    18 H    0.812     7 H    0.810     1 Fe   0.279
     7   1 H    0.813 --     6 O    0.810
     8   8 O    1.917 --     9 H    0.811    19 H    0.810     1 Fe   0.280
     9   1 H    0.814 --     8 O    0.811
    10   8 O    1.918 --    11 H    0.811    17 H    0.810     1 Fe   0.280
    11   1 H    0.814 --    10 O    0.811
    12   8 O    1.917 --    14 H    0.812    13 H    0.809     1 Fe   0.280
    13   1 H    0.812 --    12 O    0.809
    14   1 H    0.814 --    12 O    0.812
    15   1 H    0.815 --     4 O    0.812
    16   1 H    0.815 --     2 O    0.812
    17   1 H    0.813 --    10 O    0.810
    18   1 H    0.815 --     6 O    0.812
    19   1 H    0.813 --     8 O    0.810
 ---------------------------------------------------------------------------

Topologies differ in total number of bonds
Writing topology from bond orders to xtbtopo.mol

molecular dipole:
                 x           y           z       tot (Debye)
 q only:       -4.450       4.033       0.179
   full:       -4.449       4.033       0.186      15.269
molecular quadrupole (traceless):
                xx          xy          yy          xz          yz          zz
 q only:        2.822      -7.495       3.396       0.870       2.382      -6.218
  q+dip:        2.744      -7.381       3.480       0.966       2.530      -6.224
   full:        2.755      -7.415       3.465       0.984       2.513      -6.221

           -------------------------------------------------
          |                Geometry Summary                 |
           -------------------------------------------------

      molecular mass/u    :      163.9368629
   center of mass at/Å    :       -0.7831153       0.7118744       0.0277938
  moments of inertia/u·Å² :        0.3511949E+03   0.3894279E+03   0.3904953E+03
rotational constants/cm⁻¹ :        0.4800078E-01   0.4328820E-01   0.4316988E-01

 * 12 selected distances

     #   Z          #   Z                                           value/Å
     2   8 O        3   1 H                                       0.9666472
     4   8 O        5   1 H                                       0.9663477
     6   8 O        7   1 H                                       0.9664203
     8   8 O        9   1 H                                       0.9664451
    10   8 O       11   1 H                                       0.9664905
    12   8 O       13   1 H                                       0.9667287 (max)
    12   8 O       14   1 H                                       0.9664213
     4   8 O       15   1 H                                       0.9664418
     2   8 O       16   1 H                                       0.9661843 (min)
    10   8 O       17   1 H                                       0.9662832
     6   8 O       18   1 H                                       0.9662799
     8   8 O       19   1 H                                       0.9665109

 * 1 distinct bonds (by element types)

   Z      Z             #   av. dist./Å        max./Å        min./Å
   1 H    8 O          12     0.9664334     0.9667287     0.9661843


optimized geometry written to: xtbopt.xyz


           -------------------------------------------------
          | TOTAL ENERGY              -32.767433480301 Eh   |
          | GRADIENT NORM               0.000147745856 Eh/α |
          | HOMO-LUMO GAP               9.596022089416 eV   |
           -------------------------------------------------

------------------------------------------------------------------------
 * finished run on 2024/05/10 at 17:51:29.655     
------------------------------------------------------------------------
 total:
 * wall-time:     0 d,  0 h,  0 min,  9.400 sec
 *  cpu-time:     0 d,  0 h,  0 min,  3.909 sec
 * ratio c/w:     0.416 speedup
 SCF:
 * wall-time:     0 d,  0 h,  0 min,  0.024 sec
 *  cpu-time:     0 d,  0 h,  0 min,  0.131 sec
 * ratio c/w:     5.423 speedup
 ANC optimizer:
 * wall-time:     0 d,  0 h,  0 min,  0.323 sec
 *  cpu-time:     0 d,  0 h,  0 min,  2.178 sec
 * ratio c/w:     6.738 speedup

