      -----------------------------------------------------------      
     |                   =====================                   |     
     |                           x T B                           |     
     |                   =====================                   |     
     |                         S. Grimme                         |     
     |          Mulliken Center for Theoretical Chemistry        |     
     |                    University of Bonn                     |     
      -----------------------------------------------------------      

   * xtb version 6.6.0 (conda-forge) compiled by 'runner@Mac-1676020848589.local' on 2023-02-10

   xtb is free software: you can redistribute it and/or modify it under
   the terms of the GNU Lesser General Public License as published by
   the Free Software Foundation, either version 3 of the License, or
   (at your option) any later version.
   
   xtb is distributed in the hope that it will be useful,
   but WITHOUT ANY WARRANTY; without even the implied warranty of
   MERCHANTABILITY or FITNESS FOR A PARTICULAR PURPOSE.  See the
   GNU Lesser General Public License for more details.
   
   Cite this work as:
   * C. Bannwarth, E. Caldeweyher, S. Ehlert, A. Hansen, P. Pracht,
     J. Seibert, S. Spicher, S. Grimme, WIREs Comput. Mol. Sci., 2020, 11,
     e01493. DOI: 10.1002/wcms.1493
   
   for GFN2-xTB:
   * C. Bannwarth, S. Ehlert and S. Grimme., J. Chem. Theory Comput., 2019,
     15, 1652-1671. DOI: 10.1021/acs.jctc.8b01176
   for GFN1-xTB:
   * S. Grimme, C. Bannwarth, P. Shushkov, J. Chem. Theory Comput., 2017,
     13, 1989-2009. DOI: 10.1021/acs.jctc.7b00118
   for GFN0-xTB:
   * P. Pracht, E. Caldeweyher, S. Ehlert, S. Grimme, ChemRxiv, 2019, preprint.
     DOI: 10.26434/chemrxiv.8326202.v1
   for GFN-FF:
   * S. Spicher and S. Grimme, Angew. Chem. Int. Ed., 2020, 59, 15665-15673.
     DOI: 10.1002/anie.202004239
   
   for ALPB and GBSA implicit solvation:
   * S. Ehlert, M. Stahn, S. Spicher, S. Grimme, J. Chem. Theory Comput.,
     2021, 17, 4250-4261. DOI: 10.1021/acs.jctc.1c00471
   
   for DFT-D4:
   * E. Caldeweyher, C. Bannwarth and S. Grimme, J. Chem. Phys., 2017,
     147, 034112. DOI: 10.1063/1.4993215
   * E. Caldeweyher, S. Ehlert, A. Hansen, H. Neugebauer, S. Spicher,
     C. Bannwarth and S. Grimme, J. Chem. Phys., 2019, 150, 154122.
     DOI: 10.1063/1.5090222
   * E. Caldeweyher, J.-M. Mewes, S. Ehlert and S. Grimme, Phys. Chem. Chem. Phys.
     2020, 22, 8499-8512. DOI: 10.1039/D0CP00502A
   
   for sTDA-xTB:
   * S. Grimme and C. Bannwarth, J. Chem. Phys., 2016, 145, 054103.
     DOI: 10.1063/1.4959605
   
   in the mass-spec context:
   * V. Asgeirsson, C. Bauer and S. Grimme, Chem. Sci., 2017, 8, 4879.
     DOI: 10.1039/c7sc00601b
   * J. Koopman and S. Grimme, ACS Omega 2019, 4, 12, 15120-15133.
     DOI: 10.1021/acsomega.9b02011
   
   for metadynamics refer to:
   * S. Grimme, J. Chem. Theory Comput., 2019, 155, 2847-2862
     DOI: 10.1021/acs.jctc.9b00143
   
   for SPH calculations refer to:
   * S. Spicher and S. Grimme, J. Chem. Theory Comput., 2021, 17, 1701-1714
     DOI: 10.1021/acs.jctc.0c01306
   
   with help from (in alphabetical order)
   P. Atkinson, C. Bannwarth, F. Bohle, G. Brandenburg, E. Caldeweyher
   M. Checinski, S. Dohm, S. Ehlert, S. Ehrlich, I. Gerasimov, C. Hölzer
   A. Katbashev, J. Koopman, C. Lavigne, S. Lehtola, F. März, M. Müller,
   F. Musil, H. Neugebauer, J. Pisarek, C. Plett, P. Pracht, F. Pultar,
   J. Seibert, P. Shushkov, S. Spicher, M. Stahn, M. Steiner, T. Strunk,
   J. Stückrath, T. Rose, and J. Unsleber
   
 * started run on 2024/05/10 at 17:51:30.125     

           -------------------------------------------------
          |                Calculation Setup                |
           -------------------------------------------------

          program call               : xtb Fe_6H2O_3_6.xyz --gfn2 --chrg 3 --uhf 6 --hess --alpb water
          coordinate file            : Fe_6H2O_3_6.xyz
          omp threads                :                     8

   ID    Z sym.   atoms
    1   26 Fe     1
    2    8 O      2, 4, 6, 8, 10, 12
    3    1 H      3, 5, 7, 9, 11, 13-19

molecular fragmentation (1/2 indicates fragments):
1111111222222211212
# atoms in fragment 1/2:    10     9
 fragment masses (1/2) :      109.89       54.05
CMA distance (Bohr)    :   3.933
constraining FC (au)   :  0.0500

           -------------------------------------------------
          |                 G F N 2 - x T B                 |
           -------------------------------------------------

        Reference                      10.1021/acs.jctc.8b01176
      * Hamiltonian:
        H0-scaling (s, p, d)           1.850000    2.230000    2.230000
        zeta-weighting                 0.500000
      * Dispersion:
        s8                             2.700000
        a1                             0.520000
        a2                             5.000000
        s9                             5.000000
      * Repulsion:
        kExp                           1.500000    1.000000
        rExp                           1.000000
      * Coulomb:
        alpha                          2.000000
        third order                    shell-resolved
        anisotropic                    true
        a3                             3.000000
        a5                             4.000000
        cn-shift                       1.200000
        cn-exp                         4.000000
        max-rad                        5.000000

      * Solvation model:               ALPB
        Solvent                        water
        Parameter file                 internal GFN2-xTB/ALPB
        Dielectric constant                8.0200E+01
        Reference state                gsolv [1 M gas/solution]
        Free energy shift                  1.0808E-03 Eh       6.7819E-01 kcal/mol
        Temperature                        2.9815E+02 K
        Density                            1.0000E+00 kg/L
        Solvent mass                       1.8000E+01 g/mol
        Interaction kernel             P16
        Born radius scaling (c1)           1.4744E+00
        Born radii integrator          GBOBC
        Born offset                        0.0000E+00 a0       0.0000E+00 AA
        H-bond correction              true
        Ion screening                  false
        Surface tension                    1.0000E-05 Eh       1.5569E+01 dyn/cm
        Grid points                               230 per atom
q/qsh data taken from xtbrestart
CAMM data taken from xtbrestart

          ...................................................
          :                      SETUP                      :
          :.................................................:
          :  # basis functions                  46          :
          :  # atomic orbitals                  45          :
          :  # shells                           27          :
          :  # electrons                        53          :
          :  max. iterations                   250          :
          :  Hamiltonian                  GFN2-xTB          :
          :  restarted?                       true          :
          :  GBSA solvation                   true          :
          :  PC potential                    false          :
          :  electronic temp.          300.0000000     K    :
          :  accuracy                    1.0000000          :
          :  -> integral cutoff          0.2500000E+02      :
          :  -> integral neglect         0.1000000E-07      :
          :  -> SCF convergence          0.1000000E-05 Eh   :
          :  -> wf. convergence          0.1000000E-03 e    :
          :  Broyden damping             0.4000000          :
          ...................................................

 iter      E             dE          RMSdq      gap      omega  full diag
   1    -32.9610334 -0.329610E+02  0.733E-07    9.60       0.0  T
   2    -32.9610334  0.213163E-13  0.442E-07    9.60   51934.9  T
   3    -32.9610334  0.426326E-13  0.136E-07    9.60  100000.0  T

   *** convergence criteria satisfied after 3 iterations ***

         #    Occupation            Energy/Eh            Energy/eV
      -------------------------------------------------------------
         1        2.0000           -0.7125341             -19.3890
       ...           ...                  ...                  ...
        23        2.0000           -0.4810494             -13.0900
        24        2.0000           -0.4798650             -13.0578
        25        1.0000           -0.4294094             -11.6848
        26        1.0000           -0.4272077             -11.6249
        27        1.0000           -0.4269431             -11.6177
        28        1.0000           -0.3968680             -10.7993
        29        1.0000           -0.3965816             -10.7915 (HOMO)
        30                         -0.0439343              -1.1955 (LUMO)
        31                          0.0479396               1.3045
        32                          0.0545905               1.4855
        33                          0.0552065               1.5022
        34                          0.1203688               3.2754
       ...                                ...                  ...
        45                          1.0954815              29.8096
      -------------------------------------------------------------
                  HL-Gap            0.3526473 Eh            9.5960 eV
             Fermi-level           -0.3374000 Eh           -9.1811 eV

 SCC (total)                   0 d,  0 h,  0 min,  0.008 sec
 SCC setup                      ...        0 min,  0.001 sec ( 12.244%)
 Dispersion                     ...        0 min,  0.000 sec (  1.974%)
 classical contributions        ...        0 min,  0.000 sec (  0.647%)
 integral evaluation            ...        0 min,  0.001 sec (  9.689%)
 iterations                     ...        0 min,  0.004 sec ( 56.174%)
 molecular gradient             ...        0 min,  0.001 sec ( 17.470%)
 printout                       ...        0 min,  0.000 sec (  1.554%)

         :::::::::::::::::::::::::::::::::::::::::::::::::::::
         ::                     SUMMARY                     ::
         :::::::::::::::::::::::::::::::::::::::::::::::::::::
         :: total energy             -32.767433480301 Eh    ::
         :: total w/o Gsasa/hb       -32.680669493314 Eh    ::
         :: gradient norm              0.000147749700 Eh/a0 ::
         :: HOMO-LUMO gap              9.596022179951 eV    ::
         ::.................................................::
         :: SCC energy               -32.961033394831 Eh    ::
         :: -> isotropic ES            0.789088934209 Eh    ::
         :: -> anisotropic ES         -0.024228021315 Eh    ::
         :: -> anisotropic XC          0.002400778174 Eh    ::
         :: -> dispersion             -0.006006963453 Eh    ::
         :: -> Gsolv                  -0.783102663511 Eh    ::
         ::    -> Gelec               -0.696338676525 Eh    ::
         ::    -> Gsasa               -0.000282923308 Eh    ::
         ::    -> Ghb                 -0.087561823377 Eh    ::
         ::    -> Gshift               0.001080759698 Eh    ::
         :: repulsion energy           0.193471417007 Eh    ::
         :: add. restraining           0.000000000000 Eh    ::
         :: total charge               3.000000000001 e     ::
         :::::::::::::::::::::::::::::::::::::::::::::::::::::

           ------------------------------------------------- 
          |                Numerical Hessian                |
           ------------------------------------------------- 
step length          :   0.00500
SCC accuracy         :   0.30000
Hessian scale factor :   1.00000
frozen atoms in %    :   0.00000    0
RMS gradient         :   0.00015
estimated CPU  time      0.01 min
estimated wall time      0.00 min

writing file <hessian>.

 projected vibrational frequencies (cm⁻¹)
eigval :       -0.00    -0.00     0.00     0.00     0.00     0.00
eigval :       47.69    64.49    76.83    96.65   122.56   125.57
eigval :      132.49   139.88   145.88   192.76   212.09   229.97
eigval :      242.64   252.59   268.95   276.82   293.32   298.45
eigval :      308.97   311.73   330.80   384.15   395.85   433.90
eigval :      457.84   463.62   478.39   512.74   552.05   571.22
eigval :      584.62   602.53   605.18  1427.88  1432.22  1435.65
eigval :     1443.79  1448.73  1465.13  3487.41  3488.88  3492.43
eigval :     3493.22  3493.73  3494.69  3538.48  3540.55  3543.25
eigval :     3546.86  3548.59  3552.02
           -------------------------------------------------
          |                Property Printout                |
           -------------------------------------------------

    * Orbital Energies and Occupations

         #    Occupation            Energy/Eh            Energy/eV
      -------------------------------------------------------------
         1        2.0000           -0.7125341             -19.3890
       ...           ...                  ...                  ...
        17        2.0000           -0.5463928             -14.8681
        18        2.0000           -0.5463269             -14.8663
        19        2.0000           -0.4900856             -13.3359
        20        2.0000           -0.4895510             -13.3214
        21        2.0000           -0.4891293             -13.3099
        22        2.0000           -0.4816790             -13.1072
        23        2.0000           -0.4810494             -13.0900
        24        2.0000           -0.4798650             -13.0578
        25        1.0000           -0.4294094             -11.6848
        26        1.0000           -0.4272077             -11.6249
        27        1.0000           -0.4269431             -11.6177
        28        1.0000           -0.3968680             -10.7993
        29        1.0000           -0.3965816             -10.7915 (HOMO)
        30                         -0.0439343              -1.1955 (LUMO)
        31                          0.0479396               1.3045
        32                          0.0545905               1.4855
        33                          0.0552065               1.5022
        34                          0.1203688               3.2754
        35                          0.1207297               3.2852
        36                          0.2559042               6.9635
        37                          0.2569265               6.9913
        38                          0.2570550               6.9948
        39                          0.2573627               7.0032
        40                          0.2576282               7.0104
       ...                                ...                  ...
        45                          1.0954815              29.8096
      -------------------------------------------------------------
                  HL-Gap            0.3526473 Eh            9.5960 eV
             Fermi-level           -0.3374000 Eh           -9.1811 eV

     #   Z          covCN         q      C6AA      α(0)
     1  26 Fe       2.522     1.806     4.498     6.841
     2   8 O        2.032    -0.651    26.353     6.933
     3   1 H        0.805     0.427     0.437     1.039
     4   8 O        2.026    -0.652    26.370     6.935
     5   1 H        0.805     0.426     0.439     1.041
     6   8 O        2.029    -0.652    26.370     6.935
     7   1 H        0.805     0.427     0.438     1.040
     8   8 O        2.029    -0.652    26.368     6.935
     9   1 H        0.805     0.425     0.442     1.044
    10   8 O        2.031    -0.651    26.351     6.933
    11   1 H        0.805     0.425     0.442     1.044
    12   8 O        2.031    -0.652    26.382     6.937
    13   1 H        0.805     0.427     0.438     1.039
    14   1 H        0.805     0.424     0.442     1.045
    15   1 H        0.805     0.423     0.444     1.046
    16   1 H        0.805     0.424     0.443     1.046
    17   1 H        0.805     0.426     0.439     1.041
    18   1 H        0.805     0.424     0.443     1.046
    19   1 H        0.805     0.426     0.439     1.041

 Mol. C6AA /au·bohr⁶  :       1591.398290
 Mol. C8AA /au·bohr⁸  :      31681.437167
 Mol. α(0) /au        :         60.960237


Wiberg/Mayer (AO) data.
largest (>0.10) Wiberg bond orders for each atom

 ---------------------------------------------------------------------------
     #   Z sym  total        # sym  WBO       # sym  WBO       # sym  WBO
 ---------------------------------------------------------------------------
     1  26 Fe   1.699 --    10 O    0.280     2 O    0.280    12 O    0.280
                             8 O    0.280     6 O    0.279     4 O    0.278
     2   8 O    1.918 --    16 H    0.812     3 H    0.809     1 Fe   0.280
     3   1 H    0.812 --     2 O    0.809
     4   8 O    1.917 --    15 H    0.812     5 H    0.810     1 Fe   0.278
     5   1 H    0.813 --     4 O    0.810
     6   8 O    1.917 --    18 H    0.812     7 H    0.810     1 Fe   0.279
     7   1 H    0.813 --     6 O    0.810
     8   8 O    1.917 --     9 H    0.811    19 H    0.810     1 Fe   0.280
     9   1 H    0.814 --     8 O    0.811
    10   8 O    1.918 --    11 H    0.811    17 H    0.810     1 Fe   0.280
    11   1 H    0.814 --    10 O    0.811
    12   8 O    1.917 --    14 H    0.812    13 H    0.809     1 Fe   0.280
    13   1 H    0.812 --    12 O    0.809
    14   1 H    0.814 --    12 O    0.812
    15   1 H    0.815 --     4 O    0.812
    16   1 H    0.815 --     2 O    0.812
    17   1 H    0.813 --    10 O    0.810
    18   1 H    0.815 --     6 O    0.812
    19   1 H    0.813 --     8 O    0.810
 ---------------------------------------------------------------------------

Topologies differ in total number of bonds
Writing topology from bond orders to xtbtopo.mol

molecular dipole:
                 x           y           z       tot (Debye)
 q only:       -4.450       4.033       0.179
   full:       -4.449       4.033       0.186      15.269
molecular quadrupole (traceless):
                xx          xy          yy          xz          yz          zz
 q only:        2.822      -7.495       3.396       0.870       2.382      -6.218
  q+dip:        2.744      -7.381       3.480       0.966       2.530      -6.225
   full:        2.755      -7.415       3.465       0.984       2.513      -6.221

           -------------------------------------------------
          |               Frequency Printout                |
           -------------------------------------------------
 projected vibrational frequencies (cm⁻¹)
eigval :       -0.00    -0.00     0.00     0.00     0.00     0.00
eigval :       47.69    64.49    76.83    96.65   122.56   125.57
eigval :      132.49   139.88   145.88   192.76   212.09   229.97
eigval :      242.64   252.59   268.95   276.82   293.32   298.45
eigval :      308.97   311.73   330.80   384.15   395.85   433.90
eigval :      457.84   463.62   478.39   512.74   552.05   571.22
eigval :      584.62   602.53   605.18  1427.88  1432.22  1435.65
eigval :     1443.79  1448.73  1465.13  3487.41  3488.88  3492.43
eigval :     3493.22  3493.73  3494.69  3538.48  3540.55  3543.25
eigval :     3546.86  3548.59  3552.02
 reduced masses (amu)
   1: 20.18   2: 25.90   3: 20.59   4: 21.27   5: 20.49   6: 16.92   7: 13.69   8: 14.01
   9: 14.95  10: 23.36  11: 15.66  12: 20.44  13: 15.22  14: 22.75  15: 13.31  16:  4.48
  17:  4.23  18:  6.46  19: 13.08  20:  8.03  21:  4.75  22:  5.95  23: 21.11  24: 16.21
  25: 25.09  26: 25.97  27:  4.32  28:  3.37  29:  3.24  30:  4.06  31:  3.00  32:  2.64
  33:  2.62  34:  4.42  35:  4.25  36:  3.91  37:  2.66  38:  2.80  39:  2.56  40:  2.00
  41:  1.99  42:  1.99  43:  1.97  44:  1.95  45:  1.96  46:  2.11  47:  2.11  48:  2.11
  49:  2.11  50:  2.10  51:  2.11  52:  1.56  53:  1.56  54:  1.55  55:  1.55  56:  1.55
  57:  1.58
 IR intensities (km·mol⁻¹)
   1: 23.88   2: 44.63   3: 25.64   4: 28.17   5: 25.74   6: 12.66   7:  0.22   8:  0.13
   9:  0.58  10:  0.48  11:  0.32  12:  0.59  13:  2.75  14:  1.08  15:  0.61  16:  0.85
  17:  7.37  18:  9.50  19:  2.14  20:  1.52  21: 21.65  22:  9.53  23: 39.35  24: 38.37
  25: 23.99  26: 31.89  27: 21.76  28: 48.60  29: 83.38  30: 24.17  31: 26.25  32: 43.04
  33:181.93  34:******  35:******  36:******  37: 84.52  38:209.38  39: 66.61  40:127.78
  41:144.36  42:347.93  43:289.73  44:209.31  45: 29.09  46:339.31  47:311.14  48:501.52
  49:529.75  50: 51.96  51: 72.66  52:685.70  53:525.97  54:375.35  55:195.64  56: 22.76
Refinement of some symmetry elements was terminated before convergence was reached.
Some symmetry elements may remain unidentified.
Molecule has the following symmetry elements: (C2) 
It seems to be the C2 point group
  57: 18.47
 Raman intensities (amu)
   1:  0.00   2:  0.00   3:  0.00   4:  0.00   5:  0.00   6:  0.00   7:  0.00   8:  0.00
   9:  0.00  10:  0.00  11:  0.00  12:  0.00  13:  0.00  14:  0.00  15:  0.00  16:  0.00
  17:  0.00  18:  0.00  19:  0.00  20:  0.00  21:  0.00  22:  0.00  23:  0.00  24:  0.00
  25:  0.00  26:  0.00  27:  0.00  28:  0.00  29:  0.00  30:  0.00  31:  0.00  32:  0.00
  33:  0.00  34:  0.00  35:  0.00  36:  0.00  37:  0.00  38:  0.00  39:  0.00  40:  0.00
  41:  0.00  42:  0.00  43:  0.00  44:  0.00  45:  0.00  46:  0.00  47:  0.00  48:  0.00
  49:  0.00  50:  0.00  51:  0.00  52:  0.00  53:  0.00  54:  0.00  55:  0.00  56:  0.00
  57:  0.00
 output can be read by thermo (or use thermo option).
 writing <g98.out> molden fake output.
 recommended (thermochemical) frequency scaling factor: 1.0
           -------------------------------------------------
          |             Thermodynamic Functions             |
           -------------------------------------------------

c2  symmetry found (for desy threshold:  0.10E+00) used in thermo

          ...................................................
          :                      SETUP                      :
          :.................................................:
          :  # frequencies                          51      :
          :  # imaginary freq.                       0      :
          :  linear?                             false      :
          :  only rotor calc.                    false      :
          :  symmetry                               c2      :
          :  rotational number                       2      :
          :  scaling factor                  1.0000000      :
          :  rotor cutoff                   50.0000000 cm⁻¹ :
          :  imag. cutoff                  -20.0000000 cm⁻¹ :
          :.................................................:

    mode    ω/cm⁻¹     T·S(HO)/kcal·mol⁻¹    T·S(FR)/kcal·mol⁻¹   T·S(vib)
   ------------------------------------------------------------------------
       1     47.69    -1.46416 ( 45.29%)    -1.07027 ( 54.71%)    -1.24866
       2     64.49    -1.28645 ( 73.46%)    -0.98095 ( 26.54%)    -1.20537
       3     76.83    -1.18375 ( 84.79%)    -0.92913 ( 15.21%)    -1.14502
       4     96.65    -1.04974 ( 93.31%)    -0.86118 (  6.69%)    -1.03714
       5    122.56    -0.91223 ( 97.30%)    -0.79084 (  2.70%)    -0.90896
       6    125.57    -0.89825 ( 97.55%)    -0.78364 (  2.45%)    -0.89544
       7    132.49    -0.86750 ( 98.01%)    -0.76777 (  1.99%)    -0.86552
       8    139.88    -0.83646 ( 98.39%)    -0.75169 (  1.61%)    -0.83509
       9    145.88    -0.81256 ( 98.64%)    -0.73926 (  1.36%)    -0.81156
      10    192.76    -0.65627 ( 99.55%)    -0.65673 (  0.45%)    -0.65627
      11    212.09    -0.60394 ( 99.69%)    -0.62843 (  0.31%)    -0.60402
      12    229.97    -0.56028 ( 99.78%)    -0.60445 (  0.22%)    -0.56038
      13    242.64    -0.53172 ( 99.82%)    -0.58856 (  0.18%)    -0.53182
      14    252.59    -0.51056 ( 99.85%)    -0.57666 (  0.15%)    -0.51066
      15    268.95    -0.47791 ( 99.88%)    -0.55807 (  0.12%)    -0.47801
      16    276.82    -0.46310 ( 99.89%)    -0.54953 (  0.11%)    -0.46319
      17    293.32    -0.43372 ( 99.92%)    -0.53238 (  0.08%)    -0.43381
      18    298.45    -0.42503 ( 99.92%)    -0.52724 (  0.08%)    -0.42511
   ------------------------------------------------------------------------

   temp. (K)  partition function   enthalpy   heat capacity  entropy
                                   cal/mol     cal/K/mol   cal/K/mol   J/K/mol
 298.15  VIB  0.117E+07             9329.326     52.544     57.860
         ROT  0.279E+06              888.752      2.981     27.900
         INT  0.327E+12            10218.078     55.525     85.760
         TR   0.203E+28             1481.254      4.968     41.173
         TOT                       11699.3322    60.4928   126.9330   531.0877

       T/K    H(0)-H(T)+PV         H(T)/Eh          T*S/Eh         G(T)/Eh
   ------------------------------------------------------------------------
    298.15    0.186441E-01    0.157810E+00    0.603100E-01    0.974999E-01
   ------------------------------------------------------------------------

         :::::::::::::::::::::::::::::::::::::::::::::::::::::
         ::                  THERMODYNAMIC                  ::
         :::::::::::::::::::::::::::::::::::::::::::::::::::::
         :: total free energy         -32.669933576832 Eh   ::
         ::.................................................::
         :: total energy              -32.767433466681 Eh   ::
         :: zero point energy           0.139165782724 Eh   ::
         :: G(RRHO) w/o ZPVE           -0.041665892875 Eh   ::
         :: G(RRHO) contrib.            0.097499889849 Eh   ::
         :::::::::::::::::::::::::::::::::::::::::::::::::::::

           -------------------------------------------------
          | TOTAL ENERGY              -32.767433466681 Eh   |
          | TOTAL ENTHALPY            -32.609623611319 Eh   |
          | TOTAL FREE ENERGY         -32.669933576832 Eh   |
          | GRADIENT NORM               0.000147771369 Eh/α |
          | HOMO-LUMO GAP               9.596022166115 eV   |
           -------------------------------------------------

------------------------------------------------------------------------
 * finished run on 2024/05/10 at 17:51:30.485     
------------------------------------------------------------------------
 total:
 * wall-time:     0 d,  0 h,  0 min,  0.358 sec
 *  cpu-time:     0 d,  0 h,  0 min,  2.315 sec
 * ratio c/w:     6.462 speedup
 SCF:
 * wall-time:     0 d,  0 h,  0 min,  0.008 sec
 *  cpu-time:     0 d,  0 h,  0 min,  0.047 sec
 * ratio c/w:     6.121 speedup
 analytical hessian:
 * wall-time:     0 d,  0 h,  0 min,  0.137 sec
 *  cpu-time:     0 d,  0 h,  0 min,  0.964 sec
 * ratio c/w:     7.052 speedup

