      -----------------------------------------------------------      
     |                   =====================                   |     
     |                           x T B                           |     
     |                   =====================                   |     
     |                         S. Grimme                         |     
     |          Mulliken Center for Theoretical Chemistry        |     
     |                    University of Bonn                     |     
      -----------------------------------------------------------      

   * xtb version 6.6.0 (conda-forge) compiled by 'runner@Mac-1676020848589.local' on 2023-02-10

   xtb is free software: you can redistribute it and/or modify it under
   the terms of the GNU Lesser General Public License as published by
   the Free Software Foundation, either version 3 of the License, or
   (at your option) any later version.
   
   xtb is distributed in the hope that it will be useful,
   but WITHOUT ANY WARRANTY; without even the implied warranty of
   MERCHANTABILITY or FITNESS FOR A PARTICULAR PURPOSE.  See the
   GNU Lesser General Public License for more details.
   
   Cite this work as:
   * C. Bannwarth, E. Caldeweyher, S. Ehlert, A. Hansen, P. Pracht,
     J. Seibert, S. Spicher, S. Grimme, WIREs Comput. Mol. Sci., 2020, 11,
     e01493. DOI: 10.1002/wcms.1493
   
   for GFN2-xTB:
   * C. Bannwarth, S. Ehlert and S. Grimme., J. Chem. Theory Comput., 2019,
     15, 1652-1671. DOI: 10.1021/acs.jctc.8b01176
   for GFN1-xTB:
   * S. Grimme, C. Bannwarth, P. Shushkov, J. Chem. Theory Comput., 2017,
     13, 1989-2009. DOI: 10.1021/acs.jctc.7b00118
   for GFN0-xTB:
   * P. Pracht, E. Caldeweyher, S. Ehlert, S. Grimme, ChemRxiv, 2019, preprint.
     DOI: 10.26434/chemrxiv.8326202.v1
   for GFN-FF:
   * S. Spicher and S. Grimme, Angew. Chem. Int. Ed., 2020, 59, 15665-15673.
     DOI: 10.1002/anie.202004239
   
   for ALPB and GBSA implicit solvation:
   * S. Ehlert, M. Stahn, S. Spicher, S. Grimme, J. Chem. Theory Comput.,
     2021, 17, 4250-4261. DOI: 10.1021/acs.jctc.1c00471
   
   for DFT-D4:
   * E. Caldeweyher, C. Bannwarth and S. Grimme, J. Chem. Phys., 2017,
     147, 034112. DOI: 10.1063/1.4993215
   * E. Caldeweyher, S. Ehlert, A. Hansen, H. Neugebauer, S. Spicher,
     C. Bannwarth and S. Grimme, J. Chem. Phys., 2019, 150, 154122.
     DOI: 10.1063/1.5090222
   * E. Caldeweyher, J.-M. Mewes, S. Ehlert and S. Grimme, Phys. Chem. Chem. Phys.
     2020, 22, 8499-8512. DOI: 10.1039/D0CP00502A
   
   for sTDA-xTB:
   * S. Grimme and C. Bannwarth, J. Chem. Phys., 2016, 145, 054103.
     DOI: 10.1063/1.4959605
   
   in the mass-spec context:
   * V. Asgeirsson, C. Bauer and S. Grimme, Chem. Sci., 2017, 8, 4879.
     DOI: 10.1039/c7sc00601b
   * J. Koopman and S. Grimme, ACS Omega 2019, 4, 12, 15120-15133.
     DOI: 10.1021/acsomega.9b02011
   
   for metadynamics refer to:
   * S. Grimme, J. Chem. Theory Comput., 2019, 155, 2847-2862
     DOI: 10.1021/acs.jctc.9b00143
   
   for SPH calculations refer to:
   * S. Spicher and S. Grimme, J. Chem. Theory Comput., 2021, 17, 1701-1714
     DOI: 10.1021/acs.jctc.0c01306
   
   with help from (in alphabetical order)
   P. Atkinson, C. Bannwarth, F. Bohle, G. Brandenburg, E. Caldeweyher
   M. Checinski, S. Dohm, S. Ehlert, S. Ehrlich, I. Gerasimov, C. Hölzer
   A. Katbashev, J. Koopman, C. Lavigne, S. Lehtola, F. März, M. Müller,
   F. Musil, H. Neugebauer, J. Pisarek, C. Plett, P. Pracht, F. Pultar,
   J. Seibert, P. Shushkov, S. Spicher, M. Stahn, M. Steiner, T. Strunk,
   J. Stückrath, T. Rose, and J. Unsleber
   
 * started run on 2024/05/10 at 17:51:31.282     

           -------------------------------------------------
          |                Calculation Setup                |
           -------------------------------------------------

          program call               : xtb Fe_6H2O.xyz --opt extreme --gfn2 --chrg 0 --uhf 5 --alpb water
          coordinate file            : Fe_6H2O.xyz
          omp threads                :                     8

   ID    Z sym.   atoms
    1   26 Fe     1
    2    8 O      2, 4, 6, 8, 10, 12
    3    1 H      3, 5, 7, 9, 11, 13-19

molecular fragmentation (1/2 indicates fragments):
1111122222222222222
# atoms in fragment 1/2:     5    14
 fragment masses (1/2) :       89.86       74.08
CMA distance (Bohr)    :   2.664
constraining FC (au)   :  0.0500

           -------------------------------------------------
          |                 G F N 2 - x T B                 |
           -------------------------------------------------

        Reference                      10.1021/acs.jctc.8b01176
      * Hamiltonian:
        H0-scaling (s, p, d)           1.850000    2.230000    2.230000
        zeta-weighting                 0.500000
      * Dispersion:
        s8                             2.700000
        a1                             0.520000
        a2                             5.000000
        s9                             5.000000
      * Repulsion:
        kExp                           1.500000    1.000000
        rExp                           1.000000
      * Coulomb:
        alpha                          2.000000
        third order                    shell-resolved
        anisotropic                    true
        a3                             3.000000
        a5                             4.000000
        cn-shift                       1.200000
        cn-exp                         4.000000
        max-rad                        5.000000

      * Solvation model:               ALPB
        Solvent                        water
        Parameter file                 internal GFN2-xTB/ALPB
        Dielectric constant                8.0200E+01
        Reference state                gsolv [1 M gas/solution]
        Free energy shift                  1.0808E-03 Eh       6.7819E-01 kcal/mol
        Temperature                        2.9815E+02 K
        Density                            1.0000E+00 kg/L
        Solvent mass                       1.8000E+01 g/mol
        Interaction kernel             P16
        Born radius scaling (c1)           1.4744E+00
        Born radii integrator          GBOBC
        Born offset                        0.0000E+00 a0       0.0000E+00 AA
        H-bond correction              true
        Ion screening                  false
        Surface tension                    1.0000E-05 Eh       1.5569E+01 dyn/cm
        Grid points                               230 per atom
q/qsh data taken from xtbrestart
CAMM data taken from xtbrestart

          ...................................................
          :                      SETUP                      :
          :.................................................:
          :  # basis functions                  46          :
          :  # atomic orbitals                  45          :
          :  # shells                           27          :
          :  # electrons                        56          :
          :  max. iterations                   250          :
          :  Hamiltonian                  GFN2-xTB          :
          :  restarted?                       true          :
          :  GBSA solvation                   true          :
          :  PC potential                    false          :
          :  electronic temp.          300.0000000     K    :
          :  accuracy                    1.0000000          :
          :  -> integral cutoff          0.2500000E+02      :
          :  -> integral neglect         0.1000000E-07      :
          :  -> SCF convergence          0.1000000E-05 Eh   :
          :  -> wf. convergence          0.1000000E-03 e    :
          :  Broyden damping             0.4000000          :
          ...................................................

 iter      E             dE          RMSdq      gap      omega  full diag
   1    -33.5634813 -0.335635E+02  0.256E+00    2.17       0.0  T
   2    -33.5942842 -0.308029E-01  0.167E+00    1.82       1.0  T
   3    -33.5994727 -0.518858E-02  0.139E+00    1.58       1.0  T
   4    -33.6015423 -0.206953E-02  0.436E-01    1.42       1.0  T
   5    -33.6017517 -0.209473E-03  0.182E-01    1.36       1.0  T
   6    -33.6017722 -0.204702E-04  0.982E-02    1.36       1.0  T
   7    -33.6017745 -0.231148E-05  0.976E-02    1.36       1.0  T
   8    -33.6017846 -0.100649E-04  0.165E-02    1.36       1.4  T
   9    -33.6017845  0.872550E-07  0.221E-02    1.36       1.0  T
  10    -33.6017847 -0.238948E-06  0.120E-02    1.36       1.9  T
  11    -33.6017848 -0.106111E-06  0.110E-03    1.36      20.9  T
  12    -33.6017848 -0.822070E-09  0.395E-04    1.36      58.0  T
  13    -33.6017848 -0.120210E-09  0.500E-05    1.36     459.2  T

   *** convergence criteria satisfied after 13 iterations ***

         #    Occupation            Energy/Eh            Energy/eV
      -------------------------------------------------------------
         1        2.0000           -0.6312350             -17.1768
       ...           ...                  ...                  ...
        24        2.0000           -0.3887224             -10.5777
        25        1.7138           -0.1442710              -3.9258
        26        1.6436           -0.1439643              -3.9175
        27        1.6426           -0.1439604              -3.9174
        28        1.0000           -0.1277595              -3.4765
        29        1.0000           -0.1277480              -3.4762
        30        1.0000            0.0315127               0.8575 (HOMO)
        31                          0.0813310               2.2131 (LUMO)
        32                          0.0864784               2.3532
        33                          0.0865085               2.3540
        34                          0.1586131               4.3161
        35                          0.1586803               4.3179
       ...                                ...                  ...
        45                          0.7773836              21.1537
      -------------------------------------------------------------
                  HL-Gap            0.0498183 Eh            1.3556 eV
             Fermi-level           -0.0434926 Eh           -1.1835 eV

 SCC (total)                   0 d,  0 h,  0 min,  0.014 sec
 SCC setup                      ...        0 min,  0.001 sec (  4.958%)
 Dispersion                     ...        0 min,  0.000 sec (  1.003%)
 classical contributions        ...        0 min,  0.000 sec (  0.265%)
 integral evaluation            ...        0 min,  0.001 sec (  4.354%)
 iterations                     ...        0 min,  0.011 sec ( 80.382%)
 molecular gradient             ...        0 min,  0.001 sec (  8.147%)
 printout                       ...        0 min,  0.000 sec (  0.773%)

         :::::::::::::::::::::::::::::::::::::::::::::::::::::
         ::                     SUMMARY                     ::
         :::::::::::::::::::::::::::::::::::::::::::::::::::::
         :: total energy             -33.402546995024 Eh    ::
         :: total w/o Gsasa/hb       -33.364025083841 Eh    ::
         :: gradient norm              0.126550310011 Eh/a0 ::
         :: HOMO-LUMO gap              1.355624021146 eV    ::
         ::.................................................::
         :: SCC energy               -33.601784847942 Eh    ::
         :: -> isotropic ES            0.226517070355 Eh    ::
         :: -> anisotropic ES          0.004184637606 Eh    ::
         :: -> anisotropic XC         -0.001005951408 Eh    ::
         :: -> dispersion             -0.005706651593 Eh    ::
         :: -> Gsolv                  -0.048432359718 Eh    ::
         ::    -> Gelec               -0.009910448535 Eh    ::
         ::    -> Gsasa                0.000347282978 Eh    ::
         ::    -> Ghb                 -0.039949953860 Eh    ::
         ::    -> Gshift               0.001080759698 Eh    ::
         :: repulsion energy           0.199098728040 Eh    ::
         :: add. restraining           0.000000000000 Eh    ::
         :: total charge               0.000002104687 e     ::
         :::::::::::::::::::::::::::::::::::::::::::::::::::::

      ----------------------------------------------------------- 
     |                   =====================                   |
     |                        A N C O P T                        |
     |                   =====================                   |
     |               Approximate Normal Coordinate               |
     |                Rational Function Optimizer                |
      ----------------------------------------------------------- 

          ...................................................
          :                      SETUP                      :
          :.................................................:
          :   optimization level           extreme          :
          :   max. optcycles                   380          :
          :   ANC micro-cycles                  20          :
          :   degrees of freedom                51          :
          :.................................................:
          :   RF solver                   davidson          :
          :   write xtbopt.log                true          :
          :   linear?                        false          :
          :   energy convergence         0.5000000E-07 Eh   :
          :   grad. convergence          0.5000000E-04 Eh/α :
          :   maxmium RF displ.          1.0000000          :
          :   Hlow (freq-cutoff)         0.1000000E-01      :
          :   Hmax (freq-cutoff)         5.0000000          :
          :   S6 in model hess.         20.0000000          :
          ...................................................

generating ANC from model Hessian ...
Using Lindh-Hessian (1995)
 Shifting diagonal of input Hessian by    9.9536587581623304E-003
 Lowest  eigenvalues of input Hessian
    0.000000    0.000000    0.000000    0.000000    0.000000    0.000000
    0.010000    0.010044    0.010045    0.010164    0.010165    0.010253
    0.010274    0.010275    0.010391    0.010575    0.010576    0.010590
 Highest eigenvalues
    1.418984    1.419010    1.419177    1.419195    1.419218    1.419317


........................................................................
.............................. CYCLE    1 ..............................
........................................................................

 iter      E             dE          RMSdq      gap      omega  full diag
   1    -33.6017848 -0.336018E+02  0.172E-05    1.36       0.0  T
   2    -33.6017848  0.120792E-12  0.210E-05    1.36    1092.7  T
   3    -33.6017848 -0.412115E-12  0.338E-06    1.36    6778.8  T
     SCC iter.                  ...        0 min,  0.001 sec
     gradient                   ...        0 min,  0.001 sec
 * total energy  :   -33.4025470 Eh     change       -0.1925571E-11 Eh
   gradient norm :     0.1265502 Eh/α   predicted     0.0000000E+00 (-100.00%)
   displ. norm   :     0.4450889 α      lambda       -0.3556142E-01
   maximum displ.:     0.3313966 α      in ANC's #30, #36, #19, ...

........................................................................
.............................. CYCLE    2 ..............................
........................................................................

 iter      E             dE          RMSdq      gap      omega  full diag
   1    -33.5822042 -0.335822E+02  0.379E-01    1.10       0.0  T
   2    -33.5821761  0.280952E-04  0.406E-01    1.09       1.0  T
   3    -33.5822782 -0.102021E-03  0.150E-01    1.09       1.0  T
   4    -33.5822874 -0.921427E-05  0.151E-02    1.09       1.5  T
   5    -33.5822879 -0.490576E-06  0.613E-03    1.09       3.7  T
   6    -33.5822879 -0.322924E-07  0.453E-03    1.09       5.1  T
   7    -33.5822879 -0.183841E-07  0.197E-03    1.09      11.7  T
   8    -33.5822879 -0.662772E-08  0.521E-04    1.09      44.0  T
   9    -33.5822879 -0.237087E-09  0.391E-04    1.09      58.6  T
     SCC iter.                  ...        0 min,  0.004 sec
     gradient                   ...        0 min,  0.001 sec
 * total energy  :   -33.4288205 Eh     change       -0.2627350E-01 Eh
   gradient norm :     0.0456889 Eh/α   predicted    -0.2130922E-01 ( -18.89%)
   displ. norm   :     0.6756544 α      lambda       -0.2176422E-01
   maximum displ.:     0.4694998 α      in ANC's #19, #30, #36, ...

........................................................................
.............................. CYCLE    3 ..............................
........................................................................

 iter      E             dE          RMSdq      gap      omega  full diag
   1    -33.5529135 -0.335529E+02  0.755E-01    0.92       0.0  T
   2    -33.5525978  0.315740E-03  0.936E-01    0.91       1.0  T
   3    -33.5531788 -0.580993E-03  0.286E-01    0.92       1.0  T
   4    -33.5532026 -0.238361E-04  0.258E-02    0.92       1.0  T
   5    -33.5532030 -0.380832E-06  0.180E-02    0.92       1.3  T
   6    -33.5532032 -0.185201E-06  0.755E-03    0.92       3.0  T
   7    -33.5532032 -0.583810E-07  0.315E-03    0.92       7.3  T
   8    -33.5532032 -0.935900E-08  0.173E-03    0.92      13.3  T
   9    -33.5532032 -0.387545E-08  0.512E-04    0.92      44.8  T
  10    -33.5532032 -0.458400E-09  0.330E-04    0.92      69.6  T
     SCC iter.                  ...        0 min,  0.004 sec
     gradient                   ...        0 min,  0.001 sec
 * total energy  :   -33.4436859 Eh     change       -0.1486544E-01 Eh
   gradient norm :     0.0812250 Eh/α   predicted    -0.1584993E-01 (   6.62%)
   displ. norm   :     0.2772496 α      lambda       -0.5563426E-02
   maximum displ.:     0.1698138 α      in ANC's #1, #19, #30, ...

........................................................................
.............................. CYCLE    4 ..............................
........................................................................

 iter      E             dE          RMSdq      gap      omega  full diag
   1    -33.5721194 -0.335721E+02  0.309E-01    0.97       0.0  T
   2    -33.5721037  0.156225E-04  0.424E-01    0.97       1.0  T
   3    -33.5722311 -0.127341E-03  0.980E-02    0.97       1.0  T
   4    -33.5722404 -0.936022E-05  0.270E-02    0.97       1.0  T
   5    -33.5722411 -0.632479E-06  0.242E-02    0.97       1.0  T
   6    -33.5722414 -0.356714E-06  0.454E-03    0.97       5.1  T
   7    -33.5722415 -0.170944E-07  0.280E-03    0.97       8.2  T
   8    -33.5722415 -0.462532E-08  0.206E-03    0.97      11.1  T
   9    -33.5722415 -0.503881E-08  0.233E-04    0.97      98.3  T
  10    -33.5722415 -0.147679E-09  0.110E-04    0.97     209.1  T
     SCC iter.                  ...        0 min,  0.005 sec
     gradient                   ...        0 min,  0.001 sec
 * total energy  :   -33.4467886 Eh     change       -0.3102620E-02 Eh
   gradient norm :     0.0400391 Eh/α   predicted    -0.2995533E-02 (  -3.45%)
   displ. norm   :     0.3119483 α      lambda       -0.4952783E-02
   maximum displ.:     0.2360407 α      in ANC's #19, #1, #24, ...

........................................................................
.............................. CYCLE    5 ..............................
........................................................................

 iter      E             dE          RMSdq      gap      omega  full diag
   1    -33.5797162 -0.335797E+02  0.221E-01    1.04       0.0  T
   2    -33.5797528 -0.366012E-04  0.153E-01    1.03       1.0  T
   3    -33.5797513  0.151755E-05  0.150E-01    1.03       1.0  T
   4    -33.5797659 -0.145992E-04  0.399E-02    1.03       1.0  T
   5    -33.5797660 -0.109856E-06  0.338E-02    1.03       1.0  T
   6    -33.5797667 -0.633356E-06  0.370E-03    1.03       6.2  T
   7    -33.5797667 -0.122373E-07  0.302E-03    1.03       7.6  T
   8    -33.5797667 -0.700825E-08  0.988E-04    1.03      23.2  T
   9    -33.5797667 -0.177985E-08  0.287E-04    1.03      80.0  T
     SCC iter.                  ...        0 min,  0.004 sec
     gradient                   ...        0 min,  0.001 sec
 * total energy  :   -33.4514468 Eh     change       -0.4658276E-02 Eh
   gradient norm :     0.0331080 Eh/α   predicted    -0.2717403E-02 ( -41.67%)
   displ. norm   :     0.7924574 α      lambda       -0.1379010E-01
   maximum displ.:     0.6925161 α      in ANC's #19, #42, #24, ...

........................................................................
.............................. CYCLE    6 ..............................
........................................................................

 iter      E             dE          RMSdq      gap      omega  full diag
   1    -33.5802388 -0.335802E+02  0.749E-01    1.32       0.0  T
   2    -33.5808726 -0.633794E-03  0.616E-01    1.25       1.0  T
   3    -33.5809883 -0.115721E-03  0.408E-01    1.24       1.0  T
   4    -33.5810588 -0.705232E-04  0.205E-01    1.23       1.0  T
   5    -33.5810771 -0.183001E-04  0.108E-01    1.23       1.0  T
   6    -33.5810821 -0.496965E-05  0.316E-02    1.23       1.0  T
   7    -33.5810829 -0.752628E-06  0.136E-02    1.23       1.7  T
   8    -33.5810830 -0.191090E-06  0.347E-03    1.23       6.6  T
   9    -33.5810831 -0.879010E-08  0.221E-03    1.23      10.4  T
  10    -33.5810831 -0.436700E-08  0.997E-04    1.23      23.0  T
  11    -33.5810831 -0.127996E-08  0.288E-04    1.23      79.5  T
     SCC iter.                  ...        0 min,  0.004 sec
     gradient                   ...        0 min,  0.001 sec
 * total energy  :   -33.4619266 Eh     change       -0.1047978E-01 Eh
   gradient norm :     0.0547941 Eh/α   predicted    -0.1122506E-01 (   7.11%)
   displ. norm   :     0.5519893 α      lambda       -0.1243410E-01
   maximum displ.:     0.3492603 α      in ANC's #19, #42, #30, ...

........................................................................
.............................. CYCLE    7 ..............................
........................................................................

 iter      E             dE          RMSdq      gap      omega  full diag
   1    -33.6087767 -0.336088E+02  0.116E+00    1.52       0.0  T
   2    -33.6097269 -0.950247E-03  0.171E+00    1.51       1.0  T
   3    -33.6111906 -0.146369E-02  0.455E-01    1.51       1.0  T
   4    -33.6111980 -0.742562E-05  0.424E-01    1.51       1.0  T
   5    -33.6113122 -0.114205E-03  0.151E-01    1.51       1.0  T
   6    -33.6113201 -0.782680E-05  0.949E-02    1.51       1.0  T
   7    -33.6113222 -0.217556E-05  0.630E-02    1.51       1.0  T
   8    -33.6113238 -0.157594E-05  0.356E-02    1.51       1.0  T
   9    -33.6113244 -0.603043E-06  0.136E-02    1.51       1.7  T
  10    -33.6113245 -0.574783E-07  0.101E-02    1.51       2.3  T
  11    -33.6113245 -0.546806E-07  0.147E-03    1.51      15.6  T
  12    -33.6113245  0.106027E-09  0.199E-03    1.51      11.5  T
  13    -33.6113245 -0.235691E-08  0.345E-04    1.51      66.5  T
  14    -33.6113245 -0.620588E-10  0.119E-04    1.51     192.7  T
     SCC iter.                  ...        0 min,  0.006 sec
     gradient                   ...        0 min,  0.001 sec
 * total energy  :   -33.4721373 Eh     change       -0.1021072E-01 Eh
   gradient norm :     0.0563832 Eh/α   predicted    -0.8111328E-02 ( -20.56%)
   displ. norm   :     0.8175820 α      lambda       -0.2535263E-01
   maximum displ.:     0.3998626 α      in ANC's #42, #30, #19, ...

........................................................................
.............................. CYCLE    8 ..............................
........................................................................

 iter      E             dE          RMSdq      gap      omega  full diag
   1    -33.7038469 -0.337038E+02  0.214E+00    3.18       0.0  T
   2    -33.7077759 -0.392906E-02  0.282E+00    2.34       1.0  T
   3    -33.7120061 -0.423012E-02  0.997E-01    2.30       1.0  T
   4    -33.7120672 -0.611399E-04  0.938E-01    2.17       1.0  T
   5    -33.7125549 -0.487730E-03  0.280E-01    1.98       1.0  T
   6    -33.7126043 -0.493410E-04  0.164E-01    2.00       1.0  T
   7    -33.7126304 -0.261226E-04  0.861E-02    2.02       1.0  T
   8    -33.7126354 -0.499146E-05  0.372E-02    2.02       1.0  T
   9    -33.7126356 -0.206808E-06  0.184E-02    2.02       1.2  T
  10    -33.7126364 -0.844000E-06  0.410E-03    2.03       5.6  T
  11    -33.7126364 -0.137077E-07  0.260E-03    2.02       8.8  T
  12    -33.7126365 -0.720642E-08  0.716E-04    2.02      32.0  T
  13    -33.7126365 -0.980762E-09  0.270E-04    2.02      85.1  T
     SCC iter.                  ...        0 min,  0.005 sec
     gradient                   ...        0 min,  0.001 sec
 * total energy  :   -33.4999832 Eh     change       -0.2784592E-01 Eh
   gradient norm :     0.2747619 Eh/α   predicted    -0.2114965E-01 ( -24.05%)
   displ. norm   :     0.8086083 α      lambda       -0.4048691E-01
   maximum displ.:     0.3648884 α      in ANC's #42, #30, #21, ...

........................................................................
.............................. CYCLE    9 ..............................
........................................................................

 iter      E             dE          RMSdq      gap      omega  full diag
   1    -33.8245072 -0.338245E+02  0.140E+00    5.37       0.0  T
   2    -33.8250141 -0.506944E-03  0.219E+00    5.08       1.0  T
   3    -33.8284431 -0.342892E-02  0.687E-01    5.11       1.0  T
   4    -33.8284946 -0.514830E-04  0.556E-01    5.11       1.0  T
   5    -33.8286353 -0.140741E-03  0.252E-01    5.11       1.0  T
   6    -33.8286680 -0.326600E-04  0.133E-01    5.11       1.0  T
   7    -33.8286802 -0.121985E-04  0.499E-02    5.11       1.0  T
   8    -33.8286813 -0.113084E-05  0.375E-02    5.11       1.0  T
   9    -33.8286824 -0.109068E-05  0.103E-02    5.11       2.2  T
  10    -33.8286824 -0.138939E-07  0.101E-02    5.11       2.3  T
  11    -33.8286823  0.715089E-07  0.140E-02    5.11       1.6  T
  12    -33.8286825 -0.167350E-06  0.131E-03    5.11      17.6  T
  13    -33.8286825 -0.156252E-08  0.327E-04    5.11      70.1  T
  14    -33.8286825 -0.885620E-10  0.141E-04    5.11     162.6  T
     SCC iter.                  ...        0 min,  0.007 sec
     gradient                   ...        0 min,  0.001 sec
 * total energy  :   -33.4612964 Eh     change        0.3868686E-01 Eh
   gradient norm :     0.5562386 Eh/α   predicted    -0.3347957E-01 (-186.54%)
   displ. norm   :     0.4373723 α      lambda       -0.1706294E+00
   maximum displ.:     0.1974442 α      in ANC's #36, #21, #42, ...

........................................................................
.............................. CYCLE   10 ..............................
........................................................................

 iter      E             dE          RMSdq      gap      omega  full diag
   1    -33.7642501 -0.337643E+02  0.708E-01    5.05       0.0  T
   2    -33.7642943 -0.441556E-04  0.803E-01    4.99       1.0  T
   3    -33.7647134 -0.419122E-03  0.378E-01    5.00       1.0  T
   4    -33.7647679 -0.545154E-04  0.297E-01    4.99       1.0  T
   5    -33.7648143 -0.463971E-04  0.788E-02    4.99       1.0  T
   6    -33.7648171 -0.281652E-05  0.492E-02    4.99       1.0  T
   7    -33.7648192 -0.207658E-05  0.229E-02    4.99       1.0  T
   8    -33.7648195 -0.352063E-06  0.120E-02    4.99       1.9  T
   9    -33.7648196 -0.962045E-07  0.452E-03    4.99       5.1  T
  10    -33.7648196 -0.121031E-07  0.328E-03    4.99       7.0  T
  11    -33.7648197 -0.984306E-08  0.427E-04    4.99      53.7  T
  12    -33.7648197 -0.283947E-09  0.180E-04    4.99     127.1  T
     SCC iter.                  ...        0 min,  0.004 sec
     gradient                   ...        0 min,  0.001 sec
 * total energy  :   -33.5531921 Eh     change       -0.9189568E-01 Eh
   gradient norm :     0.1486660 Eh/α   predicted    -0.1016350E+00 (  10.60%)
   displ. norm   :     0.8605690 α      lambda       -0.8848926E-01
   maximum displ.:     0.6227132 α      in ANC's #16, #19, #42, ...

........................................................................
.............................. CYCLE   11 ..............................
........................................................................

 iter      E             dE          RMSdq      gap      omega  full diag
   1    -33.6396982 -0.336397E+02  0.250E+00    3.84       0.0  T
   2    -33.6582575 -0.185593E-01  0.333E+00    3.39       1.0  T
   3    -33.6754846 -0.172271E-01  0.137E+00    3.75       1.0  T
   4    -33.6802627 -0.477810E-02  0.102E+00    3.94       1.0  T
   5    -33.6825201 -0.225740E-02  0.471E-01    3.98       1.0  T
   6    -33.6829534 -0.433319E-03  0.388E-01    3.94       1.0  T
   7    -33.6825605  0.392927E-03  0.264E-01    3.92       1.0  T
   8    -33.6829348 -0.374290E-03  0.204E-01    3.92       1.0  T
   9    -33.6830394 -0.104583E-03  0.123E-01    3.92       1.0  T
  10    -33.6831650 -0.125664E-03  0.535E-02    3.92       1.0  T
  11    -33.6831664 -0.135892E-05  0.447E-02    3.92       1.0  T
  12    -33.6831696 -0.318963E-05  0.216E-02    3.92       1.1  T
  13    -33.6831730 -0.336814E-05  0.335E-03    3.92       6.9  T
  14    -33.6831730 -0.798218E-07  0.152E-03    3.92      15.1  T
  15    -33.6831731 -0.200695E-07  0.579E-04    3.92      39.6  T
  16    -33.6831731 -0.185921E-09  0.321E-04    3.92      71.4  T
     SCC iter.                  ...        0 min,  0.008 sec
     gradient                   ...        0 min,  0.001 sec
 * total energy  :   -33.5148874 Eh     change        0.3830465E-01 Eh
   gradient norm :     0.2802090 Eh/α   predicted    -0.7701132E-01 (-301.05%)
   displ. norm   :     0.5031422 α      lambda       -0.9584233E-01
   maximum displ.:     0.2531630 α      in ANC's #16, #19, #17, ...

........................................................................
.............................. CYCLE   12 ..............................
........................................................................

 iter      E             dE          RMSdq      gap      omega  full diag
   1    -33.7475745 -0.337476E+02  0.100E+00    5.47       0.0  T
   2    -33.7457874  0.178717E-02  0.146E+00    5.41       1.0  T
   3    -33.7490076 -0.322027E-02  0.378E-01    5.47       1.0  T
   4    -33.7489114  0.961950E-04  0.401E-01    5.49       1.0  T
   5    -33.7491424 -0.230934E-03  0.109E-01    5.50       1.0  T
   6    -33.7491664 -0.240440E-04  0.772E-02    5.49       1.0  T
   7    -33.7491910 -0.245459E-04  0.348E-02    5.50       1.0  T
   8    -33.7491946 -0.362192E-05  0.191E-02    5.50       1.2  T
   9    -33.7491956 -0.999685E-06  0.932E-03    5.50       2.5  T
  10    -33.7491958 -0.259257E-06  0.646E-03    5.50       3.6  T
  11    -33.7491960 -0.131290E-06  0.247E-03    5.50       9.3  T
  12    -33.7491960 -0.887922E-08  0.228E-03    5.50      10.1  T
  13    -33.7491960 -0.265913E-07  0.629E-04    5.51      36.5  T
  14    -33.7491960 -0.236280E-08  0.122E-04    5.51     187.5  T
     SCC iter.                  ...        0 min,  0.005 sec
     gradient                   ...        0 min,  0.001 sec
 * total energy  :   -33.5721383 Eh     change       -0.5725088E-01 Eh
   gradient norm :     0.1612475 Eh/α   predicted    -0.6005250E-01 (   4.89%)
   displ. norm   :     0.8124627 α      lambda       -0.7319298E-01
   maximum displ.:     0.3511216 α      in ANC's #14, #15, #18, ...

........................................................................
.............................. CYCLE   13 ..............................
........................................................................

 iter      E             dE          RMSdq      gap      omega  full diag
   1    -33.7627771 -0.337628E+02  0.121E+00    5.29       0.0  T
   2    -33.7627022  0.748567E-04  0.144E+00    5.16       1.0  T
   3    -33.7652399 -0.253767E-02  0.492E-01    5.21       1.0  T
   4    -33.7648906  0.349258E-03  0.493E-01    5.21       1.0  T
   5    -33.7653438 -0.453191E-03  0.469E-01    5.18       1.0  T
   6    -33.7656643 -0.320512E-03  0.123E-01    5.16       1.0  T
   7    -33.7657192 -0.548388E-04  0.418E-02    5.16       1.0  T
   8    -33.7657179  0.125858E-05  0.489E-02    5.16       1.0  T
   9    -33.7657219 -0.396290E-05  0.287E-02    5.16       1.0  T
  10    -33.7657239 -0.203714E-05  0.103E-02    5.15       2.2  T
  11    -33.7657244 -0.511533E-06  0.264E-03    5.15       8.7  T
  12    -33.7657244 -0.144409E-07  0.102E-03    5.15      22.5  T
  13    -33.7657244 -0.124642E-08  0.448E-04    5.15      51.2  T
  14    -33.7657244 -0.136893E-09  0.310E-04    5.15      74.1  T
     SCC iter.                  ...        0 min,  0.008 sec
     gradient                   ...        0 min,  0.001 sec
 * total energy  :   -33.5292378 Eh     change        0.4290045E-01 Eh
   gradient norm :     0.4664709 Eh/α   predicted    -0.6075369E-01 (-241.62%)
   displ. norm   :     0.3715446 α      lambda       -0.1284079E+00
   maximum displ.:     0.2391523 α      in ANC's #18, #42, #21, ...

........................................................................
.............................. CYCLE   14 ..............................
........................................................................

 iter      E             dE          RMSdq      gap      omega  full diag
   1    -33.7431094 -0.337431E+02  0.115E+00    5.29       0.0  T
   2    -33.7375603  0.554913E-02  0.212E+00    5.26       1.0  T
   3    -33.7449998 -0.743957E-02  0.646E-01    5.37       1.0  T
   4    -33.7468455 -0.184568E-02  0.340E-01    5.41       1.0  T
   5    -33.7465674  0.278104E-03  0.237E-01    5.42       1.0  T
   6    -33.7468969 -0.329497E-03  0.154E-01    5.44       1.0  T
   7    -33.7470263 -0.129351E-03  0.535E-02    5.44       1.0  T
   8    -33.7470404 -0.141614E-04  0.224E-02    5.44       1.0  T
   9    -33.7470366  0.385364E-05  0.313E-02    5.44       1.0  T
  10    -33.7470362  0.343147E-06  0.312E-02    5.45       1.0  T
  11    -33.7470399 -0.362387E-05  0.216E-02    5.45       1.1  T
  12    -33.7470431 -0.321318E-05  0.499E-03    5.45       4.6  T
  13    -33.7470432 -0.129324E-06  0.184E-03    5.45      12.5  T
  14    -33.7470432  0.744323E-08  0.151E-03    5.45      15.2  T
  15    -33.7470432 -0.140082E-07  0.550E-04    5.45      41.7  T
  16    -33.7470432 -0.253983E-08  0.496E-05    5.45     462.2  T
     SCC iter.                  ...        0 min,  0.008 sec
     gradient                   ...        0 min,  0.001 sec
 * total energy  :   -33.5861640 Eh     change       -0.5692619E-01 Eh
   gradient norm :     0.1034673 Eh/α   predicted    -0.7306701E-01 (  28.35%)
   displ. norm   :     0.7534760 α      lambda       -0.3973985E-01
   maximum displ.:     0.2956856 α      in ANC's #17, #10, #19, ...

........................................................................
.............................. CYCLE   15 ..............................
........................................................................

 iter      E             dE          RMSdq      gap      omega  full diag
   1    -33.7373107 -0.337373E+02  0.222E+00    5.29       0.0  T
   2    -33.6948888  0.424219E-01  0.295E+00    4.89       1.0  T
   3    -33.7665503 -0.716616E-01  0.154E+00    5.66       1.0  T
   4    -33.7767683 -0.102180E-01  0.580E-01    5.66       1.0  T
   5    -33.7595508  0.172176E-01  0.136E+00    5.59       1.0  T
   6    -33.7767887 -0.172379E-01  0.601E-01    5.74       1.0  T
   7    -33.7808473 -0.405868E-02  0.113E-01    5.75       1.0  T
   8    -33.7798737  0.973604E-03  0.298E-01    5.76       1.0  T
   9    -33.7782058  0.166797E-02  0.461E-01    5.77       1.0  T
  10    -33.7801374 -0.193166E-02  0.234E-01    5.81       1.0  T
  11    -33.7806948 -0.557357E-03  0.126E-01    5.81       1.0  T
  12    -33.7808598 -0.165048E-03  0.731E-02    5.81       1.0  T
  13    -33.7809037 -0.438473E-04  0.439E-02    5.81       1.0  T
  14    -33.7809318 -0.280862E-04  0.492E-03    5.82       4.7  T
  15    -33.7809318 -0.382073E-07  0.498E-03    5.82       4.6  T
  16    -33.7809321 -0.254646E-06  0.106E-03    5.82      21.5  T
  17    -33.7809321 -0.103415E-07  0.473E-04    5.82      48.5  T
  18    -33.7809321 -0.248602E-08  0.586E-05    5.82     391.7  T
     SCC iter.                  ...        0 min,  0.009 sec
     gradient                   ...        0 min,  0.001 sec
 * total energy  :   -33.5570279 Eh     change        0.2913615E-01 Eh
   gradient norm :     0.3822105 Eh/α   predicted    -0.3115062E-01 (-206.91%)
   displ. norm   :     0.3719149 α      lambda       -0.8305430E-01
   maximum displ.:     0.1677793 α      in ANC's #17, #18, #16, ...

........................................................................
.............................. CYCLE   16 ..............................
........................................................................

 iter      E             dE          RMSdq      gap      omega  full diag
   1    -33.7487180 -0.337487E+02  0.178E+00    6.27       0.0  T
   2    -33.5208973  0.227821E+00  0.445E+00    5.48       1.0  T
   3    -33.7672040 -0.246307E+00  0.162E+00    6.39       1.0  T
   4    -33.7872503 -0.200462E-01  0.675E-01    6.42       1.0  T
   5    -33.7918108 -0.456051E-02  0.252E-01    6.38       1.0  T
   6    -33.7817009  0.101099E-01  0.889E-01    6.40       1.0  T
   7    -33.7909615 -0.926064E-02  0.321E-01    6.38       1.0  T
   8    -33.7924438 -0.148225E-02  0.634E-02    6.37       1.0  T
   9    -33.7923281  0.115717E-03  0.898E-02    6.37       1.0  T
  10    -33.7923246  0.343298E-05  0.899E-02    6.38       1.0  T
  11    -33.7924502 -0.125607E-03  0.898E-03    6.38       2.6  T
  12    -33.7924507 -0.490954E-06  0.471E-03    6.38       4.9  T
  13    -33.7924505  0.186036E-06  0.544E-03    6.38       4.2  T
  14    -33.7924509 -0.336035E-06  0.292E-03    6.38       7.9  T
  15    -33.7924510 -0.122359E-06  0.792E-04    6.38      29.0  T
  16    -33.7924510 -0.937859E-08  0.623E-05    6.38     368.4  T
     SCC iter.                  ...        0 min,  0.048 sec
     gradient                   ...        0 min,  0.002 sec
 * total energy  :   -33.6016328 Eh     change       -0.4460495E-01 Eh
   gradient norm :     0.1248941 Eh/α   predicted    -0.4727122E-01 (   5.98%)
   displ. norm   :     0.7514678 α      lambda       -0.5310411E-01
   maximum displ.:     0.4200478 α      in ANC's #20, #21, #26, ...

........................................................................
.............................. CYCLE   17 ..............................
........................................................................

 iter      E             dE          RMSdq      gap      omega  full diag
   1    -33.7166597 -0.337167E+02  0.194E+00    5.72       0.0  T
   2    -33.3591618  0.357498E+00  0.538E+00    5.05       1.0  T
   3    -33.7478594 -0.388698E+00  0.131E+00    5.93       1.0  T
   4    -33.7537865 -0.592709E-02  0.735E-01    5.88       1.0  T
   5    -33.7329911  0.207955E-01  0.141E+00    5.91       1.0  T
   6    -33.7593343 -0.263433E-01  0.397E-01    5.89       1.0  T
   7    -33.7587873  0.547076E-03  0.388E-01    5.86       1.0  T
   8    -33.7610859 -0.229861E-02  0.954E-02    5.87       1.0  T
   9    -33.7610644  0.215129E-04  0.103E-01    5.87       1.0  T
  10    -33.7611732 -0.108815E-03  0.619E-02    5.87       1.0  T
  11    -33.7612253 -0.521381E-04  0.253E-02    5.87       1.0  T
  12    -33.7612341 -0.881733E-05  0.877E-03    5.87       2.6  T
  13    -33.7612292  0.495069E-05  0.194E-02    5.87       1.2  T
  14    -33.7612349 -0.568007E-05  0.556E-03    5.87       4.1  T
  15    -33.7612354 -0.506599E-06  0.668E-04    5.87      34.4  T
  16    -33.7612354 -0.740522E-08  0.428E-05    5.87     535.9  T
     SCC iter.                  ...        0 min,  0.009 sec
     gradient                   ...        0 min,  0.001 sec
 * total energy  :   -33.5934140 Eh     change        0.8218842E-02 Eh
   gradient norm :     0.2286226 Eh/α   predicted    -0.4154612E-01 (-605.50%)
   displ. norm   :     0.5026911 α      lambda       -0.5758232E-01
   maximum displ.:     0.1873665 α      in ANC's #42, #13, #10, ...

........................................................................
.............................. CYCLE   18 ..............................
........................................................................

 iter      E             dE          RMSdq      gap      omega  full diag
   1    -33.7466891 -0.337467E+02  0.170E+00    6.14       0.0  T
   2    -33.3366722  0.410017E+00  0.555E+00    5.63       1.0  T
   3    -33.7770537 -0.440382E+00  0.777E-01    6.32       1.0  T
   4    -33.7661869  0.108668E-01  0.109E+00    6.34       1.0  T
   5    -33.7752886 -0.910168E-02  0.705E-01    6.30       1.0  T
   6    -33.7695926  0.569600E-02  0.934E-01    6.32       1.0  T
   7    -33.7824339 -0.128413E-01  0.245E-01    6.30       1.0  T
   8    -33.7833949 -0.960998E-03  0.417E-02    6.30       1.0  T
   9    -33.7833975 -0.252456E-05  0.365E-02    6.30       1.0  T
  10    -33.7834005 -0.307671E-05  0.328E-02    6.30       1.0  T
  11    -33.7834066 -0.607711E-05  0.260E-02    6.30       1.0  T
  12    -33.7834175 -0.108886E-04  0.150E-03    6.30      15.3  T
  13    -33.7834163  0.115944E-05  0.858E-03    6.30       2.7  T
  14    -33.7834173 -0.999223E-06  0.336E-03    6.30       6.8  T
  15    -33.7834175 -0.157823E-06  0.132E-03    6.30      17.3  T
  16    -33.7834175 -0.176976E-07  0.774E-04    6.30      29.6  T
  17    -33.7834175 -0.912937E-08  0.192E-04    6.30     119.8  T
     SCC iter.                  ...        0 min,  0.007 sec
     gradient                   ...        0 min,  0.001 sec
 * total energy  :   -33.6290465 Eh     change       -0.3563252E-01 Eh
   gradient norm :     0.1138434 Eh/α   predicted    -0.3606663E-01 (   1.22%)
   displ. norm   :     0.7285776 α      lambda       -0.4502922E-01
   maximum displ.:     0.4413417 α      in ANC's #21, #13, #10, ...

........................................................................
.............................. CYCLE   19 ..............................
........................................................................

 iter      E             dE          RMSdq      gap      omega  full diag
   1    -33.7962552 -0.337963E+02  0.144E+00    6.64       0.0  T
   2    -33.3109322  0.485323E+00  0.570E+00    6.16       1.0  T
   3    -33.8208180 -0.509886E+00  0.532E-01    6.77       1.0  T
   4    -33.8217030 -0.885059E-03  0.299E-01    6.78       1.0  T
   5    -33.8218432 -0.140129E-03  0.161E-01    6.77       1.0  T
   6    -33.8218416  0.153147E-05  0.718E-02    6.76       1.0  T
   7    -33.8218570 -0.153800E-04  0.285E-02    6.77       1.0  T
   8    -33.8218565  0.490347E-06  0.220E-02    6.77       1.0  T
   9    -33.8217473  0.109243E-03  0.894E-02    6.77       1.0  T
  10    -33.8218480 -0.100689E-03  0.314E-02    6.77       1.0  T
  11    -33.8218609 -0.129116E-04  0.712E-03    6.77       3.2  T
  12    -33.8218616 -0.673428E-06  0.150E-03    6.77      15.3  T
  13    -33.8218616 -0.174829E-07  0.105E-03    6.77      21.9  T
  14    -33.8218616 -0.509208E-08  0.808E-04    6.77      28.4  T
  15    -33.8218616 -0.833450E-08  0.237E-04    6.77      96.8  T
     SCC iter.                  ...        0 min,  0.006 sec
     gradient                   ...        0 min,  0.001 sec
 * total energy  :   -33.6169468 Eh     change        0.1209976E-01 Eh
   gradient norm :     0.2867039 Eh/α   predicted    -0.3446596E-01 (-384.85%)
   displ. norm   :     0.4514340 α      lambda       -0.6399698E-01
   maximum displ.:     0.1945755 α      in ANC's #18, #13, #10, ...

........................................................................
.............................. CYCLE   20 ..............................
........................................................................

 iter      E             dE          RMSdq      gap      omega  full diag
   1    -33.8183585 -0.338184E+02  0.129E+00    7.09       0.0  T
   2    -33.3244819  0.493877E+00  0.568E+00    6.63       1.0  T
   3    -33.8248001 -0.500318E+00  0.887E-01    7.15       1.0  T
   4    -33.7879293  0.368709E-01  0.194E+00    7.21       1.0  T
   5    -33.8281958 -0.402665E-01  0.859E-01    7.19       1.0  T
   6    -33.8350551 -0.685937E-02  0.470E-01    7.18       1.0  T
   7    -33.8344527  0.602450E-03  0.497E-01    7.18       1.0  T
   8    -33.8372067 -0.275401E-02  0.141E-01    7.17       1.0  T
   9    -33.8373992 -0.192530E-03  0.634E-02    7.17       1.0  T
  10    -33.8374445 -0.453028E-04  0.156E-02    7.17       1.5  T
  11    -33.8374439  0.668234E-06  0.200E-02    7.17       1.1  T
  12    -33.8374481 -0.418164E-05  0.418E-03    7.17       5.5  T
  13    -33.8374481 -0.511571E-07  0.374E-03    7.17       6.1  T
  14    -33.8374483 -0.176606E-06  0.993E-04    7.17      23.1  T
  15    -33.8374483 -0.673744E-08  0.480E-04    7.17      47.8  T
     SCC iter.                  ...        0 min,  0.006 sec
     gradient                   ...        0 min,  0.001 sec
 * total energy  :   -33.6539961 Eh     change       -0.3704933E-01 Eh
   gradient norm :     0.0747918 Eh/α   predicted    -0.3851956E-01 (   3.97%)
   displ. norm   :     0.7187115 α      lambda       -0.2057886E-01
   maximum displ.:     0.2417860 α      in ANC's #9, #10, #19, ...
 * RMSD in coord.:     0.8026810 α      energy gain  -0.2514491E+00 Eh

generating ANC from model Hessian ...
Using Lindh-Hessian (1995)
 Shifting diagonal of input Hessian by    1.0244191232697932E-002
 Lowest  eigenvalues of input Hessian
    0.010000    0.010207    0.000000    0.000000    0.000000    0.000000
    0.000000    0.000000    0.010254    0.010362    0.010454    0.010554
    0.010603    0.010657    0.010700    0.010780    0.010795    0.010839
 Highest eigenvalues
    1.253700    1.271801    1.337100    1.356124    1.407563    1.411908


........................................................................
.............................. CYCLE   21 ..............................
........................................................................

 iter      E             dE          RMSdq      gap      omega  full diag
   1    -33.8104509 -0.338105E+02  0.115E+00    6.88       0.0  T
   2    -33.3850249  0.425426E+00  0.529E+00    6.62       1.0  T
   3    -33.8124649 -0.427440E+00  0.872E-01    6.94       1.0  T
   4    -33.8214871 -0.902222E-02  0.376E-01    6.99       1.0  T
   5    -33.8076536  0.138335E-01  0.104E+00    7.01       1.0  T
   6    -33.8226554 -0.150018E-01  0.272E-01    7.00       1.0  T
   7    -33.8230963 -0.440922E-03  0.169E-01    7.00       1.0  T
   8    -33.8226442  0.452100E-03  0.252E-01    7.01       1.0  T
   9    -33.8234745 -0.830292E-03  0.841E-02    7.01       1.0  T
  10    -33.8235640 -0.894527E-04  0.206E-02    7.01       1.1  T
  11    -33.8235677 -0.373571E-05  0.738E-03    7.01       3.1  T
  12    -33.8235680 -0.290585E-06  0.411E-03    7.01       5.6  T
  13    -33.8235683 -0.329644E-06  0.806E-04    7.01      28.5  T
  14    -33.8235683  0.238858E-07  0.132E-03    7.01      17.3  T
  15    -33.8235683 -0.268175E-07  0.133E-04    7.01     172.2  T
     SCC iter.                  ...        0 min,  0.006 sec
     gradient                   ...        0 min,  0.001 sec
 * total energy  :   -33.6675101 Eh     change       -0.1351403E-01 Eh
   gradient norm :     0.0960906 Eh/α   predicted     0.0000000E+00 (-100.00%)
   displ. norm   :     0.7793463 α      lambda       -0.3773928E-01
   maximum displ.:     0.6774156 α      in ANC's #19, #30, #16, ...

........................................................................
.............................. CYCLE   22 ..............................
........................................................................

 iter      E             dE          RMSdq      gap      omega  full diag
   1    -33.8666521 -0.338667E+02  0.562E-01    7.32       0.0  T
   2    -33.7797032  0.869489E-01  0.238E+00    7.39       1.0  T
   3    -33.8657784 -0.860752E-01  0.515E-01    7.36       1.0  T
   4    -33.8658553 -0.768422E-04  0.423E-01    7.37       1.0  T
   5    -33.8663408 -0.485499E-03  0.327E-01    7.40       1.0  T
   6    -33.8671823 -0.841573E-03  0.208E-01    7.41       1.0  T
   7    -33.8673824 -0.200080E-03  0.173E-01    7.41       1.0  T
   8    -33.8677018 -0.319333E-03  0.877E-02    7.41       1.0  T
   9    -33.8678120 -0.110291E-03  0.151E-02    7.41       1.5  T
  10    -33.8678143 -0.228492E-05  0.416E-03    7.41       5.5  T
  11    -33.8678142  0.950475E-07  0.340E-03    7.41       6.7  T
  12    -33.8678143 -0.760290E-07  0.244E-03    7.41       9.4  T
  13    -33.8678144 -0.909977E-07  0.172E-04    7.41     133.1  T
  14    -33.8678144  0.124829E-08  0.307E-04    7.41      74.8  T
     SCC iter.                  ...        0 min,  0.005 sec
     gradient                   ...        0 min,  0.001 sec
 * total energy  :   -33.6982671 Eh     change       -0.3075698E-01 Eh
   gradient norm :     0.0656095 Eh/α   predicted    -0.3033264E-01 (  -1.38%)
   displ. norm   :     0.8825323 α      lambda       -0.3376359E-01
   maximum displ.:     0.5478026 α      in ANC's #19, #16, #30, ...

........................................................................
.............................. CYCLE   23 ..............................
........................................................................

 iter      E             dE          RMSdq      gap      omega  full diag
   1    -33.9175696 -0.339176E+02  0.336E-01    7.57       0.0  T
   2    -33.9165081  0.106150E-02  0.700E-01    7.57       1.0  T
   3    -33.9180523 -0.154419E-02  0.322E-01    7.59       1.0  T
   4    -33.9184361 -0.383829E-03  0.102E-01    7.62       1.0  T
   5    -33.9184878 -0.517277E-04  0.434E-02    7.63       1.0  T
   6    -33.9184888 -0.966911E-06  0.119E-02    7.64       1.9  T
   7    -33.9184887  0.117572E-06  0.975E-03    7.64       2.4  T
   8    -33.9184889 -0.249018E-06  0.290E-03    7.64       7.9  T
   9    -33.9184889  0.384248E-07  0.294E-03    7.64       7.8  T
  10    -33.9184889 -0.547822E-07  0.527E-04    7.64      43.5  T
  11    -33.9184889 -0.229159E-08  0.166E-04    7.64     138.4  T
     SCC iter.                  ...        0 min,  0.004 sec
     gradient                   ...        0 min,  0.001 sec
 * total energy  :   -33.7188038 Eh     change       -0.2053667E-01 Eh
   gradient norm :     0.0708880 Eh/α   predicted    -0.3003177E-01 (  46.23%)
   displ. norm   :     0.8048348 α      lambda       -0.3295225E-01
   maximum displ.:     0.4994611 α      in ANC's #19, #16, #32, ...

........................................................................
.............................. CYCLE   24 ..............................
........................................................................

 iter      E             dE          RMSdq      gap      omega  full diag
   1    -33.9490845 -0.339491E+02  0.472E-01    7.83       0.0  T
   2    -33.9443247  0.475978E-02  0.899E-01    7.83       1.0  T
   3    -33.9493058 -0.498114E-02  0.276E-01    7.81       1.0  T
   4    -33.9497139 -0.408016E-03  0.110E-01    7.81       1.0  T
   5    -33.9497042  0.970572E-05  0.568E-02    7.80       1.0  T
   6    -33.9497238 -0.196678E-04  0.157E-02    7.80       1.5  T
   7    -33.9497224  0.146534E-05  0.164E-02    7.80       1.4  T
   8    -33.9497242 -0.186211E-05  0.349E-03    7.80       6.6  T
   9    -33.9497241  0.116410E-06  0.398E-03    7.81       5.8  T
  10    -33.9497242 -0.136702E-06  0.939E-04    7.81      24.4  T
  11    -33.9497242 -0.389195E-08  0.473E-04    7.81      48.5  T
     SCC iter.                  ...        0 min,  0.004 sec
     gradient                   ...        0 min,  0.001 sec
 * total energy  :   -33.7359313 Eh     change       -0.1712753E-01 Eh
   gradient norm :     0.1105387 Eh/α   predicted    -0.2714886E-01 (  58.51%)
   displ. norm   :     0.6985583 α      lambda       -0.2898882E-01
   maximum displ.:     0.4416966 α      in ANC's #19, #16, #18, ...

........................................................................
.............................. CYCLE   25 ..............................
........................................................................

 iter      E             dE          RMSdq      gap      omega  full diag
   1    -33.9157407 -0.339157E+02  0.411E-01    7.32       0.0  T
   2    -33.9155014  0.239296E-03  0.381E-01    7.32       1.0  T
   3    -33.9157598 -0.258377E-03  0.250E-01    7.33       1.0  T
   4    -33.9159276 -0.167809E-03  0.894E-02    7.33       1.0  T
   5    -33.9159384 -0.107763E-04  0.677E-02    7.34       1.0  T
   6    -33.9159661 -0.277258E-04  0.163E-02    7.33       1.4  T
   7    -33.9159652  0.945589E-06  0.147E-02    7.33       1.6  T
   8    -33.9159664 -0.120164E-05  0.389E-03    7.33       5.9  T
   9    -33.9159664 -0.101959E-07  0.118E-03    7.33      19.4  T
  10    -33.9159664 -0.619457E-08  0.349E-04    7.33      65.8  T
  11    -33.9159664  0.539444E-10  0.248E-04    7.33      92.7  T
     SCC iter.                  ...        0 min,  0.006 sec
     gradient                   ...        0 min,  0.001 sec
 * total energy  :   -33.7505092 Eh     change       -0.1457786E-01 Eh
   gradient norm :     0.0763802 Eh/α   predicted    -0.2156747E-01 (  47.95%)
   displ. norm   :     0.7475841 α      lambda       -0.2373567E-01
   maximum displ.:     0.4115264 α      in ANC's #19, #16, #18, ...

........................................................................
.............................. CYCLE   26 ..............................
........................................................................

 iter      E             dE          RMSdq      gap      omega  full diag
   1    -33.9500284 -0.339500E+02  0.418E-01    7.51       0.0  T
   2    -33.9498778  0.150641E-03  0.420E-01    7.52       1.0  T
   3    -33.9503116 -0.433815E-03  0.192E-01    7.53       1.0  T
   4    -33.9503532 -0.415752E-04  0.778E-02    7.55       1.0  T
   5    -33.9503572 -0.396968E-05  0.405E-02    7.55       1.0  T
   6    -33.9503607 -0.355109E-05  0.138E-02    7.55       1.7  T
   7    -33.9503609 -0.165874E-06  0.606E-03    7.55       3.8  T
   8    -33.9503609 -0.276309E-07  0.258E-03    7.55       8.9  T
   9    -33.9503609 -0.374359E-08  0.969E-04    7.55      23.7  T
  10    -33.9503609 -0.407975E-08  0.258E-04    7.55      88.8  T
     SCC iter.                  ...        0 min,  0.005 sec
     gradient                   ...        0 min,  0.001 sec
 * total energy  :   -33.7607868 Eh     change       -0.1027766E-01 Eh
   gradient norm :     0.0868592 Eh/α   predicted    -0.1850057E-01 (  80.01%)
   displ. norm   :     0.7269427 α      lambda       -0.2201710E-01
   maximum displ.:     0.4827172 α      in ANC's #16, #19, #5, ...

........................................................................
.............................. CYCLE   27 ..............................
........................................................................

 iter      E             dE          RMSdq      gap      omega  full diag
   1    -33.9839177 -0.339839E+02  0.448E-01    7.71       0.0  T
   2    -33.9838949  0.227790E-04  0.369E-01    7.71       1.0  T
   3    -33.9840451 -0.150213E-03  0.166E-01    7.71       1.0  T
   4    -33.9840366  0.855256E-05  0.111E-01    7.71       1.0  T
   5    -33.9840743 -0.377471E-04  0.229E-02    7.71       1.0  T
   6    -33.9840750 -0.618166E-06  0.968E-03    7.71       2.4  T
   7    -33.9840750 -0.585211E-07  0.336E-03    7.71       6.8  T
   8    -33.9840750  0.172820E-08  0.211E-03    7.71      10.9  T
   9    -33.9840750 -0.251914E-07  0.751E-04    7.71      30.6  T
  10    -33.9840750 -0.175105E-08  0.321E-04    7.71      71.5  T
     SCC iter.                  ...        0 min,  0.004 sec
     gradient                   ...        0 min,  0.001 sec
 * total energy  :   -33.7711353 Eh     change       -0.1034853E-01 Eh
   gradient norm :     0.0728971 Eh/α   predicted    -0.1682599E-01 (  62.59%)
   displ. norm   :     0.6054028 α      lambda       -0.1412759E-01
   maximum displ.:     0.3863528 α      in ANC's #19, #16, #22, ...

........................................................................
.............................. CYCLE   28 ..............................
........................................................................

 iter      E             dE          RMSdq      gap      omega  full diag
   1    -33.9594389 -0.339594E+02  0.335E-01    7.49       0.0  T
   2    -33.9594784 -0.395149E-04  0.224E-01    7.48       1.0  T
   3    -33.9595029 -0.245785E-04  0.108E-01    7.47       1.0  T
   4    -33.9594623  0.406071E-04  0.103E-01    7.47       1.0  T
   5    -33.9595128 -0.504509E-04  0.252E-02    7.47       1.0  T
   6    -33.9595151 -0.230223E-05  0.104E-02    7.47       2.2  T
   7    -33.9595151 -0.122267E-07  0.613E-03    7.47       3.7  T
   8    -33.9595152 -0.657366E-07  0.208E-03    7.47      11.0  T
   9    -33.9595152 -0.440050E-08  0.566E-04    7.47      40.5  T
  10    -33.9595152 -0.194523E-08  0.141E-04    7.47     162.9  T
     SCC iter.                  ...        0 min,  0.006 sec
     gradient                   ...        0 min,  0.001 sec
 * total energy  :   -33.7774188 Eh     change       -0.6283468E-02 Eh
   gradient norm :     0.0426471 Eh/α   predicted    -0.9652767E-02 (  53.62%)
   displ. norm   :     0.5855743 α      lambda       -0.9883504E-02
   maximum displ.:     0.2826937 α      in ANC's #20, #19, #21, ...

........................................................................
.............................. CYCLE   29 ..............................
........................................................................

 iter      E             dE          RMSdq      gap      omega  full diag
   1    -33.9555668 -0.339556E+02  0.515E-01    7.48       0.0  T
   2    -33.9544510  0.111583E-02  0.635E-01    7.49       1.0  T
   3    -33.9559583 -0.150734E-02  0.245E-01    7.47       1.0  T
   4    -33.9560606 -0.102291E-03  0.101E-01    7.47       1.0  T
   5    -33.9560810 -0.203918E-04  0.601E-02    7.47       1.0  T
   6    -33.9560994 -0.183699E-04  0.190E-02    7.47       1.2  T
   7    -33.9560997 -0.264971E-06  0.980E-03    7.47       2.3  T
   8    -33.9561000 -0.340191E-06  0.384E-03    7.47       6.0  T
   9    -33.9561000 -0.180637E-07  0.152E-03    7.47      15.1  T
  10    -33.9561000 -0.678934E-08  0.442E-04    7.47      51.9  T
  11    -33.9561000 -0.155320E-08  0.171E-04    7.47     134.2  T
     SCC iter.                  ...        0 min,  0.005 sec
     gradient                   ...        0 min,  0.001 sec
 * total energy  :   -33.7718521 Eh     change        0.5566743E-02 Eh
   gradient norm :     0.0990035 Eh/α   predicted    -0.6636273E-02 (-219.21%)
   displ. norm   :     0.2714639 α      lambda       -0.1142499E-01
   maximum displ.:     0.1521942 α      in ANC's #18, #20, #34, ...

........................................................................
.............................. CYCLE   30 ..............................
........................................................................

 iter      E             dE          RMSdq      gap      omega  full diag
   1    -33.9712510 -0.339713E+02  0.300E-01    7.62       0.0  T
   2    -33.9711343  0.116755E-03  0.320E-01    7.61       1.0  T
   3    -33.9713872 -0.252903E-03  0.123E-01    7.62       1.0  T
   4    -33.9714030 -0.157932E-04  0.435E-02    7.62       1.0  T
   5    -33.9714015  0.147808E-05  0.300E-02    7.62       1.0  T
   6    -33.9714048 -0.330331E-05  0.928E-03    7.62       2.5  T
   7    -33.9714049 -0.518316E-07  0.357E-03    7.62       6.4  T
   8    -33.9714049 -0.174837E-07  0.125E-03    7.62      18.4  T
   9    -33.9714049 -0.158280E-08  0.373E-04    7.62      61.4  T
  10    -33.9714049 -0.433282E-09  0.901E-05    7.62     254.6  T
     SCC iter.                  ...        0 min,  0.005 sec
     gradient                   ...        0 min,  0.001 sec
 * total energy  :   -33.7786984 Eh     change       -0.6846364E-02 Eh
   gradient norm :     0.0357053 Eh/α   predicted    -0.6133464E-02 ( -10.41%)
   displ. norm   :     0.3923567 α      lambda       -0.5165759E-02
   maximum displ.:     0.1436585 α      in ANC's #21, #29, #20, ...

........................................................................
.............................. CYCLE   31 ..............................
........................................................................

 iter      E             dE          RMSdq      gap      omega  full diag
   1    -33.9616725 -0.339617E+02  0.290E-01    7.45       0.0  T
   2    -33.9616875 -0.150495E-04  0.218E-01    7.45       1.0  T
   3    -33.9617041 -0.165767E-04  0.154E-01    7.45       1.0  T
   4    -33.9617491 -0.450179E-04  0.610E-02    7.45       1.0  T
   5    -33.9617512 -0.211109E-05  0.342E-02    7.46       1.0  T
   6    -33.9617535 -0.229596E-05  0.102E-02    7.46       2.3  T
   7    -33.9617536 -0.108994E-06  0.416E-03    7.46       5.5  T
   8    -33.9617536 -0.762259E-08  0.143E-03    7.46      16.0  T
   9    -33.9617536 -0.617931E-09  0.943E-04    7.46      24.3  T
  10    -33.9617536 -0.585644E-08  0.183E-04    7.46     125.7  T
     SCC iter.                  ...        0 min,  0.005 sec
     gradient                   ...        0 min,  0.002 sec
 * total energy  :   -33.7788072 Eh     change       -0.1087826E-03 Eh
   gradient norm :     0.0548091 Eh/α   predicted    -0.2980501E-02 (2639.87%)
   displ. norm   :     0.2461389 α      lambda       -0.4480591E-02
   maximum displ.:     0.1127135 α      in ANC's #11, #20, #19, ...

........................................................................
.............................. CYCLE   32 ..............................
........................................................................

 iter      E             dE          RMSdq      gap      omega  full diag
   1    -33.9671649 -0.339672E+02  0.146E-01    7.57       0.0  T
   2    -33.9671522  0.126483E-04  0.120E-01    7.57       1.0  T
   3    -33.9671464  0.585539E-05  0.107E-01    7.56       1.0  T
   4    -33.9671823 -0.359593E-04  0.415E-02    7.56       1.0  T
   5    -33.9671919 -0.963404E-05  0.168E-02    7.56       1.4  T
   6    -33.9671926 -0.634238E-06  0.662E-03    7.56       3.5  T
   7    -33.9671928 -0.209274E-06  0.255E-03    7.56       9.0  T
   8    -33.9671928  0.108936E-08  0.120E-03    7.56      19.1  T
   9    -33.9671928 -0.616550E-08  0.244E-04    7.56      94.2  T
  10    -33.9671928 -0.960938E-10  0.154E-04    7.56     149.2  T
     SCC iter.                  ...        0 min,  0.004 sec
     gradient                   ...        0 min,  0.001 sec
 * total energy  :   -33.7810164 Eh     change       -0.2209201E-02 Eh
   gradient norm :     0.0133688 Eh/α   predicted    -0.2376020E-02 (   7.55%)
   displ. norm   :     0.3248178 α      lambda       -0.1240027E-02
   maximum displ.:     0.1303308 α      in ANC's #16, #10, #17, ...

........................................................................
.............................. CYCLE   33 ..............................
........................................................................

 iter      E             dE          RMSdq      gap      omega  full diag
   1    -33.9674845 -0.339675E+02  0.113E-01    7.57       0.0  T
   2    -33.9674877 -0.315153E-05  0.672E-02    7.57       1.0  T
   3    -33.9674850  0.269763E-05  0.552E-02    7.57       1.0  T
   4    -33.9674907 -0.571611E-05  0.320E-02    7.57       1.0  T
   5    -33.9674930 -0.232937E-05  0.765E-03    7.57       3.0  T
   6    -33.9674931 -0.317198E-07  0.400E-03    7.57       5.7  T
   7    -33.9674931 -0.480189E-07  0.178E-03    7.57      12.9  T
   8    -33.9674931 -0.556431E-08  0.624E-04    7.57      36.8  T
   9    -33.9674931  0.452104E-09  0.617E-04    7.57      37.2  T
     SCC iter.                  ...        0 min,  0.003 sec
     gradient                   ...        0 min,  0.001 sec
 * total energy  :   -33.7815739 Eh     change       -0.5575040E-03 Eh
   gradient norm :     0.0282524 Eh/α   predicted    -0.6854290E-03 (  22.95%)
   displ. norm   :     0.4856144 α      lambda       -0.1707830E-02
   maximum displ.:     0.2125755 α      in ANC's #16, #17, #2, ...

........................................................................
.............................. CYCLE   34 ..............................
........................................................................

 iter      E             dE          RMSdq      gap      omega  full diag
   1    -33.9674763 -0.339675E+02  0.161E-01    7.56       0.0  T
   2    -33.9674844 -0.811131E-05  0.990E-02    7.56       1.0  T
   3    -33.9674870 -0.257835E-05  0.569E-02    7.56       1.0  T
   4    -33.9674868  0.126508E-06  0.351E-02    7.56       1.0  T
   5    -33.9674875 -0.647674E-06  0.200E-02    7.56       1.1  T
   6    -33.9674891 -0.157570E-05  0.433E-03    7.56       5.3  T
   7    -33.9674891 -0.172273E-07  0.157E-03    7.56      14.6  T
   8    -33.9674891 -0.328172E-08  0.786E-04    7.56      29.2  T
   9    -33.9674891  0.461917E-09  0.567E-04    7.56      40.5  T
     SCC iter.                  ...        0 min,  0.004 sec
     gradient                   ...        0 min,  0.001 sec
 * total energy  :   -33.7829452 Eh     change       -0.1371259E-02 Eh
   gradient norm :     0.0195309 Eh/α   predicted    -0.1055290E-02 ( -23.04%)
   displ. norm   :     0.6661104 α      lambda       -0.2057706E-02
   maximum displ.:     0.3233367 α      in ANC's #16, #11, #17, ...

........................................................................
.............................. CYCLE   35 ..............................
........................................................................

 iter      E             dE          RMSdq      gap      omega  full diag
   1    -33.9702150 -0.339702E+02  0.256E-01    7.57       0.0  T
   2    -33.9702339 -0.188434E-04  0.173E-01    7.57       1.0  T
   3    -33.9702446 -0.107239E-04  0.784E-02    7.57       1.0  T
   4    -33.9702433  0.128057E-05  0.478E-02    7.57       1.0  T
   5    -33.9702436 -0.334180E-06  0.270E-02    7.57       1.0  T
   6    -33.9702475 -0.383782E-05  0.590E-03    7.57       3.9  T
   7    -33.9702475 -0.183249E-07  0.329E-03    7.57       7.0  T
   8    -33.9702475 -0.141609E-07  0.200E-03    7.57      11.5  T
   9    -33.9702475  0.737766E-08  0.148E-03    7.57      15.5  T
  10    -33.9702475 -0.998320E-08  0.217E-04    7.57     105.5  T
  11    -33.9702475 -0.256200E-09  0.542E-05    7.57     423.1  T
     SCC iter.                  ...        0 min,  0.006 sec
     gradient                   ...        0 min,  0.001 sec
 * total energy  :   -33.7838894 Eh     change       -0.9442134E-03 Eh
   gradient norm :     0.0220576 Eh/α   predicted    -0.1485362E-02 (  57.31%)
   displ. norm   :     0.5281146 α      lambda       -0.2093225E-02
   maximum displ.:     0.2343977 α      in ANC's #16, #17, #11, ...

........................................................................
.............................. CYCLE   36 ..............................
........................................................................

 iter      E             dE          RMSdq      gap      omega  full diag
   1    -33.9684006 -0.339684E+02  0.211E-01    7.57       0.0  T
   2    -33.9683752  0.253856E-04  0.158E-01    7.58       1.0  T
   3    -33.9684169 -0.417064E-04  0.118E-01    7.57       1.0  T
   4    -33.9684482 -0.312696E-04  0.552E-02    7.58       1.0  T
   5    -33.9684492 -0.974057E-06  0.208E-02    7.58       1.1  T
   6    -33.9684501 -0.928962E-06  0.803E-03    7.58       2.9  T
   7    -33.9684501 -0.642982E-07  0.419E-03    7.58       5.5  T
   8    -33.9684502 -0.220793E-07  0.224E-03    7.58      10.3  T
   9    -33.9684502 -0.245224E-07  0.564E-04    7.58      40.6  T
  10    -33.9684502 -0.253678E-09  0.374E-04    7.58      61.4  T
     SCC iter.                  ...        0 min,  0.003 sec
     gradient                   ...        0 min,  0.001 sec
 * total energy  :   -33.7842503 Eh     change       -0.3608783E-03 Eh
   gradient norm :     0.0373227 Eh/α   predicted    -0.1338526E-02 ( 270.91%)
   displ. norm   :     0.2866458 α      lambda       -0.2369813E-02
   maximum displ.:     0.1143625 α      in ANC's #19, #14, #16, ...

........................................................................
.............................. CYCLE   37 ..............................
........................................................................

 iter      E             dE          RMSdq      gap      omega  full diag
   1    -33.9663248 -0.339663E+02  0.177E-01    7.52       0.0  T
   2    -33.9663055  0.192434E-04  0.158E-01    7.52       1.0  T
   3    -33.9663590 -0.534375E-04  0.752E-02    7.53       1.0  T
   4    -33.9663661 -0.714684E-05  0.429E-02    7.53       1.0  T
   5    -33.9663676 -0.146047E-05  0.117E-02    7.53       2.0  T
   6    -33.9663677 -0.687021E-07  0.623E-03    7.53       3.7  T
   7    -33.9663677 -0.576954E-07  0.215E-03    7.53      10.7  T
   8    -33.9663677  0.544596E-08  0.154E-03    7.53      14.9  T
   9    -33.9663677 -0.101014E-07  0.551E-04    7.53      41.6  T
  10    -33.9663677 -0.209395E-08  0.143E-04    7.53     160.0  T
     SCC iter.                  ...        0 min,  0.005 sec
     gradient                   ...        0 min,  0.001 sec
 * total energy  :   -33.7850541 Eh     change       -0.8038360E-03 Eh
   gradient norm :     0.0305581 Eh/α   predicted    -0.1282268E-02 (  59.52%)
   displ. norm   :     0.2257230 α      lambda       -0.1577694E-02
   maximum displ.:     0.1040840 α      in ANC's #16, #12, #5, ...

........................................................................
.............................. CYCLE   38 ..............................
........................................................................

 iter      E             dE          RMSdq      gap      omega  full diag
   1    -33.9779641 -0.339780E+02  0.120E-01    7.63       0.0  T
   2    -33.9779542  0.990943E-05  0.109E-01    7.62       1.0  T
   3    -33.9779734 -0.191757E-04  0.547E-02    7.62       1.0  T
   4    -33.9779763 -0.290889E-05  0.268E-02    7.62       1.0  T
   5    -33.9779783 -0.198843E-05  0.636E-03    7.62       3.6  T
   6    -33.9779783 -0.298700E-07  0.387E-03    7.62       5.9  T
   7    -33.9779783 -0.175576E-07  0.258E-03    7.62       8.9  T
   8    -33.9779784 -0.747157E-08  0.118E-03    7.62      19.5  T
   9    -33.9779784 -0.462773E-08  0.499E-04    7.62      45.9  T
  10    -33.9779784 -0.160062E-08  0.166E-04    7.62     138.4  T
     SCC iter.                  ...        0 min,  0.004 sec
     gradient                   ...        0 min,  0.001 sec
 * total energy  :   -33.7854514 Eh     change       -0.3973038E-03 Eh
   gradient norm :     0.0208786 Eh/α   predicted    -0.8290389E-03 ( 108.67%)
   displ. norm   :     0.4091888 α      lambda       -0.1111983E-02
   maximum displ.:     0.1693473 α      in ANC's #11, #16, #17, ...

........................................................................
.............................. CYCLE   39 ..............................
........................................................................

 iter      E             dE          RMSdq      gap      omega  full diag
   1    -33.9706614 -0.339707E+02  0.152E-01    7.58       0.0  T
   2    -33.9706511  0.102886E-04  0.104E-01    7.58       1.0  T
   3    -33.9706665 -0.154022E-04  0.644E-02    7.58       1.0  T
   4    -33.9706734 -0.688161E-05  0.560E-02    7.58       1.0  T
   5    -33.9706816 -0.825846E-05  0.917E-03    7.58       2.5  T
   6    -33.9706817 -0.927585E-07  0.321E-03    7.58       7.1  T
   7    -33.9706817 -0.114761E-07  0.172E-03    7.58      13.3  T
   8    -33.9706817 -0.292520E-08  0.565E-04    7.58      40.6  T
   9    -33.9706817 -0.962288E-10  0.356E-04    7.58      64.4  T
     SCC iter.                  ...        0 min,  0.005 sec
     gradient                   ...        0 min,  0.001 sec
 * total energy  :   -33.7860355 Eh     change       -0.5840420E-03 Eh
   gradient norm :     0.0150336 Eh/α   predicted    -0.6490848E-03 (  11.14%)
   displ. norm   :     0.3515907 α      lambda       -0.1037990E-02
   maximum displ.:     0.1326145 α      in ANC's #16, #11, #19, ...

........................................................................
.............................. CYCLE   40 ..............................
........................................................................

 iter      E             dE          RMSdq      gap      omega  full diag
   1    -33.9687258 -0.339687E+02  0.148E-01    7.54       0.0  T
   2    -33.9687032  0.226181E-04  0.142E-01    7.55       1.0  T
   3    -33.9687467 -0.434532E-04  0.661E-02    7.55       1.0  T
   4    -33.9687523 -0.558708E-05  0.303E-02    7.55       1.0  T
   5    -33.9687530 -0.759801E-06  0.575E-03    7.55       4.0  T
   6    -33.9687530 -0.311950E-07  0.437E-03    7.55       5.3  T
   7    -33.9687531 -0.403938E-07  0.145E-03    7.55      15.8  T
   8    -33.9687531 -0.658382E-09  0.611E-04    7.55      37.5  T
   9    -33.9687531 -0.113627E-08  0.332E-04    7.55      69.2  T
     SCC iter.                  ...        0 min,  0.005 sec
     gradient                   ...        0 min,  0.001 sec
 * total energy  :   -33.7861121 Eh     change       -0.7661065E-04 Eh
   gradient norm :     0.0278823 Eh/α   predicted    -0.5831541E-03 ( 661.19%)
   displ. norm   :     0.2823904 α      lambda       -0.1163821E-02
   maximum displ.:     0.1127964 α      in ANC's #16, #17, #19, ...

........................................................................
.............................. CYCLE   41 ..............................
........................................................................

 iter      E             dE          RMSdq      gap      omega  full diag
   1    -33.9691304 -0.339691E+02  0.105E-01    7.56       0.0  T
   2    -33.9691265  0.388517E-05  0.874E-02    7.56       1.0  T
   3    -33.9691388 -0.122527E-04  0.504E-02    7.56       1.0  T
   4    -33.9691426 -0.378482E-05  0.274E-02    7.56       1.0  T
   5    -33.9691431 -0.561628E-06  0.866E-03    7.56       2.6  T
   6    -33.9691432 -0.113176E-06  0.332E-03    7.56       6.9  T
   7    -33.9691433 -0.175180E-07  0.223E-03    7.56      10.3  T
   8    -33.9691433 -0.147835E-07  0.666E-04    7.56      34.4  T
   9    -33.9691433  0.643801E-09  0.616E-04    7.56      37.3  T
     SCC iter.                  ...        0 min,  0.004 sec
     gradient                   ...        0 min,  0.001 sec
 * total energy  :   -33.7866888 Eh     change       -0.5767738E-03 Eh
   gradient norm :     0.0184747 Eh/α   predicted    -0.6283154E-03 (   8.94%)
   displ. norm   :     0.2693968 α      lambda       -0.1017979E-02
   maximum displ.:     0.1413630 α      in ANC's #14, #16, #5, ...

........................................................................
.............................. CYCLE   42 ..............................
........................................................................

 iter      E             dE          RMSdq      gap      omega  full diag
   1    -33.9765887 -0.339766E+02  0.119E-01    7.63       0.0  T
   2    -33.9765562  0.324762E-04  0.128E-01    7.63       1.0  T
   3    -33.9766121 -0.558605E-04  0.560E-02    7.62       1.0  T
   4    -33.9766162 -0.414345E-05  0.289E-02    7.62       1.0  T
   5    -33.9766169 -0.617463E-06  0.860E-03    7.62       2.7  T
   6    -33.9766169 -0.698781E-07  0.447E-03    7.62       5.1  T
   7    -33.9766170 -0.270912E-07  0.218E-03    7.62      10.5  T
   8    -33.9766170 -0.533134E-08  0.680E-04    7.62      33.7  T
   9    -33.9766170  0.597495E-09  0.604E-04    7.62      38.0  T
     SCC iter.                  ...        0 min,  0.004 sec
     gradient                   ...        0 min,  0.001 sec
 * total energy  :   -33.7865421 Eh     change        0.1466892E-03 Eh
   gradient norm :     0.0283643 Eh/α   predicted    -0.5459351E-03 (-472.17%)
   displ. norm   :     0.2418546 α      lambda       -0.1294447E-02
   maximum displ.:     0.0868272 α      in ANC's #16, #5, #11, ...
 * RMSD in coord.:     1.7742104 α      energy gain  -0.1325461E+00 Eh

generating ANC from model Hessian ...
Using Lindh-Hessian (1995)
 Shifting diagonal of input Hessian by    1.0017759162455430E-002
 Lowest  eigenvalues of input Hessian
    0.010000    0.010011    0.000000    0.000000    0.000000    0.000000
    0.000000    0.000000    0.010024    0.010056    0.010088    0.010116
    0.010259    0.010266    0.010334    0.010340    0.010439    0.010525
 Highest eigenvalues
    1.283648    1.433430    1.444621    1.449592    1.452591    1.461728


........................................................................
.............................. CYCLE   43 ..............................
........................................................................

 iter      E             dE          RMSdq      gap      omega  full diag
   1    -33.9753667 -0.339754E+02  0.101E-01    7.65       0.0  T
   2    -33.9753686 -0.187169E-05  0.665E-02    7.65       1.0  T
   3    -33.9753697 -0.113377E-05  0.441E-02    7.65       1.0  T
   4    -33.9753696  0.143152E-06  0.285E-02    7.65       1.0  T
   5    -33.9753716 -0.199147E-05  0.530E-03    7.65       4.3  T
   6    -33.9753716  0.994426E-09  0.395E-03    7.65       5.8  T
   7    -33.9753716 -0.104034E-07  0.257E-03    7.65       8.9  T
   8    -33.9753716 -0.415269E-07  0.493E-04    7.65      46.5  T
   9    -33.9753716 -0.154010E-09  0.259E-04    7.65      88.6  T
     SCC iter.                  ...        0 min,  0.004 sec
     gradient                   ...        0 min,  0.001 sec
 * total energy  :   -33.7871614 Eh     change       -0.6192167E-03 Eh
   gradient norm :     0.0149329 Eh/α   predicted     0.0000000E+00 (-100.00%)
   displ. norm   :     0.1858734 α      lambda       -0.8982421E-03
   maximum displ.:     0.0700034 α      in ANC's #24, #20, #30, ...

........................................................................
.............................. CYCLE   44 ..............................
........................................................................

 iter      E             dE          RMSdq      gap      omega  full diag
   1    -33.9734242 -0.339734E+02  0.165E-01    7.61       0.0  T
   2    -33.9733842  0.400305E-04  0.177E-01    7.62       1.0  T
   3    -33.9734572 -0.730374E-04  0.587E-02    7.61       1.0  T
   4    -33.9734573 -0.715053E-07  0.299E-02    7.62       1.0  T
   5    -33.9734617 -0.441363E-05  0.523E-03    7.62       4.4  T
   6    -33.9734617 -0.771373E-08  0.349E-03    7.62       6.6  T
   7    -33.9734617 -0.179301E-07  0.162E-03    7.62      14.1  T
   8    -33.9734617 -0.555232E-08  0.436E-04    7.62      52.6  T
   9    -33.9734617 -0.534833E-09  0.228E-04    7.62     100.8  T
     SCC iter.                  ...        0 min,  0.005 sec
     gradient                   ...        0 min,  0.001 sec
 * total energy  :   -33.7873701 Eh     change       -0.2087383E-03 Eh
   gradient norm :     0.0115145 Eh/α   predicted    -0.4646441E-03 ( 122.60%)
   displ. norm   :     0.1882939 α      lambda       -0.6903336E-03
   maximum displ.:     0.0721105 α      in ANC's #24, #13, #30, ...

........................................................................
.............................. CYCLE   45 ..............................
[...]
   gradient norm :     0.0000373 Eh/α   predicted    -0.1127883E-06 ( -64.15%)
   displ. norm   :     0.0160508 α      lambda       -0.1993632E-06
   maximum displ.:     0.0109395 α      in ANC's #4, #3, #1, ...
 * RMSD in coord.:     0.1650565 α      energy gain  -0.2696158E-04 Eh

generating ANC from model Hessian ...
Using Lindh-Hessian (1995)
 Shifting diagonal of input Hessian by    1.0043023059880829E-002
 Lowest  eigenvalues of input Hessian
    0.010000    0.010011    0.010027    0.000000    0.000000    0.000000
    0.000000    0.000000    0.000000    0.010043    0.010052    0.010194
    0.010272    0.010354    0.010443    0.010510    0.010607    0.010663
 Highest eigenvalues
    1.311741    1.401747    1.439823    1.442496    1.444504    1.449632


........................................................................
.............................. CYCLE  184 ..............................
........................................................................

 iter      E             dE          RMSdq      gap      omega  full diag
   1    -33.9770200 -0.339770E+02  0.193E-03    7.77       0.0  T
   2    -33.9770200 -0.649649E-09  0.122E-03    7.77      18.8  T
   3    -33.9770200 -0.382606E-09  0.761E-04    7.77      30.1  T
   4    -33.9770200 -0.110177E-09  0.403E-04    7.77      57.0  T
     SCC iter.                  ...        0 min,  0.001 sec
     gradient                   ...        0 min,  0.001 sec
 * total energy  :   -33.7913912 Eh     change       -0.2870215E-06 Eh
   gradient norm :     0.0000359 Eh/α   predicted     0.0000000E+00 (-100.00%)
   displ. norm   :     0.0000539 α      lambda        0.0000000E+00
   maximum displ.:     0.0000375 α      in ANC's #4, #44, #45, ...

........................................................................
.............................. CYCLE  185 ..............................
........................................................................

 iter      E             dE          RMSdq      gap      omega  full diag
   1    -33.9770246 -0.339770E+02  0.632E-05    7.77       0.0  T
   2    -33.9770246 -0.209610E-11  0.402E-05    7.77     570.9  T
   3    -33.9770246  0.400746E-11  0.365E-05    7.77     628.1  T
     SCC iter.                  ...        0 min,  0.001 sec
     gradient                   ...        0 min,  0.001 sec
 * total energy  :   -33.7913912 Eh     change       -0.1584958E-08 Eh
   gradient norm :     0.0000297 Eh/α   predicted    -0.1002655E-08 ( -36.74%)
   displ. norm   :     0.0000539 α      lambda        0.0000000E+00
   maximum displ.:     0.0000375 α      in ANC's #4, #44, #45, ...

   *** GEOMETRY OPTIMIZATION CONVERGED AFTER 185 ITERATIONS ***

------------------------------------------------------------------------
 total energy gain   :        -0.3888442 Eh     -244.0034 kcal/mol
 total RMSD          :         3.7699834 a0        1.9950 Å
 total power (kW/mol):        -5.5184339 (step) -856.9982 (real)
------------------------------------------------------------------------

 ANCopt (total)                0 d,  0 h,  0 min,  1.191 sec
 optimizer setup                ...        0 min,  0.000 sec (  0.007%)
 model hessian                  ...        0 min,  0.021 sec (  1.796%)
 ANC generation                 ...        0 min,  0.005 sec (  0.436%)
 coordinate transformation      ...        0 min,  0.001 sec (  0.068%)
 single point calculation       ...        0 min,  1.123 sec ( 94.285%)
 optimization log               ...        0 min,  0.014 sec (  1.176%)
 hessian update                 ...        0 min,  0.004 sec (  0.367%)
 rational function              ...        0 min,  0.017 sec (  1.418%)

================
 final structure:
================
19
 xtb: 6.6.0 (conda-forge)
Fe          -1.00455687346518        0.90035985316378        0.27766237435240
O           -0.91416093948770        3.37532984462405        0.41212057634463
H           -1.20461577479399        3.91690555174604       -0.32483742086377
O            1.45294333677687        1.29686790106959        0.09860981291789
H            1.80929185426311        1.34571893785476       -0.79059826579671
O           -1.81918752947854        1.21198554833928        2.62012792902780
H           -2.71547913060336        0.86695917784785        2.65581975338222
O           -0.11489746630716       -1.10668712628741        1.44959653846858
H           -0.49406398440684       -1.96470099221588        1.24625285905094
O           -3.51414218454578        0.42982350161851        0.11953075912566
H           -3.12029622286248        0.11708108211240       -0.72193902937824
O           -1.65327723268214        0.17981404159261       -1.72688209854236
H           -1.19969207871746       -0.39713055946150       -2.33172578391801
H            3.67104701512715       -3.09720010642359       -8.67461779860060
H            1.77524664457190        2.06407244303000        0.57901826198446
H           -1.27355343948767        3.75308373903482        1.21930376338392
H           -4.13682799387009        1.11886122399359       -0.12017474433285
H           -1.29438896390574        0.71664120237962        3.25432557552508
H            0.83909339359043       -1.18170549500480        1.36245234774089

 Bond Distances (Angstroems)
 ---------------------------
Fe1-O12=2.2267       O2-H3=0.9596         O2-H16=0.9609        H3-O2=0.9596         O4-H5=0.9592         O4-H15=0.9609        
H5-O4=0.9592         O6-H7=0.9611         O6-H18=0.9607        H7-O6=0.9611         O8-H9=0.9598         O8-H19=0.9609        
H9-O8=0.9598         O10-H11=0.9803       O10-H17=0.9592       H11-O10=0.9803       O12-Fe1=2.2267       O12-H13=0.9510       
H13-O12=0.9510       H15-O4=0.9609        H16-O2=0.9609        H17-O10=0.9592       H18-O6=0.9607        H19-O8=0.9609        
 O  H  Rav=0.9612 sigma=0.0066  Rmin=0.9510  Rmax=0.9803    11
 Fe O  Rav=2.2267 sigma=0.0000  Rmin=2.2267  Rmax=2.2267     1

 selected bond angles (degree)
 --------------------
H16-O2-H3=108.06               H15-O4-H5=107.35               H18-O6-H7=107.45               H19-O8-H9=107.65               
H17-O10-H11=105.99             

 selected dihedral angles (degree)
 ---------------------------------


 CMA Distance (Angstroems)
 ---------------------------
R(CMA):  1.7126
           -------------------------------------------------
          |                Final Singlepoint                |
           -------------------------------------------------

          ...................................................
          :                      SETUP                      :
          :.................................................:
          :  # basis functions                  46          :
          :  # atomic orbitals                  45          :
          :  # shells                           27          :
          :  # electrons                        56          :
          :  max. iterations                   250          :
          :  Hamiltonian                  GFN2-xTB          :
          :  restarted?                      false          :
          :  GBSA solvation                   true          :
          :  PC potential                    false          :
          :  electronic temp.          300.0000000     K    :
          :  accuracy                    1.0000000          :
          :  -> integral cutoff          0.2500000E+02      :
          :  -> integral neglect         0.1000000E-07      :
          :  -> SCF convergence          0.1000000E-05 Eh   :
          :  -> wf. convergence          0.1000000E-03 e    :
          :  Broyden damping             0.4000000          :
          ...................................................

 iter      E             dE          RMSdq      gap      omega  full diag
   1    -33.9770246 -0.339770E+02  0.975E-06    7.77       0.0  T
   2    -33.9770246 -0.113687E-12  0.599E-06    7.77    3828.7  T
   3    -33.9770246  0.497380E-13  0.378E-06    7.77    6075.6  T

   *** convergence criteria satisfied after 3 iterations ***

         #    Occupation            Energy/Eh            Energy/eV
      -------------------------------------------------------------
         1        2.0000           -0.6744290             -18.3521
       ...           ...                  ...                  ...
        24        2.0000           -0.3622036              -9.8561
        25        2.0000           -0.3534396              -9.6176
        26        1.8556           -0.3257367              -8.8637
        27        1.1418           -0.3223360              -8.7712
        28        1.0022           -0.3182191              -8.6592
        29        1.0004           -0.3167182              -8.6183
        30        1.0000           -0.3066906              -8.3455 (HOMO)
        31                         -0.0212713              -0.5788 (LUMO)
        32                          0.0590937               1.6080
        33                          0.0659172               1.7937
        34                          0.0997512               2.7144
        35                          0.1344431               3.6584
       ...                                ...                  ...
        45                          0.7843964              21.3445
      -------------------------------------------------------------
                  HL-Gap            0.2854194 Eh            7.7667 eV
             Fermi-level           -0.2440137 Eh           -6.6400 eV

 SCC (total)                   0 d,  0 h,  0 min,  0.003 sec
 SCC setup                      ...        0 min,  0.000 sec (  4.032%)
 Dispersion                     ...        0 min,  0.000 sec (  1.864%)
 classical contributions        ...        0 min,  0.000 sec (  0.890%)
 integral evaluation            ...        0 min,  0.000 sec (  9.866%)
 iterations                     ...        0 min,  0.001 sec ( 34.301%)
 molecular gradient             ...        0 min,  0.002 sec ( 45.734%)
 printout                       ...        0 min,  0.000 sec (  3.143%)

         :::::::::::::::::::::::::::::::::::::::::::::::::::::
         ::                     SUMMARY                     ::
         :::::::::::::::::::::::::::::::::::::::::::::::::::::
         :: total energy             -33.791391181559 Eh    ::
         :: total w/o Gsasa/hb       -33.633638186812 Eh    ::
         :: gradient norm              0.000061962580 Eh/a0 ::
         :: HOMO-LUMO gap              7.766656817028 eV    ::
         ::.................................................::
         :: SCC energy               -33.977024583625 Eh    ::
         :: -> isotropic ES            0.367897411606 Eh    ::
         :: -> anisotropic ES         -0.015253432722 Eh    ::
         :: -> anisotropic XC         -0.001135271862 Eh    ::
         :: -> dispersion             -0.008172128572 Eh    ::
         :: -> Gsolv                  -0.362853792554 Eh    ::
         ::    -> Gelec               -0.205100797807 Eh    ::
         ::    -> Gsasa                0.002586114144 Eh    ::
         ::    -> Ghb                 -0.161419868589 Eh    ::
         ::    -> Gshift               0.001080759698 Eh    ::
         :: repulsion energy           0.185513427961 Eh    ::
         :: add. restraining           0.000000000000 Eh    ::
         :: total charge               0.000000000000 e     ::
         :::::::::::::::::::::::::::::::::::::::::::::::::::::

           -------------------------------------------------
          |                Property Printout                |
           -------------------------------------------------

    * Orbital Energies and Occupations

         #    Occupation            Energy/Eh            Energy/eV
      -------------------------------------------------------------
         1        2.0000           -0.6744290             -18.3521
       ...           ...                  ...                  ...
        18        2.0000           -0.4536529             -12.3445
        19        2.0000           -0.4482974             -12.1988
        20        2.0000           -0.4468549             -12.1595
        21        2.0000           -0.4417229             -12.0199
        22        2.0000           -0.4402086             -11.9787
        23        2.0000           -0.4221214             -11.4865
        24        2.0000           -0.3622036              -9.8561
        25        2.0000           -0.3534396              -9.6176
        26        1.8556           -0.3257367              -8.8637
        27        1.1418           -0.3223360              -8.7712
        28        1.0022           -0.3182191              -8.6592
        29        1.0004           -0.3167182              -8.6183
        30        1.0000           -0.3066906              -8.3455 (HOMO)
        31                         -0.0212713              -0.5788 (LUMO)
        32                          0.0590937               1.6080
        33                          0.0659172               1.7937
        34                          0.0997512               2.7144
        35                          0.1344431               3.6584
        36                          0.2283630               6.2141
        37                          0.2887933               7.8585
        38                          0.2895348               7.8786
        39                          0.2924566               7.9582
        40                          0.2928773               7.9696
        41                          0.3422798               9.3139
       ...                                ...                  ...
        45                          0.7843964              21.3445
      -------------------------------------------------------------
                  HL-Gap            0.2854194 Eh            7.7667 eV
             Fermi-level           -0.2440137 Eh           -6.6400 eV

     #   Z          covCN         q      C6AA      α(0)
     1  26 Fe       0.742     0.907   192.508    40.632
     2   8 O        1.697    -0.612    25.435     6.809
     3   1 H        0.805     0.376     0.531     1.145
     4   8 O        1.687    -0.611    25.416     6.806
     5   1 H        0.805     0.366     0.552     1.167
     6   8 O        1.684    -0.600    25.158     6.772
     7   1 H        0.805     0.364     0.557     1.172
     8   8 O        1.692    -0.605    25.271     6.787
     9   1 H        0.805     0.373     0.537     1.151
    10   8 O        1.652    -0.631    25.904     6.871
    11   1 H        0.803     0.357     0.572     1.188
    12   8 O        1.187    -0.783    30.786     7.451
    13   1 H        0.806     0.263     0.844     1.443
    14   1 H        0.000    -1.000  3074.319   101.384
    15   1 H        0.805     0.373     0.536     1.150
    16   1 H        0.805     0.375     0.534     1.148
    17   1 H        0.805     0.354     0.580     1.196
    18   1 H        0.805     0.368     0.548     1.162
    19   1 H        0.805     0.368     0.549     1.163

 Mol. C6AA /au·bohr⁶  :      11230.875327
 Mol. C8AA /au·bohr⁸  :     228621.821756
 Mol. α(0) /au        :        196.596433


Wiberg/Mayer (AO) data.
largest (>0.10) Wiberg bond orders for each atom

 ---------------------------------------------------------------------------
     #   Z sym  total        # sym  WBO       # sym  WBO       # sym  WBO
 ---------------------------------------------------------------------------
     1  26 Fe   1.650 --    12 O    0.547     2 O    0.234     8 O    0.229
                             6 O    0.217     4 O    0.216    10 O    0.174
     2   8 O    1.962 --    16 H    0.856     3 H    0.856     1 Fe   0.234
     3   1 H    0.858 --     2 O    0.856
     4   8 O    1.953 --     5 H    0.864    15 H    0.858     1 Fe   0.216
     5   1 H    0.865 --     4 O    0.864
     6   8 O    1.958 --     7 H    0.863    18 H    0.861     1 Fe   0.217
     7   1 H    0.867 --     6 O    0.863
     8   8 O    1.964 --    19 H    0.861     9 H    0.858     1 Fe   0.229
     9   1 H    0.860 --     8 O    0.858
    10   8 O    1.903 --    17 H    0.872    11 H    0.814     1 Fe   0.174
    11   1 H    0.873 --    10 O    0.814
    12   8 O    1.544 --    13 H    0.916     1 Fe   0.547
    13   1 H    0.927 --    12 O    0.916
    14   1 H    0.000
    15   1 H    0.860 --     4 O    0.858
    16   1 H    0.859 --     2 O    0.856
    17   1 H    0.874 --    10 O    0.872
    18   1 H    0.864 --     6 O    0.861
    19   1 H    0.864 --     8 O    0.861
 ---------------------------------------------------------------------------

Topologies differ in total number of bonds
Writing topology from bond orders to xtbtopo.mol

molecular dipole:
                 x           y           z       tot (Debye)
 q only:       -7.702       8.449      18.743
   full:       -7.550       8.401      18.402      54.881
molecular quadrupole (traceless):
                xx          xy          yy          xz          yz          zz
 q only:      101.340      51.275     137.630     160.075    -142.729    -238.970
  q+dip:      100.058      50.679     138.968     160.834    -143.430    -239.027
   full:       99.986      50.506     138.889     160.775    -143.271    -238.875

           -------------------------------------------------
          |                Geometry Summary                 |
           -------------------------------------------------

      molecular mass/u    :      163.9368629
   center of mass at/Å    :       -1.0278460       0.8770931       0.3684727
  moments of inertia/u·Å² :        0.4662050E+03   0.5375594E+03   0.5899876E+03
rotational constants/cm⁻¹ :        0.3615927E-01   0.3135957E-01   0.2857286E-01

 * 10 selected distances

     #   Z          #   Z                                           value/Å
     2   8 O        3   1 H                                       0.9595705
     4   8 O        5   1 H                                       0.9591986
     6   8 O        7   1 H                                       0.9610702
     8   8 O        9   1 H                                       0.9598458
    10   8 O       11   1 H                                       0.9803030 (max)
     4   8 O       15   1 H                                       0.9608718
     2   8 O       16   1 H                                       0.9609401
    10   8 O       17   1 H                                       0.9591504 (min)
     6   8 O       18   1 H                                       0.9607218
     8   8 O       19   1 H                                       0.9608957

 * 1 distinct bonds (by element types)

   Z      Z             #   av. dist./Å        max./Å        min./Å
   1 H    8 O          10     0.9622568     0.9803030     0.9591504


optimized geometry written to: xtbopt.xyz


           -------------------------------------------------
          | TOTAL ENERGY              -33.791391181559 Eh   |
          | GRADIENT NORM               0.000061962580 Eh/α |
          | HOMO-LUMO GAP               7.766656817028 eV   |
           -------------------------------------------------
########################################################################
[WARNING] Runtime exception occurred
-1- restart_readRestart: Number of electron missmatch in restart file.
########################################################################

------------------------------------------------------------------------
 * finished run on 2024/05/10 at 17:51:32.669     
------------------------------------------------------------------------
 total:
 * wall-time:     0 d,  0 h,  0 min,  1.386 sec
 *  cpu-time:     0 d,  0 h,  0 min,  9.041 sec
 * ratio c/w:     6.525 speedup
 SCF:
 * wall-time:     0 d,  0 h,  0 min,  0.014 sec
 *  cpu-time:     0 d,  0 h,  0 min,  0.086 sec
 * ratio c/w:     6.293 speedup
 ANC optimizer:
 * wall-time:     0 d,  0 h,  0 min,  1.195 sec
 *  cpu-time:     0 d,  0 h,  0 min,  7.615 sec
 * ratio c/w:     6.370 speedup

