      -----------------------------------------------------------      
     |                   =====================                   |     
     |                           x T B                           |     
     |                   =====================                   |     
     |                         S. Grimme                         |     
     |          Mulliken Center for Theoretical Chemistry        |     
     |                    University of Bonn                     |     
      -----------------------------------------------------------      

   * xtb version 6.6.0 (conda-forge) compiled by 'runner@Mac-1676020848589.local' on 2023-02-10

   xtb is free software: you can redistribute it and/or modify it under
   the terms of the GNU Lesser General Public License as published by
   the Free Software Foundation, either version 3 of the License, or
   (at your option) any later version.
   
   xtb is distributed in the hope that it will be useful,
   but WITHOUT ANY WARRANTY; without even the implied warranty of
   MERCHANTABILITY or FITNESS FOR A PARTICULAR PURPOSE.  See the
   GNU Lesser General Public License for more details.
   
   Cite this work as:
   * C. Bannwarth, E. Caldeweyher, S. Ehlert, A. Hansen, P. Pracht,
     J. Seibert, S. Spicher, S. Grimme, WIREs Comput. Mol. Sci., 2020, 11,
     e01493. DOI: 10.1002/wcms.1493
   
   for GFN2-xTB:
   * C. Bannwarth, S. Ehlert and S. Grimme., J. Chem. Theory Comput., 2019,
     15, 1652-1671. DOI: 10.1021/acs.jctc.8b01176
   for GFN1-xTB:
   * S. Grimme, C. Bannwarth, P. Shushkov, J. Chem. Theory Comput., 2017,
     13, 1989-2009. DOI: 10.1021/acs.jctc.7b00118
   for GFN0-xTB:
   * P. Pracht, E. Caldeweyher, S. Ehlert, S. Grimme, ChemRxiv, 2019, preprint.
     DOI: 10.26434/chemrxiv.8326202.v1
   for GFN-FF:
   * S. Spicher and S. Grimme, Angew. Chem. Int. Ed., 2020, 59, 15665-15673.
     DOI: 10.1002/anie.202004239
   
   for ALPB and GBSA implicit solvation:
   * S. Ehlert, M. Stahn, S. Spicher, S. Grimme, J. Chem. Theory Comput.,
     2021, 17, 4250-4261. DOI: 10.1021/acs.jctc.1c00471
   
   for DFT-D4:
   * E. Caldeweyher, C. Bannwarth and S. Grimme, J. Chem. Phys., 2017,
     147, 034112. DOI: 10.1063/1.4993215
   * E. Caldeweyher, S. Ehlert, A. Hansen, H. Neugebauer, S. Spicher,
     C. Bannwarth and S. Grimme, J. Chem. Phys., 2019, 150, 154122.
     DOI: 10.1063/1.5090222
   * E. Caldeweyher, J.-M. Mewes, S. Ehlert and S. Grimme, Phys. Chem. Chem. Phys.
     2020, 22, 8499-8512. DOI: 10.1039/D0CP00502A
   
   for sTDA-xTB:
   * S. Grimme and C. Bannwarth, J. Chem. Phys., 2016, 145, 054103.
     DOI: 10.1063/1.4959605
   
   in the mass-spec context:
   * V. Asgeirsson, C. Bauer and S. Grimme, Chem. Sci., 2017, 8, 4879.
     DOI: 10.1039/c7sc00601b
   * J. Koopman and S. Grimme, ACS Omega 2019, 4, 12, 15120-15133.
     DOI: 10.1021/acsomega.9b02011
   
   for metadynamics refer to:
   * S. Grimme, J. Chem. Theory Comput., 2019, 155, 2847-2862
     DOI: 10.1021/acs.jctc.9b00143
   
   for SPH calculations refer to:
   * S. Spicher and S. Grimme, J. Chem. Theory Comput., 2021, 17, 1701-1714
     DOI: 10.1021/acs.jctc.0c01306
   
   with help from (in alphabetical order)
   P. Atkinson, C. Bannwarth, F. Bohle, G. Brandenburg, E. Caldeweyher
   M. Checinski, S. Dohm, S. Ehlert, S. Ehrlich, I. Gerasimov, C. Hölzer
   A. Katbashev, J. Koopman, C. Lavigne, S. Lehtola, F. März, M. Müller,
   F. Musil, H. Neugebauer, J. Pisarek, C. Plett, P. Pracht, F. Pultar,
   J. Seibert, P. Shushkov, S. Spicher, M. Stahn, M. Steiner, T. Strunk,
   J. Stückrath, T. Rose, and J. Unsleber
   
 * started run on 2024/05/10 at 17:51:30.514     

           -------------------------------------------------
          |                Calculation Setup                |
           -------------------------------------------------

          program call               : xtb Fe_6H2O.xyz --opt extreme --gfn2 --chrg 2 --uhf 5 --alpb water
          coordinate file            : Fe_6H2O.xyz
          omp threads                :                     8

   ID    Z sym.   atoms
    1   26 Fe     1
    2    8 O      2, 4, 6, 8, 10, 12
    3    1 H      3, 5, 7, 9, 11, 13-19

molecular fragmentation (1/2 indicates fragments):
1111122222222222222
# atoms in fragment 1/2:     5    14
 fragment masses (1/2) :       89.86       74.08
CMA distance (Bohr)    :   2.664
constraining FC (au)   :  0.0500

           -------------------------------------------------
          |                 G F N 2 - x T B                 |
           -------------------------------------------------

        Reference                      10.1021/acs.jctc.8b01176
      * Hamiltonian:
        H0-scaling (s, p, d)           1.850000    2.230000    2.230000
        zeta-weighting                 0.500000
      * Dispersion:
        s8                             2.700000
        a1                             0.520000
        a2                             5.000000
        s9                             5.000000
      * Repulsion:
        kExp                           1.500000    1.000000
        rExp                           1.000000
      * Coulomb:
        alpha                          2.000000
        third order                    shell-resolved
        anisotropic                    true
        a3                             3.000000
        a5                             4.000000
        cn-shift                       1.200000
        cn-exp                         4.000000
        max-rad                        5.000000

      * Solvation model:               ALPB
        Solvent                        water
        Parameter file                 internal GFN2-xTB/ALPB
        Dielectric constant                8.0200E+01
        Reference state                gsolv [1 M gas/solution]
        Free energy shift                  1.0808E-03 Eh       6.7819E-01 kcal/mol
        Temperature                        2.9815E+02 K
        Density                            1.0000E+00 kg/L
        Solvent mass                       1.8000E+01 g/mol
        Interaction kernel             P16
        Born radius scaling (c1)           1.4744E+00
        Born radii integrator          GBOBC
        Born offset                        0.0000E+00 a0       0.0000E+00 AA
        H-bond correction              true
        Ion screening                  false
        Surface tension                    1.0000E-05 Eh       1.5569E+01 dyn/cm
        Grid points                               230 per atom
q/qsh data taken from xtbrestart
CAMM data taken from xtbrestart

          ...................................................
          :                      SETUP                      :
          :.................................................:
          :  # basis functions                  46          :
          :  # atomic orbitals                  45          :
          :  # shells                           27          :
          :  # electrons                        54          :
          :  max. iterations                   250          :
          :  Hamiltonian                  GFN2-xTB          :
          :  restarted?                       true          :
          :  GBSA solvation                   true          :
          :  PC potential                    false          :
          :  electronic temp.          300.0000000     K    :
          :  accuracy                    1.0000000          :
          :  -> integral cutoff          0.2500000E+02      :
          :  -> integral neglect         0.1000000E-07      :
          :  -> SCF convergence          0.1000000E-05 Eh   :
          :  -> wf. convergence          0.1000000E-03 e    :
          :  Broyden damping             0.4000000          :
          ...................................................

 iter      E             dE          RMSdq      gap      omega  full diag
   1    -33.3018551 -0.333019E+02  0.271E+00    9.99       0.0  T
   2    -33.3543833 -0.525281E-01  0.151E+00    8.85       1.0  T
   3    -33.3567827 -0.239942E-02  0.995E-01    8.65       1.0  T
   4    -33.3579839 -0.120121E-02  0.280E-01    8.50       1.0  T
   5    -33.3580962 -0.112304E-03  0.128E-01    8.37       1.0  T
   6    -33.3581098 -0.135268E-04  0.538E-02    8.35       1.0  T
   7    -33.3581115 -0.173356E-05  0.157E-02    8.35       1.5  T
   8    -33.3581122 -0.748920E-06  0.923E-03    8.35       2.5  T
   9    -33.3581124 -0.119202E-06  0.408E-03    8.35       5.6  T
  10    -33.3581124 -0.321941E-07  0.170E-03    8.35      13.5  T
  11    -33.3581124 -0.973375E-08  0.305E-04    8.35      75.2  T
  12    -33.3581124 -0.289695E-09  0.124E-04    8.35     185.1  T

   *** convergence criteria satisfied after 12 iterations ***

         #    Occupation            Energy/Eh            Energy/eV
      -------------------------------------------------------------
         1        2.0000           -0.6772166             -18.4280
       ...           ...                  ...                  ...
        23        2.0000           -0.4430327             -12.0555
        24        2.0000           -0.4417552             -12.0208
        25        1.4141           -0.3478496              -9.4655
        26        1.2939           -0.3473468              -9.4518
        27        1.2920           -0.3473381              -9.4516
        28        1.0000           -0.3276479              -8.9158
        29        1.0000           -0.3276309              -8.9153 (HOMO)
        30                         -0.0208306              -0.5668 (LUMO)
        31                          0.0593304               1.6145
        32                          0.0640623               1.7432
        33                          0.0641053               1.7444
        34                          0.1321605               3.5963
       ...                                ...                  ...
        45                          0.7790905              21.2001
      -------------------------------------------------------------
                  HL-Gap            0.3068002 Eh            8.3485 eV
             Fermi-level           -0.2612051 Eh           -7.1078 eV

 SCC (total)                   0 d,  0 h,  0 min,  0.014 sec
 SCC setup                      ...        0 min,  0.001 sec (  6.335%)
 Dispersion                     ...        0 min,  0.000 sec (  1.291%)
 classical contributions        ...        0 min,  0.000 sec (  0.438%)
 integral evaluation            ...        0 min,  0.001 sec (  6.415%)
 iterations                     ...        0 min,  0.011 sec ( 76.670%)
 molecular gradient             ...        0 min,  0.001 sec (  7.939%)
 printout                       ...        0 min,  0.000 sec (  0.752%)

         :::::::::::::::::::::::::::::::::::::::::::::::::::::
         ::                     SUMMARY                     ::
         :::::::::::::::::::::::::::::::::::::::::::::::::::::
         :: total energy             -33.158874544514 Eh    ::
         :: total w/o Gsasa/hb       -33.087995783846 Eh    ::
         :: gradient norm              0.011791223334 Eh/a0 ::
         :: HOMO-LUMO gap              8.348459450091 eV    ::
         ::.................................................::
         :: SCC energy               -33.358112397432 Eh    ::
         :: -> isotropic ES            0.374528789303 Eh    ::
         :: -> anisotropic ES         -0.013453538757 Eh    ::
         :: -> anisotropic XC          0.001225073132 Eh    ::
         :: -> dispersion             -0.005491320143 Eh    ::
         :: -> Gsolv                  -0.360787407606 Eh    ::
         ::    -> Gelec               -0.289908646938 Eh    ::
         ::    -> Gsasa                0.000347282978 Eh    ::
         ::    -> Ghb                 -0.072306803344 Eh    ::
         ::    -> Gshift               0.001080759698 Eh    ::
         :: repulsion energy           0.199098728040 Eh    ::
         :: add. restraining           0.000000000000 Eh    ::
         :: total charge               2.000001131975 e     ::
         :::::::::::::::::::::::::::::::::::::::::::::::::::::

      ----------------------------------------------------------- 
     |                   =====================                   |
     |                        A N C O P T                        |
     |                   =====================                   |
     |               Approximate Normal Coordinate               |
     |                Rational Function Optimizer                |
      ----------------------------------------------------------- 

          ...................................................
          :                      SETUP                      :
          :.................................................:
          :   optimization level           extreme          :
          :   max. optcycles                   380          :
          :   ANC micro-cycles                  20          :
          :   degrees of freedom                51          :
          :.................................................:
          :   RF solver                   davidson          :
          :   write xtbopt.log                true          :
          :   linear?                        false          :
          :   energy convergence         0.5000000E-07 Eh   :
          :   grad. convergence          0.5000000E-04 Eh/α :
          :   maxmium RF displ.          1.0000000          :
          :   Hlow (freq-cutoff)         0.1000000E-01      :
          :   Hmax (freq-cutoff)         5.0000000          :
          :   S6 in model hess.         20.0000000          :
          ...................................................

generating ANC from model Hessian ...
Using Lindh-Hessian (1995)
 Shifting diagonal of input Hessian by    9.9536587581623304E-003
 Lowest  eigenvalues of input Hessian
    0.000000    0.000000    0.000000    0.000000    0.000000    0.000000
    0.010000    0.010044    0.010045    0.010164    0.010165    0.010253
    0.010274    0.010275    0.010391    0.010575    0.010576    0.010590
 Highest eigenvalues
    1.418984    1.419010    1.419177    1.419195    1.419218    1.419317


........................................................................
.............................. CYCLE    1 ..............................
........................................................................

 iter      E             dE          RMSdq      gap      omega  full diag
   1    -33.3581124 -0.333581E+02  0.487E-05    8.35       0.0  T
   2    -33.3581124  0.447642E-12  0.590E-05    8.35     388.7  T
   3    -33.3581124 -0.237321E-11  0.413E-06    8.35    5559.8  T
     SCC iter.                  ...        0 min,  0.001 sec
     gradient                   ...        0 min,  0.001 sec
 * total energy  :   -33.1588745 Eh     change       -0.1798384E-10 Eh
   gradient norm :     0.0117909 Eh/α   predicted     0.0000000E+00 (-100.00%)
   displ. norm   :     0.1795952 α      lambda       -0.6843057E-03
   maximum displ.:     0.1166181 α      in ANC's #30, #14, #1, ...

........................................................................
.............................. CYCLE    2 ..............................
........................................................................

 iter      E             dE          RMSdq      gap      omega  full diag
   1    -33.3621557 -0.333622E+02  0.746E-02    8.34       0.0  T
   2    -33.3621549  0.775090E-06  0.735E-02    8.34       1.0  T
   3    -33.3621583 -0.336356E-05  0.259E-02    8.34       1.0  T
   4    -33.3621585 -0.166411E-06  0.202E-03    8.34      11.4  T
   5    -33.3621585 -0.273409E-08  0.127E-03    8.34      18.0  T
   6    -33.3621585 -0.158299E-08  0.471E-04    8.34      48.7  T
   7    -33.3621585 -0.177337E-09  0.320E-04    8.34      71.6  T
     SCC iter.                  ...        0 min,  0.003 sec
     gradient                   ...        0 min,  0.001 sec
 * total energy  :   -33.1593960 Eh     change       -0.5214228E-03 Eh
   gradient norm :     0.0055717 Eh/α   predicted    -0.3531909E-03 ( -32.26%)
   displ. norm   :     0.2622627 α      lambda       -0.5278322E-03
   maximum displ.:     0.1616579 α      in ANC's #14, #1, #30, ...

........................................................................
.............................. CYCLE    3 ..............................
........................................................................

 iter      E             dE          RMSdq      gap      omega  full diag
   1    -33.3644564 -0.333645E+02  0.107E-01    8.31       0.0  T
   2    -33.3644546  0.182771E-05  0.104E-01    8.31       1.0  T
   3    -33.3644614 -0.679915E-05  0.371E-02    8.30       1.0  T
   4    -33.3644615 -0.158612E-06  0.831E-03    8.30       2.8  T
   5    -33.3644616 -0.416681E-07  0.111E-03    8.30      20.6  T
   6    -33.3644616 -0.189934E-08  0.554E-04    8.30      41.4  T
   7    -33.3644616 -0.488356E-09  0.341E-04    8.30      67.3  T
     SCC iter.                  ...        0 min,  0.003 sec
     gradient                   ...        0 min,  0.001 sec
 * total energy  :   -33.1597352 Eh     change       -0.3392564E-03 Eh
   gradient norm :     0.0031855 Eh/α   predicted    -0.2820928E-03 ( -16.85%)
   displ. norm   :     0.1725793 α      lambda       -0.1737582E-03
   maximum displ.:     0.1167874 α      in ANC's #1, #14, #30, ...

........................................................................
.............................. CYCLE    4 ..............................
........................................................................

 iter      E             dE          RMSdq      gap      omega  full diag
   1    -33.3643875 -0.333644E+02  0.938E-02    8.29       0.0  T
   2    -33.3643855  0.204559E-05  0.100E-01    8.29       1.0  T
   3    -33.3643925 -0.699805E-05  0.246E-02    8.29       1.0  T
   4    -33.3643925 -0.425511E-07  0.253E-03    8.29       9.1  T
   5    -33.3643925 -0.471782E-08  0.958E-04    8.29      23.9  T
   6    -33.3643925 -0.885414E-09  0.387E-04    8.29      59.3  T
     SCC iter.                  ...        0 min,  0.002 sec
     gradient                   ...        0 min,  0.001 sec
 * total energy  :   -33.1598863 Eh     change       -0.1510330E-03 Eh
   gradient norm :     0.0032156 Eh/α   predicted    -0.8947857E-04 ( -40.76%)
   displ. norm   :     0.2591237 α      lambda       -0.2617416E-03
   maximum displ.:     0.1724573 α      in ANC's #1, #14, #6, ...

........................................................................
.............................. CYCLE    5 ..............................
........................................................................

 iter      E             dE          RMSdq      gap      omega  full diag
   1    -33.3636750 -0.333637E+02  0.134E-01    8.28       0.0  T
   2    -33.3636714  0.364727E-05  0.142E-01    8.28       1.0  T
   3    -33.3636849 -0.135585E-04  0.354E-02    8.28       1.0  T
   4    -33.3636850 -0.476866E-07  0.952E-03    8.28       2.4  T
   5    -33.3636850 -0.591896E-07  0.119E-03    8.28      19.3  T
   6    -33.3636850 -0.304428E-08  0.530E-04    8.28      43.3  T
   7    -33.3636850 -0.148248E-09  0.415E-04    8.28      55.2  T
     SCC iter.                  ...        0 min,  0.003 sec
     gradient                   ...        0 min,  0.001 sec
 * total energy  :   -33.1600757 Eh     change       -0.1894399E-03 Eh
   gradient norm :     0.0047603 Eh/α   predicted    -0.1396585E-03 ( -26.28%)
   displ. norm   :     0.2157424 α      lambda       -0.1839800E-03
   maximum displ.:     0.1518523 α      in ANC's #1, #14, #6, ...

........................................................................
.............................. CYCLE    6 ..............................
........................................................................

 iter      E             dE          RMSdq      gap      omega  full diag
   1    -33.3636927 -0.333637E+02  0.104E-01    8.30       0.0  T
   2    -33.3636904  0.231048E-05  0.111E-01    8.30       1.0  T
   3    -33.3636992 -0.882837E-05  0.273E-02    8.30       1.0  T
   4    -33.3636993 -0.669709E-07  0.959E-03    8.30       2.4  T
   5    -33.3636993 -0.507011E-07  0.134E-03    8.30      17.2  T
   6    -33.3636993 -0.181661E-08  0.865E-04    8.30      26.5  T
   7    -33.3636993 -0.339959E-09  0.451E-04    8.30      50.9  T
     SCC iter.                  ...        0 min,  0.002 sec
     gradient                   ...        0 min,  0.001 sec
 * total energy  :   -33.1601856 Eh     change       -0.1098721E-03 Eh
   gradient norm :     0.0056058 Eh/α   predicted    -0.9627239E-04 ( -12.38%)
   displ. norm   :     0.1860412 α      lambda       -0.1746697E-03
   maximum displ.:     0.1337512 α      in ANC's #1, #6, #14, ...

........................................................................
.............................. CYCLE    7 ..............................
........................................................................

 iter      E             dE          RMSdq      gap      omega  full diag
   1    -33.3652542 -0.333653E+02  0.750E-02    8.34       0.0  T
   2    -33.3652535  0.678136E-06  0.770E-02    8.34       1.0  T
   3    -33.3652567 -0.311910E-05  0.230E-02    8.34       1.0  T
   4    -33.3652567 -0.834264E-07  0.709E-03    8.34       3.2  T
   5    -33.3652568 -0.335900E-07  0.123E-03    8.34      18.6  T
   6    -33.3652568 -0.110214E-08  0.771E-04    8.34      29.7  T
   7    -33.3652568 -0.352181E-09  0.377E-04    8.34      60.9  T
     SCC iter.                  ...        0 min,  0.002 sec
     gradient                   ...        0 min,  0.001 sec
 * total energy  :   -33.1602935 Eh     change       -0.1078898E-03 Eh
   gradient norm :     0.0054576 Eh/α   predicted    -0.9036220E-04 ( -16.25%)
   displ. norm   :     0.1980038 α      lambda       -0.1448271E-03
   maximum displ.:     0.1415794 α      in ANC's #1, #6, #14, ...

........................................................................
.............................. CYCLE    8 ..............................
........................................................................

 iter      E             dE          RMSdq      gap      omega  full diag
   1    -33.3660732 -0.333661E+02  0.624E-02    8.36       0.0  T
   2    -33.3660728  0.352302E-06  0.579E-02    8.36       1.0  T
   3    -33.3660750 -0.216589E-05  0.226E-02    8.36       1.0  T
   4    -33.3660751 -0.742735E-07  0.957E-03    8.36       2.4  T
   5    -33.3660751 -0.503255E-07  0.107E-03    8.36      21.5  T
   6    -33.3660751 -0.116874E-08  0.723E-04    8.36      31.7  T
   7    -33.3660751 -0.293603E-09  0.321E-04    8.36      71.4  T
     SCC iter.                  ...        0 min,  0.002 sec
     gradient                   ...        0 min,  0.001 sec
 * total energy  :   -33.1603958 Eh     change       -0.1023199E-03 Eh
   gradient norm :     0.0056045 Eh/α   predicted    -0.7525344E-04 ( -26.45%)
   displ. norm   :     0.3127171 α      lambda       -0.2099814E-03
   maximum displ.:     0.2163480 α      in ANC's #1, #6, #14, ...

........................................................................
.............................. CYCLE    9 ..............................
........................................................................

 iter      E             dE          RMSdq      gap      omega  full diag
   1    -33.3654261 -0.333654E+02  0.872E-02    8.37       0.0  T
   2    -33.3654259  0.196768E-06  0.750E-02    8.37       1.0  T
   3    -33.3654286 -0.270388E-05  0.370E-02    8.37       1.0  T
   4    -33.3654289 -0.383935E-06  0.377E-03    8.37       6.1  T
   5    -33.3654290 -0.112942E-07  0.215E-03    8.37      10.7  T
   6    -33.3654290 -0.520014E-08  0.717E-04    8.37      32.0  T
   7    -33.3654290 -0.353026E-09  0.556E-04    8.37      41.3  T
     SCC iter.                  ...        0 min,  0.003 sec
     gradient                   ...        0 min,  0.001 sec
 * total energy  :   -33.1604853 Eh     change       -0.8951522E-04 Eh
   gradient norm :     0.0072988 Eh/α   predicted    -0.1152632E-03 (  28.76%)
   displ. norm   :     0.1737815 α      lambda       -0.1258133E-03
   maximum displ.:     0.1166178 α      in ANC's #1, #6, #14, ...

........................................................................
.............................. CYCLE   10 ..............................
........................................................................

 iter      E             dE          RMSdq      gap      omega  full diag
   1    -33.3635339 -0.333635E+02  0.682E-02    8.35       0.0  T
   2    -33.3635338  0.151850E-06  0.631E-02    8.35       1.0  T
   3    -33.3635363 -0.250457E-05  0.238E-02    8.35       1.0  T
   4    -33.3635364 -0.877904E-07  0.131E-02    8.35       1.8  T
   5    -33.3635365 -0.977269E-07  0.149E-03    8.35      15.4  T
   6    -33.3635365 -0.192726E-08  0.959E-04    8.35      23.9  T
   7    -33.3635365 -0.554301E-09  0.397E-04    8.35      57.7  T
     SCC iter.                  ...        0 min,  0.002 sec
     gradient                   ...        0 min,  0.001 sec
 * total energy  :   -33.1605251 Eh     change       -0.3978060E-04 Eh
   gradient norm :     0.0076905 Eh/α   predicted    -0.6480970E-04 (  62.92%)
   displ. norm   :     0.0894184 α      lambda       -0.1218598E-03
   maximum displ.:     0.0467218 α      in ANC's #1, #6, #20, ...

........................................................................
.............................. CYCLE   11 ..............................
........................................................................

 iter      E             dE          RMSdq      gap      omega  full diag
   1    -33.3640185 -0.333640E+02  0.439E-02    8.35       0.0  T
   2    -33.3640187 -0.291747E-06  0.361E-02    8.35       1.0  T
   3    -33.3640191 -0.376826E-06  0.212E-02    8.35       1.1  T
   4    -33.3640193 -0.212498E-06  0.240E-03    8.35       9.6  T
   5    -33.3640193 -0.284737E-08  0.160E-03    8.35      14.3  T
   6    -33.3640193 -0.199564E-08  0.388E-04    8.35      59.1  T
   7    -33.3640193 -0.175355E-09  0.261E-04    8.35      88.0  T
     SCC iter.                  ...        0 min,  0.003 sec
     gradient                   ...        0 min,  0.001 sec
 * total energy  :   -33.1605388 Eh     change       -0.1371104E-04 Eh
   gradient norm :     0.0086364 Eh/α   predicted    -0.6142188E-04 ( 347.97%)
   displ. norm   :     0.0762948 α      lambda       -0.1380077E-03
   maximum displ.:     0.0468006 α      in ANC's #14, #12, #6, ...

........................................................................
.............................. CYCLE   12 ..............................
........................................................................

 iter      E             dE          RMSdq      gap      omega  full diag
   1    -33.3672652 -0.333673E+02  0.644E-02    8.39       0.0  T
   2    -33.3672646  0.574708E-06  0.664E-02    8.39       1.0  T
   3    -33.3672676 -0.299607E-05  0.179E-02    8.39       1.3  T
   4    -33.3672677 -0.724776E-07  0.921E-03    8.39       2.5  T
   5    -33.3672677 -0.505535E-07  0.134E-03    8.39      17.1  T
   6    -33.3672677 -0.179332E-08  0.789E-04    8.39      29.1  T
   7    -33.3672677 -0.291607E-09  0.403E-04    8.39      57.0  T
     SCC iter.                  ...        0 min,  0.003 sec
     gradient                   ...        0 min,  0.001 sec
 * total energy  :   -33.1605847 Eh     change       -0.4588134E-04 Eh
   gradient norm :     0.0063606 Eh/α   predicted    -0.6940776E-04 (  51.28%)
   displ. norm   :     0.0972771 α      lambda       -0.9823935E-04
   maximum displ.:     0.0620500 α      in ANC's #1, #6, #17, ...

........................................................................
.............................. CYCLE   13 ..............................
........................................................................

 iter      E             dE          RMSdq      gap      omega  full diag
   1    -33.3660523 -0.333661E+02  0.612E-02    8.37       0.0  T
   2    -33.3660520  0.347311E-06  0.591E-02    8.37       1.0  T
   3    -33.3660543 -0.234376E-05  0.216E-02    8.37       1.1  T
   4    -33.3660544 -0.136191E-06  0.951E-03    8.37       2.4  T
   5    -33.3660545 -0.467880E-07  0.125E-03    8.37      18.4  T
   6    -33.3660545 -0.101561E-08  0.714E-04    8.37      32.1  T
   7    -33.3660545 -0.253763E-09  0.362E-04    8.37      63.3  T
     SCC iter.                  ...        0 min,  0.003 sec
     gradient                   ...        0 min,  0.001 sec
 * total energy  :   -33.1606015 Eh     change       -0.1678432E-04 Eh
   gradient norm :     0.0069079 Eh/α   predicted    -0.4958633E-04 ( 195.43%)
   displ. norm   :     0.0644387 α      lambda       -0.6401665E-04
   maximum displ.:     0.0401752 α      in ANC's #1, #6, #17, ...

........................................................................
.............................. CYCLE   14 ..............................
........................................................................

 iter      E             dE          RMSdq      gap      omega  full diag
   1    -33.3653545 -0.333654E+02  0.321E-02    8.36       0.0  T
   2    -33.3653545 -0.179397E-08  0.303E-02    8.36       1.0  T
   3    -33.3653550 -0.535856E-06  0.113E-02    8.37       2.0  T
   4    -33.3653551 -0.364354E-07  0.679E-03    8.37       3.4  T
   5    -33.3653551 -0.225898E-07  0.783E-04    8.37      29.3  T
   6    -33.3653551 -0.580904E-09  0.388E-04    8.37      59.1  T
     SCC iter.                  ...        0 min,  0.002 sec
     gradient                   ...        0 min,  0.001 sec
 * total energy  :   -33.1606392 Eh     change       -0.3770955E-04 Eh
   gradient norm :     0.0017459 Eh/α   predicted    -0.3214606E-04 ( -14.75%)
   displ. norm   :     0.1047875 α      lambda       -0.3078236E-04
   maximum displ.:     0.0567719 α      in ANC's #6, #1, #14, ...

........................................................................
.............................. CYCLE   15 ..............................
........................................................................

 iter      E             dE          RMSdq      gap      omega  full diag
   1    -33.3664720 -0.333665E+02  0.421E-02    8.37       0.0  T
   2    -33.3664717  0.345177E-06  0.446E-02    8.37       1.0  T
   3    -33.3664729 -0.125952E-05  0.128E-02    8.37       1.8  T
   4    -33.3664729 -0.340831E-07  0.240E-03    8.37       9.6  T
   5    -33.3664730 -0.395365E-08  0.759E-04    8.37      30.2  T
   6    -33.3664730 -0.657387E-09  0.406E-04    8.37      56.5  T
     SCC iter.                  ...        0 min,  0.002 sec
     gradient                   ...        0 min,  0.001 sec
 * total energy  :   -33.1606547 Eh     change       -0.1550860E-04 Eh
   gradient norm :     0.0049607 Eh/α   predicted    -0.1546713E-04 (  -0.27%)
   displ. norm   :     0.1010226 α      lambda       -0.4042795E-04
   maximum displ.:     0.0650370 α      in ANC's #1, #6, #14, ...

........................................................................
.............................. CYCLE   16 ..............................
........................................................................

 iter      E             dE          RMSdq      gap      omega  full diag
   1    -33.3659629 -0.333660E+02  0.361E-02    8.37       0.0  T
   2    -33.3659628  0.762768E-07  0.340E-02    8.37       1.0  T
   3    -33.3659636 -0.802700E-06  0.116E-02    8.37       2.0  T
   4    -33.3659636 -0.688836E-08  0.839E-03    8.37       2.7  T
   5    -33.3659636 -0.338900E-07  0.622E-04    8.37      36.9  T
   6    -33.3659636 -0.390372E-09  0.233E-04    8.37      98.6  T
     SCC iter.                  ...        0 min,  0.002 sec
     gradient                   ...        0 min,  0.001 sec
 * total energy  :   -33.1606784 Eh     change       -0.2373007E-04 Eh
   gradient norm :     0.0045948 Eh/α   predicted    -0.2042356E-04 ( -13.93%)
   displ. norm   :     0.1058368 α      lambda       -0.4419697E-04
   maximum displ.:     0.0623231 α      in ANC's #1, #6, #14, ...

........................................................................
.............................. CYCLE   17 ..............................
........................................................................

 iter      E             dE          RMSdq      gap      omega  full diag
   1    -33.3655142 -0.333655E+02  0.431E-02    8.36       0.0  T
   2    -33.3655139  0.254691E-06  0.446E-02    8.36       1.0  T
   3    -33.3655152 -0.125652E-05  0.136E-02    8.36       1.7  T
   4    -33.3655152 -0.391433E-07  0.665E-03    8.36       3.4  T
   5    -33.3655153 -0.256048E-07  0.891E-04    8.36      25.8  T
   6    -33.3655153 -0.975696E-09  0.415E-04    8.36      55.3  T
     SCC iter.                  ...        0 min,  0.002 sec
     gradient                   ...        0 min,  0.001 sec
 * total energy  :   -33.1606965 Eh     change       -0.1806827E-04 Eh
   gradient norm :     0.0034157 Eh/α   predicted    -0.2235078E-04 (  23.70%)
   displ. norm   :     0.0740367 α      lambda       -0.3344865E-04
   maximum displ.:     0.0457869 α      in ANC's #1, #14, #6, ...

........................................................................
.............................. CYCLE   18 ..............................
........................................................................

 iter      E             dE          RMSdq      gap      omega  full diag
   1    -33.3650727 -0.333651E+02  0.311E-02    8.36       0.0  T
   2    -33.3650727 -0.307574E-07  0.284E-02    8.36       1.0  T
   3    -33.3650729 -0.250831E-06  0.129E-02    8.36       1.8  T
   4    -33.3650730 -0.378783E-07  0.371E-03    8.36       6.2  T
   5    -33.3650730 -0.934870E-08  0.700E-04    8.36      32.8  T
   6    -33.3650730 -0.495547E-09  0.269E-04    8.36      85.4  T
     SCC iter.                  ...        0 min,  0.002 sec
     gradient                   ...        0 min,  0.001 sec
 * total energy  :   -33.1607077 Eh     change       -0.1122249E-04 Eh
   gradient norm :     0.0028435 Eh/α   predicted    -0.1681997E-04 (  49.88%)
   displ. norm   :     0.0299526 α      lambda       -0.1805776E-04
   maximum displ.:     0.0138359 α      in ANC's #1, #11, #16, ...

........................................................................
.............................. CYCLE   19 ..............................
........................................................................

 iter      E             dE          RMSdq      gap      omega  full diag
   1    -33.3653662 -0.333654E+02  0.209E-02    8.37       0.0  T
   2    -33.3653661  0.323463E-07  0.216E-02    8.37       1.1  T
   3    -33.3653664 -0.263669E-06  0.587E-03    8.37       3.9  T
   4    -33.3653664 -0.158017E-08  0.439E-03    8.37       5.2  T
   5    -33.3653664 -0.966770E-08  0.366E-04    8.37      62.6  T
   6    -33.3653664 -0.128210E-09  0.233E-04    8.37      98.5  T
     SCC iter.                  ...        0 min,  0.002 sec
     gradient                   ...        0 min,  0.001 sec
 * total energy  :   -33.1607179 Eh     change       -0.1021165E-04 Eh
   gradient norm :     0.0015472 Eh/α   predicted    -0.9038033E-05 ( -11.49%)
   displ. norm   :     0.0752007 α      lambda       -0.1893258E-04
   maximum displ.:     0.0451344 α      in ANC's #1, #11, #15, ...

........................................................................
.............................. CYCLE   20 ..............................
........................................................................

 iter      E             dE          RMSdq      gap      omega  full diag
   1    -33.3655486 -0.333655E+02  0.413E-02    8.37       0.0  T
   2    -33.3655484  0.155977E-06  0.420E-02    8.37       1.0  T
   3    -33.3655495 -0.110023E-05  0.125E-02    8.37       1.8  T
   4    -33.3655495 -0.139446E-07  0.854E-03    8.37       2.7  T
   5    -33.3655496 -0.411624E-07  0.797E-04    8.37      28.8  T
   6    -33.3655496 -0.552774E-09  0.553E-04    8.37      41.5  T
     SCC iter.                  ...        0 min,  0.002 sec
     gradient                   ...        0 min,  0.001 sec
 * total energy  :   -33.1607213 Eh     change       -0.3401510E-05 Eh
   gradient norm :     0.0040929 Eh/α   predicted    -0.9491168E-05 ( 179.03%)
   displ. norm   :     0.0353193 α      lambda       -0.1872544E-04
   maximum displ.:     0.0247105 α      in ANC's #1, #14, #7, ...
 * RMSD in coord.:     0.4847431 α      energy gain  -0.1846759E-02 Eh

generating ANC from model Hessian ...
Using Lindh-Hessian (1995)
 Shifting diagonal of input Hessian by    1.0006385351806663E-002
 Lowest  eigenvalues of input Hessian
    0.010000    0.000000    0.000000    0.000000    0.000000    0.000000
    0.000000    0.010132    0.010140    0.010237    0.010244    0.010341
    0.010358    0.010360    0.010468    0.010681    0.010685    0.010693
 Highest eigenvalues
    1.439881    1.440585    1.441379    1.441753    1.442573    1.443819


........................................................................
.............................. CYCLE   21 ..............................
........................................................................

 iter      E             dE          RMSdq      gap      omega  full diag
   1    -33.3657287 -0.333657E+02  0.164E-02    8.37       0.0  T
   2    -33.3657287  0.464786E-07  0.168E-02    8.37       1.4  T
   3    -33.3657289 -0.199837E-06  0.511E-03    8.37       4.5  T
   4    -33.3657289 -0.203752E-08  0.302E-03    8.37       7.6  T
   5    -33.3657289 -0.508339E-08  0.271E-04    8.37      84.7  T
   6    -33.3657289 -0.521965E-10  0.169E-04    8.37     135.5  T
     SCC iter.                  ...        0 min,  0.003 sec
     gradient                   ...        0 min,  0.001 sec
 * total energy  :   -33.1607341 Eh     change       -0.1278840E-04 Eh
   gradient norm :     0.0020494 Eh/α   predicted     0.0000000E+00 (-100.00%)
   displ. norm   :     0.0227719 α      lambda       -0.9197095E-05
   maximum displ.:     0.0106107 α      in ANC's #1, #5, #21, ...

........................................................................
.............................. CYCLE   22 ..............................
........................................................................

 iter      E             dE          RMSdq      gap      omega  full diag
   1    -33.3654536 -0.333655E+02  0.166E-02    8.37       0.0  T
   2    -33.3654536  0.129226E-07  0.169E-02    8.37       1.4  T
   3    -33.3654538 -0.141520E-06  0.559E-03    8.37       4.1  T
   4    -33.3654538 -0.378766E-08  0.340E-03    8.37       6.7  T
   5    -33.3654538 -0.628562E-08  0.336E-04    8.37      68.2  T
   6    -33.3654538 -0.525873E-10  0.162E-04    8.37     141.5  T
     SCC iter.                  ...        0 min,  0.002 sec
     gradient                   ...        0 min,  0.001 sec
 * total energy  :   -33.1607406 Eh     change       -0.6518792E-05 Eh
   gradient norm :     0.0006098 Eh/α   predicted    -0.4880177E-05 ( -25.14%)
   displ. norm   :     0.0554269 α      lambda       -0.8295432E-05
   maximum displ.:     0.0306943 α      in ANC's #1, #5, #6, ...

........................................................................
.............................. CYCLE   23 ..............................
........................................................................

 iter      E             dE          RMSdq      gap      omega  full diag
   1    -33.3650278 -0.333650E+02  0.235E-02    8.37       0.0  T
   2    -33.3650277  0.887528E-07  0.255E-02    8.37       1.0  T
   3    -33.3650280 -0.332297E-06  0.697E-03    8.37       3.3  T
   4    -33.3650280 -0.583924E-09  0.298E-03    8.37       7.7  T
   5    -33.3650280 -0.650896E-08  0.372E-04    8.37      61.7  T
   6    -33.3650280 -0.171894E-09  0.270E-04    8.37      85.0  T
     SCC iter.                  ...        0 min,  0.002 sec
     gradient                   ...        0 min,  0.001 sec
 * total energy  :   -33.1607474 Eh     change       -0.6759561E-05 Eh
   gradient norm :     0.0019336 Eh/α   predicted    -0.4154133E-05 ( -38.54%)
   displ. norm   :     0.0435293 α      lambda       -0.4938678E-05
   maximum displ.:     0.0256662 α      in ANC's #1, #10, #11, ...

........................................................................
.............................. CYCLE   24 ..............................
........................................................................

 iter      E             dE          RMSdq      gap      omega  full diag
   1    -33.3651274 -0.333651E+02  0.174E-02    8.37       0.0  T
   2    -33.3651274  0.374046E-07  0.174E-02    8.37       1.3  T
   3    -33.3651276 -0.191329E-06  0.570E-03    8.37       4.0  T
   4    -33.3651276  0.124723E-08  0.368E-03    8.37       6.2  T
   5    -33.3651276 -0.613383E-08  0.200E-04    8.37     114.9  T
   6    -33.3651276 -0.690363E-10  0.116E-04    8.37     197.9  T
     SCC iter.                  ...        0 min,  0.002 sec
     gradient                   ...        0 min,  0.001 sec
 * total energy  :   -33.1607538 Eh     change       -0.6439072E-05 Eh
   gradient norm :     0.0013477 Eh/α   predicted    -0.2471772E-05 ( -61.61%)
   displ. norm   :     0.1002942 α      lambda       -0.1093931E-04
   maximum displ.:     0.0580899 α      in ANC's #1, #10, #11, ...

........................................................................
.............................. CYCLE   25 ..............................
........................................................................

 iter      E             dE          RMSdq      gap      omega  full diag
   1    -33.3653894 -0.333654E+02  0.359E-02    8.37       0.0  T
   2    -33.3653893  0.114445E-06  0.329E-02    8.37       1.0  T
   3    -33.3653900 -0.665673E-06  0.136E-02    8.37       1.7  T
   4    -33.3653900 -0.465287E-08  0.831E-03    8.38       2.8  T
   5    -33.3653900 -0.291232E-07  0.457E-04    8.38      50.2  T
   6    -33.3653900 -0.323482E-09  0.246E-04    8.37      93.3  T
     SCC iter.                  ...        0 min,  0.003 sec
     gradient                   ...        0 min,  0.001 sec
 * total energy  :   -33.1607627 Eh     change       -0.8911871E-05 Eh
   gradient norm :     0.0009380 Eh/α   predicted    -0.5496085E-05 ( -38.33%)
   displ. norm   :     0.0263890 α      lambda       -0.3071346E-05
   maximum displ.:     0.0157257 α      in ANC's #1, #10, #2, ...

........................................................................
.............................. CYCLE   26 ..............................
........................................................................

 iter      E             dE          RMSdq      gap      omega  full diag
   1    -33.3655260 -0.333655E+02  0.147E-02    8.38       0.0  T
   2    -33.3655260  0.152551E-07  0.143E-02    8.38       1.6  T
   3    -33.3655261 -0.136524E-06  0.420E-03    8.38       5.5  T
   4    -33.3655261 -0.301021E-09  0.324E-03    8.38       7.1  T
   5    -33.3655261 -0.494242E-08  0.220E-04    8.38     104.2  T
   6    -33.3655261 -0.441958E-10  0.109E-04    8.38     210.3  T
     SCC iter.                  ...        0 min,  0.002 sec
     gradient                   ...        0 min,  0.001 sec
 * total energy  :   -33.1607662 Eh     change       -0.3517162E-05 Eh
   gradient norm :     0.0007740 Eh/α   predicted    -0.1539474E-05 ( -56.23%)
   displ. norm   :     0.0601820 α      lambda       -0.5608653E-05
   maximum displ.:     0.0334635 α      in ANC's #1, #2, #10, ...

........................................................................
.............................. CYCLE   27 ..............................
........................................................................

 iter      E             dE          RMSdq      gap      omega  full diag
   1    -33.3655592 -0.333656E+02  0.233E-02    8.38       0.0  T
   2    -33.3655592 -0.355025E-08  0.213E-02    8.38       1.1  T
   3    -33.3655593 -0.169067E-06  0.809E-03    8.38       2.8  T
   4    -33.3655593  0.394324E-08  0.469E-03    8.38       4.9  T
   5    -33.3655594 -0.151764E-07  0.353E-04    8.38      65.1  T
   6    -33.3655594 -0.136268E-09  0.175E-04    8.38     131.5  T
     SCC iter.                  ...        0 min,  0.002 sec
     gradient                   ...        0 min,  0.001 sec
 * total energy  :   -33.1607717 Eh     change       -0.5447333E-05 Eh
   gradient norm :     0.0007331 Eh/α   predicted    -0.2811727E-05 ( -48.38%)
   displ. norm   :     0.0666212 α      lambda       -0.4114100E-05
   maximum displ.:     0.0392455 α      in ANC's #1, #2, #10, ...

........................................................................
.............................. CYCLE   28 ..............................
........................................................................

 iter      E             dE          RMSdq      gap      omega  full diag
   1    -33.3652927 -0.333653E+02  0.232E-02    8.38       0.0  T
   2    -33.3652927  0.939148E-08  0.197E-02    8.38       1.2  T
   3    -33.3652929 -0.207624E-06  0.900E-03    8.38       2.5  T
   4    -33.3652929 -0.303326E-08  0.593E-03    8.38       3.9  T
   5    -33.3652929 -0.156099E-07  0.340E-04    8.38      67.5  T
   6    -33.3652929 -0.131337E-09  0.155E-04    8.38     148.0  T
     SCC iter.                  ...        0 min,  0.003 sec
     gradient                   ...        0 min,  0.001 sec
 * total energy  :   -33.1607755 Eh     change       -0.3864072E-05 Eh
   gradient norm :     0.0006334 Eh/α   predicted    -0.2062663E-05 ( -46.62%)
   displ. norm   :     0.0463100 α      lambda       -0.2380290E-05
   maximum displ.:     0.0277290 α      in ANC's #1, #2, #12, ...

........................................................................
.............................. CYCLE   29 ..............................
........................................................................

 iter      E             dE          RMSdq      gap      omega  full diag
   1    -33.3652924 -0.333653E+02  0.121E-02    8.38       0.0  T
   2    -33.3652924 -0.339321E-08  0.868E-03    8.38       2.6  T
   3    -33.3652925 -0.144416E-07  0.608E-03    8.38       3.8  T
   4    -33.3652925 -0.109369E-07  0.203E-03    8.38      11.3  T
   5    -33.3652925 -0.218099E-08  0.219E-04    8.38     104.5  T
   6    -33.3652925 -0.561968E-10  0.551E-05    8.38     416.3  T
     SCC iter.                  ...        0 min,  0.002 sec
     gradient                   ...        0 min,  0.001 sec
 * total energy  :   -33.1607782 Eh     change       -0.2655403E-05 Eh
   gradient norm :     0.0005640 Eh/α   predicted    -0.1193165E-05 ( -55.07%)
   displ. norm   :     0.0468798 α      lambda       -0.2345188E-05
   maximum displ.:     0.0275311 α      in ANC's #1, #2, #12, ...

........................................................................
.............................. CYCLE   30 ..............................
........................................................................

 iter      E             dE          RMSdq      gap      omega  full diag
   1    -33.3653863 -0.333654E+02  0.159E-02    8.38       0.0  T
   2    -33.3653863  0.363142E-07  0.163E-02    8.38       1.4  T
   3    -33.3653864 -0.119811E-06  0.541E-03    8.38       4.2  T
   4    -33.3653864 -0.294999E-08  0.176E-03    8.38      13.1  T
   5    -33.3653864 -0.213046E-08  0.220E-04    8.38     104.1  T
   6    -33.3653864 -0.585203E-10  0.121E-04    8.38     190.3  T
     SCC iter.                  ...        0 min,  0.002 sec
     gradient                   ...        0 min,  0.001 sec
 * total energy  :   -33.1607806 Eh     change       -0.2393476E-05 Eh
   gradient norm :     0.0003513 Eh/α   predicted    -0.1174663E-05 ( -50.92%)
   displ. norm   :     0.0359931 α      lambda       -0.1215064E-05
   maximum displ.:     0.0219521 α      in ANC's #1, #2, #12, ...

........................................................................
.............................. CYCLE   31 ..............................
........................................................................

 iter      E             dE          RMSdq      gap      omega  full diag
   1    -33.3653933 -0.333654E+02  0.107E-02    8.38       0.0  T
   2    -33.3653933  0.913438E-08  0.975E-03    8.38       2.4  T
   3    -33.3653934 -0.452540E-07  0.436E-03    8.38       5.3  T
   4    -33.3653934 -0.348611E-08  0.147E-03    8.38      15.6  T
   5    -33.3653934 -0.163080E-08  0.184E-04    8.38     124.5  T
   6    -33.3653934 -0.359250E-10  0.980E-05    8.38     234.2  T
     SCC iter.                  ...        0 min,  0.002 sec
     gradient                   ...        0 min,  0.001 sec
 * total energy  :   -33.1607817 Eh     change       -0.1150454E-05 Eh
   gradient norm :     0.0003718 Eh/α   predicted    -0.6118974E-06 ( -46.81%)
   displ. norm   :     0.0242684 α      lambda       -0.7297213E-06
   maximum displ.:     0.0146570 α      in ANC's #1, #2, #8, ...

........................................................................
.............................. CYCLE   32 ..............................
........................................................................

 iter      E             dE          RMSdq      gap      omega  full diag
   1    -33.3653991 -0.333654E+02  0.926E-03    8.38       0.0  T
   2    -33.3653990  0.194872E-07  0.104E-02    8.38       2.2  T
   3    -33.3653991 -0.606482E-07  0.257E-03    8.38       8.9  T
   4    -33.3653991 -0.174545E-09  0.126E-03    8.38      18.3  T
   5    -33.3653991 -0.101298E-08  0.102E-04    8.38     225.3  T
   6    -33.3653991 -0.549960E-11  0.679E-05    8.38     337.9  T
     SCC iter.                  ...        0 min,  0.002 sec
     gradient                   ...        0 min,  0.001 sec
 * total energy  :   -33.1607825 Eh     change       -0.7076163E-06 Eh
   gradient norm :     0.0002328 Eh/α   predicted    -0.3692931E-06 ( -47.81%)
   displ. norm   :     0.0188922 α      lambda       -0.4879228E-06
   maximum displ.:     0.0116943 α      in ANC's #1, #2, #10, ...

........................................................................
.............................. CYCLE   33 ..............................
........................................................................

 iter      E             dE          RMSdq      gap      omega  full diag
   1    -33.3653965 -0.333654E+02  0.559E-03    8.38       0.0  T
   2    -33.3653965  0.295383E-08  0.555E-03    8.38       4.1  T
   3    -33.3653965 -0.207496E-07  0.172E-03    8.38      13.3  T
   4    -33.3653965  0.860609E-10  0.123E-03    8.38      18.6  T
   5    -33.3653965 -0.836081E-09  0.783E-05    8.38     293.1  T
   6    -33.3653965 -0.645173E-11  0.577E-05    8.38     397.3  T
     SCC iter.                  ...        0 min,  0.002 sec
     gradient                   ...        0 min,  0.001 sec
 * total energy  :   -33.1607830 Eh     change       -0.5259987E-06 Eh
   gradient norm :     0.0002284 Eh/α   predicted    -0.2473559E-06 ( -52.97%)
   displ. norm   :     0.0163876 α      lambda       -0.3080893E-06
   maximum displ.:     0.0096058 α      in ANC's #1, #2, #5, ...

........................................................................
.............................. CYCLE   34 ..............................
........................................................................

 iter      E             dE          RMSdq      gap      omega  full diag
   1    -33.3653710 -0.333654E+02  0.432E-03    8.38       0.0  T
   2    -33.3653710 -0.378805E-09  0.392E-03    8.38       5.9  T
   3    -33.3653710 -0.789789E-08  0.137E-03    8.38      16.7  T
   4    -33.3653710  0.299657E-09  0.961E-04    8.38      23.9  T
   5    -33.3653710 -0.631161E-09  0.567E-05    8.38     404.5  T
     SCC iter.                  ...        0 min,  0.003 sec
     gradient                   ...        0 min,  0.001 sec
 * total energy  :   -33.1607833 Eh     change       -0.3094987E-06 Eh
   gradient norm :     0.0000889 Eh/α   predicted    -0.1586427E-06 ( -48.74%)
   displ. norm   :     0.0090043 α      lambda       -0.1051064E-06
   maximum displ.:     0.0049234 α      in ANC's #1, #2, #5, ...

........................................................................
.............................. CYCLE   35 ..............................
........................................................................

 iter      E             dE          RMSdq      gap      omega  full diag
   1    -33.3653523 -0.333654E+02  0.362E-03    8.38       0.0  T
   2    -33.3653523  0.129281E-08  0.377E-03    8.38       6.1  T
   3    -33.3653523 -0.837704E-08  0.107E-03    8.38      21.5  T
   4    -33.3653523 -0.335163E-10  0.736E-04    8.38      31.2  T
   5    -33.3653523 -0.279286E-09  0.492E-05    8.38     466.8  T
     SCC iter.                  ...        0 min,  0.001 sec
     gradient                   ...        0 min,  0.001 sec
 * total energy  :   -33.1607834 Eh     change       -0.1116881E-06 Eh
   gradient norm :     0.0000652 Eh/α   predicted    -0.5654289E-07 ( -49.37%)
   displ. norm   :     0.0060927 α      lambda       -0.4449385E-07
   maximum displ.:     0.0033757 α      in ANC's #1, #3, #2, ...

........................................................................
.............................. CYCLE   36 ..............................
........................................................................

 iter      E             dE          RMSdq      gap      omega  full diag
   1    -33.3653579 -0.333654E+02  0.195E-03    8.38       0.0  T
   2    -33.3653579 -0.956675E-10  0.169E-03    8.38      13.5  T
   3    -33.3653579 -0.166008E-08  0.766E-04    8.38      30.0  T
   4    -33.3653579 -0.529425E-10  0.508E-04    8.38      45.2  T
     SCC iter.                  ...        0 min,  0.002 sec
     gradient                   ...        0 min,  0.001 sec
 * total energy  :   -33.1607835 Eh     change       -0.5148470E-07 Eh
   gradient norm :     0.0000342 Eh/α   predicted    -0.2542902E-07 ( -50.61%)
   displ. norm   :     0.0060927 α      lambda        0.0000000E+00
   maximum displ.:     0.0033757 α      in ANC's #1, #3, #2, ...

........................................................................
.............................. CYCLE   37 ..............................
........................................................................

 iter      E             dE          RMSdq      gap      omega  full diag
   1    -33.3653628 -0.333654E+02  0.196E-03    8.38       0.0  T
   2    -33.3653628 -0.100009E-09  0.170E-03    8.38      13.5  T
   3    -33.3653628 -0.166386E-08  0.768E-04    8.38      29.9  T
   4    -33.3653628 -0.573550E-10  0.510E-04    8.38      45.0  T
     SCC iter.                  ...        0 min,  0.001 sec
     gradient                   ...        0 min,  0.001 sec
 * total energy  :   -33.1607835 Eh     change       -0.8262830E-09 Eh
   gradient norm :     0.0000845 Eh/α   predicted     0.4557065E-08 (-651.51%)
   displ. norm   :     0.0029665 α      lambda       -0.3235606E-07
   maximum displ.:     0.0013331 α      in ANC's #2, #5, #1, ...

........................................................................
.............................. CYCLE   38 ..............................
........................................................................

 iter      E             dE          RMSdq      gap      omega  full diag
   1    -33.3653585 -0.333654E+02  0.163E-03    8.38       0.0  T
   2    -33.3653585  0.273197E-09  0.167E-03    8.38      13.8  T
   3    -33.3653585 -0.149495E-08  0.502E-04    8.38      45.7  T
   4    -33.3653585 -0.756017E-11  0.305E-04    8.38      75.3  T
     SCC iter.                  ...        0 min,  0.001 sec
     gradient                   ...        0 min,  0.001 sec
 * total energy  :   -33.1607835 Eh     change       -0.3190623E-07 Eh
   gradient norm :     0.0000413 Eh/α   predicted    -0.1769820E-07 ( -44.53%)
   displ. norm   :     0.0046697 α      lambda        0.1284856E-07
   maximum displ.:     0.0023687 α      in ANC's #2, #5, #10, ...

   *** GEOMETRY OPTIMIZATION CONVERGED AFTER 38 ITERATIONS ***

------------------------------------------------------------------------
 total energy gain   :        -0.0019089 Eh       -1.1979 kcal/mol
 total RMSD          :         0.5524903 a0        0.2924 Å
 total power (kW/mol):        -0.1318929 (step)  -31.0775 (real)
------------------------------------------------------------------------

 ANCopt (total)                0 d,  0 h,  0 min,  0.161 sec
 optimizer setup                ...        0 min,  0.000 sec (  0.103%)
 model hessian                  ...        0 min,  0.006 sec (  3.881%)
 ANC generation                 ...        0 min,  0.003 sec (  1.718%)
 coordinate transformation      ...        0 min,  0.000 sec (  0.107%)
 single point calculation       ...        0 min,  0.145 sec ( 89.666%)
 optimization log               ...        0 min,  0.003 sec (  2.052%)
 hessian update                 ...        0 min,  0.000 sec (  0.289%)
 rational function              ...        0 min,  0.002 sec (  1.462%)

================
 final structure:
================
19
 xtb: 6.6.0 (conda-forge)
Fe          -0.78714451487387        0.71226915520398        0.03207710247639
O           -1.52333927971102        2.92215141551448        0.01280207218086
H           -1.85803704776679        3.46944768441139       -0.70169462990760
O            1.38277184622495        1.56218460645010       -0.03432293156127
H            2.21465479417314        1.10275165142833       -0.17098902385176
O           -0.61198496101904        0.94253732671292        2.34183063740006
H           -1.18134772101367        0.64886291424152        3.05723288429415
O           -0.53029947952301       -1.56773394019058        0.43436611190656
H           -1.28388732854830       -2.16279508672166        0.45084560882895
O           -3.03112173650222        0.21474561396913       -0.34773464130743
H           -3.36059218300885        0.01171864144668       -1.22650534093683
O           -0.39925425976000        0.19378613988181       -2.20482513181184
H           -0.30100301045325        0.76181215069939       -2.97261226444427
H           -0.15032242656398       -0.69107456639008       -2.48288533500111
H            1.56273258089868        2.49789081737580       -0.15355313265552
H           -1.68480075902623        3.40356849361214        0.82793362835715
H           -3.80024069264224        0.36643161446758        0.20674565692535
H            0.21738019212729        1.21397698791594        2.74257076722585
H            0.21431841697721       -2.05645185002276        0.79276337188855

 Bond Distances (Angstroems)
 ---------------------------
Fe1-O2=2.3294        Fe1-O4=2.3314        Fe1-O6=2.3278        Fe1-O8=2.3294        Fe1-O10=2.3296       Fe1-O12=2.3287       
O2-Fe1=2.3294        O2-H3=0.9602         O2-H16=0.9603        H3-O2=0.9602         O4-Fe1=2.3314        O4-H5=0.9601         
O4-H15=0.9603        H5-O4=0.9601         O6-Fe1=2.3278        O6-H7=0.9603         O6-H18=0.9603        H7-O6=0.9603         
O8-Fe1=2.3294        O8-H9=0.9603         O8-H19=0.9601        H9-O8=0.9603         O10-Fe1=2.3296       O10-H11=0.9602       
O10-H17=0.9602       H11-O10=0.9602       O12-Fe1=2.3287       O12-H13=0.9601       O12-H14=0.9603       H13-O12=0.9601       
H14-O12=0.9603       H15-O4=0.9603        H16-O2=0.9603        H17-O10=0.9602       H18-O6=0.9603        H19-O8=0.9601        
 O  H  Rav=0.9602 sigma=0.0001  Rmin=0.9601  Rmax=0.9603    12
 Fe O  Rav=2.3294 sigma=0.0011  Rmin=2.3278  Rmax=2.3314     6

 selected bond angles (degree)
 --------------------
O4-Fe1-O2= 87.02               O6-Fe1-O2= 86.45               O6-Fe1-O4= 85.54               O8-Fe1-O2=164.76               
O8-Fe1-O4=105.02               O8-Fe1-O6= 85.25               O10-Fe1-O2= 84.08              O10-Fe1-O4=165.87              
O10-Fe1-O6=104.80              O10-Fe1-O8= 85.72              O12-Fe1-O2=104.83              O12-Fe1-O4= 84.19              
O12-Fe1-O6=164.28              O12-Fe1-O8= 85.96              O12-Fe1-O10= 87.49             H3-O2-Fe1=131.07               
H16-O2-Fe1=121.45              H16-O2-H3=106.69               H5-O4-Fe1=129.50               H15-O4-Fe1=122.22              
H15-O4-H5=106.63               H7-O6-Fe1=131.63               H18-O6-Fe1=120.47              H18-O6-H7=106.72               
H9-O8-Fe1=121.53               H19-O8-Fe1=130.41              H19-O8-H9=106.67               H11-O10-Fe1=121.66             
H17-O10-Fe1=130.06             H17-O10-H11=106.68             

 selected dihedral angles (degree)
 ---------------------------------
H3-O2-Fe1-O4= 99.91           H3-O2-Fe1-O6=185.62           H3-O2-Fe1-O8=242.70           H3-O2-Fe1-O10=290.90          
H3-O2-Fe1-O12= 16.72          H16-O2-Fe1-O4=268.32          H16-O2-Fe1-O6=354.02          H16-O2-Fe1-O8= 51.11          
H16-O2-Fe1-O10= 99.31         H16-O2-Fe1-O12=185.13         H5-O4-Fe1-O2=189.66           H5-O4-Fe1-O6=102.99           
H5-O4-Fe1-O8= 19.13           H5-O4-Fe1-O10=240.64          H5-O4-Fe1-O12=294.90          H15-O4-Fe1-O2=352.99          
H15-O4-Fe1-O6=266.31          H15-O4-Fe1-O8=182.46          H15-O4-Fe1-O10= 43.96         H15-O4-Fe1-O12= 98.23         
H7-O6-Fe1-O2=101.60           H7-O6-Fe1-O4=188.89           H7-O6-Fe1-O8=294.39           H7-O6-Fe1-O10= 18.68          
H7-O6-Fe1-O12=238.18          H18-O6-Fe1-O2=267.36          H18-O6-Fe1-O4=354.65          H18-O6-Fe1-O8=100.15          
H18-O6-Fe1-O10=184.44         H18-O6-Fe1-O12= 43.94         H9-O8-Fe1-O2= 42.72           H9-O8-Fe1-O4=184.02           
H9-O8-Fe1-O6= 99.94           H9-O8-Fe1-O10=354.68          H9-O8-Fe1-O12=266.90          H19-O8-Fe1-O2=238.11          
H19-O8-Fe1-O4= 19.41          H19-O8-Fe1-O6=295.34          H19-O8-Fe1-O10=190.08         H19-O8-Fe1-O12=102.29         
H11-O10-Fe1-O2= 99.43         H11-O10-Fe1-O4= 48.17         H11-O10-Fe1-O6=184.17         H11-O10-Fe1-O8=268.10         
H11-O10-Fe1-O12=354.24        H17-O10-Fe1-O2=295.84         H17-O10-Fe1-O4=244.58         H17-O10-Fe1-O6= 20.58         
H17-O10-Fe1-O8=104.51         H17-O10-Fe1-O12=190.65        

 CMA Distance (Angstroems)
 ---------------------------
R(CMA):  1.4236
           -------------------------------------------------
          |                Final Singlepoint                |
           -------------------------------------------------

          ...................................................
          :                      SETUP                      :
          :.................................................:
          :  # basis functions                  46          :
          :  # atomic orbitals                  45          :
          :  # shells                           27          :
          :  # electrons                        54          :
          :  max. iterations                   250          :
          :  Hamiltonian                  GFN2-xTB          :
          :  restarted?                      false          :
          :  GBSA solvation                   true          :
          :  PC potential                    false          :
          :  electronic temp.          300.0000000     K    :
          :  accuracy                    1.0000000          :
          :  -> integral cutoff          0.2500000E+02      :
          :  -> integral neglect         0.1000000E-07      :
          :  -> SCF convergence          0.1000000E-05 Eh   :
          :  -> wf. convergence          0.1000000E-03 e    :
          :  Broyden damping             0.4000000          :
          ...................................................

 iter      E             dE          RMSdq      gap      omega  full diag
   1    -33.3653585 -0.333654E+02  0.257E-05    8.38       0.0  T
   2    -33.3653585 -0.433431E-12  0.151E-05    8.38    1521.9  T
   3    -33.3653585 -0.213163E-13  0.800E-06    8.38    2868.7  T

   *** convergence criteria satisfied after 3 iterations ***

         #    Occupation            Energy/Eh            Energy/eV
      -------------------------------------------------------------
         1        2.0000           -0.6781655             -18.4538
       ...           ...                  ...                  ...
        23        2.0000           -0.4422499             -12.0342
        24        2.0000           -0.4418101             -12.0223
        25        1.3777           -0.3454873              -9.4012
        26        1.3139           -0.3452189              -9.3939
        27        1.3084           -0.3451945              -9.3932
        28        1.0000           -0.3251682              -8.8483
        29        1.0000           -0.3251283              -8.8472 (HOMO)
        30                         -0.0171137              -0.4657 (LUMO)
        31                          0.0588115               1.6003
        32                          0.0706971               1.9238
        33                          0.0717395               1.9521
        34                          0.1368941               3.7251
       ...                                ...                  ...
        45                          0.8811941              23.9785
      -------------------------------------------------------------
                  HL-Gap            0.3080146 Eh            8.3815 eV
             Fermi-level           -0.2585414 Eh           -7.0353 eV

 SCC (total)                   0 d,  0 h,  0 min,  0.002 sec
 SCC setup                      ...        0 min,  0.000 sec (  6.024%)
 Dispersion                     ...        0 min,  0.000 sec (  1.426%)
 classical contributions        ...        0 min,  0.000 sec (  0.576%)
 integral evaluation            ...        0 min,  0.000 sec ( 18.756%)
 iterations                     ...        0 min,  0.001 sec ( 34.681%)
 molecular gradient             ...        0 min,  0.001 sec ( 35.989%)
 printout                       ...        0 min,  0.000 sec (  2.246%)

         :::::::::::::::::::::::::::::::::::::::::::::::::::::
         ::                     SUMMARY                     ::
         :::::::::::::::::::::::::::::::::::::::::::::::::::::
         :: total energy             -33.160783487749 Eh    ::
         :: total w/o Gsasa/hb       -33.088011907335 Eh    ::
         :: gradient norm              0.000103341304 Eh/a0 ::
         :: HOMO-LUMO gap              8.381504139882 eV    ::
         ::.................................................::
         :: SCC energy               -33.365358543425 Eh    ::
         :: -> isotropic ES            0.374741667009 Eh    ::
         :: -> anisotropic ES         -0.014204288160 Eh    ::
         :: -> anisotropic XC          0.001138813107 Eh    ::
         :: -> dispersion             -0.005580904355 Eh    ::
         :: -> Gsolv                  -0.363984548144 Eh    ::
         ::    -> Gelec               -0.291212967730 Eh    ::
         ::    -> Gsasa               -0.000066035327 Eh    ::
         ::    -> Ghb                 -0.073786304785 Eh    ::
         ::    -> Gshift               0.001080759698 Eh    ::
         :: repulsion energy           0.204437556874 Eh    ::
         :: add. restraining           0.000000000000 Eh    ::
         :: total charge               2.000000000000 e     ::
         :::::::::::::::::::::::::::::::::::::::::::::::::::::

           -------------------------------------------------
          |                Property Printout                |
           -------------------------------------------------

    * Orbital Energies and Occupations

         #    Occupation            Energy/Eh            Energy/eV
      -------------------------------------------------------------
         1        2.0000           -0.6781655             -18.4538
       ...           ...                  ...                  ...
        17        2.0000           -0.5027239             -13.6798
        18        2.0000           -0.5025757             -13.6758
        19        2.0000           -0.4495188             -12.2320
        20        2.0000           -0.4494139             -12.2292
        21        2.0000           -0.4453474             -12.1185
        22        2.0000           -0.4423289             -12.0364
        23        2.0000           -0.4422499             -12.0342
        24        2.0000           -0.4418101             -12.0223
        25        1.3777           -0.3454873              -9.4012
        26        1.3139           -0.3452189              -9.3939
        27        1.3084           -0.3451945              -9.3932
        28        1.0000           -0.3251682              -8.8483
        29        1.0000           -0.3251283              -8.8472 (HOMO)
        30                         -0.0171137              -0.4657 (LUMO)
        31                          0.0588115               1.6003
        32                          0.0706971               1.9238
        33                          0.0717395               1.9521
        34                          0.1368941               3.7251
        35                          0.1372390               3.7345
        36                          0.2904410               7.9033
        37                          0.2907302               7.9112
        38                          0.2909853               7.9181
        39                          0.2918215               7.9409
        40                          0.2920623               7.9474
       ...                                ...                  ...
        45                          0.8811941              23.9785
      -------------------------------------------------------------
                  HL-Gap            0.3080146 Eh            8.3815 eV
             Fermi-level           -0.2585414 Eh           -7.0353 eV

     #   Z          covCN         q      C6AA      α(0)
     1  26 Fe       1.429     1.145     4.826     7.087
     2   8 O        1.849    -0.625    25.717     6.848
     3   1 H        0.805     0.387     0.509     1.121
     4   8 O        1.846    -0.624    25.700     6.846
     5   1 H        0.805     0.386     0.511     1.123
     6   8 O        1.851    -0.624    25.700     6.846
     7   1 H        0.805     0.387     0.508     1.120
     8   8 O        1.849    -0.624    25.688     6.845
     9   1 H        0.805     0.380     0.522     1.135
    10   8 O        1.849    -0.624    25.700     6.846
    11   1 H        0.805     0.381     0.521     1.134
    12   8 O        1.850    -0.625    25.703     6.846
    13   1 H        0.805     0.387     0.510     1.121
    14   1 H        0.805     0.381     0.522     1.135
    15   1 H        0.805     0.381     0.521     1.134
    16   1 H        0.805     0.381     0.521     1.134
    17   1 H        0.805     0.386     0.510     1.122
    18   1 H        0.805     0.380     0.523     1.136
    19   1 H        0.805     0.386     0.511     1.122

 Mol. C6AA /au·bohr⁶  :       1615.740029
 Mol. C8AA /au·bohr⁸  :      32031.067317
 Mol. α(0) /au        :         61.701059


Wiberg/Mayer (AO) data.
largest (>0.10) Wiberg bond orders for each atom

 ---------------------------------------------------------------------------
     #   Z sym  total        # sym  WBO       # sym  WBO       # sym  WBO
 ---------------------------------------------------------------------------
     1  26 Fe   1.425 --     6 O    0.236    12 O    0.235     2 O    0.235
                            10 O    0.235     8 O    0.235     4 O    0.235
     2   8 O    1.948 --    16 H    0.850     3 H    0.846     1 Fe   0.235
     3   1 H    0.847 --     2 O    0.846
     4   8 O    1.948 --    15 H    0.850     5 H    0.847     1 Fe   0.235
     5   1 H    0.848 --     4 O    0.847
     6   8 O    1.948 --    18 H    0.851     7 H    0.845     1 Fe   0.236
     7   1 H    0.847 --     6 O    0.845
     8   8 O    1.949 --     9 H    0.851    19 H    0.846     1 Fe   0.235
     9   1 H    0.853 --     8 O    0.851
    10   8 O    1.948 --    11 H    0.851    17 H    0.846     1 Fe   0.235
    11   1 H    0.853 --    10 O    0.851
    12   8 O    1.948 --    14 H    0.851    13 H    0.846     1 Fe   0.235
    13   1 H    0.848 --    12 O    0.846
    14   1 H    0.853 --    12 O    0.851
    15   1 H    0.852 --     4 O    0.850
    16   1 H    0.853 --     2 O    0.850
    17   1 H    0.848 --    10 O    0.846
    18   1 H    0.853 --     6 O    0.851
    19   1 H    0.848 --     8 O    0.846
 ---------------------------------------------------------------------------

Topologies differ in total number of bonds
Writing topology from bond orders to xtbtopo.mol

molecular dipole:
                 x           y           z       tot (Debye)
 q only:       -2.966       2.714       0.100
   full:       -2.963       2.719       0.094      10.224
molecular quadrupole (traceless):
                xx          xy          yy          xz          yz          zz
 q only:        2.350      -5.745       1.819       0.034       0.769      -4.169
  q+dip:        2.376      -5.822       1.787       0.019       0.669      -4.163
   full:        2.399      -5.884       1.745      -0.016       0.597      -4.144

           -------------------------------------------------
          |                Geometry Summary                 |
           -------------------------------------------------

      molecular mass/u    :      163.9368629
   center of mass at/Å    :       -0.7859912       0.7118054       0.0329266
  moments of inertia/u·Å² :        0.3947452E+03   0.4303709E+03   0.4336902E+03
rotational constants/cm⁻¹ :        0.4270510E-01   0.3917001E-01   0.3887022E-01

 * 12 selected distances

     #   Z          #   Z                                           value/Å
     2   8 O        3   1 H                                       0.9602403
     4   8 O        5   1 H                                       0.9600967
     6   8 O        7   1 H                                       0.9603224
     8   8 O        9   1 H                                       0.9603459
    10   8 O       11   1 H                                       0.9602129
    12   8 O       13   1 H                                       0.9601063
    12   8 O       14   1 H                                       0.9603453
     4   8 O       15   1 H                                       0.9602854
     2   8 O       16   1 H                                       0.9603499 (max)
    10   8 O       17   1 H                                       0.9602089
     6   8 O       18   1 H                                       0.9602702
     8   8 O       19   1 H                                       0.9600780 (min)

 * 1 distinct bonds (by element types)

   Z      Z             #   av. dist./Å        max./Å        min./Å
   1 H    8 O          12     0.9602385     0.9603499     0.9600780


optimized geometry written to: xtbopt.xyz


           -------------------------------------------------
          | TOTAL ENERGY              -33.160783487749 Eh   |
          | GRADIENT NORM               0.000103341304 Eh/α |
          | HOMO-LUMO GAP               8.381504139882 eV   |
           -------------------------------------------------
########################################################################
[WARNING] Runtime exception occurred
-2- restart_readRestart: Multiplicity missmatch in restart file.
-1- restart_readRestart: Number of electron missmatch in restart file.
########################################################################

------------------------------------------------------------------------
 * finished run on 2024/05/10 at 17:51:30.870     
------------------------------------------------------------------------
 total:
 * wall-time:     0 d,  0 h,  0 min,  0.356 sec
 *  cpu-time:     0 d,  0 h,  0 min,  2.443 sec
 * ratio c/w:     6.869 speedup
 SCF:
 * wall-time:     0 d,  0 h,  0 min,  0.014 sec
 *  cpu-time:     0 d,  0 h,  0 min,  0.093 sec
 * ratio c/w:     6.672 speedup
 ANC optimizer:
 * wall-time:     0 d,  0 h,  0 min,  0.165 sec
 *  cpu-time:     0 d,  0 h,  0 min,  1.227 sec
 * ratio c/w:     7.453 speedup

