 Entering Gaussian System
 *********************************************
 Gaussian 98:
 frequency output generated by the xtb code
 *********************************************
                         Standard orientation:
 --------------------------------------------------------------------
  Center     Atomic     Atomic              Coordinates (Angstroms)
  Number     Number      Type              X           Y           Z
 --------------------------------------------------------------------
    1         26             0       -1.004551    0.900366    0.277664
    2          8             0       -0.914142    3.375336    0.412118
    3          1             0       -1.204597    3.916912   -0.324840
    4          8             0        1.452951    1.296861    0.098602
    5          1             0        1.809296    1.345708   -0.790607
    6          8             0       -1.819172    1.212000    2.620132
    7          1             0       -2.715466    0.866978    2.655828
    8          8             0       -0.114898   -1.106684    1.449599
    9          1             0       -0.494070   -1.964696    1.246258
   10          8             0       -3.514140    0.429842    0.119542
   11          1             0       -3.120298    0.117096   -0.721928
   12          8             0       -1.653282    0.179820   -1.726877
   13          1             0       -1.199702   -0.397128   -2.331721
   14          1             0        3.671001   -3.097235   -8.674626
   15          1             0        1.775260    2.064064    0.579009
   16          1             0       -1.273530    3.753093    1.219302
   17          1             0       -4.136823    1.118883   -0.120162
   18          1             0       -1.294374    0.716654    3.254329
   19          1             0        0.839092   -1.181708    1.362452
 --------------------------------------------------------------------
     1 basis functions        1 primitive gaussians
     1 alpha electrons        1 beta electrons

 Harmonic frequencies (cm**-1), IR intensities (km*mol⁻¹),
 Raman scattering activities (A**4/amu), Raman depolarization ratios,
 reduced masses (AMU), force constants (mDyne/A) and normal coordinates:
                      1                      2                      3
                        a                      a                      a 
 Frequencies --    16.8686                31.6744                34.2019
 Red. masses --     1.1618                 5.0488                 6.2288
 Frc consts  --     0.0000                 0.0000                 0.0000
 IR Inten    --   994.7922               669.4789               526.9992
 Raman Activ --     0.0000                 0.0000                 0.0000
 Depolar     --     0.0000                 0.0000                 0.0000
 Atom AN      X      Y      Z        X      Y      Z        X      Y      Z
   1  26     0.02  -0.01  -0.04     0.05  -0.07  -0.01    -0.02   0.05  -0.04
   2   8     0.01  -0.01  -0.02    -0.01  -0.05   0.24    -0.10  -0.01   0.36
   3   1     0.00  -0.00  -0.01    -0.00  -0.00   0.07    -0.05   0.01   0.11
   4   8     0.01  -0.01  -0.02    -0.02   0.24   0.11    -0.02  -0.05  -0.22
   5   1     0.00  -0.02  -0.01    -0.01   0.11   0.03    -0.02  -0.00  -0.06
   6   8     0.01  -0.01  -0.02    -0.13   0.03  -0.07     0.09   0.01   0.03
   7   1     0.00  -0.00  -0.00    -0.03  -0.00  -0.03     0.03  -0.00   0.02
   8   8     0.01  -0.01  -0.01     0.04   0.03   0.05     0.02   0.01  -0.10
   9   1     0.00  -0.00  -0.01     0.02   0.00   0.00     0.00   0.00  -0.02
  10   8     0.01  -0.01  -0.02     0.04  -0.04  -0.23     0.04  -0.17   0.01
  11   1     0.00  -0.00  -0.00     0.04  -0.00  -0.05     0.01   0.01  -0.02
  12   8     0.02  -0.01  -0.02     0.16  -0.02  -0.07    -0.05   0.27  -0.12
  13   1     0.01   0.01  -0.01     0.03  -0.03  -0.00    -0.01   0.07  -0.02
  14   1    -0.43   0.36   0.82    -0.71  -0.39  -0.20     0.27  -0.61   0.41
  15   1     0.00   0.00  -0.02    -0.03   0.05   0.06     0.02  -0.03  -0.05
  16   1     0.00  -0.00  -0.01    -0.03  -0.05   0.06    -0.03  -0.04   0.10
  17   1     0.00  -0.00  -0.01     0.01  -0.02  -0.07    -0.01  -0.05   0.04
  18   1     0.00  -0.00  -0.01    -0.04   0.03   0.00     0.04   0.01  -0.00
  19   1     0.00   0.00  -0.00     0.01   0.02   0.04     0.00   0.00  -0.03
                      4                      5                      6
                        a                      a                      a 
 Frequencies --    59.1360                63.1563                72.6254
 Red. masses --    12.4971                15.0496                14.9898
 Frc consts  --     0.0000                 0.0000                 0.0000
 IR Inten    --   180.3760                50.5775                26.3950
 Raman Activ --     0.0000                 0.0000                 0.0000
 Depolar     --     0.0000                 0.0000                 0.0000
 Atom AN      X      Y      Z        X      Y      Z        X      Y      Z
   1  26     0.02   0.05   0.12     0.02   0.17   0.10     0.05  -0.06  -0.11
   2   8    -0.08   0.01   0.21    -0.25   0.11  -0.43     0.31  -0.04   0.06
   3   1    -0.04   0.01   0.07    -0.07  -0.01  -0.14     0.06  -0.03   0.01
   4   8     0.00  -0.28  -0.45     0.07  -0.20   0.29     0.07  -0.08   0.20
   5   1    -0.05  -0.12  -0.13     0.02  -0.05   0.08     0.05  -0.04   0.06
   6   8    -0.03   0.23   0.02     0.21  -0.08   0.14    -0.37   0.30  -0.25
   7   1     0.00   0.03   0.03     0.05  -0.02   0.05    -0.07   0.02  -0.10
   8   8    -0.20   0.07   0.30    -0.20  -0.11  -0.08     0.15   0.06  -0.05
   9   1    -0.10   0.02   0.16    -0.06  -0.02  -0.03     0.06  -0.00   0.02
  10   8     0.10  -0.28  -0.19     0.12  -0.33   0.01     0.03  -0.40   0.29
  11   1     0.06  -0.03  -0.05     0.04  -0.00  -0.02    -0.00  -0.04   0.05
  12   8     0.20   0.11  -0.07     0.07   0.37  -0.09    -0.27   0.26  -0.06
  13   1     0.06  -0.02   0.04     0.01   0.08  -0.02    -0.10   0.05  -0.03
  14   1    -0.06   0.30  -0.18    -0.20  -0.12  -0.05    -0.02   0.09  -0.04
  15   1     0.05  -0.06  -0.16     0.04  -0.07   0.08    -0.02   0.00   0.04
  16   1    -0.00  -0.01   0.07    -0.05   0.08  -0.13     0.04  -0.03   0.01
  17   1     0.01  -0.08  -0.04    -0.02  -0.11   0.06    -0.02  -0.11   0.12
  18   1     0.02   0.10   0.02     0.07  -0.03   0.01    -0.10   0.14  -0.01
  19   1    -0.06  -0.03   0.03    -0.05  -0.04  -0.01     0.04   0.03   0.01
                      7                      8                      9
                        a                      a                      a 
 Frequencies --    86.5192                91.7526                98.8124
 Red. masses --    23.1501                16.9841                18.7149
 Frc consts  --     0.0000                 0.0000                 0.0000
 IR Inten    --    10.1040                20.3148                18.4665
 Raman Activ --     0.0000                 0.0000                 0.0000
 Depolar     --     0.0000                 0.0000                 0.0000
 Atom AN      X      Y      Z        X      Y      Z        X      Y      Z
   1  26    -0.31  -0.03   0.36    -0.22  -0.15  -0.13    -0.19   0.18  -0.24
   2   8     0.33   0.01  -0.22     0.40  -0.09   0.03    -0.09   0.04   0.23
   3   1     0.10  -0.03  -0.08     0.09  -0.03   0.00    -0.01   0.05   0.08
   4   8    -0.16  -0.12  -0.13    -0.19   0.34   0.16     0.03  -0.45   0.32
   5   1    -0.09  -0.03  -0.05    -0.01   0.04   0.05     0.02  -0.07   0.09
   6   8    -0.13  -0.04   0.19     0.45   0.05   0.11     0.25  -0.02  -0.00
   7   1    -0.04   0.00   0.09     0.11   0.03   0.11     0.06   0.01   0.04
   8   8     0.44   0.07  -0.16    -0.21   0.06   0.21     0.27   0.36   0.03
   9   1     0.13   0.01  -0.05    -0.04   0.01   0.07     0.07   0.07   0.08
  10   8    -0.11  -0.05  -0.29    -0.03  -0.21  -0.14    -0.06  -0.03  -0.14
  11   1     0.01   0.01  -0.07    -0.01  -0.02  -0.05     0.00  -0.02  -0.03
  12   8     0.14   0.16   0.02    -0.08   0.07  -0.19    -0.10  -0.21  -0.07
  13   1     0.06   0.06   0.00    -0.02  -0.01  -0.02    -0.04  -0.12   0.03
  14   1    -0.01  -0.06   0.02     0.09   0.08   0.01    -0.04   0.05  -0.04
  15   1    -0.03  -0.02  -0.05    -0.14   0.16  -0.01     0.04  -0.16   0.13
  16   1     0.07   0.04  -0.08     0.10  -0.02   0.00    -0.01  -0.01   0.08
  17   1    -0.01   0.00  -0.08    -0.01  -0.05  -0.00    -0.01  -0.01  -0.06
  18   1    -0.02   0.02   0.06     0.16   0.00  -0.02     0.09  -0.01  -0.02
  19   1     0.11   0.06  -0.10    -0.05   0.01   0.09     0.06   0.10  -0.08
                     10                     11                     12
                        a                      a                      a 
 Frequencies --   104.7874               110.2183               142.8817
 Red. masses --    17.3950                18.0062                 8.3018
 Frc consts  --     0.0000                 0.0000                 0.0000
 IR Inten    --    22.1837                11.3065               110.7332
 Raman Activ --     0.0000                 0.0000                 0.0000
 Depolar     --     0.0000                 0.0000                 0.0000
 Atom AN      X      Y      Z        X      Y      Z        X      Y      Z
   1  26     0.01   0.29  -0.11    -0.10   0.31   0.03    -0.17  -0.02  -0.19
   2   8     0.29   0.14  -0.06     0.24   0.20   0.11    -0.01   0.06   0.08
   3   1     0.08   0.03  -0.02     0.05   0.06   0.04    -0.03   0.01   0.03
   4   8     0.03  -0.02  -0.15    -0.04   0.05  -0.01     0.02  -0.10   0.08
   5   1     0.02  -0.06  -0.04    -0.05   0.13  -0.01     0.09  -0.34   0.04
   6   8    -0.19  -0.62  -0.02    -0.01   0.13   0.05     0.03   0.10   0.04
   7   1    -0.04  -0.18  -0.06    -0.00   0.02   0.00     0.02  -0.01   0.01
   8   8    -0.12   0.25   0.28    -0.24  -0.15  -0.43    -0.00  -0.03  -0.01
   9   1    -0.01   0.06   0.05    -0.09  -0.03  -0.08     0.12   0.00  -0.27
  10   8     0.02  -0.14   0.12     0.05  -0.31   0.05    -0.12   0.02   0.22
  11   1     0.00  -0.04   0.03     0.03  -0.12   0.04    -0.13  -0.09   0.06
  12   8    -0.03  -0.03   0.06     0.16  -0.44   0.18     0.37  -0.08   0.07
  13   1    -0.00   0.00   0.01     0.08  -0.10   0.06     0.24   0.39  -0.27
  14   1    -0.06  -0.11   0.01     0.01  -0.02   0.02    -0.04  -0.02  -0.05
  15   1     0.01   0.02  -0.08     0.04  -0.07   0.09    -0.12   0.19  -0.25
  16   1     0.03   0.02  -0.03     0.06   0.04   0.03    -0.02  -0.02   0.03
  17   1    -0.01  -0.05   0.02     0.01  -0.10  -0.04    -0.03   0.01   0.05
  18   1    -0.05  -0.22  -0.05    -0.00   0.02   0.01     0.04  -0.00  -0.04
  19   1    -0.03   0.07   0.11    -0.07  -0.06  -0.17     0.02   0.10   0.16
                     13                     14                     15
                        a                      a                      a 
 Frequencies --   150.2979               207.9229               230.6594
 Red. masses --     7.8036                12.5473                 7.9711
 Frc consts  --     0.0000                 0.0000                 0.0000
 IR Inten    --    38.5921               107.6641                55.3156
 Raman Activ --     0.0000                 0.0000                 0.0000
 Depolar     --     0.0000                 0.0000                 0.0000
 Atom AN      X      Y      Z        X      Y      Z        X      Y      Z
   1  26    -0.14  -0.12  -0.18     0.16   0.01  -0.03     0.04  -0.06  -0.13
   2   8     0.03  -0.04  -0.06     0.00   0.06  -0.00     0.01   0.10   0.02
   3   1    -0.01   0.01   0.01    -0.03   0.02   0.02     0.03  -0.01  -0.03
   4   8    -0.02  -0.03  -0.08     0.20   0.03  -0.07     0.15   0.07   0.05
   5   1    -0.14   0.48  -0.05     0.04   0.15  -0.01     0.11  -0.14   0.03
   6   8    -0.01  -0.00   0.03     0.12   0.05  -0.04     0.02  -0.06  -0.07
   7   1    -0.01   0.02   0.01     0.01   0.05  -0.06     0.03  -0.06   0.06
   8   8     0.03   0.05   0.19    -0.00  -0.10   0.14     0.07  -0.03  -0.03
   9   1    -0.08   0.03   0.14     0.05   0.01  -0.21    -0.19  -0.03   0.46
  10   8    -0.07   0.05   0.26    -0.42  -0.20  -0.33    -0.44  -0.03   0.02
  11   1    -0.12  -0.04   0.05    -0.00  -0.05  -0.03    -0.07   0.02   0.02
  12   8     0.28   0.08  -0.08    -0.21   0.04   0.45     0.22   0.16   0.22
  13   1     0.23   0.26  -0.13    -0.14   0.26  -0.19    -0.02  -0.11   0.15
  14   1    -0.00   0.01  -0.00     0.01   0.01   0.00    -0.01  -0.03   0.01
  15   1     0.12  -0.30   0.36     0.11  -0.11   0.12    -0.09   0.16  -0.13
  16   1     0.06  -0.01   0.01     0.03   0.01   0.02    -0.13  -0.01  -0.04
  17   1    -0.01   0.03   0.09    -0.05  -0.03  -0.17    -0.10   0.00   0.01
  18   1    -0.01  -0.02  -0.00    -0.02  -0.06  -0.02     0.07   0.08  -0.00
  19   1    -0.02  -0.03  -0.18     0.01   0.02   0.12    -0.03  -0.16  -0.38
                     16                     17                     18
                        a                      a                      a 
 Frequencies --   249.2053               262.6399               272.0821
 Red. masses --     5.6662                 9.4731                 7.0143
 Frc consts  --     0.0000                 0.0000                 0.0000
 IR Inten    --    61.5024                10.4252                20.4452
 Raman Activ --     0.0000                 0.0000                 0.0000
 Depolar     --     0.0000                 0.0000                 0.0000
 Atom AN      X      Y      Z        X      Y      Z        X      Y      Z
   1  26    -0.04  -0.01  -0.11    -0.04  -0.02  -0.03    -0.04  -0.02  -0.03
   2   8     0.03   0.07  -0.01    -0.01  -0.35  -0.12    -0.04  -0.29   0.09
   3   1    -0.14  -0.01   0.03    -0.33  -0.06   0.12     0.47  -0.06  -0.16
   4   8    -0.01  -0.05  -0.00     0.39   0.09   0.03     0.32   0.03  -0.09
   5   1    -0.17   0.11  -0.06     0.01  -0.04  -0.03     0.12   0.09  -0.00
   6   8     0.07   0.02  -0.08    -0.11   0.03   0.32    -0.06   0.04   0.24
   7   1    -0.00   0.05  -0.05    -0.07   0.11   0.03     0.03  -0.10   0.10
   8   8     0.01  -0.11   0.02    -0.13   0.29  -0.19    -0.16   0.24  -0.16
   9   1     0.19  -0.05  -0.25    -0.04   0.05   0.06     0.04   0.05  -0.14
  10   8    -0.28  -0.01   0.13    -0.06  -0.02  -0.02    -0.11  -0.02   0.03
  11   1    -0.03   0.10   0.01    -0.02   0.01  -0.01    -0.03   0.00   0.00
  12   8     0.31   0.19   0.01     0.01   0.00  -0.01     0.04   0.01  -0.04
  13   1    -0.07  -0.46   0.38    -0.01  -0.02   0.01     0.00  -0.08   0.07
  14   1     0.01   0.02   0.00    -0.00  -0.00  -0.00     0.00   0.02  -0.01
  15   1     0.04  -0.05   0.02     0.11   0.08  -0.09     0.06  -0.04   0.07
  16   1     0.08  -0.01   0.04     0.43  -0.08   0.16    -0.41   0.00  -0.19
  17   1    -0.16  -0.06   0.09    -0.02  -0.01   0.01     0.00   0.02   0.02
  18   1    -0.02  -0.06  -0.04    -0.09  -0.14   0.01     0.06   0.12   0.09
  19   1     0.04   0.11   0.35    -0.03   0.06  -0.06    -0.02   0.11   0.13
                     19                     20                     21
                        a                      a                      a 
 Frequencies --   302.0975               306.0370               313.0210
 Red. masses --     4.1499                22.5978                 6.2158
 Frc consts  --     0.0000                 0.0000                 0.0000
 IR Inten    --   112.9970               139.2256               350.3719
 Raman Activ --     0.0000                 0.0000                 0.0000
 Depolar     --     0.0000                 0.0000                 0.0000
 Atom AN      X      Y      Z        X      Y      Z        X      Y      Z
   1  26     0.06   0.10   0.04    -0.02   0.14   0.46     0.21  -0.07   0.05
   2   8    -0.12  -0.17   0.03     0.02  -0.20  -0.01     0.12   0.06   0.06
   3   1     0.34   0.11  -0.02    -0.07  -0.10  -0.01    -0.21  -0.26  -0.09
   4   8    -0.15   0.04  -0.04     0.15   0.03   0.02    -0.16  -0.11  -0.05
   5   1     0.14  -0.12   0.06    -0.05   0.00  -0.03     0.08   0.07   0.04
   6   8     0.11   0.05  -0.00     0.20  -0.11  -0.56     0.05   0.04   0.13
   7   1    -0.14   0.43  -0.16     0.06  -0.05  -0.07    -0.07   0.21  -0.11
   8   8     0.07  -0.04  -0.02    -0.07   0.11  -0.07    -0.06   0.19  -0.10
   9   1     0.00  -0.04   0.13    -0.01   0.02  -0.01    -0.02   0.04   0.02
  10   8    -0.16  -0.11   0.08    -0.26   0.01   0.06    -0.02   0.11   0.00
  11   1     0.00  -0.13   0.08    -0.05  -0.04   0.05     0.05   0.05   0.02
  12   8     0.01   0.04  -0.11    -0.05  -0.10  -0.26    -0.01  -0.04  -0.06
  13   1     0.14  -0.02   0.10     0.26   0.10   0.02     0.03   0.06  -0.06
  14   1    -0.02  -0.00  -0.01    -0.00  -0.00  -0.00     0.00   0.02  -0.01
  15   1     0.02  -0.03   0.01     0.09   0.01  -0.03    -0.25   0.02   0.06
  16   1     0.06   0.12  -0.03     0.03  -0.04   0.00    -0.29  -0.09  -0.08
  17   1     0.18   0.13  -0.11    -0.10  -0.06  -0.05    -0.44  -0.38  -0.05
  18   1    -0.24  -0.45  -0.14     0.06   0.15  -0.01    -0.16  -0.23  -0.01
  19   1     0.02  -0.04   0.04    -0.01   0.02   0.02    -0.02   0.04  -0.05
                     22                     23                     24
                        a                      a                      a 
 Frequencies --   326.4285               330.4014               364.5035
 Red. masses --    23.7982                22.3355                 5.0401
 Frc consts  --     0.0000                 0.0000                 0.0000
 IR Inten    --    95.1501               283.6407               286.3310
 Raman Activ --     0.0000                 0.0000                 0.0000
 Depolar     --     0.0000                 0.0000                 0.0000
 Atom AN      X      Y      Z        X      Y      Z        X      Y      Z
   1  26     0.16  -0.48   0.12    -0.46  -0.17   0.09    -0.18   0.01  -0.10
   2   8    -0.03   0.48   0.01     0.01   0.21   0.05     0.04   0.10  -0.01
   3   1    -0.01   0.15   0.03     0.05   0.02  -0.03    -0.20  -0.08   0.00
   4   8    -0.02  -0.06   0.01     0.51   0.02  -0.03     0.12   0.01  -0.14
   5   1    -0.08   0.05  -0.02     0.01   0.11  -0.05     0.44   0.03   0.13
   6   8     0.04  -0.06  -0.03     0.09  -0.01  -0.24     0.03  -0.03   0.09
   7   1    -0.01   0.05  -0.00    -0.07   0.25   0.01     0.03  -0.07  -0.07
   8   8    -0.19   0.40  -0.27     0.01  -0.06   0.06     0.05  -0.14  -0.05
   9   1     0.00   0.05   0.07     0.04  -0.03  -0.01     0.08  -0.11   0.20
  10   8    -0.10  -0.07   0.02     0.33   0.05  -0.02     0.08   0.05  -0.03
  11   1    -0.03  -0.06   0.02     0.03   0.01  -0.03     0.02  -0.16   0.06
  12   8    -0.01   0.02  -0.04    -0.01   0.05   0.13    -0.16   0.06   0.04
  13   1     0.04   0.02   0.00    -0.07  -0.02   0.02     0.38   0.05   0.29
  14   1     0.00  -0.01   0.00    -0.00   0.01  -0.00    -0.01   0.00  -0.00
  15   1    -0.05   0.01  -0.00    -0.05   0.11  -0.06    -0.12  -0.06   0.16
  16   1     0.04   0.11   0.02    -0.12   0.04  -0.04     0.03  -0.01   0.02
  17   1     0.22   0.20  -0.03    -0.03  -0.07   0.03     0.05  -0.02  -0.19
  18   1    -0.05   0.03   0.08    -0.04  -0.23  -0.18    -0.07   0.17   0.22
  19   1    -0.03   0.09   0.15    -0.00   0.07  -0.10     0.04  -0.05   0.30
                     25                     26                     27
                        a                      a                      a 
 Frequencies --   371.6359               385.8732               399.8084
 Red. masses --     3.8087                 3.6766                 3.5222
 Frc consts  --     0.0000                 0.0000                 0.0000
 IR Inten    --    71.9980               223.7726                23.3550
 Raman Activ --     0.0000                 0.0000                 0.0000
 Depolar     --     0.0000                 0.0000                 0.0000
 Atom AN      X      Y      Z        X      Y      Z        X      Y      Z
   1  26    -0.03  -0.09   0.12    -0.07  -0.11  -0.05    -0.15  -0.05   0.03
   2   8    -0.02   0.10   0.02     0.03   0.17   0.04    -0.05  -0.01  -0.02
   3   1    -0.02  -0.00  -0.01     0.05   0.02  -0.03     0.17   0.14   0.03
   4   8    -0.06   0.09  -0.17    -0.02   0.21   0.05     0.01   0.04  -0.02
   5   1     0.60  -0.12   0.20    -0.06  -0.28  -0.02     0.05  -0.06   0.01
   6   8    -0.02  -0.03  -0.09    -0.04  -0.01   0.05     0.18  -0.00   0.02
   7   1    -0.01   0.04   0.09    -0.03   0.07   0.12     0.09  -0.18  -0.59
   8   8     0.01   0.08   0.08     0.07  -0.02  -0.10    -0.04   0.00  -0.00
   9   1    -0.11   0.14  -0.29    -0.04  -0.04   0.22     0.09  -0.07   0.11
  10   8    -0.05  -0.06  -0.01     0.03   0.06  -0.02     0.03   0.04   0.06
  11   1    -0.08   0.22  -0.12     0.01   0.09  -0.03     0.10   0.03   0.04
  12   8     0.10  -0.07  -0.10    -0.03  -0.06  -0.04     0.16   0.02  -0.02
  13   1    -0.11  -0.10  -0.05     0.04   0.07  -0.06    -0.28  -0.04  -0.20
  14   1    -0.01  -0.00  -0.00    -0.00   0.00  -0.00     0.01  -0.00   0.01
  15   1     0.01  -0.14   0.20     0.66  -0.20  -0.04     0.07  -0.02  -0.01
  16   1     0.19   0.17   0.02    -0.05   0.05  -0.02     0.13   0.07   0.02
  17   1    -0.07   0.03   0.29    -0.26  -0.21   0.05    -0.12  -0.14  -0.07
  18   1     0.03   0.03  -0.02     0.03  -0.02  -0.03    -0.27   0.12   0.36
  19   1    -0.02  -0.04  -0.16     0.03  -0.16   0.27    -0.01   0.13  -0.08
                     28                     29                     30
                        a                      a                      a 
 Frequencies --   425.1911               432.2216               445.5160
 Red. masses --     3.0709                 3.8479                 3.6726
 Frc consts  --     0.0000                 0.0000                 0.0000
 IR Inten    --    35.1599               649.4738                27.7913
 Raman Activ --     0.0000                 0.0000                 0.0000
 Depolar     --     0.0000                 0.0000                 0.0000
 Atom AN      X      Y      Z        X      Y      Z        X      Y      Z
   1  26    -0.04   0.07  -0.00    -0.03  -0.13   0.06    -0.06   0.10   0.09
   2   8     0.05  -0.01   0.03     0.07  -0.02  -0.00    -0.01  -0.08   0.07
   3   1    -0.18  -0.20  -0.06    -0.16  -0.14  -0.03    -0.07  -0.22  -0.11
   4   8    -0.01   0.02  -0.04    -0.15   0.09  -0.02     0.02  -0.07  -0.05
   5   1     0.09  -0.02   0.03     0.14  -0.15   0.06     0.05   0.14   0.01
   6   8    -0.01  -0.14  -0.08    -0.02   0.16  -0.02    -0.02   0.10  -0.04
   7   1    -0.10   0.27   0.35     0.12  -0.31  -0.18     0.08  -0.21  -0.12
   8   8    -0.02  -0.05   0.01    -0.12   0.07  -0.01     0.04   0.01  -0.20
   9   1     0.05  -0.04   0.03     0.16  -0.06  -0.03     0.01  -0.10   0.37
  10   8    -0.06   0.03   0.16     0.05   0.05   0.04    -0.02  -0.02  -0.02
  11   1     0.16  -0.23   0.20     0.07  -0.17   0.10    -0.03   0.12  -0.07
  12   8     0.18   0.03  -0.12     0.04   0.12   0.10     0.13  -0.07   0.03
  13   1    -0.42  -0.10  -0.27    -0.00  -0.05   0.09    -0.24   0.03  -0.24
  14   1     0.01   0.01   0.00    -0.00   0.00  -0.00     0.00   0.00   0.00
  15   1     0.06  -0.05   0.05     0.26  -0.14   0.06    -0.19   0.01   0.07
  16   1    -0.06   0.02  -0.03    -0.11  -0.08  -0.02     0.07   0.21  -0.06
  17   1     0.16   0.04  -0.34     0.15   0.06  -0.22     0.07   0.12   0.16
  18   1    -0.02   0.16   0.15     0.21  -0.21  -0.37     0.15  -0.16  -0.27
  19   1     0.00   0.04   0.04    -0.03   0.28  -0.25     0.04  -0.15   0.41
                     31                     32                     33
                        a                      a                      a 
 Frequencies --   453.5146               471.7391               484.8894
 Red. masses --     2.9296                 5.2054                 3.7054
 Frc consts  --     0.0000                 0.0000                 0.0000
 IR Inten    --   149.9457               260.9137               126.1434
 Raman Activ --     0.0000                 0.0000                 0.0000
 Depolar     --     0.0000                 0.0000                 0.0000
 Atom AN      X      Y      Z        X      Y      Z        X      Y      Z
   1  26     0.00   0.01  -0.12     0.15   0.02   0.00     0.01   0.12   0.06
   2   8     0.03  -0.01   0.21    -0.08   0.12   0.06     0.13   0.07  -0.07
   3   1    -0.16  -0.52  -0.27     0.14   0.04  -0.04    -0.19   0.03   0.07
   4   8    -0.02   0.03   0.07     0.09  -0.02  -0.02     0.04   0.03  -0.02
   5   1    -0.18  -0.07  -0.06     0.01   0.06  -0.01     0.06  -0.04   0.01
   6   8     0.07  -0.05   0.01    -0.12   0.01   0.10     0.05  -0.01   0.06
   7   1    -0.02   0.07  -0.15    -0.01  -0.01   0.22    -0.04   0.13  -0.06
   8   8    -0.01  -0.01   0.06    -0.10  -0.20   0.07    -0.04  -0.13   0.02
   9   1    -0.01   0.03  -0.10     0.38  -0.26   0.18     0.22  -0.17   0.18
  10   8     0.04  -0.05  -0.06    -0.12   0.03  -0.02    -0.08  -0.11  -0.08
  11   1    -0.12   0.01  -0.08    -0.02   0.02  -0.00    -0.21   0.13  -0.16
  12   8    -0.05  -0.01   0.08    -0.11  -0.10  -0.22    -0.01  -0.11  -0.13
  13   1     0.11   0.02   0.09     0.07   0.03  -0.04    -0.05   0.00  -0.09
  14   1    -0.01  -0.00  -0.01    -0.00  -0.00  -0.00    -0.00   0.01  -0.00
  15   1     0.15   0.01  -0.09    -0.08   0.04  -0.00     0.11  -0.05   0.02
  16   1     0.01   0.44  -0.16     0.24   0.33  -0.01    -0.33  -0.41   0.03
  17   1     0.15   0.17   0.14    -0.19  -0.13   0.01     0.16   0.26   0.34
  18   1    -0.17   0.05   0.21     0.11   0.03  -0.07    -0.14  -0.03   0.12
  19   1    -0.01   0.05  -0.15     0.00   0.43  -0.16     0.01   0.22  -0.03
                     34                     35                     36
                        a                      a                      a 
 Frequencies --   494.2158               686.7596              1457.8610
 Red. masses --    11.4374                 2.4812                 2.1368
 Frc consts  --     0.0000                 0.0000                 0.0000
 IR Inten    --   190.1077               407.4850               199.8130
 Raman Activ --     0.0000                 0.0000                 0.0000
 Depolar     --     0.0000                 0.0000                 0.0000
 Atom AN      X      Y      Z        X      Y      Z        X      Y      Z
   1  26    -0.01   0.01   0.08     0.07   0.01   0.06     0.00  -0.00   0.00
   2   8     0.05   0.28   0.03    -0.03  -0.04  -0.01    -0.15   0.22   0.02
   3   1    -0.08  -0.02  -0.02     0.05   0.04   0.01     0.33  -0.40  -0.43
   4   8     0.28   0.02   0.01    -0.05   0.00  -0.01    -0.03  -0.04   0.02
   5   1    -0.03   0.04  -0.04     0.02  -0.01   0.01     0.06   0.12   0.03
   6   8    -0.07   0.13   0.29     0.01  -0.02  -0.05     0.00   0.01  -0.01
   7   1     0.05  -0.18  -0.19    -0.00   0.01   0.02     0.01  -0.03   0.03
   8   8     0.16  -0.16   0.17    -0.01   0.03  -0.03    -0.00   0.00   0.00
   9   1    -0.16   0.09  -0.16    -0.00   0.00   0.02     0.01  -0.00  -0.00
  10   8    -0.21  -0.02   0.04     0.16   0.09  -0.10    -0.00   0.00  -0.00
  11   1    -0.10  -0.18   0.06    -0.71  -0.58  -0.11     0.01  -0.01   0.01
  12   8    -0.10  -0.12  -0.51     0.02   0.09   0.07    -0.00  -0.00  -0.00
  13   1    -0.04  -0.11  -0.06    -0.16  -0.09   0.00     0.00   0.00  -0.00
  14   1     0.00  -0.00   0.00    -0.00   0.00   0.00     0.00   0.00  -0.00
  15   1     0.02   0.06  -0.05    -0.00  -0.02   0.02     0.06   0.04  -0.11
  16   1    -0.08   0.04  -0.02     0.05   0.01   0.01     0.29  -0.47   0.36
  17   1     0.04   0.03  -0.13    -0.14  -0.11   0.06    -0.00  -0.00   0.01
  18   1     0.01  -0.13  -0.07     0.01   0.02   0.01    -0.04  -0.02   0.01
  19   1     0.02  -0.24  -0.04    -0.00  -0.00   0.03    -0.00  -0.01  -0.00
                     37                     38                     39
                        a                      a                      a 
 Frequencies --  1462.4393              1469.1945              1473.6432
 Red. masses --     2.1264                 2.1032                 2.1212
 Frc consts  --     0.0000                 0.0000                 0.0000
 IR Inten    --   437.6152               162.3724                56.6047
 Raman Activ --     0.0000                 0.0000                 0.0000
 Depolar     --     0.0000                 0.0000                 0.0000
 Atom AN      X      Y      Z        X      Y      Z        X      Y      Z
   1  26     0.00   0.00  -0.00    -0.00  -0.00  -0.00     0.00  -0.00  -0.00
   2   8     0.02  -0.03  -0.00     0.01  -0.01  -0.00     0.02  -0.04  -0.00
   3   1    -0.04   0.05   0.05    -0.01   0.01   0.01    -0.05   0.06   0.07
   4   8    -0.13  -0.15   0.08    -0.04  -0.05   0.03    -0.09  -0.10   0.05
   5   1     0.25   0.45   0.13     0.08   0.15   0.04     0.16   0.29   0.08
   6   8    -0.04  -0.08   0.07    -0.03  -0.08   0.06     0.07   0.16  -0.13
   7   1    -0.08   0.18  -0.20    -0.08   0.18  -0.19     0.15  -0.35   0.39
   8   8     0.06  -0.10  -0.03    -0.12   0.20   0.05    -0.02   0.05   0.01
   9   1    -0.27   0.11   0.04     0.55  -0.22  -0.09     0.12  -0.05  -0.01
  10   8     0.01  -0.01   0.02    -0.00   0.01  -0.02    -0.01   0.02  -0.03
  11   1    -0.03   0.03  -0.03     0.03  -0.04   0.03     0.06  -0.07   0.05
  12   8     0.00  -0.00   0.00     0.00   0.00   0.00     0.00   0.00   0.01
  13   1    -0.00  -0.00  -0.00     0.00  -0.00   0.00    -0.00  -0.00   0.00
  14   1     0.00   0.00   0.00    -0.00  -0.00   0.00     0.00  -0.00   0.00
  15   1     0.27   0.15  -0.44     0.09   0.05  -0.15     0.18   0.10  -0.29
  16   1    -0.04   0.06  -0.05    -0.01   0.01  -0.01    -0.05   0.08  -0.06
  17   1     0.01  -0.01  -0.04    -0.01   0.01   0.06    -0.02   0.01   0.08
  18   1     0.23   0.15  -0.07     0.22   0.15  -0.06    -0.45  -0.29   0.14
  19   1     0.03   0.28   0.08    -0.06  -0.57  -0.14    -0.01  -0.13  -0.03
                     40                     41                     42
                        a                      a                      a 
 Frequencies --  1498.0751              3181.6392              3605.1918
 Red. masses --     2.0047                 1.9158                 2.1130
 Frc consts  --     0.0000                 0.0000                 0.0000
 IR Inten    --   153.2244               370.0199               168.5887
 Raman Activ --     0.0000                 0.0000                 0.0000
 Depolar     --     0.0000                 0.0000                 0.0000
 Atom AN      X      Y      Z        X      Y      Z        X      Y      Z
   1  26     0.00   0.00   0.00     0.00  -0.00  -0.00     0.00   0.00  -0.00
   2   8     0.00  -0.00   0.00    -0.00  -0.00   0.00     0.00  -0.00  -0.00
   3   1    -0.00  -0.00   0.00    -0.00   0.00  -0.00    -0.00   0.00  -0.00
   4   8    -0.01  -0.01   0.00     0.00   0.00   0.00     0.00   0.01   0.01
   5   1     0.01   0.03   0.01    -0.00  -0.00  -0.00     0.01   0.00  -0.02
   6   8     0.01   0.02  -0.02    -0.00   0.00  -0.00     0.26  -0.00   0.09
   7   1     0.02  -0.05   0.06     0.00   0.00   0.00    -0.73  -0.28   0.03
   8   8    -0.02   0.03   0.01    -0.00   0.00   0.00     0.01   0.00   0.00
   9   1     0.09  -0.04  -0.01    -0.00  -0.00  -0.00    -0.00  -0.01  -0.00
  10   8     0.06  -0.09   0.23    -0.11   0.09   0.20     0.00  -0.00   0.00
  11   1    -0.42   0.47  -0.37     0.37  -0.35  -0.83     0.00  -0.00  -0.00
  12   8     0.01  -0.01   0.01     0.00   0.00  -0.00    -0.00   0.00   0.00
  13   1    -0.00   0.00  -0.00     0.02   0.00  -0.01     0.00  -0.00  -0.00
  14   1    -0.00  -0.00   0.00    -0.00   0.00  -0.00    -0.00  -0.00  -0.00
  15   1     0.02   0.01  -0.03    -0.00  -0.00  -0.00    -0.02  -0.06  -0.04
  16   1    -0.00   0.01  -0.00     0.00   0.00   0.00    -0.00   0.00   0.01
  17   1     0.13  -0.10  -0.59     0.01  -0.01   0.03    -0.01   0.01  -0.00
  18   1    -0.06  -0.03   0.02     0.00  -0.00   0.00    -0.30   0.29  -0.37
  19   1    -0.01  -0.08  -0.02     0.00   0.00  -0.00    -0.02   0.00   0.00
                     43                     44                     45
                        a                      a                      a 
 Frequencies --  3607.9824              3611.0320              3611.2189
 Red. masses --     1.9774                 1.9886                 2.0040
 Frc consts  --     0.0000                 0.0000                 0.0000
 IR Inten    --   204.4152               125.3715                89.9238
 Raman Activ --     0.0000                 0.0000                 0.0000
 Depolar     --     0.0000                 0.0000                 0.0000
 Atom AN      X      Y      Z        X      Y      Z        X      Y      Z
   1  26    -0.00  -0.00  -0.00     0.00  -0.00   0.00     0.00  -0.00  -0.00
   2   8     0.02  -0.01  -0.07     0.01  -0.01  -0.04     0.06  -0.04  -0.23
   3   1     0.02  -0.04   0.05     0.01  -0.03   0.03     0.09  -0.16   0.19
   4   8    -0.05  -0.17  -0.16     0.01   0.00  -0.01     0.01   0.05   0.05
   5   1    -0.09  -0.03   0.19    -0.01  -0.00   0.04     0.03   0.01  -0.07
   6   8     0.02   0.01   0.00    -0.01  -0.03   0.02    -0.00   0.01  -0.01
   7   1    -0.08  -0.03   0.00     0.12   0.04  -0.00    -0.02  -0.00  -0.00
   8   8    -0.00   0.00   0.00     0.25   0.05  -0.00    -0.03  -0.01  -0.00
   9   1    -0.01  -0.02  -0.00    -0.09  -0.25  -0.06     0.02   0.04   0.01
  10   8     0.00   0.00   0.00    -0.00   0.00  -0.00     0.00  -0.00   0.00
  11   1     0.00  -0.00  -0.00     0.00  -0.00  -0.00    -0.00  -0.00   0.00
  12   8    -0.00   0.00   0.00    -0.00  -0.00  -0.00     0.00   0.00   0.00
  13   1     0.00  -0.00  -0.00    -0.00   0.00   0.00     0.00  -0.00  -0.00
  14   1     0.00  -0.00  -0.00    -0.00  -0.00  -0.00    -0.00  -0.00  -0.00
  15   1     0.30   0.71   0.46    -0.01  -0.02  -0.01    -0.08  -0.20  -0.13
  16   1    -0.09   0.10   0.22    -0.05   0.05   0.11    -0.32   0.34   0.74
  17   1     0.00  -0.00   0.00     0.01  -0.01   0.00    -0.01   0.01  -0.00
  18   1    -0.00   0.00  -0.00    -0.08   0.06  -0.09     0.04  -0.03   0.04
  19   1     0.03  -0.00  -0.00    -0.89   0.06   0.07     0.12  -0.01  -0.01
                     46                     47                     48
                        a                      a                      a 
 Frequencies --  3616.6415              3627.1751              3628.2574
 Red. masses --     1.5999                 1.6749                 1.6767
 Frc consts  --     0.0000                 0.0000                 0.0000
 IR Inten    --    68.3710                93.4291                73.4750
 Raman Activ --     0.0000                 0.0000                 0.0000
 Depolar     --     0.0000                 0.0000                 0.0000
 Atom AN      X      Y      Z        X      Y      Z        X      Y      Z
   1  26    -0.00  -0.00   0.00    -0.00   0.00  -0.00     0.00  -0.00   0.00
   2   8    -0.00   0.01  -0.02    -0.02   0.04  -0.03     0.09  -0.14   0.11
   3   1     0.03  -0.05   0.07     0.07  -0.14   0.20    -0.25   0.49  -0.70
   4   8    -0.00  -0.01  -0.01    -0.01  -0.00   0.02    -0.01  -0.00   0.02
   5   1    -0.01  -0.00   0.01     0.03   0.00  -0.07     0.03   0.00  -0.09
   6   8    -0.02  -0.14   0.13    -0.00  -0.01   0.01    -0.00  -0.01   0.01
   7   1     0.52   0.17  -0.00     0.03   0.01  -0.00     0.06   0.02  -0.00
   8   8    -0.05  -0.02  -0.00     0.02   0.19   0.05     0.00   0.05   0.01
   9   1     0.04   0.11   0.03    -0.37  -0.78  -0.18    -0.10  -0.21  -0.05
  10   8    -0.01   0.01  -0.00     0.01  -0.01   0.00     0.01  -0.01   0.00
  11   1    -0.00   0.00   0.00    -0.00  -0.00   0.00    -0.00  -0.00   0.00
  12   8    -0.00  -0.00  -0.00    -0.00   0.00   0.00    -0.00   0.00   0.00
  13   1     0.00  -0.00  -0.00     0.00  -0.00  -0.00     0.00  -0.00  -0.00
  14   1     0.00   0.00   0.00     0.00   0.00   0.00     0.00  -0.00   0.00
  15   1     0.01   0.02   0.01    -0.00  -0.00   0.00     0.00   0.01   0.01
  16   1    -0.01   0.01   0.01     0.02  -0.03  -0.07    -0.09   0.09   0.26
  17   1     0.03  -0.03   0.01    -0.03   0.03  -0.01    -0.03   0.03  -0.01
  18   1    -0.45   0.38  -0.51    -0.02   0.02  -0.02    -0.04   0.04  -0.05
  19   1     0.16  -0.01  -0.01     0.29   0.00  -0.02     0.09   0.00  -0.00
                     49                     50                     51
                        a                      a                      a 
 Frequencies --  3635.9880              3639.1989              3768.2294
 Red. masses --     1.7074                 1.8338                 1.8889
 Frc consts  --     0.0000                 0.0000                 0.0000
 IR Inten    --    69.3905                71.7533                 2.0333
 Raman Activ --     0.0000                 0.0000                 0.0000
 Depolar     --     0.0000                 0.0000                 0.0000
 Atom AN      X      Y      Z        X      Y      Z        X      Y      Z
   1  26     0.00   0.00  -0.00    -0.00   0.00  -0.00    -0.00   0.00   0.00
   2   8     0.01  -0.01   0.01     0.00  -0.01   0.00    -0.00   0.00  -0.00
   3   1    -0.02   0.03  -0.05    -0.01   0.02  -0.03     0.00  -0.00   0.00
   4   8     0.10   0.05  -0.18     0.01   0.01  -0.02    -0.00   0.00   0.00
   5   1    -0.33  -0.02   0.86    -0.05  -0.00   0.12     0.00  -0.00  -0.00
   6   8    -0.00  -0.00   0.00     0.00   0.01  -0.00    -0.00   0.00  -0.00
   7   1     0.00   0.00   0.00    -0.03  -0.01  -0.00     0.00   0.00  -0.00
   8   8    -0.01   0.02   0.01    -0.00   0.01   0.00     0.00  -0.00  -0.00
   9   1    -0.03  -0.06  -0.01    -0.02  -0.05  -0.01     0.00   0.00   0.00
  10   8     0.02  -0.02   0.01    -0.15   0.17  -0.06    -0.00   0.00  -0.00
  11   1     0.00  -0.00  -0.00    -0.03   0.03   0.02    -0.00   0.01   0.01
  12   8    -0.00   0.00   0.00     0.00  -0.00  -0.00    -0.11   0.15   0.16
  13   1     0.00  -0.00  -0.00    -0.01   0.01   0.01     0.46  -0.59  -0.62
  14   1     0.00  -0.00   0.00    -0.00   0.00  -0.00     0.00  -0.00   0.00
  15   1    -0.07  -0.18  -0.15    -0.01  -0.03  -0.02    -0.00  -0.00  -0.00
  16   1    -0.01   0.01   0.03    -0.01   0.01   0.02     0.00  -0.00  -0.00
  17   1    -0.09   0.10  -0.03     0.63  -0.69   0.22     0.01  -0.01   0.00
  18   1    -0.00   0.00  -0.00     0.01  -0.01   0.02     0.00  -0.00   0.00
  19   1     0.07  -0.00  -0.01     0.03  -0.00  -0.00    -0.00   0.00   0.00
