19
 energy: -33.402546995026 gnorm: 0.126550224541 xtb: 6.6.0 (conda-forge)
Fe          -0.78470759391671        0.71315002553465        0.03233885071876
O           -1.41013087164852        2.96839284152789       -0.18536937958691
H           -1.83598772827136        3.39413978155533       -0.93703563741773
O            1.46671908441476        1.38847662729989        0.06325730984920
H            2.24540865988786        0.86026831031794       -0.14229580130544
O           -0.83689717724617        0.97844323524304        2.36726993469509
H           -1.44237868706776        0.57187122467716        2.99631706373762
O           -0.30901178685927       -1.56253867901585        0.37847466789418
H           -0.94608012800625       -2.27963354722174        0.29118065706888
O           -3.05928725619079        0.14945324366361       -0.15304034199253
H           -3.48188287401806       -0.18879222022881       -0.94972009472041
O           -0.56018692401755        0.35567642071222       -2.28004902760192
H           -0.36831975612964        1.00688877561677       -2.96322540075403
H           -0.44258977223607       -0.50412836829530       -2.69790459464890
H            1.77005510565956        2.30225864921621        0.08954109140258
H           -1.47086677809560        3.59820616158690        0.54081776439270
H           -3.77724307099089        0.38053430013557        0.44591962680308
H           -0.12843043742207        1.36088244356432        2.89596421994855
H            0.46030042213982       -1.94746945589283        0.81160450151494
19
 energy: -33.428820490186 gnorm: 0.045688947866 xtb: 6.6.0 (conda-forge)
Fe          -0.78496111120146        0.71329440905213        0.03213861356197
O           -1.38477614694677        3.02440733107821       -0.20162983694467
H           -1.86864449779916        3.41664043421879       -0.97120025718271
O            1.51412972939571        1.39533068983105        0.10415720746390
H            2.28669209125476        0.83708273437519       -0.16350341318110
O           -0.85992918380055        1.01709389194246        2.41075907883251
H           -1.46591198907701        0.54249031777961        3.03324253884689
O           -0.28291685317553       -1.61143806108060        0.34801603196091
H           -0.98232097616904       -2.31212057690369        0.30051119058489
O           -3.09846047388262        0.10186006914863       -0.13898407738303
H           -3.50406750495631       -0.19219170341310       -0.99410465199941
O           -0.59621476397230        0.35111424016484       -2.33205785484745
H           -0.34653566786333        1.03746246449619       -3.00055718180239
H           -0.42285317666987       -0.54619672554812       -2.71557152017504
H            1.78392800045939        2.34854376079410        0.07611644556680
H           -1.48743263391082        3.62514693286578        0.57994043978878
H           -3.81957350118416        0.40094333280983        0.46984465330496
H           -0.08654647275600        1.36677363925761        2.92232431249492
H            0.49487756224035       -1.97015741087194        0.84460369110693
19
 energy: -33.443685932377 gnorm: 0.081225020466 xtb: 6.6.0 (conda-forge)
Fe          -0.78544889475080        0.71339734319499        0.03169914587876
O           -1.30589718246310        3.11071847317417       -0.23814287155798
H           -1.91996648980979        3.43012101665187       -0.99236449052634
O            1.58017876565934        1.39555604897285        0.20642123433999
H            2.32107439234481        0.82247230416450       -0.20613586971260
O           -0.91685597568534        1.10668394346541        2.46395173205479
H           -1.47230644238641        0.49691832331889        3.06809824741197
O           -0.22776431103127       -1.68000952164396        0.26158889018330
H           -1.02369013496121       -2.32828818810055        0.33350891463636
O           -3.14299792622206       -0.00502622437720       -0.09804630942202
H           -3.51908760254770       -0.16765673175137       -1.04152248405517
O           -0.69359388391425        0.34876442494305       -2.40719918785304
H           -0.30130164100806        1.06167150446433       -3.02949274334984
H           -0.38025351860454       -0.58035335381084       -2.71833556840122
H            1.78637303717144        2.38858697448335        0.03599253271620
H           -1.52372096673246        3.63364106867265        0.61967883098908
H           -3.86226108900425        0.43994939697039        0.47853392859059
H           -0.03804741485453        1.34683572554600        2.93853882020174
H            0.51404970878544       -1.98790275834161        0.89727265787299
19
 energy: -33.446788552568 gnorm: 0.040039066861 xtb: 6.6.0 (conda-forge)
Fe          -0.78667016625037        0.71311005061550        0.03159128528754
O           -1.32134446729802        3.13147336310256       -0.24314131972669
H           -1.89573220625900        3.45966137837652       -1.00466502422925
O            1.60336064635321        1.39994397087467        0.19336030948747
H            2.34388271590551        0.82371735370317       -0.17550944597435
O           -0.91701977499535        1.09667116598937        2.48967493829511
H           -1.48954362837953        0.52369092596222        3.08877963671025
O           -0.22036237161954       -1.70111660543742        0.27644460912684
H           -1.01046281007291       -2.33815987073913        0.30177089565634
O           -3.17131727560394        0.00029963262391       -0.09798224484377
H           -3.51982157895876       -0.20097520821349       -1.02991627395812
O           -0.68224964462146        0.35000626311404       -2.43053440397875
H           -0.32914627052241        1.06089191418382       -3.05507404350600
H           -0.41394485179985       -0.58275787439162       -2.72874528762727
H            1.79460280428488        2.38776202629843        0.07151079089799
H           -1.48963972116833        3.65225821729452        0.60972100033064
H           -3.88327341608819        0.40540593304707        0.49052689784383
H           -0.05528623142367        1.37610714640199        2.94324239719634
H            0.53245067850311       -2.01191001280910        0.87299069300964
19
 energy: -33.451446828921 gnorm: 0.033107989953 xtb: 6.6.0 (conda-forge)
Fe          -0.78770354356788        0.71223907077758        0.03039365714507
O           -1.27344941272214        3.16326609974112       -0.26857703338314
H           -1.88559683972904        3.46386728570928       -1.00605773275417
O            1.62493995400169        1.39020138231872        0.24549978936640
H            2.34452713938426        0.82610604980183       -0.16778167966205
O           -0.95196938568468        1.13574308009424        2.50371639085695
H           -1.49267244489440        0.53210771002521        3.09143031330850
O           -0.18457872384440       -1.72152102629536        0.22732473466776
H           -1.00668346570484       -2.31510554713552        0.28649545529602
O           -3.18229318877335       -0.05363601511109       -0.06517528556054
H           -3.49562602375232       -0.20501332001313       -1.01934885588440
O           -0.74265746346559        0.35761778924468       -2.45769687169615
H           -0.33455707946589        1.05968174745436       -3.05690063144135
H           -0.42738231531884       -0.57703402713392       -2.70691483198006
H            1.77662695377534        2.37615744910288        0.08360550278182
H           -1.47176470868046        3.63778937021893        0.60184803463576
H           -3.88810470061415        0.39810212243007        0.49151447887113
H           -0.06802047142385        1.38138696867000        2.92324693869587
H            0.53544815046602       -2.01587641990277        0.86742303673456
19
 energy: -33.461926609320 gnorm: 0.054794663417 xtb: 6.6.0 (conda-forge)
Fe          -0.78893180256428        0.70597532527462        0.02266792418285
O           -1.16802315445604        3.21923683908284       -0.31693111710297
H           -1.87644742326628        3.43282453418002       -0.98904616720032
O            1.66129432021910        1.36790030828871        0.37348017013878
H            2.30565931531232        0.83137998599442       -0.17757369489018
O           -1.03452254125460        1.24313762543611        2.52189694811165
H           -1.47258707416036        0.52729398068124        3.06277335420749
O           -0.10041884395322       -1.75788075409197        0.10109006506319
H           -1.01814076465924       -2.21991389798466        0.27048231991143
O           -3.19002321227060       -0.18076861011866        0.01205728646379
H           -3.40334857673547       -0.18797255961543       -1.00061670225204
O           -0.89164516874069        0.37840486471180       -2.51136683407925
H           -0.32054767990645        1.05938014633538       -3.02998914282506
H           -0.44019353330053       -0.56118184435050       -2.61467762794234
H            1.71453473579863        2.33591675739775        0.08356468938698
H           -1.44673593502534        3.57110809302101        0.58562096312183
H           -3.87014124163088        0.41555096421449        0.47819381504920
H           -0.09230882209887        1.36259553541908        2.85695475857723
H            0.52100983267843       -1.99690752387902        0.87546440207587
19
 energy: -33.472137324322 gnorm: 0.056412594450 xtb: 6.6.0 (conda-forge)
Fe          -0.79227695771714        0.69293975855874        0.00556783535236
O           -1.12111918534207        3.24225742888952       -0.32936687613632
H           -1.85360556972126        3.38283099014891       -0.96359922306952
O            1.66968739552644        1.36645379086955        0.40674196582312
H            2.24704474685246        0.83122275306275       -0.16023666228446
O           -1.04604128853273        1.26134304660052        2.52437787798039
H           -1.46021467267245        0.54770206256751        3.00929884337244
O           -0.05332452114732       -1.77297363380148        0.03759630100824
H           -1.03872014023560       -2.12156844410452        0.25697029373498
O           -3.19154814122511       -0.23837766505862        0.05380165868791
H           -3.31024416072131       -0.16472505558175       -0.98636744586406
O           -0.98509043923551        0.39898908976158       -2.54313857200609
H           -0.32780166142810        1.06096042761392       -3.00190034302562
H           -0.43482293632234       -0.55303535474115       -2.50199501131646
H            1.67352908897710        2.29040756024544        0.09547960363799
H           -1.43163733521662        3.51662905117193        0.56225160374180
H           -3.83455723230923        0.41609654539352        0.47414103976698
H           -0.13135223689360        1.35834135719391        2.80282937961493
H            0.51057767735010       -1.96941393879299        0.86159314097964
19
 energy: -33.499983243027 gnorm: 0.275176840895 xtb: 6.6.0 (conda-forge)
Fe          -0.79753279080680        0.66531446911181       -0.02769539523961
O           -1.13136844922521        3.25719895187491       -0.31275670274513
H           -1.79629689957323        3.31490420127725       -0.92236956044838
O            1.68961791600370        1.37529941243363        0.45453290752039
H            2.15049661465517        0.83923406167038       -0.16043403638558
O           -1.09100820827305        1.34723765472595        2.53749883918239
H           -1.40600407915811        0.52608434388272        2.92515417105835
O           -0.03601084691040       -1.78733474459778        0.06192198944154
H           -1.07002397002067       -1.99190875884740        0.21134760207370
O           -3.21600568052843       -0.20197417839654        0.05163488083587
H           -3.18244974993006       -0.16469968031279       -0.95971238700996
O           -1.07153695688426        0.44469664708620       -2.59660701790470
H           -0.38221983895883        1.06702891374402       -2.99878906982648
H           -0.36161092050064       -0.56912811650615       -2.27683207154604
H            1.62330233489511        2.22265824139821        0.08744084860177
H           -1.40221189063199        3.46025169587307        0.51504940346789
H           -3.78156771382336        0.38650230822280        0.47735682530899
H           -0.15853560607029        1.29475162200131        2.72658155471625
H            0.50944916572706       -1.94003727464436        0.81072262889702
19
 energy: -33.461296386101 gnorm: 0.556423335234 xtb: 6.6.0 (conda-forge)
Fe          -0.80560076092634        0.62955415816698       -0.07641906990123
O           -1.13921139875018        3.28486354397418       -0.29435214613595
H           -1.75352605325124        3.26387922307759       -0.87745479692358
O            1.71798834279459        1.38973543087136        0.47194036109335
H            2.07864597841619        0.84877225457532       -0.15677809645339
O           -1.09913122200257        1.37582215563662        2.56249865664876
H           -1.37092467996102        0.52323606887227        2.86798320514315
O           -0.06328799532588       -1.80591937048397        0.15858529520834
H           -1.07670999859053       -1.92206856752711        0.12919699542104
O           -3.25768616813522       -0.12007000381633        0.01331961160240
H           -3.09921128301962       -0.19611720076436       -0.92318620438434
O           -1.13087027001256        0.51287724139271       -2.67734287803747
H           -0.46746483432717        1.09320337451039       -3.04260061836457
H           -0.24999037677877       -0.62547759353161       -2.03657719500972
H            1.59345959613556        2.16284409535763        0.08183589680267
H           -1.38866622549925        3.41185001922608        0.48117778828444
H           -3.72959746977006        0.37109343131243        0.48466739717251
H           -0.18643342956569        1.25274995331573        2.67673533905569
H            0.51670067855538       -1.90474844416871        0.76081586877629
19
 energy: -33.553192070608 gnorm: 0.148830343724 xtb: 6.6.0 (conda-forge)
Fe          -0.80723512310204        0.62151011068186       -0.08223532828196
O           -1.05008349344919        3.31712484560210       -0.32952363769059
H           -1.80056885034052        3.26079200183658       -0.91128803530491
O            1.71977650295458        1.37665744251980        0.50634509852027
H            2.10174495321993        0.82779608922229       -0.16607501239745
O           -1.09678497992664        1.36156737529616        2.55164847192019
H           -1.40615555556893        0.51658903079985        2.88868488515965
O           -0.07384349428167       -1.81091881982020        0.11267200601836
H           -1.07829688892795       -1.94821911722203        0.12713041585339
O           -3.24194660446146       -0.17887129635067        0.01514595766822
H           -3.10918221460747       -0.19666096842602       -0.93408327498675
O           -1.09068124776205        0.55124831141677       -2.68406907364106
H           -0.47599257744366        1.14473631273839       -3.03591435249630
H           -0.29099319665747       -0.70766068722940       -2.04876420311492
H            1.58254167900620        2.19673527368458        0.06484825635294
H           -1.42359878020029        3.39881021654480        0.54660516936926
H           -3.74181852464806        0.42250579941439        0.49382459922454
H           -0.15797169477530        1.27640693067784        2.68416941741969
H            0.52957252095764       -1.88406908138987        0.80492405040573
19
 energy: -33.514887421623 gnorm: 0.280736117681 xtb: 6.6.0 (conda-forge)
Fe          -0.80124212075883        0.62698373897360       -0.09143373159414
O           -1.17586536395587        3.22980198598132       -0.27786253469365
H           -1.75696801722471        3.28218445900479       -0.94355722703450
O            1.68310084257636        1.36605332626783        0.48244244826268
H            2.11828960146787        0.80891851326492       -0.16991975506842
O           -1.07647325779981        1.31086562582674        2.51023360887770
H           -1.43672763031701        0.51895302195035        2.90455778515488
O           -0.07634257017125       -1.80182520360160       -0.00890396123921
H           -1.02062623434920       -2.01175442113011        0.17471652628250
O           -3.18168818652831       -0.36196965966769        0.08620244781962
H           -3.12481130483042       -0.12168986036995       -0.96215546540084
O           -1.27530257100781        0.58103783320385       -2.69887490764922
H           -0.33041124818595        1.17919034601429       -2.99845432312610
H           -0.28147147882043       -0.72935495925642       -2.06397774764664
H            1.56959345412844        2.23498254225941        0.06928901532159
H           -1.35528135871055        3.45126708833287        0.54805297942498
H           -3.76206045227463        0.52267844749619        0.45942739215076
H           -0.12333988147161        1.30149760250750        2.67669968554795
H            0.49611020821943       -1.84174065706072        0.90756317460836
19
 energy: -33.572138299909 gnorm: 0.161356951220 xtb: 6.6.0 (conda-forge)
Fe          -0.79101107205997        0.64042232451835       -0.10700628355793
O           -1.09081477355666        3.23321601131149       -0.29901709803552
H           -1.79582471918682        3.27394578885348       -0.94921041638166
O            1.65270957000571        1.36008684680701        0.44374751623517
H            2.12670493406795        0.79722815171846       -0.15396369499771
O           -1.06132848800893        1.27740075155237        2.47932119825222
H           -1.45629307930198        0.52326219251527        2.91237211813543
O           -0.12135127174803       -1.76898871668657        0.04645521752710
H           -0.97923598864285       -2.05071137514531        0.19902785084446
O           -3.15429731501419       -0.23511150398232        0.02441526303644
H           -3.15765528559337       -0.15412264804610       -0.92672142696321
O           -1.20676239704433        0.60763637464810       -2.66904693222583
H           -0.39488949618463        1.19950437695481       -3.01935751748830
H           -0.28439712937217       -0.74861074518544       -2.07950604049624
H            1.58207192358698        2.23600498640593        0.09121367329290
H           -1.38796463656009        3.44164668682805        0.57886775139426
H           -3.74867596252304        0.45162269841582        0.46227929908181
H           -0.12076841093176        1.32060324709133        2.68277146990593
H            0.47826602805391       -1.85895567857751        0.88740346243900
19
 energy: -33.529237845512 gnorm: 0.466661192208 xtb: 6.6.0 (conda-forge)
Fe          -0.77720245550229        0.64687070134241       -0.12176412799143
O           -1.04224553116707        3.23698608555857       -0.31732859935703
H           -1.78730161347729        3.27155857959385       -0.94505583209223
O            1.65786996321707        1.34453610651275        0.54297684152028
H            2.10115967762588        0.80228913066258       -0.18329072716895
O           -1.04856809408696        1.25195711214698        2.46010532307227
H           -1.45483099456543        0.53510921473633        2.88728232856292
O           -0.05026980443501       -1.76712901025383        0.07723593625291
H           -1.06331395539152       -1.95339612972387        0.31246563724026
O           -3.14969167429809       -0.24034501180797        0.05109239959422
H           -3.11391078792200       -0.07697043432480       -0.93856085735778
O           -1.04862347273257        0.65704056290412       -2.64844907392098
H           -0.63158172509148        1.17520299821490       -3.07769826049141
H           -0.21264712501217       -0.73212255259742       -2.03464309728515
H            1.55004111470969        2.22509233429780        0.04654527615448
H           -1.41613911829284        3.40871240126271        0.59510993991130
H           -3.74125600639830        0.39395970174751        0.42363556965940
H           -0.15913597365150        1.32541047964518        2.66877069245520
H            0.47613000645760       -1.95868249992064        0.80561604123995
19
 energy: -33.586164036627 gnorm: 0.103537181189 xtb: 6.6.0 (conda-forge)
Fe          -0.76755915968477        0.65844254437016       -0.12227536908426
O           -1.03396046433466        3.22339384945415       -0.31542441339005
H           -1.78932999349325        3.27153172078352       -0.94173482904021
O            1.63377396544826        1.34567080178669        0.48823780451466
H            2.10543668108685        0.79881900780260       -0.15965999793013
O           -1.06286402857423        1.26629531464550        2.43964502080170
H           -1.45600457128120        0.52132489783097        2.89094963632215
O           -0.07449700138690       -1.74766788673449        0.08650063335678
H           -1.04508273687102       -1.96196586973425        0.33003932078775
O           -3.12161499110581       -0.23271134898879        0.04241076437144
H           -3.12247671581302       -0.08413504068917       -0.93620821098495
O           -1.17206222299571        0.63068908146438       -2.63676064057099
H           -0.53350406398022        1.21812280910801       -3.08645720685288
H           -0.20133779204867       -0.72926609095999       -2.05301046182809
H            1.55423847665601        2.22927895442254        0.06708296334773
H           -1.42359548457484        3.40574678046386        0.59421064276974
H           -3.74963709862481        0.39043910379622        0.43302681549910
H           -0.13541074952885        1.32357411878591        2.66392894701602
H            0.48397038109257       -1.98150297761063        0.81954399089269
19
 energy: -33.557027883729 gnorm: 0.382226932833 xtb: 6.6.0 (conda-forge)
Fe          -0.76019539913780        0.65364623098947       -0.14579521781903
O           -1.11548729808936        3.17465560228385       -0.26900289208152
H           -1.74616988645085        3.28208605758342       -0.93776177091049
O            1.61447913711400        1.34491233873202        0.45498850248468
H            2.10472119641135        0.78750058118324       -0.15570856899386
O           -1.07961752222542        1.28551150788059        2.41201893034509
H           -1.45070471976066        0.49761093631941        2.89527255235544
O           -0.19075725548940       -1.73405350866652        0.19844793218719
H           -0.91644573137384       -2.10483351735662        0.21290929924465
O           -3.09249897017163       -0.25682327434930        0.02138985814297
H           -3.15811574586226       -0.12936720566253       -0.91541817745501
O           -1.14737453183750        0.66317120424708       -2.63799959352150
H           -0.62791172388234        1.27618861649109       -3.12724298756882
H           -0.15518511234228       -0.73620615962721       -2.08293592680434
H            1.56447403516964        2.23092672251526        0.07548402106425
H           -1.37248616803766        3.43525765816993        0.57559547679492
H           -3.73461211988684        0.49293626692662        0.41833611851937
H           -0.10160863812464        1.29821747503662        2.65686896133140
H            0.45397888396338       -1.91525776269917        0.95459889268288
19
 energy: -33.601632833455 gnorm: 0.124940762397 xtb: 6.6.0 (conda-forge)
Fe          -0.75318747058887        0.65797225075575       -0.15329267635959
O           -1.09960293346734        3.16632138785260       -0.27298928597662
H           -1.76065416902659        3.28663150431013       -0.94625015578571
O            1.59734145073295        1.34937263400320        0.41047424875965
H            2.11618309669764        0.78148384468290       -0.14186446599741
O           -1.05031683627263        1.24215288387416        2.39251322852368
H           -1.45882134803779        0.51473773152070        2.89862740709976
O           -0.12195055185190       -1.73065948910149        0.20259679313673
H           -0.98738428529841       -2.10173799949401        0.24407087060194
O           -3.09525236291358       -0.19010787540020        0.00331737693709
H           -3.16897541230346       -0.15068431314427       -0.91079255118038
O           -1.20675643745995        0.69049402144218       -2.66336488230833
H           -0.60680543616649        1.27649085037085       -3.11235154135393
H           -0.12234678988865       -0.73304975373997       -2.12048511854856
H            1.57660841402855        2.24197023120508        0.09551739298287
H           -1.38016585503132        3.44368583569022        0.59537457986143
H           -3.73379386275854        0.44176762309662        0.42861926204140
H           -0.11263202016420        1.31729642126521        2.66367064822442
H            0.45699523975646       -1.95805801919242        0.99065427933986
19
 energy: -33.593413991098 gnorm: 0.228743550959 xtb: 6.6.0 (conda-forge)
Fe          -0.75817345436427        0.67799767432568       -0.15606939077980
O           -1.02456971453870        3.16139880187042       -0.28993337186382
H           -1.78874809895517        3.27388535751945       -0.94316012183690
O            1.57928324701468        1.33386905542069        0.48593355082928
H            2.10343726805305        0.77369751681615       -0.18571903233325
O           -1.00027373011499        1.18021236451388        2.35221613078602
H           -1.46127821013232        0.55123020183521        2.88955514448381
O           -0.15493881744613       -1.67052777038309        0.39067080356824
H           -0.99412950575547       -2.12919054441585        0.26190938986796
O           -3.08928638226277       -0.18744823850204        0.07107394901730
H           -3.10282530320114       -0.01970522836989       -0.99099858497838
O           -1.31470384429991        0.70364823024400       -2.68809216185680
H           -0.55170184536084        1.28534280166842       -3.06088988414194
H           -0.07540882078744       -0.75114875425930       -2.19375479243810
H            1.57464312332380        2.25488171564044        0.03961222839609
H           -1.41353821575457        3.44216853515929        0.60889885228598
H           -3.78001541117458        0.32235679276294        0.43817409976237
H           -0.13804952363443        1.34806471692796        2.67187497283824
H            0.47875966937693       -2.00465345877694        0.90274362839206
19
 energy: -33.629046507734 gnorm: 0.113990014981 xtb: 6.6.0 (conda-forge)
Fe          -0.75423285481047        0.69123428219351       -0.16077696780886
O           -1.04082427102091        3.12164895906693       -0.26900241420808
H           -1.76928160559570        3.29286148192405       -0.93559506020439
O            1.53168116960912        1.33809181174527        0.37808739335114
H            2.11824787198904        0.76792190178069       -0.13214209815696
O           -0.99216493308296        1.15530562441700        2.30323398327915
H           -1.46587670792801        0.55152472653893        2.89858226919973
O           -0.17434474151205       -1.63136224296349        0.36919131679362
H           -0.98876145671216       -2.13704061951056        0.31424243426121
O           -3.04907395883361       -0.15512545472278        0.05290030456323
H           -3.11950382770275       -0.05049757909739       -0.97585048948094
O           -1.36042581690280        0.73918907301794       -2.69020777252010
H           -0.63598643073850        1.30322756049809       -3.07435626220022
H            0.05096683061717       -0.77682270180413       -2.23400279930828
H            1.59624319579602        2.26057377050062        0.08161560699522
H           -1.40744056746478        3.45253941075832        0.61253888934796
H           -3.79586986949054        0.33100264414314        0.43396247567367
H           -0.11949654214298        1.34467323966354        2.67678273059883
H            0.46462694591263       -2.05286611815237        0.95484186982240
19
 energy: -33.616946750326 gnorm: 0.286825497275 xtb: 6.6.0 (conda-forge)
Fe          -0.75644514924468        0.68072612031774       -0.19013916627359
O           -1.10587369609573        3.10131306967495       -0.23049512203784
H           -1.70801612863532        3.30873445511976       -0.90976298253430
O            1.53749721581470        1.33241151634649        0.48446398908174
H            2.08375663175478        0.78622978721925       -0.16572939779036
O           -0.98599650151729        1.13295503599648        2.26883668750890
H           -1.45653534739490        0.56076900977677        2.87395478268670
O           -0.19194304081912       -1.61482910458217        0.35055966715051
H           -0.98656363017695       -2.12441675780701        0.33774228699099
O           -3.03043915006605       -0.02730384632222       -0.06253987953538
H           -3.16466660204539       -0.21492906222159       -0.87048872637835
O           -1.45495615443132        0.76772244021867       -2.71772231000614
H           -0.67102589526945        1.33112743221385       -3.03030992182122
H            0.18977556354531       -0.79896167658232       -2.26703294850415
H            1.58369445164986        2.24779649770474        0.02654155794713
H           -1.37532860539264        3.44631833889788        0.59913477955297
H           -3.74261715043779        0.37552368329182        0.43798771832537
H           -0.13020883134600        1.31918909000680        2.66343014041873
H            0.45437445009378       -2.06429625927262        1.00561425521674
19
 energy: -33.653996076732 gnorm: 0.074976858745 xtb: 6.6.0 (conda-forge)
Fe          -0.77492724134838        0.67953913300445       -0.20297781897142
O           -1.08126291738572        3.10645569488258       -0.22961331264594
H           -1.71522411665873        3.32339540438202       -0.90769992918461
O            1.51494209393193        1.34500440992265        0.38009658387403