 Entering Gaussian System, Link 0=g16
 Input=Mn_2_HSE06.com
 Output=Mn_2_HSE06.log
 Initial command:
 /gpfs/fs1/soft/improv/software/custom-built/gaussian/g16/l1.exe "/scratch/Gau-159785.inp" -scrdir="/scratch/"
 Default CPUs for threads: 0-127
 Default linda workers: i068.lcrc.anl.gov
 Default is to use 128 SMP processors on each worker.
 Entering Link 1 = /gpfs/fs1/soft/improv/software/custom-built/gaussian/g16/l1.exe PID=    159786.
  
 Copyright (c) 1988-2021, Gaussian, Inc.  All Rights Reserved.
  
 This is part of the Gaussian(R) 16 program.  It is based on
 the Gaussian(R) 09 system (copyright 2009, Gaussian, Inc.),
 the Gaussian(R) 03 system (copyright 2003, Gaussian, Inc.),
 the Gaussian(R) 98 system (copyright 1998, Gaussian, Inc.),
 the Gaussian(R) 94 system (copyright 1995, Gaussian, Inc.),
 the Gaussian 92(TM) system (copyright 1992, Gaussian, Inc.),
 the Gaussian 90(TM) system (copyright 1990, Gaussian, Inc.),
 the Gaussian 88(TM) system (copyright 1988, Gaussian, Inc.),
 the Gaussian 86(TM) system (copyright 1986, Carnegie Mellon
 University), and the Gaussian 82(TM) system (copyright 1983,
 Carnegie Mellon University). Gaussian is a federally registered
 trademark of Gaussian, Inc.
  
 This software contains proprietary and confidential information,
 including trade secrets, belonging to Gaussian, Inc.
  
 This software is provided under written license and may be
 used, copied, transmitted, or stored only in accord with that
 written license.
  
 The following legend is applicable only to US Government
 contracts under FAR:
  
                    RESTRICTED RIGHTS LEGEND
  
 Use, reproduction and disclosure by the US Government is
 subject to restrictions as set forth in subparagraphs (a)
 and (c) of the Commercial Computer Software - Restricted
 Rights clause in FAR 52.227-19.
  
 Gaussian, Inc.
 340 Quinnipiac St., Bldg. 40, Wallingford CT 06492
  
  
 ---------------------------------------------------------------
 Warning -- This program may not be used in any manner that
 competes with the business of Gaussian, Inc. or will provide
 assistance to any competitor of Gaussian, Inc.  The licensee
 of this program is prohibited from giving any competitor of
 Gaussian, Inc. access to this program.  By using this program,
 the user acknowledges that Gaussian, Inc. is engaged in the
 business of creating and licensing software in the field of
 computational chemistry and represents and warrants to the
 licensee that it is not a competitor of Gaussian, Inc. and that
 it will not use this program in any manner prohibited above.
 ---------------------------------------------------------------
  

 Cite this work as:
 Gaussian 16, Revision C.02,
 M. J. Frisch, G. W. Trucks, H. B. Schlegel, G. E. Scuseria, 
 M. A. Robb, J. R. Cheeseman, G. Scalmani, V. Barone, 
 G. A. Petersson, H. Nakatsuji, X. Li, M. Caricato, A. V. Marenich, 
 J. Bloino, B. G. Janesko, R. Gomperts, B. Mennucci, H. P. Hratchian, 
 J. V. Ortiz, A. F. Izmaylov, J. L. Sonnenberg, D. Williams-Young, 
 F. Ding, F. Lipparini, F. Egidi, J. Goings, B. Peng, A. Petrone, 
 T. Henderson, D. Ranasinghe, V. G. Zakrzewski, J. Gao, N. Rega, 
 G. Zheng, W. Liang, M. Hada, M. Ehara, K. Toyota, R. Fukuda, 
 J. Hasegawa, M. Ishida, T. Nakajima, Y. Honda, O. Kitao, H. Nakai, 
 T. Vreven, K. Throssell, J. A. Montgomery, Jr., J. E. Peralta, 
 F. Ogliaro, M. J. Bearpark, J. J. Heyd, E. N. Brothers, K. N. Kudin, 
 V. N. Staroverov, T. A. Keith, R. Kobayashi, J. Normand, 
 K. Raghavachari, A. P. Rendell, J. C. Burant, S. S. Iyengar, 
 J. Tomasi, M. Cossi, J. M. Millam, M. Klene, C. Adamo, R. Cammi, 
 J. W. Ochterski, R. L. Martin, K. Morokuma, O. Farkas, 
 J. B. Foresman, and D. J. Fox, Gaussian, Inc., Wallingford CT, 2019.
 
 ******************************************
 Gaussian 16:  ES64L-G16RevC.02  7-Dec-2021
                23-May-2024 
 ******************************************
 %chk=Mn_2_HSE06.chk
 SetSPE:  set environment variable "OMP_PROC_BIND" = "true"
 SetSPE:  set environment variable "OMP_PLACES" = "{0},{1},{2},{3},{4},{5},{6},{7},{8},{9},{10},{11},{12},{13},{14},{15},{16},{17},{18},{19},{20},{21},{22},{23},{24},{25},{26},{27},{28},{29},{30},{31},{32},{33},{34},{35},{36},{37},{38},{39},{40},{41},{42},{43},{44},{45},{46},{47},{48},{49},{50},{51},{52},{53},{54},{55},{56},{57},{58},{59},{60},{61},{62},{63},{64},{65},{66},{67},{68},{69},{70},{71},{72},{73},{74},{75},{76},{77},{78},{79},{80},{81},{82},{83},{84},{85},{86},{87},{88},{89},{90},{91},{92},{93},{94},{95},{96},{97},{98},{99},{100},{101},{102},{103},{104},{105},{106},{107},{108},{109},{110},{111},{112},{113},{114},{115},{116},{117},{118},{119},{120},{121},{122},{123},{124},{125},{126},{127}"
 SetLPE:    new flags="-opt 'Tsnet.Node.lindarsharg: ssh'  -nodelist 'i068.lcrc.anl.gov' -env GAUSS_MDEF=26843545600 -env GAUSS_EXEDIR="/gpfs/fs1/soft/improv/software/custom-built/gaussian/g16/bsd:/gpfs/fs1/soft/improv/software/custom-built/gaussian/g16" -env "OMP_PROC_BIND=true" -env "OMP_PLACES={0},{1},{2},{3},{4},{5},{6},{7},{8},{9},{10},{11},{12},{13},{14},{15},{16},{17},{18},{19},{20},{21},{22},{23},{24},{25},{26},{27},{28},{29},{30},{31},{32},{33},{34},{35},{36},{37},{38},{39},{40},{41},{42},{43},{44},{45},{46},{47},{48},{49},{50},{51},{52},{53},{54},{55},{56},{57},{58},{59},{60},{61},{62},{63},{64},{65},{66},{67},{68},{69},{70},{71},{72},{73},{74},{75},{76},{77},{78},{79},{80},{81},{82},{83},{84},{85},{86},{87},{88},{89},{90},{91},{92},{93},{94},{95},{96},{97},{98},{99},{100},{101},{102},{103},{104},{105},{106},{107},{108},{109},{110},{111},{112},{113},{114},{115},{116},{117},{118},{119},{120},{121},{122},{123},{124},{125},{126},{127}" -env GAUSS_ADEF="0,1,2,3,4,5,6,7,8,9,10,11,12,13,14,15,16,17,18,19,20,21,22,23,24,25,26,27,28,29,30,31,32,33,34,35,36,37,38,39,40,41,42,43,44,45,46,47,48,49,50,51,52,53,54,55,56,57,58,59,60,61,62,63,64,65,66,67,68,69,70,71,72,73,74,75,76,77,78,79,80,81,82,83,84,85,86,87,88,89,90,91,92,93,94,95,96,97,98,99,100,101,102,103,104,105,106,107,108,109,110,111,112,113,114,115,116,117,118,119,120,121,122,123,124,125,126,127""
 Will use up to    1 processors via Linda.
 ----------------------------------------------------------------------
 #p HSEH1PBE 6-31+G(2df,p) opt=(cartesian,calcall,maxcycles=500) freq s
 cf=(maxcycles=500,xqc,maxconventional=50)
 ----------------------------------------------------------------------
 1/6=500,10=4,18=10,26=3,38=1/1,3;
 2/12=2,17=6,18=5,29=2,40=1/2;
 3/5=1,6=6,7=114,11=2,25=1,30=1,71=2,74=-51,140=1/1,2,3;
 4//1;
 5/5=2,7=500,8=3,13=1,38=5,85=50/2,8;
 8/6=4,10=90,11=11/1;
 11/6=1,8=1,9=11,15=111,16=1/1,2,10;
 10/6=1/2;
 6/7=2,8=2,9=2,10=2,18=1,28=1/1;
 7/7=1,10=1,25=1/1,2,3,16;
 1/6=500,10=4,18=10,26=3/3(3);
 2/29=1/2;
 7/7=1,8=1,9=1,25=1,44=-1/16;
 99/12=1/99;
 2/29=1/2;
 3/5=1,6=6,7=114,11=2,25=1,30=1,71=2,74=-51,140=1/1,2,3;
 4/5=5,16=3,69=1/1;
 5/5=2,7=500,8=3,13=1,38=5,85=50/2,8;
 8/6=4,10=90,11=11/1;
 11/6=1,8=1,9=11,15=111,16=1/1,2,10;
 10/6=1/2;
 7/7=1,10=1,25=1/1,2,3,16;
 1/6=500,10=4,18=10,26=3/3(-8);
 2/29=1/2;
 6/7=2,8=2,9=2,10=2,18=1,19=2,28=1/1;
 7/7=1,8=1,9=1,25=1,44=-1/16;
 99/12=1/99;
 Leave Link    1 at Thu May 23 12:33:44 2024, MaxMem=           0 cpu:               4.7 elap:               0.1
 (Enter /gpfs/fs1/soft/improv/software/custom-built/gaussian/g16/l101.exe)
 -----
 Title
 -----
 Symbolic Z-matrix:
 Charge =  2 Multiplicity = 6
 Mn                   -0.79304   0.81881  -0.09491 
 O                    -1.20497   2.57394  -0.35687 
 H                    -2.12106   2.64974  -0.63312 
 O                     0.99012   1.19063  -0.05794 
 H                     1.42696   0.5998    0.55971 
 O                    -0.81752   1.03069   1.71365 
 H                    -1.02108   0.1906    2.13133 
 O                    -0.38507  -0.93351   0.17118 
 H                    -1.15682  -1.47369  -0.01433 
 O                    -2.57341   0.45178  -0.12186 
 H                    -2.77756  -0.08744  -0.88929 
 O                    -0.76966   0.60461  -1.90111 
 H                     0.09872   0.83457  -2.23949 
 H                    -0.96534  -0.30999  -2.11742 
 H                     1.12208   2.09943   0.22124 
 H                    -1.07671   3.0584    0.46184 
 H                    -2.81407  -0.02398   0.6765 
 H                     0.0422    1.33615   2.01181 
 H                    -0.11532  -1.06446   1.08312 
 
 ITRead=  0  0  0  0  0  0  0  0  0  0  0  0  0  0  0  0  0  0  0
 MicOpt= -1 -1 -1 -1 -1 -1 -1 -1 -1 -1 -1 -1 -1 -1 -1 -1 -1 -1 -1
 NAtoms=     19 NQM=       19 NQMF=       0 NMMI=      0 NMMIF=      0
                NMic=       0 NMicF=      0.
                    Isotopes and Nuclear Properties:
 (Nuclear quadrupole moments (NQMom) in fm**2, nuclear magnetic moments (NMagM)
  in nuclear magnetons)

  Atom         1           2           3           4           5           6           7           8           9          10
 IAtWgt=          55          16           1          16           1          16           1          16           1          16
 AtmWgt=  54.9380463  15.9949146   1.0078250  15.9949146   1.0078250  15.9949146   1.0078250  15.9949146   1.0078250  15.9949146
 NucSpn=           5           0           1           0           1           0           1           0           1           0
 AtZEff=  -0.0000000  -0.0000000  -0.0000000  -0.0000000  -0.0000000  -0.0000000  -0.0000000  -0.0000000  -0.0000000  -0.0000000
 NQMom=   33.0000000   0.0000000   0.0000000   0.0000000   0.0000000   0.0000000   0.0000000   0.0000000   0.0000000   0.0000000
 NMagM=    3.4532000   0.0000000   2.7928460   0.0000000   2.7928460   0.0000000   2.7928460   0.0000000   2.7928460   0.0000000
 AtZNuc=  25.0000000   8.0000000   1.0000000   8.0000000   1.0000000   8.0000000   1.0000000   8.0000000   1.0000000   8.0000000

  Atom        11          12          13          14          15          16          17          18          19
 IAtWgt=           1          16           1           1           1           1           1           1           1
 AtmWgt=   1.0078250  15.9949146   1.0078250   1.0078250   1.0078250   1.0078250   1.0078250   1.0078250   1.0078250
 NucSpn=           1           0           1           1           1           1           1           1           1
 AtZEff=  -0.0000000  -0.0000000  -0.0000000  -0.0000000  -0.0000000  -0.0000000  -0.0000000  -0.0000000  -0.0000000
 NQMom=    0.0000000   0.0000000   0.0000000   0.0000000   0.0000000   0.0000000   0.0000000   0.0000000   0.0000000
 NMagM=    2.7928460   0.0000000   2.7928460   2.7928460   2.7928460   2.7928460   2.7928460   2.7928460   2.7928460
 AtZNuc=   1.0000000   8.0000000   1.0000000   1.0000000   1.0000000   1.0000000   1.0000000   1.0000000   1.0000000
 Leave Link  101 at Thu May 23 12:33:44 2024, MaxMem= 26843545600 cpu:               0.4 elap:               0.0
 (Enter /gpfs/fs1/soft/improv/software/custom-built/gaussian/g16/l103.exe)

 GradGradGradGradGradGradGradGradGradGradGradGradGradGradGradGradGradGrad
 Berny optimization.
 Initialization pass.
 No Z-matrix variables, so optimization will use Cartesian coordinates.
 Trust Radius=3.00D-01 FncErr=1.00D-07 GrdErr=1.00D-06 EigMax=2.50D+02 EigMin=1.00D-04
 Number of steps in this run=    114 maximum allowed number of steps=    114.
 GradGradGradGradGradGradGradGradGradGradGradGradGradGradGradGradGradGrad

 Leave Link  103 at Thu May 23 12:33:44 2024, MaxMem= 26843545600 cpu:               0.4 elap:               0.0
 (Enter /gpfs/fs1/soft/improv/software/custom-built/gaussian/g16/l202.exe)
 ---------------------------------------------------------------------------------------------------
                            Z-MATRIX (ANGSTROMS AND DEGREES)
   CD    Cent   Atom    N1       Length/X        N2       Alpha/Y        N3        Beta/Z          J
 ---------------------------------------------------------------------------------------------------
      1      1  Mn       0  -0.793037          0.818805         -0.094905
      2      2  O        0  -1.204971          2.573941         -0.356874
      3      3  H        0  -2.121063          2.649743         -0.633122
      4      4  O        0   0.990122          1.190635         -0.057941
      5      5  H        0   1.426962          0.599798          0.559707
      6      6  O        0  -0.817519          1.030691          1.713650
      7      7  H        0  -1.021079          0.190602          2.131326
      8      8  O        0  -0.385068         -0.933506          0.171177
      9      9  H        0  -1.156817         -1.473692         -0.014327
     10     10  O        0  -2.573405          0.451778         -0.121857
     11     11  H        0  -2.777557         -0.087440         -0.889285
     12     12  O        0  -0.769659          0.604612         -1.901109
     13     13  H        0   0.098725          0.834573         -2.239490
     14     14  H        0  -0.965336         -0.309994         -2.117418
     15     15  H        0   1.122081          2.099426          0.221242
     16     16  H        0  -1.076711          3.058396          0.461841
     17     17  H        0  -2.814074         -0.023981          0.676500
     18     18  H        0   0.042204          1.336153          2.011809
     19     19  H        0  -0.115315         -1.064459          1.083123
 ---------------------------------------------------------------------------------------------------
                         Z-Matrix orientation:                         
 ---------------------------------------------------------------------
 Center     Atomic      Atomic             Coordinates (Angstroms)
 Number     Number       Type             X           Y           Z
 ---------------------------------------------------------------------
      1         25           0       -0.793037    0.818805   -0.094905
      2          8           0       -1.204971    2.573941   -0.356874
      3          1           0       -2.121063    2.649743   -0.633122
      4          8           0        0.990122    1.190635   -0.057941
      5          1           0        1.426962    0.599798    0.559707
      6          8           0       -0.817519    1.030691    1.713650
      7          1           0       -1.021079    0.190602    2.131326
      8          8           0       -0.385068   -0.933506    0.171177
      9          1           0       -1.156817   -1.473692   -0.014327
     10          8           0       -2.573405    0.451778   -0.121857
     11          1           0       -2.777557   -0.087440   -0.889285
     12          8           0       -0.769659    0.604612   -1.901109
     13          1           0        0.098725    0.834573   -2.239490
     14          1           0       -0.965336   -0.309994   -2.117418
     15          1           0        1.122081    2.099426    0.221242
     16          1           0       -1.076711    3.058396    0.461841
     17          1           0       -2.814074   -0.023981    0.676500
     18          1           0        0.042204    1.336153    2.011809
     19          1           0       -0.115315   -1.064459    1.083123
 ---------------------------------------------------------------------
                    Distance matrix (angstroms):
                    1          2          3          4          5
     1  Mn   0.000000
     2  O    1.821762   0.000000
     3  H    2.325008   0.959835   0.000000
     4  O    1.821889   2.611767   3.484150   0.000000
     5  H    2.324839   3.415322   4.267739   0.959899   0.000000
     6  O    1.821090   2.611285   3.134947   2.536076   2.560263
     7  H    2.324381   3.450400   3.859988   3.136540   2.937743
     8  O    1.818745   3.640503   4.062050   2.540791   2.405292
     9  H    2.322579   4.062387   4.279649   3.421971   3.362259
    10  O    1.818006   2.536025   2.301533   3.639880   4.060711
    11  H    2.321775   3.136788   2.826442   4.064482   4.499984
    12  O    1.819010   2.540161   2.759827   2.614866   3.298603
    13  H    2.322657   2.875634   3.286750   2.383386   3.107223
    14  H    2.322591   3.387332   3.506977   3.212032   3.703756
    15  H    2.325429   2.444290   3.398642   0.959822   1.567289
    16  H    2.325125   0.959918   1.567358   2.833814   3.510364
    17  H    2.321626   3.225876   3.056824   4.060370   4.288255
    18  H    2.324547   2.949275   3.660724   2.281137   2.137375
    19  H    2.322443   4.061883   4.556733   2.758526   2.328591
                    6          7          8          9         10
     6  O    0.000000
     7  H    0.960021   0.000000
     8  O    2.534622   2.347406   0.000000
     9  H    3.061530   2.718847   0.960108   0.000000
    10  O    2.605257   2.748593   2.606473   2.392848   0.000000
    11  H    3.444886   3.505227   2.750347   2.305222   0.959885
    12  O    3.640099   4.061422   2.609231   2.833582   2.538227
    13  H    4.062670   4.557707   3.028445   3.443229   3.430916
    14  H    4.061572   4.278496   2.441955   2.411193   2.673658
    15  H    2.670492   3.447487   3.387136   4.244531   4.060675
    16  H    2.397039   3.318813   4.061790   4.557738   3.061904
    17  H    2.484803   2.318921   2.642472   2.307685   0.960023
    18  H    0.959858   1.567527   2.953276   3.665802   3.489421
    19  H    2.297892   1.869309   0.959980   1.567353   3.129403
                   11         12         13         14         15
    11  H    0.000000
    12  O    2.352526   0.000000
    13  H    3.308498   0.959935   0.000000
    14  H    2.200452   0.959991   1.567533   0.000000
    15  H    4.606825   3.212091   2.949969   3.953725   0.000000
    16  H    3.822919   3.420362   3.691102   4.243941   2.410850
    17  H    1.567497   3.349453   4.210050   3.362383   4.495491
    18  H    4.288824   4.062660   4.281159   4.558009   2.225950
    19  H    3.454344   3.481323   3.833001   3.396353   3.504877
                   16         17         18         19
    16  H    0.000000
    17  H    3.544793   0.000000
    18  H    2.573032   3.433851   0.000000
    19  H    4.278809   2.920828   2.578800   0.000000
 Stoichiometry    H12MnO6(2+,6)
 Framework group  C1[X(H12MnO6)]
 Deg. of freedom    51
 Full point group                 C1      NOp   1
 Largest Abelian subgroup         C1      NOp   1
 Largest concise Abelian subgroup C1      NOp   1
                         Standard orientation:                         
 ---------------------------------------------------------------------
 Center     Atomic      Atomic             Coordinates (Angstroms)
 Number     Number       Type             X           Y           Z
 ---------------------------------------------------------------------
      1         25           0       -0.020445   -0.030121    0.009875
      2          8           0       -0.320808   -1.687588   -0.683958
      3          1           0       -1.137042   -1.679899   -1.188920
      4          8           0        1.254655   -0.678279    1.138277
      5          1           0        1.943361   -0.019749    1.254154
      6          8           0        1.298207    0.294245   -1.203513
      7          1           0        1.382040    1.240910   -1.339297
      8          8           0        0.280486    1.626554    0.697409
      9          1           0       -0.431358    2.215648    0.436540
     10          8           0       -1.285904    0.615907   -1.124325
     11          1           0       -2.034842    0.938661   -0.618064
     12          8           0       -1.338362   -0.351446    1.221751
     13          1           0       -0.971739   -0.815561    1.977832
     14          1           0       -1.717277    0.481861    1.510897
     15          1           0        1.635399   -1.477016    0.766376
     16          1           0        0.408515   -1.930884   -1.258706
     17          1           0       -0.915243    1.335169   -1.640964
     18          1           0        2.129003   -0.056571   -0.874826
     19          1           0        1.114126    1.965325    0.362984
 ---------------------------------------------------------------------
 Rotational constants (GHZ):           2.0396948           1.9739407           1.9252755
 Leave Link  202 at Thu May 23 12:33:44 2024, MaxMem= 26843545600 cpu:               0.4 elap:               0.0
 (Enter /gpfs/fs1/soft/improv/software/custom-built/gaussian/g16/l301.exe)
 Standard basis: 6-31+G(2df,p) (6D, 7F)
 Ernie: Thresh=  0.10000D-02 Tol=  0.10000D-05 Strict=F.
 There are   347 symmetry adapted cartesian basis functions of A   symmetry.
 There are   317 symmetry adapted basis functions of A   symmetry.
   317 basis functions,   514 primitive gaussians,   347 cartesian basis functions
    44 alpha electrons       39 beta electrons
       nuclear repulsion energy       751.0997080055 Hartrees.
 IExCor= 3909 DFT=T Ex+Corr=HSEH1PBE ExCW=0 ScaHFX=  0.250000
 ScaDFX=  1.000000  1.000000  1.000000  1.000000 ScalE2=  1.000000  1.000000
 IRadAn=      5 IRanWt=     -1 IRanGd=            0 ICorTp=0 IEmpDi=  4
 HFx  wShort=  0.110000 wLong=  0.000000 cFull=  0.000000 cShort=  1.000000 cLong=  0.000000
 DFx  wShort=  0.110000 wLong=  0.000000 cFull=  0.000000 cShort= -0.250000 cLong=  1.000000
 NAtoms=   19 NActive=   19 NUniq=   19 SFac= 1.00D+00 NAtFMM=   60 NAOKFM=F Big=F
 Integral buffers will be    131072 words long.
 Raffenetti 2 integral format.
 Two-electron integral symmetry is turned on.
 Leave Link  301 at Thu May 23 12:33:44 2024, MaxMem= 26843545600 cpu:               0.4 elap:               0.0
 (Enter /gpfs/fs1/soft/improv/software/custom-built/gaussian/g16/l302.exe)
 NPDir=0 NMtPBC=     1 NCelOv=     1 NCel=       1 NClECP=     1 NCelD=      1
         NCelK=      1 NCelE2=     1 NClLst=     1 CellRange=     0.0.
 One-electron integrals computed using PRISM.
 One-electron integral symmetry used in STVInt
 NBasis=   317 RedAO= T EigKep=  1.52D-05  NBF=   317
 NBsUse=   317 1.00D-06 EigRej= -1.00D+00 NBFU=   317
 Precomputing XC quadrature grid using
 IXCGrd= 4 IRadAn=           5 IRanWt=          -1 IRanGd=           0 AccXCQ= 0.00D+00.
 Generated NRdTot=       0 NPtTot=           0 NUsed=           0 NTot=          32
 NSgBfM=   347   346   347   347   347 MxSgAt=    19 MxSgA2=    19.
 Leave Link  302 at Thu May 23 12:33:44 2024, MaxMem= 26843545600 cpu:              21.5 elap:               0.3
 (Enter /gpfs/fs1/soft/improv/software/custom-built/gaussian/g16/l303.exe)
 DipDrv:  MaxL=1.
 Leave Link  303 at Thu May 23 12:33:44 2024, MaxMem= 26843545600 cpu:               1.0 elap:               0.0
 (Enter /gpfs/fs1/soft/improv/software/custom-built/gaussian/g16/l401.exe)
 ExpMin= 1.19D-02 ExpMax= 5.63D+04 ExpMxC= 8.46D+03 IAcc=3 IRadAn=         5 AccDes= 0.00D+00
 Harris functional with IExCor= 1009 and IRadAn=       5 diagonalized for initial guess.
 HarFok:  IExCor= 1009 AccDes= 0.00D+00 IRadAn=         5 IDoV= 1 UseB2=F ITyADJ=14
 ICtDFT=  3500011 ScaDFX=  1.000000  1.000000  1.000000  1.000000
 FoFCou: FMM=F IPFlag=           0 FMFlag=      100000 FMFlg1=           0
         NFxFlg=           0 DoJE=T BraDBF=F KetDBF=T FulRan=T
         wScrn=  0.000000 ICntrl=       500 IOpCl=  0 I1Cent=   200000004 NGrid=           0
         NMat0=    1 NMatS0=      1 NMatT0=    0 NMatD0=    1 NMtDS0=    0 NMtDT0=    0
 Petite list used in FoFCou.
 Harris En= -1608.19253346442    
 JPrj=0 DoOrth=F DoCkMO=F.
 Initial guess <Sx>= 0.0000 <Sy>= 0.0000 <Sz>= 2.5000 <S**2>= 8.7500 S= 2.5000
 Leave Link  401 at Thu May 23 12:33:45 2024, MaxMem= 26843545600 cpu:              37.7 elap:               0.4
 (Enter /gpfs/fs1/soft/improv/software/custom-built/gaussian/g16/l502.exe)
 Integral symmetry usage will be decided dynamically.
 UHF open shell SCF:
 Using DIIS extrapolation, IDIIS=  1040.
 NGot= 26843545600 LenX= 26843256607 LenY= 26843135757
 Requested convergence on RMS density matrix=1.00D-08 within  50 cycles.
 Requested convergence on MAX density matrix=1.00D-06.
 Requested convergence on             energy=1.00D-06.
 No special actions if energy rises.
 Fock matrices will be formed incrementally for  20 cycles.

 Cycle   1  Pass 1  IDiag  1:
 FoFJK:  IHMeth= 1 ICntrl=       0 DoSepK=T KAlg= 0 I1Cent=           0 FoldK=F
 IRaf=         1 NMat=       1 IRICut=       1 DoRegI=T DoRafI=F ISym2E= 0 IDoP0=0 IntGTp=1.
 FoFCou: FMM=F IPFlag=           0 FMFlag=      100000 FMFlg1=           0
         NFxFlg=           0 DoJE=T BraDBF=F KetDBF=F FulRan=T
         wScrn=  0.000000 ICntrl=       500 IOpCl=  0 I1Cent=           0 NGrid=           0
         NMat0=    1 NMatS0=      1 NMatT0=    0 NMatD0=    1 NMtDS0=    0 NMtDT0=    0
 Symmetry not used in FoFCou.
 E= -1607.67638592556    
 DIIS: error= 2.95D-02 at cycle   1 NSaved=   1.
 NSaved= 1 IEnMin= 1 EnMin= -1607.67638592556     IErMin= 1 ErrMin= 2.95D-02
 ErrMax= 2.95D-02  0.00D+00 EMaxC= 1.00D-01 BMatC= 3.08D+00 BMatP= 3.08D+00
 IDIUse=3 WtCom= 7.05D-01 WtEn= 2.95D-01
 Coeff-Com:  0.100D+01
 Coeff-En:   0.100D+01
 Coeff:      0.100D+01
 Gap=     0.108 Goal=   None    Shift=    0.000
 Gap=    -0.064 Goal=   None    Shift=    0.000
 GapD=   -0.064 DampG=0.250 DampE=0.250 DampFc=0.1250 IDamp=-1.
 Damping current iteration by 1.25D-01
 RMSDP=1.69D-02 MaxDP=2.96D+00              OVMax= 8.06D-01

 Cycle   2  Pass 1  IDiag  1:
 RMSU=  2.00D-03    CP:  9.73D-01
 E= -1607.74768984600     Delta-E=       -0.071303920446 Rises=F Damp=T
 DIIS: error= 1.98D-02 at cycle   2 NSaved=   2.
 NSaved= 2 IEnMin= 2 EnMin= -1607.74768984600     IErMin= 2 ErrMin= 1.98D-02
 ErrMax= 1.98D-02  0.00D+00 EMaxC= 1.00D-01 BMatC= 1.01D+00 BMatP= 3.08D+00
 IDIUse=3 WtCom= 8.02D-01 WtEn= 1.98D-01
 Coeff-Com: -0.671D+00 0.167D+01
 Coeff-En:   0.204D+00 0.796D+00
 Coeff:     -0.497D+00 0.150D+01
 Gap=     0.014 Goal=   None    Shift=    0.000
 Gap=    -0.115 Goal=   None    Shift=    0.000
 RMSDP=2.20D-02 MaxDP=3.36D+00 DE=-7.13D-02 OVMax= 9.95D-01

 Cycle   3  Pass 1  IDiag  1:
 RMSU=  2.20D-02    CP:  9.88D-01  1.09D+00
 E= -1607.74206310043     Delta-E=        0.005626745570 Rises=F Damp=F
 DIIS: error= 2.66D-02 at cycle   3 NSaved=   3.
 NSaved= 3 IEnMin= 2 EnMin= -1607.74768984600     IErMin= 2 ErrMin= 1.98D-02
 ErrMax= 2.66D-02  0.00D+00 EMaxC= 1.00D-01 BMatC= 2.11D+00 BMatP= 1.01D+00
 IDIUse=2 WtCom= 0.00D+00 WtEn= 1.00D+00
 Coeff-En:   0.000D+00 0.506D+00 0.494D+00
 Coeff:      0.000D+00 0.506D+00 0.494D+00
 Gap=     0.337 Goal=   None    Shift=    0.000
 Gap=     0.348 Goal=   None    Shift=    0.000
 RMSDP=2.56D-02 MaxDP=4.40D+00 DE= 5.63D-03 OVMax= 9.38D-01

 Cycle   4  Pass 1  IDiag  1:
 RMSU=  7.54D-03    CP:  7.42D-01  3.00D+00 -2.11D-02
 E= -1607.36400308191     Delta-E=        0.378060018521 Rises=F Damp=F
 DIIS: error= 5.84D-02 at cycle   4 NSaved=   4.
 NSaved= 4 IEnMin= 2 EnMin= -1607.74768984600     IErMin= 2 ErrMin= 1.98D-02
 ErrMax= 5.84D-02  0.00D+00 EMaxC= 1.00D-01 BMatC= 5.49D+00 BMatP= 1.01D+00
 IDIUse=2 WtCom= 0.00D+00 WtEn= 1.00D+00
 EnCoef did     2 forward-backward iterations
 Coeff-En:   0.172D+00 0.000D+00 0.479D+00 0.349D+00
 Coeff:      0.172D+00 0.000D+00 0.479D+00 0.349D+00
 Gap=     0.065 Goal=   None    Shift=    0.000
 Gap=     0.322 Goal=   None    Shift=    0.000
 RMSDP=5.37D-03 MaxDP=3.48D-01 DE= 3.78D-01 OVMax= 1.70D-01

 Cycle   5  Pass 1  IDiag  1:
 RMSU=  4.97D-03    CP:  6.91D-01  3.00D+00 -9.34D-03  7.92D-01
 E= -1608.10891485590     Delta-E=       -0.744911773985 Rises=F Damp=F
 DIIS: error= 9.48D-03 at cycle   5 NSaved=   5.
 NSaved= 5 IEnMin= 5 EnMin= -1608.10891485590     IErMin= 5 ErrMin= 9.48D-03
 ErrMax= 9.48D-03  0.00D+00 EMaxC= 1.00D-01 BMatC= 3.43D-01 BMatP= 1.01D+00
 IDIUse=3 WtCom= 9.05D-01 WtEn= 9.48D-02
 Coeff-Com: -0.314D+00 0.433D+00 0.264D+00-0.116D+00 0.733D+00
 Coeff-En:   0.000D+00 0.000D+00 0.192D+00 0.000D+00 0.808D+00
 Coeff:     -0.284D+00 0.392D+00 0.257D+00-0.105D+00 0.740D+00
 Gap=     0.033 Goal=   None    Shift=    0.000
 Gap=     0.356 Goal=   None    Shift=    0.000
 RMSDP=1.37D-03 MaxDP=6.52D-02 DE=-7.45D-01 OVMax= 3.99D-02

 Cycle   6  Pass 1  IDiag  1:
 RMSU=  9.43D-04    CP:  6.85D-01  3.00D+00  3.50D-03  7.39D-01  1.17D+00
 E= -1608.16761073554     Delta-E=       -0.058695879648 Rises=F Damp=F
 DIIS: error= 3.37D-03 at cycle   6 NSaved=   6.
 NSaved= 6 IEnMin= 6 EnMin= -1608.16761073554     IErMin= 6 ErrMin= 3.37D-03
 ErrMax= 3.37D-03  0.00D+00 EMaxC= 1.00D-01 BMatC= 2.61D-02 BMatP= 3.43D-01
 IDIUse=3 WtCom= 9.66D-01 WtEn= 3.37D-02
 Coeff-Com: -0.922D-01 0.151D+00 0.879D-01-0.516D-01 0.876D-01 0.818D+00
 Coeff-En:   0.000D+00 0.000D+00 0.000D+00 0.000D+00 0.000D+00 0.100D+01
 Coeff:     -0.891D-01 0.146D+00 0.849D-01-0.498D-01 0.846D-01 0.824D+00
 Gap=     0.049 Goal=   None    Shift=    0.000
 Gap=     0.312 Goal=   None    Shift=    0.000
 RMSDP=4.33D-04 MaxDP=2.10D-02 DE=-5.87D-02 OVMax= 1.60D-02

 Cycle   7  Pass 1  IDiag  1:
 RMSU=  2.63D-04    CP:  6.86D-01  3.00D+00  7.16D-03  7.25D-01  1.21D+00
                    CP:  1.28D+00
 E= -1608.17157837147     Delta-E=       -0.003967635926 Rises=F Damp=F
 DIIS: error= 1.28D-03 at cycle   7 NSaved=   7.
 NSaved= 7 IEnMin= 7 EnMin= -1608.17157837147     IErMin= 7 ErrMin= 1.28D-03
 ErrMax= 1.28D-03  0.00D+00 EMaxC= 1.00D-01 BMatC= 6.36D-03 BMatP= 2.61D-02
 IDIUse=3 WtCom= 9.87D-01 WtEn= 1.28D-02
 Coeff-Com:  0.544D-01-0.496D-01-0.186D-01 0.599D-02-0.224D+00 0.493D+00
 Coeff-Com:  0.739D+00
 Coeff-En:   0.000D+00 0.000D+00 0.000D+00 0.000D+00 0.000D+00 0.000D+00
 Coeff-En:   0.100D+01
 Coeff:      0.537D-01-0.490D-01-0.183D-01 0.591D-02-0.221D+00 0.487D+00
 Coeff:      0.742D+00
 Gap=     0.064 Goal=   None    Shift=    0.000
 Gap=     0.309 Goal=   None    Shift=    0.000
 RMSDP=2.74D-04 MaxDP=1.56D-02 DE=-3.97D-03 OVMax= 8.79D-03

 Cycle   8  Pass 1  IDiag  1:
 RMSU=  1.57D-04    CP:  6.85D-01  3.00D+00  9.46D-03  7.16D-01  1.23D+00
                    CP:  1.46D+00  1.15D+00
 E= -1608.17270040905     Delta-E=       -0.001122037585 Rises=F Damp=F
 DIIS: error= 3.14D-04 at cycle   8 NSaved=   8.
 NSaved= 8 IEnMin= 8 EnMin= -1608.17270040905     IErMin= 8 ErrMin= 3.14D-04
 ErrMax= 3.14D-04  0.00D+00 EMaxC= 1.00D-01 BMatC= 2.20D-04 BMatP= 6.36D-03
 IDIUse=3 WtCom= 9.97D-01 WtEn= 3.14D-03
 Coeff-Com:  0.127D-01-0.105D-01-0.255D-02 0.243D-03-0.360D-01 0.323D-01
 Coeff-Com:  0.171D+00 0.833D+00
 Coeff-En:   0.000D+00 0.000D+00 0.000D+00 0.000D+00 0.000D+00 0.000D+00
 Coeff-En:   0.000D+00 0.100D+01
 Coeff:      0.126D-01-0.105D-01-0.254D-02 0.242D-03-0.359D-01 0.322D-01
 Coeff:      0.171D+00 0.833D+00
 Gap=     0.062 Goal=   None    Shift=    0.000
 Gap=     0.310 Goal=   None    Shift=    0.000
 RMSDP=7.82D-05 MaxDP=5.38D-03 DE=-1.12D-03 OVMax= 2.22D-03

 Cycle   9  Pass 1  IDiag  1:
 RMSU=  4.88D-05    CP:  6.84D-01  3.00D+00  9.57D-03  7.14D-01  1.24D+00
                    CP:  1.44D+00  1.18D+00  9.88D-01
 E= -1608.17272705796     Delta-E=       -0.000026648901 Rises=F Damp=F
 DIIS: error= 1.08D-04 at cycle   9 NSaved=   9.
 NSaved= 9 IEnMin= 9 EnMin= -1608.17272705796     IErMin= 9 ErrMin= 1.08D-04
 ErrMax= 1.08D-04  0.00D+00 EMaxC= 1.00D-01 BMatC= 3.58D-05 BMatP= 2.20D-04
 IDIUse=3 WtCom= 9.99D-01 WtEn= 1.08D-03
 Coeff-Com:  0.305D-02-0.274D-02 0.165D-03-0.229D-03-0.451D-02-0.138D-01
 Coeff-Com:  0.154D-01 0.200D+00 0.803D+00
 Coeff-En:   0.000D+00 0.000D+00 0.000D+00 0.000D+00 0.000D+00 0.000D+00
 Coeff-En:   0.000D+00 0.000D+00 0.100D+01
 Coeff:      0.305D-02-0.274D-02 0.165D-03-0.229D-03-0.450D-02-0.138D-01
 Coeff:      0.154D-01 0.200D+00 0.803D+00
 Gap=     0.061 Goal=   None    Shift=    0.000
 Gap=     0.309 Goal=   None    Shift=    0.000
 RMSDP=2.20D-05 MaxDP=1.42D-03 DE=-2.66D-05 OVMax= 1.06D-03

 Cycle  10  Pass 1  IDiag  1:
 RMSU=  1.37D-05    CP:  6.84D-01  3.00D+00  9.80D-03  7.14D-01  1.24D+00
                    CP:  1.45D+00  1.20D+00  9.87D-01  9.87D-01
 E= -1608.17273380750     Delta-E=       -0.000006749540 Rises=F Damp=F
 DIIS: error= 3.16D-05 at cycle  10 NSaved=  10.
 NSaved=10 IEnMin=10 EnMin= -1608.17273380750     IErMin=10 ErrMin= 3.16D-05
 ErrMax= 3.16D-05  0.00D+00 EMaxC= 1.00D-01 BMatC= 2.02D-06 BMatP= 3.58D-05
 IDIUse=1 WtCom= 1.00D+00 WtEn= 0.00D+00
 Coeff-Com:  0.502D-03-0.464D-03 0.702D-04 0.487D-04-0.132D-02-0.255D-02
 Coeff-Com: -0.177D-02-0.193D-01 0.122D+00 0.903D+00
 Coeff:      0.502D-03-0.464D-03 0.702D-04 0.487D-04-0.132D-02-0.255D-02
 Coeff:     -0.177D-02-0.193D-01 0.122D+00 0.903D+00
 Gap=     0.061 Goal=   None    Shift=    0.000
 Gap=     0.309 Goal=   None    Shift=    0.000
 RMSDP=7.13D-06 MaxDP=4.35D-04 DE=-6.75D-06 OVMax= 5.07D-04

 Cycle  11  Pass 1  IDiag  1:
 RMSU=  3.28D-06    CP:  6.84D-01  3.00D+00  9.87D-03  7.14D-01  1.24D+00
                    CP:  1.46D+00  1.21D+00  9.90D-01  1.04D+00  1.26D+00
 E= -1608.17273415513     Delta-E=       -0.000000347633 Rises=F Damp=F
 DIIS: error= 1.04D-05 at cycle  11 NSaved=  11.
 NSaved=11 IEnMin=11 EnMin= -1608.17273415513     IErMin=11 ErrMin= 1.04D-05
 ErrMax= 1.04D-05  0.00D+00 EMaxC= 1.00D-01 BMatC= 2.39D-07 BMatP= 2.02D-06
 IDIUse=1 WtCom= 1.00D+00 WtEn= 0.00D+00
 Coeff-Com:  0.912D-04-0.644D-04-0.363D-04 0.688D-04-0.669D-03 0.337D-03
 Coeff-Com: -0.994D-03-0.226D-01-0.111D-01 0.419D+00 0.616D+00
 Coeff:      0.912D-04-0.644D-04-0.363D-04 0.688D-04-0.669D-03 0.337D-03
 Coeff:     -0.994D-03-0.226D-01-0.111D-01 0.419D+00 0.616D+00
 Gap=     0.061 Goal=   None    Shift=    0.000
 Gap=     0.309 Goal=   None    Shift=    0.000
 RMSDP=2.58D-06 MaxDP=1.64D-04 DE=-3.48D-07 OVMax= 2.11D-04

 Cycle  12  Pass 1  IDiag  1:
 RMSU=  1.41D-06    CP:  6.84D-01  3.00D+00  9.89D-03  7.14D-01  1.24D+00
                    CP:  1.46D+00  1.21D+00  9.91D-01  1.05D+00  1.39D+00
                    CP:  1.07D+00
 E= -1608.17273419555     Delta-E=       -0.000000040420 Rises=F Damp=F
 DIIS: error= 4.08D-06 at cycle  12 NSaved=  12.
 NSaved=12 IEnMin=12 EnMin= -1608.17273419555     IErMin=12 ErrMin= 4.08D-06
 ErrMax= 4.08D-06  0.00D+00 EMaxC= 1.00D-01 BMatC= 3.89D-08 BMatP= 2.39D-07
 IDIUse=1 WtCom= 1.00D+00 WtEn= 0.00D+00
 Coeff-Com: -0.293D-04 0.412D-04-0.295D-05 0.181D-04-0.587D-05 0.340D-03
 Coeff-Com: -0.188D-03-0.520D-02-0.167D-01 0.697D-01 0.292D+00 0.660D+00
 Coeff:     -0.293D-04 0.412D-04-0.295D-05 0.181D-04-0.587D-05 0.340D-03
 Coeff:     -0.188D-03-0.520D-02-0.167D-01 0.697D-01 0.292D+00 0.660D+00
 Gap=     0.061 Goal=   None    Shift=    0.000
 Gap=     0.309 Goal=   None    Shift=    0.000
 RMSDP=1.20D-06 MaxDP=8.76D-05 DE=-4.04D-08 OVMax= 9.77D-05

 Cycle  13  Pass 1  IDiag  1:
 RMSU=  5.06D-07    CP:  6.84D-01  3.00D+00  9.90D-03  7.14D-01  1.24D+00
                    CP:  1.46D+00  1.21D+00  9.93D-01  1.06D+00  1.45D+00
                    CP:  1.18D+00  1.21D+00
 E= -1608.17273420382     Delta-E=       -0.000000008268 Rises=F Damp=F
 DIIS: error= 7.01D-07 at cycle  13 NSaved=  13.
 NSaved=13 IEnMin=13 EnMin= -1608.17273420382     IErMin=13 ErrMin= 7.01D-07
 ErrMax= 7.01D-07  0.00D+00 EMaxC= 1.00D-01 BMatC= 2.32D-09 BMatP= 3.89D-08
 IDIUse=1 WtCom= 1.00D+00 WtEn= 0.00D+00
 Coeff-Com: -0.253D-04 0.231D-04 0.910D-05-0.281D-05 0.121D-03-0.782D-04
 Coeff-Com:  0.302D-04 0.170D-02-0.154D-02-0.253D-01 0.292D-02 0.155D+00
 Coeff-Com:  0.867D+00
 Coeff:     -0.253D-04 0.231D-04 0.910D-05-0.281D-05 0.121D-03-0.782D-04
 Coeff:      0.302D-04 0.170D-02-0.154D-02-0.253D-01 0.292D-02 0.155D+00
 Coeff:      0.867D+00
 Gap=     0.061 Goal=   None    Shift=    0.000
 Gap=     0.309 Goal=   None    Shift=    0.000
 RMSDP=7.73D-07 MaxDP=6.03D-05 DE=-8.27D-09 OVMax= 7.06D-05

 Cycle  14  Pass 1  IDiag  1:
 RMSU=  1.83D-07    CP:  6.84D-01  3.00D+00  9.90D-03  7.14D-01  1.24D+00
                    CP:  1.46D+00  1.21D+00  9.94D-01  1.06D+00  1.48D+00
                    CP:  1.27D+00  1.45D+00  1.34D+00
 E= -1608.17273420485     Delta-E=       -0.000000001029 Rises=F Damp=F
 DIIS: error= 2.49D-07 at cycle  14 NSaved=  14.
 NSaved=14 IEnMin=14 EnMin= -1608.17273420485     IErMin=14 ErrMin= 2.49D-07
 ErrMax= 2.49D-07  0.00D+00 EMaxC= 1.00D-01 BMatC= 1.91D-10 BMatP= 2.32D-09
 IDIUse=1 WtCom= 1.00D+00 WtEn= 0.00D+00
 Coeff-Com: -0.514D-05 0.528D-05 0.160D-05-0.217D-05 0.726D-05-0.855D-04
 Coeff-Com:  0.835D-05 0.534D-03 0.203D-02-0.806D-02-0.378D-01-0.829D-01
 Coeff-Com:  0.479D-01 0.108D+01
 Coeff:     -0.514D-05 0.528D-05 0.160D-05-0.217D-05 0.726D-05-0.855D-04
 Coeff:      0.835D-05 0.534D-03 0.203D-02-0.806D-02-0.378D-01-0.829D-01
 Coeff:      0.479D-01 0.108D+01
 Gap=     0.061 Goal=   None    Shift=    0.000
 Gap=     0.309 Goal=   None    Shift=    0.000
 RMSDP=4.69D-07 MaxDP=3.61D-05 DE=-1.03D-09 OVMax= 4.22D-05

 Cycle  15  Pass 1  IDiag  1:
 RMSU=  5.87D-08    CP:  6.84D-01  3.00D+00  9.91D-03  7.14D-01  1.24D+00
                    CP:  1.46D+00  1.21D+00  9.94D-01  1.07D+00  1.50D+00
                    CP:  1.31D+00  1.59D+00  1.62D+00  1.31D+00
 E= -1608.17273420500     Delta-E=       -0.000000000152 Rises=F Damp=F
 DIIS: error= 1.35D-07 at cycle  15 NSaved=  15.
 NSaved=15 IEnMin=15 EnMin= -1608.17273420500     IErMin=15 ErrMin= 1.35D-07
 ErrMax= 1.35D-07  0.00D+00 EMaxC= 1.00D-01 BMatC= 5.21D-11 BMatP= 1.91D-10
 IDIUse=1 WtCom= 1.00D+00 WtEn= 0.00D+00
 Coeff-Com: -0.133D-05 0.131D-05 0.441D-06-0.109D-05-0.237D-05-0.345D-04
 Coeff-Com: -0.813D-05 0.935D-04 0.102D-02-0.238D-02-0.170D-01-0.477D-01
 Coeff-Com: -0.445D-01 0.464D+00 0.646D+00
 Coeff:     -0.133D-05 0.131D-05 0.441D-06-0.109D-05-0.237D-05-0.345D-04
 Coeff:     -0.813D-05 0.935D-04 0.102D-02-0.238D-02-0.170D-01-0.477D-01
 Coeff:     -0.445D-01 0.464D+00 0.646D+00
 Gap=     0.061 Goal=   None    Shift=    0.000
 Gap=     0.309 Goal=   None    Shift=    0.000
 RMSDP=8.65D-08 MaxDP=6.61D-06 DE=-1.52D-10 OVMax= 7.75D-06

 Cycle  16  Pass 1  IDiag  1:
 RMSU=  1.79D-08    CP:  6.84D-01  3.00D+00  9.91D-03  7.14D-01  1.24D+00
                    CP:  1.46D+00  1.21D+00  9.95D-01  1.07D+00  1.51D+00
                    CP:  1.32D+00  1.61D+00  1.67D+00  1.40D+00  9.76D-01
 E= -1608.17273420503     Delta-E=       -0.000000000032 Rises=F Damp=F
 DIIS: error= 7.19D-08 at cycle  16 NSaved=  16.
 NSaved=16 IEnMin=16 EnMin= -1608.17273420503     IErMin=16 ErrMin= 7.19D-08
 ErrMax= 7.19D-08  0.00D+00 EMaxC= 1.00D-01 BMatC= 1.25D-11 BMatP= 5.21D-11
 IDIUse=1 WtCom= 1.00D+00 WtEn= 0.00D+00
 Coeff-Com: -0.429D-07-0.867D-07 0.735D-07-0.308D-06-0.106D-05-0.810D-06
 Coeff-Com: -0.103D-04-0.663D-04 0.128D-03 0.327D-04-0.120D-02-0.759D-02
 Coeff-Com: -0.311D-01 0.165D-01 0.349D+00 0.675D+00
 Coeff:     -0.429D-07-0.867D-07 0.735D-07-0.308D-06-0.106D-05-0.810D-06
 Coeff:     -0.103D-04-0.663D-04 0.128D-03 0.327D-04-0.120D-02-0.759D-02
 Coeff:     -0.311D-01 0.165D-01 0.349D+00 0.675D+00
 Gap=     0.061 Goal=   None    Shift=    0.000
 Gap=     0.309 Goal=   None    Shift=    0.000
 RMSDP=3.52D-08 MaxDP=2.68D-06 DE=-3.18D-11 OVMax= 3.11D-06

 Cycle  17  Pass 1  IDiag  1:
 RMSU=  5.19D-09    CP:  6.84D-01  3.00D+00  9.91D-03  7.14D-01  1.24D+00
                    CP:  1.46D+00  1.21D+00  9.95D-01  1.07D+00  1.51D+00
                    CP:  1.32D+00  1.62D+00  1.69D+00  1.44D+00  1.05D+00
                    CP:  7.45D-01
 E= -1608.17273420499     Delta-E=        0.000000000035 Rises=F Damp=F
 DIIS: error= 7.35D-09 at cycle  17 NSaved=  17.
 NSaved=17 IEnMin=16 EnMin= -1608.17273420503     IErMin=17 ErrMin= 7.35D-09
 ErrMax= 7.35D-09  0.00D+00 EMaxC= 1.00D-01 BMatC= 2.83D-13 BMatP= 1.25D-11
 IDIUse=1 WtCom= 1.00D+00 WtEn= 0.00D+00
 Coeff-Com:  0.924D-07-0.578D-07-0.125D-06 0.256D-07-0.487D-06 0.388D-05
 Coeff-Com: -0.129D-05-0.311D-04-0.618D-04 0.249D-03 0.138D-02 0.272D-02
 Coeff-Com: -0.239D-02-0.392D-01 0.191D-01 0.152D+00 0.867D+00
 Coeff:      0.924D-07-0.578D-07-0.125D-06 0.256D-07-0.487D-06 0.388D-05
 Coeff:     -0.129D-05-0.311D-04-0.618D-04 0.249D-03 0.138D-02 0.272D-02
 Coeff:     -0.239D-02-0.392D-01 0.191D-01 0.152D+00 0.867D+00
 Gap=     0.061 Goal=   None    Shift=    0.000
 Gap=     0.309 Goal=   None    Shift=    0.000
 RMSDP=6.11D-09 MaxDP=4.79D-07 DE= 3.55D-11 OVMax= 5.06D-07

 SCF Done:  E(UHSEH1PBE) =  -1608.17273420     A.U. after   17 cycles
            NFock= 17  Conv=0.61D-08     -V/T= 2.0005
 <Sx>= 0.0000 <Sy>= 0.0000 <Sz>= 2.5000 <S**2>= 8.7531 S= 2.5005
 <L.S>=  0.00000000000    
 KE= 1.607371946581D+03 PE=-5.292075599457D+03 EE= 1.325431210666D+03
 Annihilation of the first spin contaminant:
 S**2 before annihilation     8.7531,   after     8.7500
 Leave Link  502 at Thu May 23 12:35:13 2024, MaxMem= 26843545600 cpu:           10549.8 elap:              88.2
 (Enter /gpfs/fs1/soft/improv/software/custom-built/gaussian/g16/l508.exe)
 QCSCF skips out because SCF is already converged.
 Leave Link  508 at Thu May 23 12:35:13 2024, MaxMem= 26843545600 cpu:               0.2 elap:               0.0
 (Enter /gpfs/fs1/soft/improv/software/custom-built/gaussian/g16/l801.exe)
 DoSCS=F DFT=T ScalE2(SS,OS)=  1.000000  1.000000
 Range of M.O.s used for correlation:     1   317
 NBasis=   317 NAE=    44 NBE=    39 NFC=     0 NFV=     0
 NROrb=    317 NOA=    44 NOB=    39 NVA=   273 NVB=   278

 **** Warning!!: The largest alpha MO coefficient is  0.78008637D+02


 **** Warning!!: The smallest alpha delta epsilon is  0.61100059D-01


 **** Warning!!: The largest beta MO coefficient is  0.79396929D+02

 Leave Link  801 at Thu May 23 12:35:13 2024, MaxMem= 26843545600 cpu:               0.4 elap:               0.0
 (Enter /gpfs/fs1/soft/improv/software/custom-built/gaussian/g16/l1101.exe)
 Using compressed storage, NAtomX=    19.
 Will process     20 centers per pass.
 Leave Link 1101 at Thu May 23 12:35:14 2024, MaxMem= 26843545600 cpu:              51.4 elap:               0.5
 (Enter /gpfs/fs1/soft/improv/software/custom-built/gaussian/g16/l1102.exe)
 Symmetrizing basis deriv contribution to polar:
 IMax=3 JMax=2 DiffMx= 0.00D+00
 Leave Link 1102 at Thu May 23 12:35:14 2024, MaxMem= 26843545600 cpu:               0.9 elap:               0.0
 (Enter /gpfs/fs1/soft/improv/software/custom-built/gaussian/g16/l1110.exe)
 Forming Gx(P) for the SCF density, NAtomX=    19.
 Integral derivatives from FoFJK, PRISM(SPDF).
 Do as many integral derivatives as possible in FoFJK.
 G2DrvN: MDV=   26843543431.
 G2DrvN: will do    20 centers at a time, making    1 passes.
 Calling FoFCou, ICntrl=  3107 FMM=F I1Cent=   0 AccDes= 0.00D+00.
 FoFJK:  IHMeth= 1 ICntrl=    3107 DoSepK=T KAlg= 0 I1Cent=           0 FoldK=F
 IRaf=         1 NMat=       1 IRICut=       1 DoRegI=T DoRafI=F ISym2E= 0 IDoP0=0 IntGTp=1.
 FoFCou: FMM=F IPFlag=           0 FMFlag=      100000 FMFlg1=           0
         NFxFlg=           0 DoJE=F BraDBF=F KetDBF=F FulRan=T
         wScrn=  0.000000 ICntrl=      3507 IOpCl=  0 I1Cent=           0 NGrid=           0
         NMat0=    1 NMatS0=      1 NMatT0=    0 NMatD0=    1 NMtDS0=    0 NMtDT0=    0
 Symmetry not used in FoFCou.
 End of G2Drv F.D. properties file   721 does not exist.
 End of G2Drv F.D. properties file   722 does not exist.
 End of G2Drv F.D. properties file   788 does not exist.
 Leave Link 1110 at Thu May 23 12:35:33 2024, MaxMem= 26843545600 cpu:            2431.4 elap:              19.4
 (Enter /gpfs/fs1/soft/improv/software/custom-built/gaussian/g16/l1002.exe)
 Minotr:  UHF open shell wavefunction.
          IDoAtm=1111111111111111111
          Direct CPHF calculation.
          Differentiating once with respect to electric field.
                with respect to dipole field.
          Differentiating once with respect to nuclear coordinates.
          Requested convergence is 1.0D-08 RMS, and 1.0D-07 maximum.
          Secondary convergence is 1.0D-12 RMS, and 1.0D-12 maximum.
          NewPWx=T KeepS1=F KeepF1=F KeepIn=T MapXYZ=F SortEE=F KeepMc=T.
         6034 words used for storage of precomputed grid.
 Two-electron integrals replicated using symmetry.
          MDV=   26843545600 using IRadAn=       1.
          Solving linear equations simultaneously, MaxMat=     384.
 FoF2E skips out because all densities are zero.
 CalDSu exits because no D1Ps are significant.
 FoFJK:  IHMeth= 1 ICntrl=       0 DoSepK=T KAlg= 0 I1Cent=           0 FoldK=F
 IRaf=         1 NMat=      57 IRICut=       1 DoRegI=T DoRafI=F ISym2E= 2 IDoP0=3 IntGTp=2.
 FoFCou: FMM=F IPFlag=           0 FMFlag=      100000 FMFlg1=           0
         NFxFlg=           0 DoJE=F BraDBF=F KetDBF=F FulRan=T
         wScrn=  0.000000 ICntrl=       500 IOpCl=  0 I1Cent=           0 NGrid=           0
         NMat0=   57 NMatS0=     57 NMatT0=    0 NMatD0=   57 NMtDS0=    0 NMtDT0=    0
 Integrals replicated using symmetry in FoFCou.
          There are    60 degrees of freedom in the 1st order CPHF.  IDoFFX=6 NUNeed=     3.
     57 vectors produced by pass  0 Test12= 3.81D-14 1.67D-09 XBig12= 7.30D+01 2.20D+00.
 AX will form    57 AO Fock derivatives at one time.
     57 vectors produced by pass  1 Test12= 3.81D-14 1.67D-09 XBig12= 5.27D+00 5.01D-01.
     57 vectors produced by pass  2 Test12= 3.81D-14 1.67D-09 XBig12= 5.69D-02 2.98D-02.
     57 vectors produced by pass  3 Test12= 3.81D-14 1.67D-09 XBig12= 6.60D-04 2.46D-03.
     57 vectors produced by pass  4 Test12= 3.81D-14 1.67D-09 XBig12= 6.30D-06 2.31D-04.
     57 vectors produced by pass  5 Test12= 3.81D-14 1.67D-09 XBig12= 4.31D-08 2.88D-05.
     40 vectors produced by pass  6 Test12= 3.81D-14 1.67D-09 XBig12= 1.83D-10 1.56D-06.
      9 vectors produced by pass  7 Test12= 3.81D-14 1.67D-09 XBig12= 4.61D-13 5.51D-08.
      3 vectors produced by pass  8 Test12= 3.81D-14 1.67D-09 XBig12= 1.17D-15 2.70D-09.
 InvSVY:  IOpt=1 It=  1 EMax= 3.55D-15
 Solved reduced A of dimension   394 with    60 vectors.
 FullF1:  Do perturbations      1 to       3.
 Isotropic polarizability for W=    0.000000       54.67 Bohr**3.
 End of Minotr F.D. properties file   721 does not exist.
 End of Minotr F.D. properties file   722 does not exist.
 End of Minotr F.D. properties file   788 does not exist.
 Leave Link 1002 at Thu May 23 12:36:47 2024, MaxMem= 26843545600 cpu:            8832.9 elap:              73.8
 (Enter /gpfs/fs1/soft/improv/software/custom-built/gaussian/g16/l601.exe)
 Copying SCF densities to generalized density rwf, IOpCl= 1 IROHF=0.

 **********************************************************************

            Population analysis using the SCF Density.

 **********************************************************************

 Orbital symmetries:
 Alpha Orbitals:
       Occupied  (A) (A) (A) (A) (A) (A) (A) (A) (A) (A) (A) (A)
                 (A) (A) (A) (A) (A) (A) (A) (A) (A) (A) (A) (A)
                 (A) (A) (A) (A) (A) (A) (A) (A) (A) (A) (A) (A)
                 (A) (A) (A) (A) (A) (A) (A) (A)
       Virtual   (A) (A) (A) (A) (A) (A) (A) (A) (A) (A) (A) (A)
                 (A) (A) (A) (A) (A) (A) (A) (A) (A) (A) (A) (A)
                 (A) (A) (A) (A) (A) (A) (A) (A) (A) (A) (A) (A)
                 (A) (A) (A) (A) (A) (A) (A) (A) (A) (A) (A) (A)
                 (A) (A) (A) (A) (A) (A) (A) (A) (A) (A) (A) (A)
                 (A) (A) (A) (A) (A) (A) (A) (A) (A) (A) (A) (A)
                 (A) (A) (A) (A) (A) (A) (A) (A) (A) (A) (A) (A)
                 (A) (A) (A) (A) (A) (A) (A) (A) (A) (A) (A) (A)
                 (A) (A) (A) (A) (A) (A) (A) (A) (A) (A) (A) (A)
                 (A) (A) (A) (A) (A) (A) (A) (A) (A) (A) (A) (A)
                 (A) (A) (A) (A) (A) (A) (A) (A) (A) (A) (A) (A)
                 (A) (A) (A) (A) (A) (A) (A) (A) (A) (A) (A) (A)
                 (A) (A) (A) (A) (A) (A) (A) (A) (A) (A) (A) (A)
                 (A) (A) (A) (A) (A) (A) (A) (A) (A) (A) (A) (A)
                 (A) (A) (A) (A) (A) (A) (A) (A) (A) (A) (A) (A)
                 (A) (A) (A) (A) (A) (A) (A) (A) (A) (A) (A) (A)
                 (A) (A) (A) (A) (A) (A) (A) (A) (A) (A) (A) (A)
                 (A) (A) (A) (A) (A) (A) (A) (A) (A) (A) (A) (A)
                 (A) (A) (A) (A) (A) (A) (A) (A) (A) (A) (A) (A)
                 (A) (A) (A) (A) (A) (A) (A) (A) (A) (A) (A) (A)
                 (A) (A) (A) (A) (A) (A) (A) (A) (A) (A) (A) (A)
                 (A) (A) (A) (A) (A) (A) (A) (A) (A) (A) (A) (A)
                 (A) (A) (A) (A) (A) (A) (A) (A) (A)
 Beta  Orbitals:
       Occupied  (A) (A) (A) (A) (A) (A) (A) (A) (A) (A) (A) (A)
                 (A) (A) (A) (A) (A) (A) (A) (A) (A) (A) (A) (A)
                 (A) (A) (A) (A) (A) (A) (A) (A) (A) (A) (A) (A)
                 (A) (A) (A)
       Virtual   (A) (A) (A) (A) (A) (A) (A) (A) (A) (A) (A) (A)
                 (A) (A) (A) (A) (A) (A) (A) (A) (A) (A) (A) (A)
                 (A) (A) (A) (A) (A) (A) (A) (A) (A) (A) (A) (A)
                 (A) (A) (A) (A) (A) (A) (A) (A) (A) (A) (A) (A)
                 (A) (A) (A) (A) (A) (A) (A) (A) (A) (A) (A) (A)
                 (A) (A) (A) (A) (A) (A) (A) (A) (A) (A) (A) (A)
                 (A) (A) (A) (A) (A) (A) (A) (A) (A) (A) (A) (A)
                 (A) (A) (A) (A) (A) (A) (A) (A) (A) (A) (A) (A)
                 (A) (A) (A) (A) (A) (A) (A) (A) (A) (A) (A) (A)
                 (A) (A) (A) (A) (A) (A) (A) (A) (A) (A) (A) (A)
                 (A) (A) (A) (A) (A) (A) (A) (A) (A) (A) (A) (A)
                 (A) (A) (A) (A) (A) (A) (A) (A) (A) (A) (A) (A)
                 (A) (A) (A) (A) (A) (A) (A) (A) (A) (A) (A) (A)
                 (A) (A) (A) (A) (A) (A) (A) (A) (A) (A) (A) (A)
                 (A) (A) (A) (A) (A) (A) (A) (A) (A) (A) (A) (A)
                 (A) (A) (A) (A) (A) (A) (A) (A) (A) (A) (A) (A)
                 (A) (A) (A) (A) (A) (A) (A) (A) (A) (A) (A) (A)
                 (A) (A) (A) (A) (A) (A) (A) (A) (A) (A) (A) (A)
                 (A) (A) (A) (A) (A) (A) (A) (A) (A) (A) (A) (A)
                 (A) (A) (A) (A) (A) (A) (A) (A) (A) (A) (A) (A)
                 (A) (A) (A) (A) (A) (A) (A) (A) (A) (A) (A) (A)
                 (A) (A) (A) (A) (A) (A) (A) (A) (A) (A) (A) (A)
                 (A) (A) (A) (A) (A) (A) (A) (A) (A) (A) (A) (A)
                 (A) (A)
 The electronic state is 6-A.
 Alpha  occ. eigenvalues -- -235.94596 -27.66752 -23.69925 -23.69887 -23.69848
 Alpha  occ. eigenvalues --  -19.61495 -19.61474 -19.60447 -19.60110 -19.57788
 Alpha  occ. eigenvalues --  -19.57014  -3.56482  -2.42445  -2.42283  -2.42157
 Alpha  occ. eigenvalues --   -1.46992  -1.44630  -1.44009  -1.43455  -1.41393
 Alpha  occ. eigenvalues --   -1.40552  -0.98521  -0.96951  -0.95206  -0.94421
 Alpha  occ. eigenvalues --   -0.92469  -0.91144  -0.87088  -0.85925  -0.85236
 Alpha  occ. eigenvalues --   -0.82075  -0.81441  -0.79048  -0.78707  -0.75514
 Alpha  occ. eigenvalues --   -0.74373  -0.72773  -0.71060  -0.69761  -0.57715
 Alpha  occ. eigenvalues --   -0.57000  -0.55786  -0.44385  -0.44183
 Alpha virt. eigenvalues --   -0.38073  -0.32825  -0.30552  -0.29248  -0.25463
 Alpha virt. eigenvalues --   -0.24346  -0.23421  -0.23162  -0.20302  -0.18878
 Alpha virt. eigenvalues --   -0.18381  -0.18066  -0.17063  -0.15743  -0.15102
 Alpha virt. eigenvalues --   -0.14991  -0.13520  -0.12698  -0.12446  -0.11890
 Alpha virt. eigenvalues --   -0.10021  -0.09754  -0.07827  -0.07581  -0.07194
 Alpha virt. eigenvalues --   -0.06449  -0.04791  -0.03278  -0.02727  -0.02420
 Alpha virt. eigenvalues --   -0.01570  -0.00934  -0.00029   0.00593   0.02146
 Alpha virt. eigenvalues --    0.04106   0.04716   0.05606   0.06296   0.07084
 Alpha virt. eigenvalues --    0.08226   0.08814   0.09355   0.10540   0.10716
 Alpha virt. eigenvalues --    0.14142   0.14712   0.18720   0.19916   0.25192
 Alpha virt. eigenvalues --    0.26162   0.26694   0.27487   0.41114   0.42267
 Alpha virt. eigenvalues --    0.43689   0.45626   0.48152   0.49365   0.50990
 Alpha virt. eigenvalues --    0.51965   0.53148   0.53576   0.53855   0.54411
 Alpha virt. eigenvalues --    0.56975   0.58871   0.59596   0.60363   0.61076
 Alpha virt. eigenvalues --    0.63433   0.64219   0.65157   0.66776   0.70866
 Alpha virt. eigenvalues --    0.71507   0.72310   0.73030   0.74260   0.74626
 Alpha virt. eigenvalues --    0.74771   0.77292   0.79927   0.80400   0.81547
 Alpha virt. eigenvalues --    0.82561   0.86354   0.86619   0.90272   0.90937
 Alpha virt. eigenvalues --    0.93282   0.94987   0.98599   0.99768   1.01373
 Alpha virt. eigenvalues --    1.02048   1.05790   1.06547   1.07748   1.09864
 Alpha virt. eigenvalues --    1.10876   1.11878   1.13205   1.28092   1.28977
 Alpha virt. eigenvalues --    1.33523   1.35455   1.38350   1.39981   1.44334
 Alpha virt. eigenvalues --    1.44538   1.45858   1.46745   1.49203   1.50796
 Alpha virt. eigenvalues --    1.55165   1.56546   1.58697   1.62211   1.63862
 Alpha virt. eigenvalues --    1.68072   1.74266   1.79058   1.88539   1.90511
 Alpha virt. eigenvalues --    1.92310   1.94645   1.95840   1.98044   2.01901
 Alpha virt. eigenvalues --    2.03941   2.04835   2.07516   2.08893   2.14947
 Alpha virt. eigenvalues --    2.20692   2.21777   2.27416   2.30875   2.32841
 Alpha virt. eigenvalues --    2.33764   2.39787   2.40988   2.44885   2.48223
 Alpha virt. eigenvalues --    2.50194   2.51816   2.57310   2.58333   2.59368
 Alpha virt. eigenvalues --    2.60954   2.61939   2.63758   2.64076   2.66724
 Alpha virt. eigenvalues --    2.67335   2.69203   2.71102   2.72330   2.75063
 Alpha virt. eigenvalues --    2.77362   2.78335   2.79163   2.80928   2.82626
 Alpha virt. eigenvalues --    2.88582   2.95775   2.97249   3.09525   3.11448
 Alpha virt. eigenvalues --    3.17655   3.53280   3.55328   3.67777   3.69351
 Alpha virt. eigenvalues --    3.70570   3.73426   3.73922   3.76031   3.77791
 Alpha virt. eigenvalues --    3.79250   3.81765   3.83232   3.84086   3.87031
 Alpha virt. eigenvalues --    3.89573   3.90744   3.92226   3.93579   3.94378
 Alpha virt. eigenvalues --    3.97024   3.98441   4.00179   4.03404   4.05524
 Alpha virt. eigenvalues --    4.12667   4.14860   4.15853   4.17535   4.22176
 Alpha virt. eigenvalues --    4.23528   4.28465   4.31911   4.35541   4.36375
 Alpha virt. eigenvalues --    4.42464   4.44273   4.45020   4.47927   4.48569
 Alpha virt. eigenvalues --    4.56607   4.59611   4.60610   4.62701   4.63882
 Alpha virt. eigenvalues --    4.65457   4.66987   4.73698   4.82329   4.88117
 Alpha virt. eigenvalues --    4.90294   4.91519   4.94105   4.97099   5.07299
 Alpha virt. eigenvalues --    5.07800   5.08546   5.10266   5.10749   5.12305
 Alpha virt. eigenvalues --    5.13495   5.15934   5.16699   5.20576   5.26711
 Alpha virt. eigenvalues --    5.27119   5.28575   5.31781   5.34612   5.35504
 Alpha virt. eigenvalues --    5.37047   5.40485   5.43864   5.45130   5.46529
 Alpha virt. eigenvalues --    5.48192   5.50579   5.53648   5.54133   5.56241
 Alpha virt. eigenvalues --    5.57662   5.59614   5.61006   5.61478   5.63853
 Alpha virt. eigenvalues --    5.66883   5.67505   5.85961   5.86383   6.25917
 Alpha virt. eigenvalues --    7.16775   7.19462   7.20729   7.29059   7.32392
 Alpha virt. eigenvalues --    7.47542  13.52915  13.55208  13.55793  14.14897
 Alpha virt. eigenvalues --   14.20855  14.25179  24.67406
  Beta  occ. eigenvalues -- -235.94535 -27.58643 -23.63076 -23.63021 -23.62978
  Beta  occ. eigenvalues --  -19.61294 -19.61270 -19.60234 -19.59897 -19.57552
  Beta  occ. eigenvalues --  -19.56781  -3.33955  -2.18526  -2.18328  -2.18191
  Beta  occ. eigenvalues --   -1.46425  -1.44075  -1.43438  -1.42871  -1.40770
  Beta  occ. eigenvalues --   -1.39933  -0.97896  -0.96335  -0.94798  -0.93989
  Beta  occ. eigenvalues --   -0.91972  -0.90744  -0.85788  -0.83448  -0.81955
  Beta  occ. eigenvalues --   -0.80737  -0.80169  -0.77462  -0.77189  -0.74280
  Beta  occ. eigenvalues --   -0.72798  -0.71453  -0.69769  -0.68763
  Beta virt. eigenvalues --   -0.37834  -0.32859  -0.31685  -0.29806  -0.29660
  Beta virt. eigenvalues --   -0.28801  -0.27916  -0.25013  -0.24589  -0.22907
  Beta virt. eigenvalues --   -0.22558  -0.19829  -0.18636  -0.17812  -0.17521
  Beta virt. eigenvalues --   -0.16905  -0.15869  -0.15593  -0.15014  -0.14571
  Beta virt. eigenvalues --   -0.14005  -0.12904  -0.12011  -0.11478  -0.10772
  Beta virt. eigenvalues --   -0.09302  -0.09012  -0.07038  -0.06842  -0.06559
  Beta virt. eigenvalues --   -0.05732  -0.04231  -0.02761  -0.02030  -0.01272
  Beta virt. eigenvalues --   -0.00561  -0.00213   0.00420   0.01125   0.02697
  Beta virt. eigenvalues --    0.04750   0.05503   0.06171   0.07077   0.07974
  Beta virt. eigenvalues --    0.09151   0.09823   0.10476   0.11763   0.12705
  Beta virt. eigenvalues --    0.15949   0.16523   0.22149   0.22553   0.26560
  Beta virt. eigenvalues --    0.26961   0.27964   0.29778   0.41831   0.43059
  Beta virt. eigenvalues --    0.44663   0.46812   0.49087   0.49973   0.52047
  Beta virt. eigenvalues --    0.52903   0.53887   0.54136   0.54863   0.55446
  Beta virt. eigenvalues --    0.57447   0.59675   0.60388   0.61217   0.61660
  Beta virt. eigenvalues --    0.63886   0.64721   0.65688   0.67263   0.71812
  Beta virt. eigenvalues --    0.72210   0.73189   0.73594   0.74967   0.75317
  Beta virt. eigenvalues --    0.75557   0.78180   0.80700   0.81170   0.82263
  Beta virt. eigenvalues --    0.83240   0.87335   0.87542   0.91724   0.92417
  Beta virt. eigenvalues --    0.94717   0.96530   0.99842   1.01439   1.02056
  Beta virt. eigenvalues --    1.03624   1.06789   1.08252   1.09434   1.11546
  Beta virt. eigenvalues --    1.12699   1.13849   1.15269   1.31685   1.32225
  Beta virt. eigenvalues --    1.36123   1.38223   1.40836   1.43675   1.47504
  Beta virt. eigenvalues --    1.48420   1.49717   1.50280   1.53394   1.54725
  Beta virt. eigenvalues --    1.57824   1.59927   1.63334   1.65242   1.67265
  Beta virt. eigenvalues --    1.69240   1.77009   1.81425   1.89110   1.91189
  Beta virt. eigenvalues --    1.93127   1.95518   1.96455   1.98850   2.02835
  Beta virt. eigenvalues --    2.05474   2.05873   2.08240   2.09446   2.16001
  Beta virt. eigenvalues --    2.21510   2.22785   2.28263   2.32425   2.34495
  Beta virt. eigenvalues --    2.35428   2.41663   2.42994   2.47389   2.49876
  Beta virt. eigenvalues --    2.51901   2.54080   2.59102   2.60188   2.60465
  Beta virt. eigenvalues --    2.61856   2.62904   2.65145   2.65468   2.67818
  Beta virt. eigenvalues --    2.68567   2.69935   2.72153   2.73559   2.77741
  Beta virt. eigenvalues --    2.79192   2.80232   2.81257   2.82806   2.83897
  Beta virt. eigenvalues --    2.89199   2.96928   2.98170   3.14158   3.15913
  Beta virt. eigenvalues --    3.21508   3.58751   3.60779   3.71466   3.73422
  Beta virt. eigenvalues --    3.74455   3.77484   3.79037   3.80834   3.82948
  Beta virt. eigenvalues --    3.83129   3.85242   3.85582   3.86872   3.89328
  Beta virt. eigenvalues --    3.93228   3.94003   3.94638   3.95585   3.98317
  Beta virt. eigenvalues --    3.99427   4.01023   4.02523   4.05064   4.06505
  Beta virt. eigenvalues --    4.14012   4.16165   4.17607   4.19523   4.23759
  Beta virt. eigenvalues --    4.24754   4.30063   4.39288   4.40666   4.45417
  Beta virt. eigenvalues --    4.45765   4.49605   4.50762   4.53245   4.54181
  Beta virt. eigenvalues --    4.59311   4.63163   4.63394   4.64843   4.68207
  Beta virt. eigenvalues --    4.69145   4.70276   4.80399   4.83769   4.90539
  Beta virt. eigenvalues --    4.92055   4.92750   4.95396   4.98871   5.07777
  Beta virt. eigenvalues --    5.08775   5.09033   5.10678   5.11413   5.13091
  Beta virt. eigenvalues --    5.14176   5.17018   5.18362   5.24366   5.29147
  Beta virt. eigenvalues --    5.29836   5.30770   5.34333   5.36280   5.37512
  Beta virt. eigenvalues --    5.38669   5.43150   5.45695   5.46581   5.48450
  Beta virt. eigenvalues --    5.50219   5.51957   5.55396   5.55975   5.57702
  Beta virt. eigenvalues --    5.59237   5.61053   5.63130   5.63650   5.64691
  Beta virt. eigenvalues --    5.67598   5.68120   5.87263   5.87618   6.28437
  Beta virt. eigenvalues --    7.17482   7.20180   7.21454   7.29604   7.32936
  Beta virt. eigenvalues --    7.48010  13.53268  13.55556  13.56146  14.15232
  Beta virt. eigenvalues --   14.21184  14.25467  24.75383
          Condensed to atoms (all electrons):
               1          2          3          4          5          6
     1  Mn  24.314481  -0.073539  -0.018397  -0.048778  -0.018238  -0.092301
     2  O   -0.073539   8.542525   0.310955  -0.104748   0.000379  -0.112889
     3  H   -0.018397   0.310955   0.278310   0.000744  -0.000010   0.004899
     4  O   -0.048778  -0.104748   0.000744   8.499824   0.307171  -0.109875
     5  H   -0.018238   0.000379  -0.000010   0.307171   0.306977   0.005874
     6  O   -0.092301  -0.112889   0.004899  -0.109875   0.005874   8.545839
     7  H   -0.009860   0.001018  -0.000059   0.001172  -0.000439   0.298659
     8  O   -0.097250   0.081714  -0.001486  -0.107173   0.005745  -0.133909
     9  H   -0.012223  -0.001289  -0.000014   0.000667  -0.000146   0.002903
    10  O   -0.055875  -0.105253   0.002503   0.063617  -0.001614  -0.109169
    11  H   -0.011074   0.003079  -0.000332  -0.000963   0.000013  -0.000117
    12  O   -0.085687  -0.111974   0.006865  -0.098041   0.001690   0.085304
    13  H   -0.019225   0.004266  -0.000167   0.002240  -0.000120  -0.001448
    14  H   -0.002160   0.001732  -0.000079   0.003187  -0.000000  -0.001614
    15  H   -0.014533   0.003441  -0.000090   0.315454  -0.025515  -0.005012
    16  H   -0.011458   0.301686  -0.016122   0.002190  -0.000072   0.001663
    17  H   -0.020286   0.000929  -0.000034  -0.001260  -0.000018   0.003983
    18  H   -0.013158   0.001909  -0.000009   0.004161  -0.000891   0.304052
    19  H   -0.012484  -0.001945   0.000015   0.002461   0.000497   0.004665
               7          8          9         10         11         12
     1  Mn  -0.009860  -0.097250  -0.012223  -0.055875  -0.011074  -0.085687
     2  O    0.001018   0.081714  -0.001289  -0.105253   0.003079  -0.111974
     3  H   -0.000059  -0.001486  -0.000014   0.002503  -0.000332   0.006865
     4  O    0.001172  -0.107173   0.000667   0.063617  -0.000963  -0.098041
     5  H   -0.000439   0.005745  -0.000146  -0.001614   0.000013   0.001690
     6  O    0.298659  -0.133909   0.002903  -0.109169  -0.000117   0.085304
     7  H    0.317782   0.002714  -0.000565   0.003855  -0.000017  -0.002324
     8  O    0.002714   8.528433   0.306170  -0.073962  -0.005107  -0.109127
     9  H   -0.000565   0.306170   0.297641   0.000499   0.000539   0.001488
    10  O    0.003855  -0.073962   0.000499   8.502261   0.310278  -0.125689
    11  H   -0.000017  -0.005107   0.000539   0.310278   0.299258   0.003428
    12  O   -0.002324  -0.109127   0.001488  -0.125689   0.003428   8.561842
    13  H    0.000017   0.005010  -0.000049   0.001684  -0.000187   0.310610
    14  H   -0.000024   0.001020   0.000421   0.000375   0.001910   0.293655
    15  H    0.000132  -0.000203  -0.000019  -0.000921   0.000004   0.002658
    16  H   -0.000178  -0.001336   0.000012   0.004739  -0.000017   0.000448
    17  H    0.000908   0.002678  -0.000960   0.312907  -0.024885   0.000569
    18  H   -0.019395   0.003086   0.000013   0.000329  -0.000014  -0.001511
    19  H    0.003673   0.300302  -0.019021   0.000400   0.000134   0.001694
              13         14         15         16         17         18
     1  Mn  -0.019225  -0.002160  -0.014533  -0.011458  -0.020286  -0.013158
     2  O    0.004266   0.001732   0.003441   0.301686   0.000929   0.001909
     3  H   -0.000167  -0.000079  -0.000090  -0.016122  -0.000034  -0.000009
     4  O    0.002240   0.003187   0.315454   0.002190  -0.001260   0.004161
     5  H   -0.000120  -0.000000  -0.025515  -0.000072  -0.000018  -0.000891
     6  O   -0.001448  -0.001614  -0.005012   0.001663   0.003983   0.304052
     7  H    0.000017  -0.000024   0.000132  -0.000178   0.000908  -0.019395
     8  O    0.005010   0.001020  -0.000203  -0.001336   0.002678   0.003086
     9  H   -0.000049   0.000421  -0.000019   0.000012  -0.000960   0.000013
    10  O    0.001684   0.000375  -0.000921   0.004739   0.312907   0.000329
    11  H   -0.000187   0.001910   0.000004  -0.000017  -0.024885  -0.000014
    12  O    0.310610   0.293655   0.002658   0.000448   0.000569  -0.001511
    13  H    0.274776  -0.016573  -0.000225  -0.000038  -0.000018  -0.000016
    14  H   -0.016573   0.319310  -0.000012  -0.000019  -0.000135   0.000012
    15  H   -0.000225  -0.000012   0.290319   0.000347   0.000013   0.000237
    16  H   -0.000038  -0.000019   0.000347   0.306306  -0.000003  -0.000140
    17  H   -0.000018  -0.000135   0.000013  -0.000003   0.305280  -0.000177
    18  H   -0.000016   0.000012   0.000237  -0.000140  -0.000177   0.296357
    19  H   -0.000069  -0.000206   0.000011  -0.000034  -0.000356  -0.000501
              19
     1  Mn  -0.012484
     2  O   -0.001945
     3  H    0.000015
     4  O    0.002461
     5  H    0.000497
     6  O    0.004665
     7  H    0.003673
     8  O    0.300302
     9  H   -0.019021
    10  O    0.000400
    11  H    0.000134
    12  O    0.001694
    13  H   -0.000069
    14  H   -0.000206
    15  H    0.000011
    16  H   -0.000034
    17  H   -0.000356
    18  H   -0.000501
    19  H    0.316430
          Atomic-Atomic Spin Densities.
               1          2          3          4          5          6
     1  Mn   5.328511  -0.081007  -0.004525  -0.093387  -0.005992  -0.124738
     2  O   -0.081007   0.300851  -0.011183  -0.049907   0.000208  -0.061206
     3  H   -0.004525  -0.011183   0.013832   0.000207   0.000020   0.003583
     4  O   -0.093387  -0.049907   0.000207   0.270782  -0.006253  -0.057173
     5  H   -0.005992   0.000208   0.000020  -0.006253   0.014515   0.005039
     6  O   -0.124738  -0.061206   0.003583  -0.057173   0.005039   0.331206
     7  H   -0.002137   0.001230  -0.000026   0.000725  -0.000174  -0.015400
     8  O   -0.115457   0.069365  -0.001460  -0.055477   0.003409  -0.069963
     9  H   -0.001654  -0.001506  -0.000009   0.000770  -0.000213   0.000709
    10  O   -0.096895  -0.052055   0.004303   0.060844  -0.001437  -0.060690
    11  H   -0.004134   0.000714  -0.000146  -0.001007   0.000007   0.000342
    12  O   -0.088850  -0.081639   0.006801  -0.049681   0.001629   0.073482
    13  H   -0.003973   0.005741  -0.000136   0.003833  -0.000142  -0.001437
    14  H   -0.006117   0.000816  -0.000085   0.001282  -0.000027  -0.001452
    15  H   -0.004496   0.003873  -0.000138  -0.004274  -0.001871   0.001631
    16  H   -0.005977  -0.006834  -0.000722   0.002813  -0.000074   0.004081
    17  H   -0.006282   0.001449  -0.000177  -0.001300  -0.000007   0.002598
    18  H   -0.000238   0.001646  -0.000035   0.008360   0.000556  -0.016124
    19  H   -0.002815  -0.001765   0.000014   0.002545   0.000436   0.008295
               7          8          9         10         11         12
     1  Mn  -0.002137  -0.115457  -0.001654  -0.096895  -0.004134  -0.088850
     2  O    0.001230   0.069365  -0.001506  -0.052055   0.000714  -0.081639
     3  H   -0.000026  -0.001460  -0.000009   0.004303  -0.000146   0.006801
     4  O    0.000725  -0.055477   0.000770   0.060844  -0.001007  -0.049681
     5  H   -0.000174   0.003409  -0.000213  -0.001437   0.000007   0.001629
     6  O   -0.015400  -0.069963   0.000709  -0.060690   0.000342   0.073482
     7  H    0.019310   0.007192  -0.000353   0.002998  -0.000096  -0.001912
     8  O    0.007192   0.318222  -0.011841  -0.047552   0.001841  -0.070007
     9  H   -0.000353  -0.011841   0.018249   0.006736   0.000372   0.001857
    10  O    0.002998  -0.047552   0.006736   0.276880  -0.006218  -0.057059
    11  H   -0.000096   0.001841   0.000372  -0.006218   0.016021   0.004195
    12  O   -0.001912  -0.070007   0.001857  -0.057059   0.004195   0.320938
    13  H    0.000014   0.004363  -0.000082   0.000140  -0.000191  -0.011811
    14  H   -0.000013   0.004404   0.000300   0.003400   0.000665  -0.008862
    15  H   -0.000061   0.000214   0.000025  -0.000905   0.000010   0.000439
    16  H   -0.000242  -0.001191   0.000012   0.001659   0.000004   0.000244
    17  H    0.000513   0.004222   0.000320  -0.003686  -0.001963  -0.000026
    18  H   -0.000826   0.001356  -0.000021   0.000902   0.000025  -0.001638
    19  H    0.002082  -0.015806  -0.001065   0.000789  -0.000055   0.001184
              13         14         15         16         17         18
     1  Mn  -0.003973  -0.006117  -0.004496  -0.005977  -0.006282  -0.000238
     2  O    0.005741   0.000816   0.003873  -0.006834   0.001449   0.001646
     3  H   -0.000136  -0.000085  -0.000138  -0.000722  -0.000177  -0.000035
     4  O    0.003833   0.001282  -0.004274   0.002813  -0.001300   0.008360
     5  H   -0.000142  -0.000027  -0.001871  -0.000074  -0.000007   0.000556
     6  O   -0.001437  -0.001452   0.001631   0.004081   0.002598  -0.016124
     7  H    0.000014  -0.000013  -0.000061  -0.000242   0.000513  -0.000826
     8  O    0.004363   0.004404   0.000214  -0.001191   0.004222   0.001356
     9  H   -0.000082   0.000300   0.000025   0.000012   0.000320  -0.000021
    10  O    0.000140   0.003400  -0.000905   0.001659  -0.003686   0.000902
    11  H   -0.000191   0.000665   0.000010   0.000004  -0.001963   0.000025
    12  O   -0.011811  -0.008862   0.000439   0.000244  -0.000026  -0.001638
    13  H    0.013975  -0.000714  -0.000152  -0.000046   0.000023  -0.000011
    14  H   -0.000714   0.015344   0.000009   0.000024  -0.000108   0.000014
    15  H   -0.000152   0.000009   0.013794   0.000247   0.000005   0.000376
    16  H   -0.000046   0.000024   0.000247   0.013921  -0.000035   0.000105
    17  H    0.000023  -0.000108   0.000005  -0.000035   0.013170  -0.000191
    18  H   -0.000011   0.000014   0.000376   0.000105  -0.000191   0.021172
    19  H   -0.000033  -0.000236  -0.000072  -0.000017  -0.000154  -0.000282
              19
     1  Mn  -0.002815
     2  O   -0.001765
     3  H    0.000014
     4  O    0.002545
     5  H    0.000436
     6  O    0.008295
     7  H    0.002082
     8  O   -0.015806
     9  H   -0.001065
    10  O    0.000789
    11  H   -0.000055
    12  O    0.001184
    13  H   -0.000033
    14  H   -0.000236
    15  H   -0.000072
    16  H   -0.000017
    17  H   -0.000154
    18  H   -0.000282
    19  H    0.020864
 Mulliken charges and spin densities:
               1          2
     1  Mn   1.302044   4.679838
     2  O   -0.741996   0.038793
     3  H    0.432509   0.010116
     4  O   -0.732050   0.033702
     5  H    0.418719   0.009629
     6  O   -0.691509   0.022778
     7  H    0.402930   0.012824
     8  O   -0.707319   0.025832
     9  H    0.423934   0.012605
    10  O   -0.730965   0.032156
    11  H    0.424072   0.010387
    12  O   -0.735898   0.039284
    13  H    0.439533   0.009360
    14  H    0.399201   0.008644
    15  H    0.433917   0.008653
    16  H    0.412026   0.007975
    17  H    0.420865   0.008371
    18  H    0.425654   0.015146
    19  H    0.404334   0.013908
 Sum of Mulliken charges =   2.00000   5.00000
 Mulliken charges and spin densities with hydrogens summed into heavy atoms:
               1          2
     1  Mn   1.302044   4.679838
     2  O    0.102539   0.056884
     4  O    0.120585   0.051984
     6  O    0.137075   0.050748
     8  O    0.120949   0.052344
    10  O    0.113972   0.050913
    12  O    0.102836   0.057289
 APT charges:
               1
     1  Mn   1.377824
     2  O   -0.573649
     3  H    0.354867
     4  O   -0.516669
     5  H    0.305363
     6  O   -0.486840
     7  H    0.286600
     8  O   -0.490308
     9  H    0.302369
    10  O   -0.511687
    11  H    0.312283
    12  O   -0.560971
    13  H    0.357156
    14  H    0.308928
    15  H    0.320633
    16  H    0.320870
    17  H    0.306055
    18  H    0.300699
    19  H    0.286477
 Sum of APT charges =   2.00000
 APT charges with hydrogens summed into heavy atoms:
               1
     1  Mn   1.377824
     2  O    0.102089
     4  O    0.109328
     6  O    0.100459
     8  O    0.098537
    10  O    0.106651
    12  O    0.105113
 Electronic spatial extent (au):  <R**2>=            859.6745
 Charge=              2.0000 electrons
 Dipole moment (field-independent basis, Debye):
    X=              2.2829    Y=              3.6440    Z=             -0.9791  Tot=              4.4101
 Quadrupole moment (field-independent basis, Debye-Ang):
   XX=            -21.7766   YY=            -25.1120   ZZ=            -35.0341
   XY=             -4.2275   XZ=             -1.5219   YZ=             -0.9702
 Traceless Quadrupole moment (field-independent basis, Debye-Ang):
   XX=              5.5310   YY=              2.1956   ZZ=             -7.7265
   XY=             -4.2275   XZ=             -1.5219   YZ=             -0.9702
 Octapole moment (field-independent basis, Debye-Ang**2):
  XXX=             17.1696  YYY=             16.5534  ZZZ=              4.5699  XYY=              4.1082
  XXY=              8.6379  XXZ=              2.9430  XZZ=             -7.3906  YZZ=             -2.9118
  YYZ=            -13.5152  XYZ=             -2.9874
 Hexadecapole moment (field-independent basis, Debye-Ang**3):
 XXXX=           -216.1557 YYYY=           -228.2280 ZZZZ=           -249.7798 XXXY=            -19.1207
 XXXZ=              3.7270 YYYX=            -11.6256 YYYZ=              2.9531 ZZZX=            -14.0962
 ZZZY=            -12.6235 XXYY=            -61.1978 XXZZ=            -76.5498 YYZZ=            -66.3722
 XXYZ=              4.8106 YYXZ=              0.3534 ZZXY=              2.5029
 N-N= 7.510997080055D+02 E-N=-5.292075599855D+03  KE= 1.607371946581D+03
  Exact polarizability:      56.829      -0.705      55.541      -0.635      -0.426      51.627
 Approx polarizability:      74.830      -1.372      73.279      -1.298      -0.865      66.567
                          Isotropic Fermi Contact Couplings
        Atom                 a.u.       MegaHertz       Gauss      10(-4) cm-1
     1  Mn(55)             0.01079       2.38449       0.85084       0.79538
     2  O(17)              0.15267     -18.50945      -6.60463      -6.17409
     3  H(1)               0.00422       3.77575       1.34728       1.25945
     4  O(17)              0.16146     -19.57500      -6.98485      -6.52952
     5  H(1)               0.00427       3.81853       1.36255       1.27372
     6  O(17)              0.17862     -21.65586      -7.72735      -7.22362
     7  H(1)               0.00457       4.08860       1.45891       1.36381
     8  O(17)              0.17355     -21.04123      -7.50803      -7.01860
     9  H(1)               0.00482       4.30756       1.53704       1.43685
    10  O(17)              0.16085     -19.50091      -6.95841      -6.50480
    11  H(1)               0.00473       4.23134       1.50985       1.41142
    12  O(17)              0.15267     -18.50997      -6.60482      -6.17426
    13  H(1)               0.00402       3.59649       1.28332       1.19966
    14  H(1)               0.00408       3.64668       1.30123       1.21640
    15  H(1)               0.00429       3.83859       1.36970       1.28041
    16  H(1)               0.00391       3.49232       1.24615       1.16491
    17  H(1)               0.00412       3.68201       1.31383       1.22818
    18  H(1)               0.00533       4.76763       1.70121       1.59031
    19  H(1)               0.00472       4.21971       1.50570       1.40754
 --------------------------------------------------------
       Center         ----  Spin Dipole Couplings  ----
                      3XX-RR        3YY-RR        3ZZ-RR
 --------------------------------------------------------
     1   Atom       -0.006654     -0.005365      0.012019
     2   Atom       -0.182758      0.271010     -0.088252
     3   Atom       -0.010540      0.024188     -0.013648
     4   Atom        0.024268     -0.115382      0.091114
     5   Atom        0.063194     -0.051885     -0.011309
     6   Atom        0.040314     -0.161937      0.121623
     7   Atom        0.001848      0.000497     -0.002345
     8   Atom       -0.170566      0.182023     -0.011458
     9   Atom       -0.046404      0.099126     -0.052722
    10   Atom        0.057372     -0.110782      0.053410
    11   Atom        0.072358     -0.030483     -0.041875
    12   Atom        0.126571     -0.138875      0.012304
    13   Atom       -0.028094     -0.037442      0.065536
    14   Atom        0.030259     -0.039658      0.009399
    15   Atom        0.025231      0.013416     -0.038646
    16   Atom       -0.043892      0.051235     -0.007343
    17   Atom       -0.031004      0.003420      0.027584
    18   Atom        0.088715     -0.056796     -0.031920
    19   Atom       -0.011477      0.064423     -0.052946
 --------------------------------------------------------
                        XY            XZ            YZ
 --------------------------------------------------------
     1   Atom        0.025625      0.008338      0.009171
     2   Atom        0.085504      0.018032      0.098151
     3   Atom        0.054268      0.046669      0.059324
     4   Atom       -0.109732      0.184405     -0.124839
     5   Atom        0.006198      0.075433      0.000474
     6   Atom        0.047889     -0.220997     -0.022198
     7   Atom        0.054147     -0.058710     -0.052817
     8   Atom        0.066627      0.043994      0.185600
     9   Atom       -0.032327     -0.002575      0.028704
    10   Atom       -0.079932      0.231119     -0.058340
    11   Atom       -0.062387      0.033666     -0.017053
    12   Atom        0.123128     -0.198586     -0.039140
    13   Atom        0.018987     -0.052532     -0.053207
    14   Atom       -0.031463     -0.079774      0.025591
    15   Atom       -0.076208      0.037313     -0.028694
    16   Atom       -0.026473     -0.023184      0.075312
    17   Atom       -0.033188      0.043010     -0.074087
    18   Atom       -0.005164     -0.055329     -0.001780
    19   Atom        0.071383      0.008482      0.021618
 --------------------------------------------------------


 ---------------------------------------------------------------------------------
              Anisotropic Spin Dipole Couplings in Principal Axis System
 ---------------------------------------------------------------------------------

       Atom             a.u.   MegaHertz   Gauss  10(-4) cm-1        Axes

              Baa    -0.0316    -4.176    -1.490    -1.393  0.7141 -0.7000  0.0107
     1 Mn(55) Bbb     0.0029     0.378     0.135     0.126 -0.4222 -0.4185  0.8041
              Bcc     0.0288     3.797     1.355     1.267  0.5584  0.5787  0.5944
 
              Baa    -0.1983    14.351     5.121     4.787  0.9839 -0.1789 -0.0017
     2 O(17)  Bbb    -0.1132     8.188     2.922     2.731 -0.0417 -0.2386  0.9702
              Bcc     0.3115   -22.540    -8.043    -7.518  0.1740  0.9545  0.2422
 
              Baa    -0.0602   -32.145   -11.470   -10.723 -0.4796 -0.2768  0.8327
     3 H(1)   Bbb    -0.0496   -26.482    -9.449    -8.833  0.7139 -0.6749  0.1868
              Bcc     0.1099    58.627    20.920    19.556  0.5103  0.6840  0.5213
 
              Baa    -0.1806    13.067     4.663     4.359  0.2914  0.9288  0.2290
     4 O(17)  Bbb    -0.1294     9.365     3.342     3.124  0.7453 -0.0703 -0.6630
              Bcc     0.3100   -22.432    -8.004    -7.482  0.5997 -0.3639  0.7127
 
              Baa    -0.0593   -31.651   -11.294   -10.558 -0.5010  0.3676  0.7835
     5 H(1)   Bbb    -0.0509   -27.178    -9.698    -9.066  0.1671  0.9294 -0.3292
              Bcc     0.1103    58.829    20.992    19.623  0.8492  0.0340  0.5270
 
              Baa    -0.1805    13.061     4.660     4.357 -0.4542  0.8490 -0.2699
     6 O(17)  Bbb    -0.1300     9.407     3.357     3.138  0.6192  0.5187  0.5896
              Bcc     0.3105   -22.468    -8.017    -7.494 -0.6405 -0.1007  0.7613
 
              Baa    -0.0590   -31.486   -11.235   -10.502  0.6761  0.0379  0.7358
     7 H(1)   Bbb    -0.0515   -27.476    -9.804    -9.165 -0.4386  0.8231  0.3606
              Bcc     0.1105    58.961    21.039    19.667  0.5920  0.5666 -0.5732
 
              Baa    -0.1840    13.316     4.751     4.442  0.9851 -0.1143 -0.1282
     8 O(17)  Bbb    -0.1239     8.963     3.198     2.990  0.0495 -0.5260  0.8491
[...]
    15  H   -0.000039  -0.000001   0.298297  -0.000039   0.000000  -0.000039
    16  H   -0.000001  -0.000001  -0.000039   0.298323  -0.000001  -0.000039
    17  H   -0.000001  -0.000039   0.000000  -0.000001   0.298293  -0.000001
    18  H    0.000000   0.000000  -0.000039  -0.000039  -0.000001   0.298336
    19  H   -0.000001  -0.000001  -0.000001   0.000000  -0.000039  -0.000039
              19
     1  Mn  -0.000105
     2  O   -0.000276
     3  H    0.000000
     4  O    0.000683
     5  H   -0.000039
     6  O    0.002531
     7  H   -0.000039
     8  O    0.295882
     9  H   -0.014568
    10  O    0.000681
    11  H   -0.000001
    12  O    0.000613
    13  H   -0.000001
    14  H   -0.000001
    15  H   -0.000001
    16  H    0.000000
    17  H   -0.000039
    18  H   -0.000039
    19  H    0.298303
          Atomic-Atomic Spin Densities.
               1          2          3          4          5          6
     1  Mn   5.227581  -0.048445   0.001611  -0.048410   0.001610  -0.048406
     2  O   -0.048445   0.092717  -0.003756  -0.011840   0.000184  -0.011864
     3  H    0.001611  -0.003756   0.002979   0.000402  -0.000001   0.000185
     4  O   -0.048410  -0.011840   0.000402   0.092652  -0.003756  -0.011863
     5  H    0.001610   0.000184  -0.000001  -0.003756   0.002981   0.000402
     6  O   -0.048406  -0.011864   0.000185  -0.011863   0.000402   0.092639
     7  H    0.001609   0.000402  -0.000001   0.000184  -0.000001  -0.003751
     8  O   -0.048440   0.008906  -0.000113  -0.011842   0.000769  -0.011861
     9  H    0.001615  -0.000113   0.000000   0.000402  -0.000018   0.000185
    10  O   -0.048417  -0.011845   0.000402   0.008904  -0.000113  -0.011841
    11  H    0.001611   0.000769  -0.000018  -0.000113   0.000000   0.000402
    12  O   -0.048414  -0.011858   0.000770  -0.011856   0.000403   0.008905
    13  H    0.001608   0.000402  -0.000018   0.000770  -0.000018  -0.000113
    14  H    0.001614   0.000403  -0.000018   0.000185  -0.000001  -0.000113
    15  H    0.001612   0.000767  -0.000018  -0.003756   0.000468   0.000403
    16  H    0.001614  -0.003758   0.000468   0.000402  -0.000001   0.000769
    17  H    0.001612   0.000184  -0.000001  -0.000113   0.000000   0.000402
    18  H    0.001613   0.000402  -0.000001   0.000768  -0.000018  -0.003759
    19  H    0.001610  -0.000113   0.000000   0.000402  -0.000018   0.000771
               7          8          9         10         11         12
     1  Mn   0.001609  -0.048440   0.001615  -0.048417   0.001611  -0.048414
     2  O    0.000402   0.008906  -0.000113  -0.011845   0.000769  -0.011858
     3  H   -0.000001  -0.000113   0.000000   0.000402  -0.000018   0.000770
     4  O    0.000184  -0.011842   0.000402   0.008904  -0.000113  -0.011856
     5  H   -0.000001   0.000769  -0.000018  -0.000113   0.000000   0.000403
     6  O   -0.003751  -0.011861   0.000185  -0.011841   0.000402   0.008905
     7  H    0.002976   0.000403  -0.000001   0.000769  -0.000018  -0.000113
     8  O    0.000403   0.092709  -0.003759  -0.011852   0.000185  -0.011851
     9  H   -0.000001  -0.003759   0.002982   0.000402  -0.000001   0.000768
    10  O    0.000769  -0.011852   0.000402   0.092663  -0.003756  -0.011864
    11  H   -0.000018   0.000185  -0.000001  -0.003756   0.002981   0.000402
    12  O   -0.000113  -0.011851   0.000768  -0.011864   0.000402   0.092652
    13  H    0.000000   0.000401  -0.000018   0.000184  -0.000001  -0.003750
    14  H    0.000000   0.000401  -0.000018   0.000768  -0.000018  -0.003759
    15  H   -0.000001   0.000184  -0.000001  -0.000113   0.000000   0.000403
    16  H   -0.000018  -0.000113   0.000000   0.000402  -0.000018   0.000185
    17  H   -0.000018   0.000768  -0.000018  -0.003755   0.000468   0.000403
    18  H    0.000468   0.000403  -0.000001   0.000184  -0.000001  -0.000113
    19  H   -0.000018  -0.003756   0.000468   0.000403  -0.000001   0.000184
              13         14         15         16         17         18
     1  Mn   0.001608   0.001614   0.001612   0.001614   0.001612   0.001613
     2  O    0.000402   0.000403   0.000767  -0.003758   0.000184   0.000402
     3  H   -0.000018  -0.000018  -0.000018   0.000468  -0.000001  -0.000001
     4  O    0.000770   0.000185  -0.003756   0.000402  -0.000113   0.000768
     5  H   -0.000018  -0.000001   0.000468  -0.000001   0.000000  -0.000018
     6  O   -0.000113  -0.000113   0.000403   0.000769   0.000402  -0.003759
     7  H    0.000000   0.000000  -0.000001  -0.000018  -0.000018   0.000468
     8  O    0.000401   0.000401   0.000184  -0.000113   0.000768   0.000403
     9  H   -0.000018  -0.000018  -0.000001   0.000000  -0.000018  -0.000001
    10  O    0.000184   0.000768  -0.000113   0.000402  -0.003755   0.000184
    11  H   -0.000001  -0.000018   0.000000  -0.000018   0.000468  -0.000001
    12  O   -0.003750  -0.003759   0.000403   0.000185   0.000403  -0.000113
    13  H    0.002975   0.000468  -0.000018  -0.000001  -0.000001   0.000000
    14  H    0.000468   0.002984  -0.000001  -0.000001  -0.000018   0.000000
    15  H   -0.000018  -0.000001   0.002980  -0.000018   0.000000  -0.000018
    16  H   -0.000001  -0.000001  -0.000018   0.002981  -0.000001  -0.000018
    17  H   -0.000001  -0.000018   0.000000  -0.000001   0.002979  -0.000001
    18  H    0.000000   0.000000  -0.000018  -0.000018  -0.000001   0.002983
    19  H   -0.000001  -0.000001  -0.000001   0.000000  -0.000018  -0.000018
              19
     1  Mn   0.001610
     2  O   -0.000113
     3  H    0.000000
     4  O    0.000402
     5  H   -0.000018
     6  O    0.000771
     7  H   -0.000018
     8  O   -0.003756
     9  H    0.000468
    10  O    0.000403
    11  H   -0.000001
    12  O    0.000184
    13  H   -0.000001
    14  H   -0.000001
    15  H   -0.000001
    16  H    0.000000
    17  H   -0.000018
    18  H   -0.000018
    19  H    0.002978
 Mulliken charges and spin densities:
               1          2
     1  Mn   1.244735   4.956390
     2  O   -0.706965   0.001546
     3  H    0.416420   0.002873
     4  O   -0.706921   0.001523
     5  H    0.416370   0.002874
     6  O   -0.706899   0.001493
     7  H    0.416390   0.002871
     8  O   -0.706982   0.001543
     9  H    0.416410   0.002876
    10  O   -0.706893   0.001527
    11  H    0.416371   0.002874
    12  O   -0.706869   0.001497
    13  H    0.416383   0.002871
    14  H    0.416389   0.002875
    15  H    0.416430   0.002874
    16  H    0.416403   0.002875
    17  H    0.416425   0.002873
    18  H    0.416386   0.002874
    19  H    0.416416   0.002873
 Sum of Mulliken charges =   2.00000   5.00000
 Mulliken charges and spin densities with hydrogens summed into heavy atoms:
               1          2
     1  Mn   1.244735   4.956390
     2  O    0.125859   0.007294
     4  O    0.125879   0.007270
     6  O    0.125877   0.007238
     8  O    0.125844   0.007291
    10  O    0.125903   0.007274
    12  O    0.125904   0.007243
 Electronic spatial extent (au):  <R**2>=           1210.2525
 Charge=              2.0000 electrons
 Dipole moment (field-independent basis, Debye):
    X=              0.0003    Y=             -0.0004    Z=             -0.0003  Tot=              0.0006
 Quadrupole moment (field-independent basis, Debye-Ang):
   XX=            -15.2510   YY=            -15.2675   ZZ=            -15.2678
   XY=             -0.0060   XZ=              0.0006   YZ=              0.0086
 Traceless Quadrupole moment (field-independent basis, Debye-Ang):
   XX=              0.0111   YY=             -0.0054   ZZ=             -0.0057
   XY=             -0.0060   XZ=              0.0006   YZ=              0.0086
 Octapole moment (field-independent basis, Debye-Ang**2):
  XXX=              0.0003  YYY=             -0.0011  ZZZ=             -0.0064  XYY=             -0.0081
  XXY=             -0.0088  XXZ=              0.0067  XZZ=              0.0095  YZZ=              0.0073
  YYZ=             -0.0020  XYZ=              0.0003
 Hexadecapole moment (field-independent basis, Debye-Ang**3):
 XXXX=           -252.6022 YYYY=           -218.4912 ZZZZ=           -253.6948 XXXY=            -13.3062
 XXXZ=            -22.2112 YYYX=             18.8788 YYYZ=             26.9576 ZZZX=            -26.9998
 ZZZY=             -9.7735 XXYY=            -63.5164 XXZZ=            -28.0732 YYZZ=            -62.0674
 XXYZ=            -17.1181 YYXZ=             49.2223 ZZXY=             -5.6264
 N-N= 6.288956707734D+02 E-N=-5.047920506875D+03  KE= 1.604508615808D+03
                          Isotropic Fermi Contact Couplings
        Atom                 a.u.       MegaHertz       Gauss      10(-4) cm-1
     1  Mn(55)             0.30913      68.33868      24.38494      22.79533
     2  O(17)              0.07793      -9.44786      -3.37123      -3.15147
     3  H(1)               0.00126       1.12221       0.40043       0.37433
     4  O(17)              0.07788      -9.44263      -3.36937      -3.14972
     5  H(1)               0.00126       1.12286       0.40066       0.37454
     6  O(17)              0.07789      -9.44378      -3.36978      -3.15011
     7  H(1)               0.00125       1.12177       0.40028       0.37418
     8  O(17)              0.07793      -9.44766      -3.37116      -3.15140
     9  H(1)               0.00126       1.12384       0.40101       0.37487
    10  O(17)              0.07789      -9.44282      -3.36943      -3.14979
    11  H(1)               0.00126       1.12300       0.40071       0.37459
    12  O(17)              0.07790      -9.44408      -3.36988      -3.15021
    13  H(1)               0.00125       1.12147       0.40017       0.37408
    14  H(1)               0.00126       1.12367       0.40095       0.37482
    15  H(1)               0.00126       1.12332       0.40083       0.37470
    16  H(1)               0.00126       1.12351       0.40090       0.37476
    17  H(1)               0.00126       1.12310       0.40075       0.37462
    18  H(1)               0.00126       1.12342       0.40086       0.37473
    19  H(1)               0.00125       1.12194       0.40034       0.37424
 --------------------------------------------------------
       Center         ----  Spin Dipole Couplings  ----
                      3XX-RR        3YY-RR        3ZZ-RR
 --------------------------------------------------------
     1   Atom        0.000014     -0.000061      0.000048
     2   Atom       -0.005682      0.023624     -0.017941
     3   Atom        0.025509     -0.004088     -0.021421
     4   Atom       -0.034530      0.057595     -0.023065
     5   Atom       -0.027443      0.052315     -0.024872
     6   Atom        0.040284     -0.081195      0.040911
     7   Atom        0.025734     -0.023033     -0.002701
     8   Atom       -0.005607      0.023587     -0.017981
     9   Atom       -0.017918     -0.001026      0.018944
    10   Atom       -0.034522      0.057543     -0.023021
    11   Atom       -0.027443      0.052304     -0.024861
    12   Atom        0.040338     -0.081189      0.040851
    13   Atom        0.025755     -0.023028     -0.002727
    14   Atom       -0.002607     -0.027249      0.029856
    15   Atom       -0.003172      0.003101      0.000071
    16   Atom       -0.017941     -0.001021      0.018962
    17   Atom       -0.003173      0.003083      0.000090
    18   Atom       -0.002628     -0.027243      0.029871
    19   Atom        0.025541     -0.004109     -0.021432
 --------------------------------------------------------
                        XY            XZ            YZ
 --------------------------------------------------------
     1   Atom       -0.000071     -0.000023      0.000159
     2   Atom       -0.066193      0.092148     -0.055894
     3   Atom       -0.039747      0.021731     -0.016392
     4   Atom        0.080466      0.009897      0.085771
     5   Atom        0.016925      0.005883      0.022544
     6   Atom       -0.014303     -0.102024     -0.029845
     7   Atom        0.021534     -0.040394     -0.013724
     8   Atom       -0.066222      0.092151     -0.055857
     9   Atom       -0.020025      0.024080     -0.039501
    10   Atom        0.080466      0.009905      0.085798
    11   Atom        0.016925      0.005887      0.022562
    12   Atom       -0.014282     -0.102021     -0.029888
    13   Atom        0.021552     -0.040387     -0.013727
    14   Atom       -0.008833     -0.041932      0.015017
    15   Atom        0.030137      0.030620      0.032050
    16   Atom       -0.020012      0.024066     -0.039516
    17   Atom        0.030130      0.030632      0.032054
    18   Atom       -0.008839     -0.041923      0.015033
    19   Atom       -0.039745      0.021724     -0.016378
 --------------------------------------------------------


 ---------------------------------------------------------------------------------
              Anisotropic Spin Dipole Couplings in Principal Axis System
 ---------------------------------------------------------------------------------

       Atom             a.u.   MegaHertz   Gauss  10(-4) cm-1        Axes

              Baa    -0.0002    -0.025    -0.009    -0.008  0.2283  0.8144 -0.5336
     1 Mn(55) Bbb     0.0000     0.000     0.000     0.000  0.9105  0.0156  0.4133
              Bcc     0.0002     0.024     0.009     0.008 -0.3449  0.5801  0.7379
 
              Baa    -0.1044     7.553     2.695     2.519 -0.6994 -0.0503  0.7130
     2 O(17)  Bbb    -0.0388     2.808     1.002     0.937  0.3907  0.8084  0.4403
              Bcc     0.1432   -10.361    -3.697    -3.456  0.5985 -0.5865  0.5457
 
              Baa    -0.0322   -17.196    -6.136    -5.736  0.3908  0.8084  0.4403
     3 H(1)   Bbb    -0.0298   -15.880    -5.666    -5.297 -0.4907 -0.2217  0.8426
              Bcc     0.0620    33.076    11.803    11.033  0.7788 -0.5453  0.3100
 
              Baa    -0.1044     7.551     2.694     2.519  0.5984 -0.5864  0.5459
     4 O(17)  Bbb    -0.0388     2.810     1.003     0.937 -0.6995 -0.0503  0.7128
              Bcc     0.1432   -10.361    -3.697    -3.456  0.3906  0.8084  0.4403
 
              Baa    -0.0322   -17.195    -6.136    -5.736 -0.6995 -0.0501  0.7129
     5 H(1)   Bbb    -0.0298   -15.880    -5.666    -5.297  0.6872 -0.3207  0.6518
              Bcc     0.0620    33.075    11.802    11.033  0.1960  0.9458  0.2588
 
              Baa    -0.1044     7.552     2.695     2.519  0.3905  0.8084  0.4404
     6 O(17)  Bbb    -0.0388     2.809     1.002     0.937  0.5983 -0.5864  0.5460
              Bcc     0.1432   -10.360    -3.697    -3.456 -0.6997 -0.0502  0.7127
 
              Baa    -0.0322   -17.196    -6.136    -5.736  0.5984 -0.5863  0.5461
     7 H(1)   Bbb    -0.0298   -15.880    -5.666    -5.297  0.1658  0.7574  0.6316
              Bcc     0.0620    33.076    11.802    11.033  0.7839  0.2874 -0.5504
 
              Baa    -0.1044     7.553     2.695     2.519 -0.6992 -0.0506  0.7131
     8 O(17)  Bbb    -0.0388     2.809     1.002     0.937  0.3905  0.8085  0.4403
              Bcc     0.1432   -10.361    -3.697    -3.456  0.5988 -0.5863  0.5456
 
              Baa    -0.0322   -17.189    -6.134    -5.734  0.3905  0.8084  0.4404
     9 H(1)   Bbb    -0.0298   -15.875    -5.665    -5.295  0.8452 -0.1252 -0.5195
              Bcc     0.0620    33.064    11.798    11.029  0.3649 -0.5751  0.7322
 
              Baa    -0.1044     7.552     2.695     2.519  0.5983 -0.5866  0.5458
    10 O(17)  Bbb    -0.0388     2.809     1.002     0.937 -0.6996 -0.0504  0.7128
              Bcc     0.1432   -10.361    -3.697    -3.456  0.3906  0.8083  0.4405
 
              Baa    -0.0322   -17.195    -6.136    -5.736 -0.6996 -0.0502  0.7128
    11 H(1)   Bbb    -0.0298   -15.880    -5.666    -5.297  0.6872 -0.3209  0.6518
              Bcc     0.0620    33.075    11.802    11.033  0.1960  0.9458  0.2590
 
              Baa    -0.1044     7.553     2.695     2.519  0.3904  0.8084  0.4406
    12 O(17)  Bbb    -0.0388     2.807     1.002     0.936  0.5982 -0.5865  0.5461
              Bcc     0.1432   -10.360    -3.697    -3.456 -0.6999 -0.0504  0.7125
 
              Baa    -0.0322   -17.198    -6.137    -5.737  0.5983 -0.5864  0.5461
    13 H(1)   Bbb    -0.0298   -15.882    -5.667    -5.298  0.1656  0.7573  0.6317
              Bcc     0.0620    33.081    11.804    11.034  0.7840  0.2875 -0.5502
 
              Baa    -0.0322   -17.190    -6.134    -5.734  0.5981 -0.5867  0.5460
    14 H(1)   Bbb    -0.0298   -15.876    -5.665    -5.296  0.5802  0.7869  0.2099
              Bcc     0.0620    33.067    11.799    11.030 -0.5528  0.1912  0.8111
 
              Baa    -0.0322   -17.193    -6.135    -5.735 -0.6994 -0.0501  0.7129
    15 H(1)   Bbb    -0.0298   -15.878    -5.666    -5.296 -0.4559  0.7995 -0.3910
              Bcc     0.0620    33.071    11.800    11.031  0.5504  0.5985  0.5821
 
              Baa    -0.0322   -17.192    -6.134    -5.734  0.3907  0.8084  0.4404
    16 H(1)   Bbb    -0.0298   -15.877    -5.665    -5.296  0.8453 -0.1255 -0.5194
              Bcc     0.0620    33.068    11.800    11.030  0.3646 -0.5752  0.7323
 
              Baa    -0.0322   -17.195    -6.135    -5.736 -0.6995 -0.0503  0.7129
    17 H(1)   Bbb    -0.0298   -15.879    -5.666    -5.297 -0.4558  0.7996 -0.3909
              Bcc     0.0620    33.074    11.802    11.032  0.5504  0.5984  0.5823
 
              Baa    -0.0322   -17.191    -6.134    -5.734  0.5982 -0.5866  0.5459
    18 H(1)   Bbb    -0.0298   -15.877    -5.665    -5.296  0.5803  0.7869  0.2096
              Bcc     0.0620    33.068    11.799    11.030 -0.5526  0.1914  0.8112
 
              Baa    -0.0322   -17.198    -6.137    -5.736  0.3906  0.8084  0.4403
    19 H(1)   Bbb    -0.0298   -15.881    -5.667    -5.297 -0.4905 -0.2219  0.8427
              Bcc     0.0620    33.078    11.803    11.034  0.7790 -0.5451  0.3099
 

 ---------------------------------------------------------------------------------

 No NMR shielding tensors so no spin-rotation constants.
 Leave Link  601 at Thu May 23 15:09:59 2024, MaxMem= 26843545600 cpu:              29.2 elap:               0.3
 (Enter /gpfs/fs1/soft/improv/software/custom-built/gaussian/g16/l9999.exe)
 Unable to Open any file for archive entry.
 1\1\GINC-I068\SP\UHSEH1PBE\Gen\H12Mn1O6(2+,6)\HHARB\23-May-2024\0\\#p 
 HSEH1PBE scf=(maxcycles=500,xqc,maxconventional=50) scrf=(cpcm,solvent
 =water) geom=allcheck guess=read chkbasis\\Title\\2,6\Mn,-0.7848830126
 ,0.7129614592,0.0317183317\O,-1.3634371205,2.7951473616,-0.3276988317\
 H,-1.4683940745,3.2231115578,-1.185598087\O,1.3240156175,1.3049460754,
 0.0685420562\H,2.0821390077,0.724711491,0.2054410187\O,-0.9175364891,1
 .0483671822,2.1925697399\H,-1.697624422,0.9273958231,2.7466390512\O,-0
 .2066626996,-1.3692515073,0.391719875\H,-0.0077019691,-2.0353280842,-0
 .2767978641\O,-2.893615856,0.1205970768,-0.0053862566\H,-3.6518898169,
 0.7006211415,-0.1423395875\O,-0.6517614316,0.3779211498,-2.1291038184\
 H,0.1285039178,0.4991221037,-2.6828729625\H,-1.3615609555,0.080528377,
 -2.7103943623\H,1.6737251953,2.1961415023,-0.0482192105\H,-1.562317058
 7,3.4609380455,0.3411268218\H,-3.2430788368,-0.7707005513,0.1113292241
 \H,-0.2074842398,1.3457440971,2.7735599572\H,-0.1019533259,-1.79689453
 13,1.2498103147\\Version=ES64L-G16RevC.02\State=6-A\HF=-1608.7643949\S
 2=8.752532\S2-1=0.\S2A=8.750002\RMSD=2.102e-09\Dipole=0.000159,-0.0000
 389,0.0001735\Quadrupole=-0.0024743,-0.0013922,0.0038665,0.0039031,0.0
 044726,-0.0080987\PG=C01 [X(H12Mn1O6)]\\@
 The archive entry for this job was punched.


 ERROR IS A HARDY PLANT... IT FLOURISHETH IN EVERY SOIL.
            MARTIN FARQUHAR TUPPER
 Job cpu time:       0 days  1 hours 39 minutes 26.7 seconds.
 Elapsed time:       0 days  0 hours  0 minutes 50.8 seconds.
 File lengths (MBytes):  RWF=    124 Int=      0 D2E=      0 Chk=     32 Scr=      1
 Normal termination of Gaussian 16 at Thu May 23 15:09:59 2024.
