 Entering Gaussian System, Link 0=g16
 Input=Mn_2_BLYP.com
 Output=Mn_2_BLYP.log
 Initial command:
 /gpfs/fs1/soft/improv/software/custom-built/gaussian/g16/l1.exe "/scratch/Gau-183058.inp" -scrdir="/scratch/"
 Default CPUs for threads: 0-127
 Default linda workers: i037.lcrc.anl.gov
 Default is to use 128 SMP processors on each worker.
 Entering Link 1 = /gpfs/fs1/soft/improv/software/custom-built/gaussian/g16/l1.exe PID=    183059.
  
 Copyright (c) 1988-2021, Gaussian, Inc.  All Rights Reserved.
  
 This is part of the Gaussian(R) 16 program.  It is based on
 the Gaussian(R) 09 system (copyright 2009, Gaussian, Inc.),
 the Gaussian(R) 03 system (copyright 2003, Gaussian, Inc.),
 the Gaussian(R) 98 system (copyright 1998, Gaussian, Inc.),
 the Gaussian(R) 94 system (copyright 1995, Gaussian, Inc.),
 the Gaussian 92(TM) system (copyright 1992, Gaussian, Inc.),
 the Gaussian 90(TM) system (copyright 1990, Gaussian, Inc.),
 the Gaussian 88(TM) system (copyright 1988, Gaussian, Inc.),
 the Gaussian 86(TM) system (copyright 1986, Carnegie Mellon
 University), and the Gaussian 82(TM) system (copyright 1983,
 Carnegie Mellon University). Gaussian is a federally registered
 trademark of Gaussian, Inc.
  
 This software contains proprietary and confidential information,
 including trade secrets, belonging to Gaussian, Inc.
  
 This software is provided under written license and may be
 used, copied, transmitted, or stored only in accord with that
 written license.
  
 The following legend is applicable only to US Government
 contracts under FAR:
  
                    RESTRICTED RIGHTS LEGEND
  
 Use, reproduction and disclosure by the US Government is
 subject to restrictions as set forth in subparagraphs (a)
 and (c) of the Commercial Computer Software - Restricted
 Rights clause in FAR 52.227-19.
  
 Gaussian, Inc.
 340 Quinnipiac St., Bldg. 40, Wallingford CT 06492
  
  
 ---------------------------------------------------------------
 Warning -- This program may not be used in any manner that
 competes with the business of Gaussian, Inc. or will provide
 assistance to any competitor of Gaussian, Inc.  The licensee
 of this program is prohibited from giving any competitor of
 Gaussian, Inc. access to this program.  By using this program,
 the user acknowledges that Gaussian, Inc. is engaged in the
 business of creating and licensing software in the field of
 computational chemistry and represents and warrants to the
 licensee that it is not a competitor of Gaussian, Inc. and that
 it will not use this program in any manner prohibited above.
 ---------------------------------------------------------------
  

 Cite this work as:
 Gaussian 16, Revision C.02,
 M. J. Frisch, G. W. Trucks, H. B. Schlegel, G. E. Scuseria, 
 M. A. Robb, J. R. Cheeseman, G. Scalmani, V. Barone, 
 G. A. Petersson, H. Nakatsuji, X. Li, M. Caricato, A. V. Marenich, 
 J. Bloino, B. G. Janesko, R. Gomperts, B. Mennucci, H. P. Hratchian, 
 J. V. Ortiz, A. F. Izmaylov, J. L. Sonnenberg, D. Williams-Young, 
 F. Ding, F. Lipparini, F. Egidi, J. Goings, B. Peng, A. Petrone, 
 T. Henderson, D. Ranasinghe, V. G. Zakrzewski, J. Gao, N. Rega, 
 G. Zheng, W. Liang, M. Hada, M. Ehara, K. Toyota, R. Fukuda, 
 J. Hasegawa, M. Ishida, T. Nakajima, Y. Honda, O. Kitao, H. Nakai, 
 T. Vreven, K. Throssell, J. A. Montgomery, Jr., J. E. Peralta, 
 F. Ogliaro, M. J. Bearpark, J. J. Heyd, E. N. Brothers, K. N. Kudin, 
 V. N. Staroverov, T. A. Keith, R. Kobayashi, J. Normand, 
 K. Raghavachari, A. P. Rendell, J. C. Burant, S. S. Iyengar, 
 J. Tomasi, M. Cossi, J. M. Millam, M. Klene, C. Adamo, R. Cammi, 
 J. W. Ochterski, R. L. Martin, K. Morokuma, O. Farkas, 
 J. B. Foresman, and D. J. Fox, Gaussian, Inc., Wallingford CT, 2019.
 
 ******************************************
 Gaussian 16:  ES64L-G16RevC.02  7-Dec-2021
                23-May-2024 
 ******************************************
 %chk=Mn_2_BLYP.chk
 SetSPE:  set environment variable "OMP_PROC_BIND" = "true"
 SetSPE:  set environment variable "OMP_PLACES" = "{0},{1},{2},{3},{4},{5},{6},{7},{8},{9},{10},{11},{12},{13},{14},{15},{16},{17},{18},{19},{20},{21},{22},{23},{24},{25},{26},{27},{28},{29},{30},{31},{32},{33},{34},{35},{36},{37},{38},{39},{40},{41},{42},{43},{44},{45},{46},{47},{48},{49},{50},{51},{52},{53},{54},{55},{56},{57},{58},{59},{60},{61},{62},{63},{64},{65},{66},{67},{68},{69},{70},{71},{72},{73},{74},{75},{76},{77},{78},{79},{80},{81},{82},{83},{84},{85},{86},{87},{88},{89},{90},{91},{92},{93},{94},{95},{96},{97},{98},{99},{100},{101},{102},{103},{104},{105},{106},{107},{108},{109},{110},{111},{112},{113},{114},{115},{116},{117},{118},{119},{120},{121},{122},{123},{124},{125},{126},{127}"
 SetLPE:    new flags="-opt 'Tsnet.Node.lindarsharg: ssh'  -nodelist 'i037.lcrc.anl.gov' -env GAUSS_MDEF=26843545600 -env GAUSS_EXEDIR="/gpfs/fs1/soft/improv/software/custom-built/gaussian/g16/bsd:/gpfs/fs1/soft/improv/software/custom-built/gaussian/g16" -env "OMP_PROC_BIND=true" -env "OMP_PLACES={0},{1},{2},{3},{4},{5},{6},{7},{8},{9},{10},{11},{12},{13},{14},{15},{16},{17},{18},{19},{20},{21},{22},{23},{24},{25},{26},{27},{28},{29},{30},{31},{32},{33},{34},{35},{36},{37},{38},{39},{40},{41},{42},{43},{44},{45},{46},{47},{48},{49},{50},{51},{52},{53},{54},{55},{56},{57},{58},{59},{60},{61},{62},{63},{64},{65},{66},{67},{68},{69},{70},{71},{72},{73},{74},{75},{76},{77},{78},{79},{80},{81},{82},{83},{84},{85},{86},{87},{88},{89},{90},{91},{92},{93},{94},{95},{96},{97},{98},{99},{100},{101},{102},{103},{104},{105},{106},{107},{108},{109},{110},{111},{112},{113},{114},{115},{116},{117},{118},{119},{120},{121},{122},{123},{124},{125},{126},{127}" -env GAUSS_ADEF="0,1,2,3,4,5,6,7,8,9,10,11,12,13,14,15,16,17,18,19,20,21,22,23,24,25,26,27,28,29,30,31,32,33,34,35,36,37,38,39,40,41,42,43,44,45,46,47,48,49,50,51,52,53,54,55,56,57,58,59,60,61,62,63,64,65,66,67,68,69,70,71,72,73,74,75,76,77,78,79,80,81,82,83,84,85,86,87,88,89,90,91,92,93,94,95,96,97,98,99,100,101,102,103,104,105,106,107,108,109,110,111,112,113,114,115,116,117,118,119,120,121,122,123,124,125,126,127""
 Will use up to    1 processors via Linda.
 ----------------------------------------------------------------------
 #p BLYP empiricaldispersion=gd3 6-31+G(2df,p) opt=(cartesian,calcall,m
 axcycles=500) freq scf=(maxcycles=500,xqc,maxconventional=50)
 ----------------------------------------------------------------------
 1/6=500,10=4,18=10,26=3,38=1/1,3;
 2/12=2,17=6,18=5,29=2,40=1/2;
 3/5=1,6=6,7=114,11=2,25=1,30=1,71=2,74=402,124=31,140=1/1,2,3;
 4//1;
 5/5=2,7=500,8=3,13=1,38=5,85=50/2,8;
 8/6=4,10=90,11=11/1;
 11/6=1,8=1,9=11,15=111,16=1/1,2,10;
 10/6=1/2;
 6/7=2,8=2,9=2,10=2,18=1,28=1/1;
 7/7=1,10=1,25=1/1,2,3,16;
 1/6=500,10=4,18=10,26=3/3(3);
 2/29=1/2;
 7/7=1,8=1,9=1,25=1,44=-1/16;
 99/12=1/99;
 2/29=1/2;
 3/5=1,6=6,7=114,11=2,25=1,30=1,71=2,74=402,124=31,140=1/1,2,3;
 4/5=5,16=3,69=1/1;
 5/5=2,7=500,8=3,13=1,38=5,85=50/2,8;
 8/6=4,10=90,11=11/1;
 11/6=1,8=1,9=11,15=111,16=1/1,2,10;
 10/6=1/2;
 7/7=1,10=1,25=1/1,2,3,16;
 1/6=500,10=4,18=10,26=3/3(-8);
 2/29=1/2;
 6/7=2,8=2,9=2,10=2,18=1,19=2,28=1/1;
 7/7=1,8=1,9=1,25=1,44=-1/16;
 99/12=1/99;
 Leave Link    1 at Thu May 23 12:33:43 2024, MaxMem=           0 cpu:               3.5 elap:               0.1
 (Enter /gpfs/fs1/soft/improv/software/custom-built/gaussian/g16/l101.exe)
 -----
 Title
 -----
 Symbolic Z-matrix:
 Charge =  2 Multiplicity = 6
 Mn                   -0.79304   0.81881  -0.09491 
 O                    -1.20497   2.57394  -0.35687 
 H                    -2.12106   2.64974  -0.63312 
 O                     0.99012   1.19063  -0.05794 
 H                     1.42696   0.5998    0.55971 
 O                    -0.81752   1.03069   1.71365 
 H                    -1.02108   0.1906    2.13133 
 O                    -0.38507  -0.93351   0.17118 
 H                    -1.15682  -1.47369  -0.01433 
 O                    -2.57341   0.45178  -0.12186 
 H                    -2.77756  -0.08744  -0.88929 
 O                    -0.76966   0.60461  -1.90111 
 H                     0.09872   0.83457  -2.23949 
 H                    -0.96534  -0.30999  -2.11742 
 H                     1.12208   2.09943   0.22124 
 H                    -1.07671   3.0584    0.46184 
 H                    -2.81407  -0.02398   0.6765 
 H                     0.0422    1.33615   2.01181 
 H                    -0.11532  -1.06446   1.08312 
 
 ITRead=  0  0  0  0  0  0  0  0  0  0  0  0  0  0  0  0  0  0  0
 MicOpt= -1 -1 -1 -1 -1 -1 -1 -1 -1 -1 -1 -1 -1 -1 -1 -1 -1 -1 -1
 NAtoms=     19 NQM=       19 NQMF=       0 NMMI=      0 NMMIF=      0
                NMic=       0 NMicF=      0.
                    Isotopes and Nuclear Properties:
 (Nuclear quadrupole moments (NQMom) in fm**2, nuclear magnetic moments (NMagM)
  in nuclear magnetons)

  Atom         1           2           3           4           5           6           7           8           9          10
 IAtWgt=          55          16           1          16           1          16           1          16           1          16
 AtmWgt=  54.9380463  15.9949146   1.0078250  15.9949146   1.0078250  15.9949146   1.0078250  15.9949146   1.0078250  15.9949146
 NucSpn=           5           0           1           0           1           0           1           0           1           0
 AtZEff=  -0.0000000  -0.0000000  -0.0000000  -0.0000000  -0.0000000  -0.0000000  -0.0000000  -0.0000000  -0.0000000  -0.0000000
 NQMom=   33.0000000   0.0000000   0.0000000   0.0000000   0.0000000   0.0000000   0.0000000   0.0000000   0.0000000   0.0000000
 NMagM=    3.4532000   0.0000000   2.7928460   0.0000000   2.7928460   0.0000000   2.7928460   0.0000000   2.7928460   0.0000000
 AtZNuc=  25.0000000   8.0000000   1.0000000   8.0000000   1.0000000   8.0000000   1.0000000   8.0000000   1.0000000   8.0000000

  Atom        11          12          13          14          15          16          17          18          19
 IAtWgt=           1          16           1           1           1           1           1           1           1
 AtmWgt=   1.0078250  15.9949146   1.0078250   1.0078250   1.0078250   1.0078250   1.0078250   1.0078250   1.0078250
 NucSpn=           1           0           1           1           1           1           1           1           1
 AtZEff=  -0.0000000  -0.0000000  -0.0000000  -0.0000000  -0.0000000  -0.0000000  -0.0000000  -0.0000000  -0.0000000
 NQMom=    0.0000000   0.0000000   0.0000000   0.0000000   0.0000000   0.0000000   0.0000000   0.0000000   0.0000000
 NMagM=    2.7928460   0.0000000   2.7928460   2.7928460   2.7928460   2.7928460   2.7928460   2.7928460   2.7928460
 AtZNuc=   1.0000000   8.0000000   1.0000000   1.0000000   1.0000000   1.0000000   1.0000000   1.0000000   1.0000000
 Leave Link  101 at Thu May 23 12:33:44 2024, MaxMem= 26843545600 cpu:               0.4 elap:               0.0
 (Enter /gpfs/fs1/soft/improv/software/custom-built/gaussian/g16/l103.exe)

 GradGradGradGradGradGradGradGradGradGradGradGradGradGradGradGradGradGrad
 Berny optimization.
 Initialization pass.
 No Z-matrix variables, so optimization will use Cartesian coordinates.
 Trust Radius=3.00D-01 FncErr=1.00D-07 GrdErr=1.00D-06 EigMax=2.50D+02 EigMin=1.00D-04
 Number of steps in this run=    114 maximum allowed number of steps=    114.
 GradGradGradGradGradGradGradGradGradGradGradGradGradGradGradGradGradGrad

 Leave Link  103 at Thu May 23 12:33:44 2024, MaxMem= 26843545600 cpu:               0.4 elap:               0.0
 (Enter /gpfs/fs1/soft/improv/software/custom-built/gaussian/g16/l202.exe)
 ---------------------------------------------------------------------------------------------------
                            Z-MATRIX (ANGSTROMS AND DEGREES)
   CD    Cent   Atom    N1       Length/X        N2       Alpha/Y        N3        Beta/Z          J
 ---------------------------------------------------------------------------------------------------
      1      1  Mn       0  -0.793037          0.818805         -0.094905
      2      2  O        0  -1.204971          2.573941         -0.356874
      3      3  H        0  -2.121063          2.649743         -0.633122
      4      4  O        0   0.990122          1.190635         -0.057941
      5      5  H        0   1.426962          0.599798          0.559707
      6      6  O        0  -0.817519          1.030691          1.713650
      7      7  H        0  -1.021079          0.190602          2.131326
      8      8  O        0  -0.385068         -0.933506          0.171177
      9      9  H        0  -1.156817         -1.473692         -0.014327
     10     10  O        0  -2.573405          0.451778         -0.121857
     11     11  H        0  -2.777557         -0.087440         -0.889285
     12     12  O        0  -0.769659          0.604612         -1.901109
     13     13  H        0   0.098725          0.834573         -2.239490
     14     14  H        0  -0.965336         -0.309994         -2.117418
     15     15  H        0   1.122081          2.099426          0.221242
     16     16  H        0  -1.076711          3.058396          0.461841
     17     17  H        0  -2.814074         -0.023981          0.676500
     18     18  H        0   0.042204          1.336153          2.011809
     19     19  H        0  -0.115315         -1.064459          1.083123
 ---------------------------------------------------------------------------------------------------
                         Z-Matrix orientation:                         
 ---------------------------------------------------------------------
 Center     Atomic      Atomic             Coordinates (Angstroms)
 Number     Number       Type             X           Y           Z
 ---------------------------------------------------------------------
      1         25           0       -0.793037    0.818805   -0.094905
      2          8           0       -1.204971    2.573941   -0.356874
      3          1           0       -2.121063    2.649743   -0.633122
      4          8           0        0.990122    1.190635   -0.057941
      5          1           0        1.426962    0.599798    0.559707
      6          8           0       -0.817519    1.030691    1.713650
      7          1           0       -1.021079    0.190602    2.131326
      8          8           0       -0.385068   -0.933506    0.171177
      9          1           0       -1.156817   -1.473692   -0.014327
     10          8           0       -2.573405    0.451778   -0.121857
     11          1           0       -2.777557   -0.087440   -0.889285
     12          8           0       -0.769659    0.604612   -1.901109
     13          1           0        0.098725    0.834573   -2.239490
     14          1           0       -0.965336   -0.309994   -2.117418
     15          1           0        1.122081    2.099426    0.221242
     16          1           0       -1.076711    3.058396    0.461841
     17          1           0       -2.814074   -0.023981    0.676500
     18          1           0        0.042204    1.336153    2.011809
     19          1           0       -0.115315   -1.064459    1.083123
 ---------------------------------------------------------------------
                    Distance matrix (angstroms):
                    1          2          3          4          5
     1  Mn   0.000000
     2  O    1.821762   0.000000
     3  H    2.325008   0.959835   0.000000
     4  O    1.821889   2.611767   3.484150   0.000000
     5  H    2.324839   3.415322   4.267739   0.959899   0.000000
     6  O    1.821090   2.611285   3.134947   2.536076   2.560263
     7  H    2.324381   3.450400   3.859988   3.136540   2.937743
     8  O    1.818745   3.640503   4.062050   2.540791   2.405292
     9  H    2.322579   4.062387   4.279649   3.421971   3.362259
    10  O    1.818006   2.536025   2.301533   3.639880   4.060711
    11  H    2.321775   3.136788   2.826442   4.064482   4.499984
    12  O    1.819010   2.540161   2.759827   2.614866   3.298603
    13  H    2.322657   2.875634   3.286750   2.383386   3.107223
    14  H    2.322591   3.387332   3.506977   3.212032   3.703756
    15  H    2.325429   2.444290   3.398642   0.959822   1.567289
    16  H    2.325125   0.959918   1.567358   2.833814   3.510364
    17  H    2.321626   3.225876   3.056824   4.060370   4.288255
    18  H    2.324547   2.949275   3.660724   2.281137   2.137375
    19  H    2.322443   4.061883   4.556733   2.758526   2.328591
                    6          7          8          9         10
     6  O    0.000000
     7  H    0.960021   0.000000
     8  O    2.534622   2.347406   0.000000
     9  H    3.061530   2.718847   0.960108   0.000000
    10  O    2.605257   2.748593   2.606473   2.392848   0.000000
    11  H    3.444886   3.505227   2.750347   2.305222   0.959885
    12  O    3.640099   4.061422   2.609231   2.833582   2.538227
    13  H    4.062670   4.557707   3.028445   3.443229   3.430916
    14  H    4.061572   4.278496   2.441955   2.411193   2.673658
    15  H    2.670492   3.447487   3.387136   4.244531   4.060675
    16  H    2.397039   3.318813   4.061790   4.557738   3.061904
    17  H    2.484803   2.318921   2.642472   2.307685   0.960023
    18  H    0.959858   1.567527   2.953276   3.665802   3.489421
    19  H    2.297892   1.869309   0.959980   1.567353   3.129403
                   11         12         13         14         15
    11  H    0.000000
    12  O    2.352526   0.000000
    13  H    3.308498   0.959935   0.000000
    14  H    2.200452   0.959991   1.567533   0.000000
    15  H    4.606825   3.212091   2.949969   3.953725   0.000000
    16  H    3.822919   3.420362   3.691102   4.243941   2.410850
    17  H    1.567497   3.349453   4.210050   3.362383   4.495491
    18  H    4.288824   4.062660   4.281159   4.558009   2.225950
    19  H    3.454344   3.481323   3.833001   3.396353   3.504877
                   16         17         18         19
    16  H    0.000000
    17  H    3.544793   0.000000
    18  H    2.573032   3.433851   0.000000
    19  H    4.278809   2.920828   2.578800   0.000000
 Stoichiometry    H12MnO6(2+,6)
 Framework group  C1[X(H12MnO6)]
 Deg. of freedom    51
 Full point group                 C1      NOp   1
 Largest Abelian subgroup         C1      NOp   1
 Largest concise Abelian subgroup C1      NOp   1
                         Standard orientation:                         
 ---------------------------------------------------------------------
 Center     Atomic      Atomic             Coordinates (Angstroms)
 Number     Number       Type             X           Y           Z
 ---------------------------------------------------------------------
      1         25           0       -0.020445   -0.030121    0.009875
      2          8           0       -0.320808   -1.687588   -0.683958
      3          1           0       -1.137042   -1.679899   -1.188920
      4          8           0        1.254655   -0.678279    1.138277
      5          1           0        1.943361   -0.019749    1.254154
      6          8           0        1.298207    0.294245   -1.203513
      7          1           0        1.382040    1.240910   -1.339297
      8          8           0        0.280486    1.626554    0.697409
      9          1           0       -0.431358    2.215648    0.436540
     10          8           0       -1.285904    0.615907   -1.124325
     11          1           0       -2.034842    0.938661   -0.618064
     12          8           0       -1.338362   -0.351446    1.221751
     13          1           0       -0.971739   -0.815561    1.977832
     14          1           0       -1.717277    0.481861    1.510897
     15          1           0        1.635399   -1.477016    0.766376
     16          1           0        0.408515   -1.930884   -1.258706
     17          1           0       -0.915243    1.335169   -1.640964
     18          1           0        2.129003   -0.056571   -0.874826
     19          1           0        1.114126    1.965325    0.362984
 ---------------------------------------------------------------------
 Rotational constants (GHZ):           2.0396948           1.9739407           1.9252755
 Leave Link  202 at Thu May 23 12:33:44 2024, MaxMem= 26843545600 cpu:               0.5 elap:               0.0
 (Enter /gpfs/fs1/soft/improv/software/custom-built/gaussian/g16/l301.exe)
 Standard basis: 6-31+G(2df,p) (6D, 7F)
 Ernie: Thresh=  0.10000D-02 Tol=  0.10000D-05 Strict=F.
 There are   347 symmetry adapted cartesian basis functions of A   symmetry.
 There are   317 symmetry adapted basis functions of A   symmetry.
   317 basis functions,   514 primitive gaussians,   347 cartesian basis functions
    44 alpha electrons       39 beta electrons
       nuclear repulsion energy       751.0997080055 Hartrees.
 IExCor=  402 DFT=T Ex=B Corr=LYP ExCW=0 ScaHFX=  0.000000
 ScaDFX=  1.000000  1.000000  1.000000  1.000000 ScalE2=  1.000000  1.000000
 IRadAn=      5 IRanWt=     -1 IRanGd=            0 ICorTp=0 IEmpDi=131
 NAtoms=   19 NActive=   19 NUniq=   19 SFac= 1.00D+00 NAtFMM=   60 NAOKFM=F Big=F
 Integral buffers will be    131072 words long.
 Raffenetti 2 integral format.
 Two-electron integral symmetry is turned on.
 R6Disp:  Grimme-D3 Dispersion energy=       -0.0268465315 Hartrees.
 Nuclear repulsion after empirical dispersion term =      751.0728614740 Hartrees.
 Leave Link  301 at Thu May 23 12:33:44 2024, MaxMem= 26843545600 cpu:               0.4 elap:               0.0
 (Enter /gpfs/fs1/soft/improv/software/custom-built/gaussian/g16/l302.exe)
 NPDir=0 NMtPBC=     1 NCelOv=     1 NCel=       1 NClECP=     1 NCelD=      1
         NCelK=      1 NCelE2=     1 NClLst=     1 CellRange=     0.0.
 One-electron integrals computed using PRISM.
 One-electron integral symmetry used in STVInt
 NBasis=   317 RedAO= T EigKep=  1.52D-05  NBF=   317
 NBsUse=   317 1.00D-06 EigRej= -1.00D+00 NBFU=   317
 Precomputing XC quadrature grid using
 IXCGrd= 4 IRadAn=           5 IRanWt=          -1 IRanGd=           0 AccXCQ= 0.00D+00.
 Generated NRdTot=       0 NPtTot=           0 NUsed=           0 NTot=          32
 NSgBfM=   347   346   347   347   347 MxSgAt=    19 MxSgA2=    19.
 Leave Link  302 at Thu May 23 12:33:44 2024, MaxMem= 26843545600 cpu:              22.0 elap:               0.3
 (Enter /gpfs/fs1/soft/improv/software/custom-built/gaussian/g16/l303.exe)
 DipDrv:  MaxL=1.
 Leave Link  303 at Thu May 23 12:33:44 2024, MaxMem= 26843545600 cpu:               1.0 elap:               0.0
 (Enter /gpfs/fs1/soft/improv/software/custom-built/gaussian/g16/l401.exe)
 ExpMin= 1.19D-02 ExpMax= 5.63D+04 ExpMxC= 8.46D+03 IAcc=3 IRadAn=         5 AccDes= 0.00D+00
 Harris functional with IExCor=  402 and IRadAn=       5 diagonalized for initial guess.
 HarFok:  IExCor=  402 AccDes= 0.00D+00 IRadAn=         5 IDoV= 1 UseB2=F ITyADJ=14
 ICtDFT=  3500011 ScaDFX=  1.000000  1.000000  1.000000  1.000000
 FoFCou: FMM=F IPFlag=           0 FMFlag=      100000 FMFlg1=           0
         NFxFlg=           0 DoJE=T BraDBF=F KetDBF=T FulRan=T
         wScrn=  0.000000 ICntrl=       500 IOpCl=  0 I1Cent=   200000004 NGrid=           0
         NMat0=    1 NMatS0=      1 NMatT0=    0 NMatD0=    1 NMtDS0=    0 NMtDT0=    0
 Petite list used in FoFCou.
 Harris En= -1608.98316207819    
 JPrj=0 DoOrth=F DoCkMO=F.
 Initial guess <Sx>= 0.0000 <Sy>= 0.0000 <Sz>= 2.5000 <S**2>= 8.7500 S= 2.5000
 Leave Link  401 at Thu May 23 12:33:45 2024, MaxMem= 26843545600 cpu:              39.0 elap:               0.4
 (Enter /gpfs/fs1/soft/improv/software/custom-built/gaussian/g16/l502.exe)
 Integral symmetry usage will be decided dynamically.
 UHF open shell SCF:
 Using DIIS extrapolation, IDIIS=  1040.
 NGot= 26843545600 LenX= 26843256607 LenY= 26843135757
 Requested convergence on RMS density matrix=1.00D-08 within  50 cycles.
 Requested convergence on MAX density matrix=1.00D-06.
 Requested convergence on             energy=1.00D-06.
 No special actions if energy rises.
 Fock matrices will be formed incrementally for  20 cycles.

 Cycle   1  Pass 1  IDiag  1:
 FoFJK:  IHMeth= 1 ICntrl=     500 DoSepK=F KAlg= 0 I1Cent=           0 FoldK=F
 IRaf= 990000000 NMat=       1 IRICut=       1 DoRegI=T DoRafI=F ISym2E= 0 IDoP0=0 IntGTp=1.
 FoFCou: FMM=F IPFlag=           0 FMFlag=      100000 FMFlg1=           0
         NFxFlg=           0 DoJE=T BraDBF=F KetDBF=F FulRan=T
         wScrn=  0.000000 ICntrl=       500 IOpCl=  0 I1Cent=           0 NGrid=           0
         NMat0=    1 NMatS0=      1 NMatT0=    0 NMatD0=    1 NMtDS0=    0 NMtDT0=    0
 Symmetry not used in FoFCou.
 E= -1608.20688110717    
 DIIS: error= 3.35D-02 at cycle   1 NSaved=   1.
 NSaved= 1 IEnMin= 1 EnMin= -1608.20688110717     IErMin= 1 ErrMin= 3.35D-02
 ErrMax= 3.35D-02  0.00D+00 EMaxC= 1.00D-01 BMatC= 3.31D+00 BMatP= 3.31D+00
 IDIUse=3 WtCom= 6.65D-01 WtEn= 3.35D-01
 Coeff-Com:  0.100D+01
 Coeff-En:   0.100D+01
 Coeff:      0.100D+01
 Gap=    -0.013 Goal=   None    Shift=    0.000
 Gap=    -0.223 Goal=   None    Shift=    0.000
 GapD=   -0.223 DampG=0.250 DampE=0.250 DampFc=0.1250 IDamp=-1.
 Damping current iteration by 1.25D-01
 RMSDP=1.93D-02 MaxDP=2.91D+00              OVMax= 7.75D-01

 Cycle   2  Pass 1  IDiag  1:
 RMSU=  2.36D-03    CP:  9.80D-01
 E= -1608.32479205599     Delta-E=       -0.117910948827 Rises=F Damp=T
 DIIS: error= 2.06D-02 at cycle   2 NSaved=   2.
 NSaved= 2 IEnMin= 2 EnMin= -1608.32479205599     IErMin= 2 ErrMin= 2.06D-02
 ErrMax= 2.06D-02  0.00D+00 EMaxC= 1.00D-01 BMatC= 8.40D-01 BMatP= 3.31D+00
 IDIUse=3 WtCom= 7.94D-01 WtEn= 2.06D-01
 Coeff-Com: -0.437D+00 0.144D+01
 Coeff-En:   0.199D+00 0.801D+00
 Coeff:     -0.305D+00 0.131D+01
 Gap=     0.100 Goal=   None    Shift=    0.000
 Gap=    -0.007 Goal=   None    Shift=    0.000
 RMSDP=5.20D-02 MaxDP=8.12D+00 DE=-1.18D-01 OVMax= 9.90D-01

 Cycle   3  Pass 1  IDiag  1:
 RMSU=  5.07D-02    CP:  1.14D+00  3.00D+00
 E= -1607.28057008521     Delta-E=        1.044221970786 Rises=F Damp=F
 DIIS: error= 5.29D-02 at cycle   3 NSaved=   3.
 NSaved= 3 IEnMin= 2 EnMin= -1608.32479205599     IErMin= 2 ErrMin= 2.06D-02
 ErrMax= 5.29D-02  0.00D+00 EMaxC= 1.00D-01 BMatC= 7.17D+00 BMatP= 8.40D-01
 IDIUse=2 WtCom= 0.00D+00 WtEn= 1.00D+00
 Coeff-En:   0.000D+00 0.826D+00 0.174D+00
 Coeff:      0.000D+00 0.826D+00 0.174D+00
 Gap=     0.013 Goal=   None    Shift=    0.000
 Gap=     0.228 Goal=   None    Shift=    0.000
 RMSDP=5.27D-02 MaxDP=7.99D+00 DE= 1.04D+00 OVMax= 9.29D-01

 Cycle   4  Pass 1  IDiag  1:
 RMSU=  7.43D-03    CP:  7.57D-01  3.00D+00 -1.20D-02
 E= -1607.60090125498     Delta-E=       -0.320331169775 Rises=F Damp=F
 DIIS: error= 7.56D-02 at cycle   4 NSaved=   4.
 NSaved= 4 IEnMin= 2 EnMin= -1608.32479205599     IErMin= 2 ErrMin= 2.06D-02
 ErrMax= 7.56D-02  0.00D+00 EMaxC= 1.00D-01 BMatC= 8.17D+00 BMatP= 8.40D-01
 IDIUse=2 WtCom= 0.00D+00 WtEn= 1.00D+00
 EnCoef did   100 forward-backward iterations
 Coeff-En:   0.438D+00 0.158D-01 0.176D+00 0.371D+00
 Coeff:      0.438D+00 0.158D-01 0.176D+00 0.371D+00
 Gap=     0.029 Goal=   None    Shift=    0.000
 Gap=     0.171 Goal=   None    Shift=    0.000
 RMSDP=4.61D-03 MaxDP=3.10D-01 DE=-3.20D-01 OVMax= 2.86D-01

 Cycle   5  Pass 1  IDiag  1:
 RMSU=  4.39D-03    CP:  7.24D-01  3.00D+00 -2.38D-02  8.68D-01
 E= -1608.70830200208     Delta-E=       -1.107400747098 Rises=F Damp=F
 DIIS: error= 1.03D-02 at cycle   5 NSaved=   5.
 NSaved= 5 IEnMin= 5 EnMin= -1608.70830200208     IErMin= 5 ErrMin= 1.03D-02
 ErrMax= 1.03D-02  0.00D+00 EMaxC= 1.00D-01 BMatC= 2.25D-01 BMatP= 8.40D-01
 IDIUse=3 WtCom= 8.97D-01 WtEn= 1.03D-01
 Coeff-Com:  0.538D-01 0.433D-01 0.781D-01-0.598D-01 0.885D+00
 Coeff-En:   0.000D+00 0.000D+00 0.806D-01 0.000D+00 0.919D+00
 Coeff:      0.483D-01 0.389D-01 0.784D-01-0.537D-01 0.888D+00
 Gap=    -0.006 Goal=   None    Shift=    0.000
 Gap=     0.248 Goal=   None    Shift=    0.000
 RMSDP=2.12D-02 MaxDP=2.87D+00 DE=-1.11D+00 OVMax= 9.97D-01

 Cycle   6  Pass 1  IDiag  1:
 RMSU=  1.67D-02    CP:  9.29D-01  2.22D+00  1.83D-01  1.93D-01  5.84D-01
 E= -1608.61616940146     Delta-E=        0.092132600620 Rises=F Damp=F
 DIIS: error= 1.57D-02 at cycle   6 NSaved=   6.
 NSaved= 6 IEnMin= 5 EnMin= -1608.70830200208     IErMin= 5 ErrMin= 1.03D-02
 ErrMax= 1.57D-02  0.00D+00 EMaxC= 1.00D-01 BMatC= 5.88D-01 BMatP= 2.25D-01
 IDIUse=2 WtCom= 0.00D+00 WtEn= 1.00D+00
 Coeff-En:   0.000D+00 0.000D+00 0.000D+00 0.000D+00 0.660D+00 0.340D+00
 Coeff:      0.000D+00 0.000D+00 0.000D+00 0.000D+00 0.660D+00 0.340D+00
 Gap=    -0.004 Goal=   None    Shift=    0.000
 Gap=     0.244 Goal=   None    Shift=    0.000
 RMSDP=6.51D-03 MaxDP=5.53D-01 DE= 9.21D-02 OVMax= 9.83D-01

 Cycle   7  Pass 1  IDiag  1:
 RMSU=  5.68D-03    CP:  8.86D-01  2.29D+00  1.59D-01  3.13D-01  7.70D-01
                    CP:  8.54D-01
 E= -1608.66005282624     Delta-E=       -0.043883424782 Rises=F Damp=F
 DIIS: error= 1.25D-02 at cycle   7 NSaved=   7.
 NSaved= 7 IEnMin= 5 EnMin= -1608.70830200208     IErMin= 5 ErrMin= 1.03D-02
 ErrMax= 1.25D-02  0.00D+00 EMaxC= 1.00D-01 BMatC= 4.21D-01 BMatP= 2.25D-01
 IDIUse=2 WtCom= 0.00D+00 WtEn= 1.00D+00
 EnCoef did    18 forward-backward iterations
 Coeff-En:   0.000D+00 0.000D+00 0.000D+00 0.000D+00 0.627D+00 0.201D+00
 Coeff-En:   0.172D+00
 Coeff:      0.000D+00 0.000D+00 0.000D+00 0.000D+00 0.627D+00 0.201D+00
 Coeff:      0.172D+00
 Gap=    -0.005 Goal=   None    Shift=    0.000
 Gap=     0.233 Goal=   None    Shift=    0.000
 RMSDP=1.91D-02 MaxDP=2.65D+00 DE=-4.39D-02 OVMax= 9.41D-01

 Cycle   8  Pass 1  IDiag  1:
 RMSU=  1.21D-03    CP:  7.15D-01  3.00D+00 -2.34D-02  8.53D-01  1.07D+00
                    CP:  3.40D-03 -7.25D-02
 E= -1608.72942391255     Delta-E=       -0.069371086306 Rises=F Damp=F
 DIIS: error= 4.96D-03 at cycle   8 NSaved=   8.
 NSaved= 8 IEnMin= 8 EnMin= -1608.72942391255     IErMin= 8 ErrMin= 4.96D-03
 ErrMax= 4.96D-03  0.00D+00 EMaxC= 1.00D-01 BMatC= 8.25D-02 BMatP= 2.25D-01
 IDIUse=3 WtCom= 9.50D-01 WtEn= 4.96D-02
 EnCoef did    37 forward-backward iterations
 Coeff-Com: -0.926D-01 0.115D+00-0.242D-01-0.221D-01 0.370D+00 0.270D+00
 Coeff-Com:  0.183D+00 0.201D+00
 Coeff-En:   0.000D+00 0.000D+00 0.000D+00 0.000D+00 0.216D+00 0.123D+00
 Coeff-En:   0.185D+00 0.475D+00
 Coeff:     -0.880D-01 0.109D+00-0.230D-01-0.210D-01 0.363D+00 0.263D+00
 Coeff:      0.183D+00 0.214D+00
 Gap=     0.011 Goal=   None    Shift=    0.000
 Gap=     0.221 Goal=   None    Shift=    0.000
 RMSDP=3.96D-04 MaxDP=2.13D-02 DE=-6.94D-02 OVMax= 3.15D-02

 Cycle   9  Pass 1  IDiag  1:
 RMSU=  2.46D-04    CP:  7.16D-01  3.00D+00 -2.37D-02  8.55D-01  1.06D+00
                    CP:  1.13D-05 -5.95D-02  7.63D-01
 E= -1608.72837270251     Delta-E=        0.001051210043 Rises=F Damp=F
 DIIS: error= 6.20D-03 at cycle   9 NSaved=   9.
 NSaved= 9 IEnMin= 8 EnMin= -1608.72942391255     IErMin= 8 ErrMin= 4.96D-03
 ErrMax= 6.20D-03  0.00D+00 EMaxC= 1.00D-01 BMatC= 9.29D-02 BMatP= 8.25D-02
 IDIUse=3 WtCom= 9.50D-01 WtEn= 4.96D-02
 EnCoef did   100 forward-backward iterations
 Coeff-Com: -0.893D-01 0.113D+00-0.292D-01-0.174D-01 0.102D+00 0.281D+00
 Coeff-Com:  0.176D+00-0.212D+00 0.676D+00
 Coeff-En:   0.000D+00 0.000D+00 0.000D+00 0.000D+00 0.712D-03 0.140D+00
 Coeff-En:   0.157D+00 0.295D-01 0.673D+00
 Coeff:     -0.849D-01 0.108D+00-0.278D-01-0.165D-01 0.967D-01 0.274D+00
 Coeff:      0.175D+00-0.200D+00 0.676D+00
 Gap=     0.008 Goal=   None    Shift=    0.000
 Gap=     0.222 Goal=   None    Shift=    0.000
 RMSDP=1.13D-04 MaxDP=7.41D-03 DE= 1.05D-03 OVMax= 6.18D-03

 Cycle  10  Pass 1  IDiag  1:
 RMSU=  8.17D-05    CP:  7.16D-01  3.00D+00 -2.34D-02  8.55D-01  1.06D+00
                    CP:  2.07D-04 -5.64D-02  7.59D-01  7.06D-01
 E= -1608.72949560025     Delta-E=       -0.001122897743 Rises=F Damp=F
 DIIS: error= 6.14D-03 at cycle  10 NSaved=  10.
 NSaved=10 IEnMin=10 EnMin= -1608.72949560025     IErMin= 8 ErrMin= 4.96D-03
 ErrMax= 6.14D-03  0.00D+00 EMaxC= 1.00D-01 BMatC= 8.69D-02 BMatP= 8.25D-02
 IDIUse=3 WtCom= 9.50D-01 WtEn= 4.96D-02
 EnCoef did   100 forward-backward iterations
 Coeff-Com: -0.792D-01 0.980D-01-0.286D-01-0.136D-01-0.791D-01 0.262D+00
 Coeff-Com:  0.175D+00-0.501D+00 0.214D+00 0.952D+00
 Coeff-En:   0.000D+00 0.000D+00 0.000D+00 0.000D+00 0.702D-03 0.130D+00
 Coeff-En:   0.162D+00 0.291D-01 0.109D+00 0.569D+00
 Coeff:     -0.752D-01 0.931D-01-0.272D-01-0.129D-01-0.752D-01 0.256D+00
 Coeff:      0.174D+00-0.474D+00 0.208D+00 0.933D+00
 Gap=     0.007 Goal=   None    Shift=    0.000
 Gap=     0.224 Goal=   None    Shift=    0.000
 RMSDP=8.57D-05 MaxDP=4.20D-03 DE=-1.12D-03 OVMax= 4.44D-03

 Cycle  11  Pass 1  IDiag  1:
 RMSU=  5.42D-05    CP:  7.17D-01  3.00D+00 -2.32D-02  8.53D-01  1.07D+00
                    CP:  5.58D-05 -5.44D-02  7.34D-01  7.22D-01  1.43D+00
 E= -1608.73105333710     Delta-E=       -0.001557736853 Rises=F Damp=F
 DIIS: error= 5.84D-03 at cycle  11 NSaved=  11.
 NSaved=11 IEnMin=11 EnMin= -1608.73105333710     IErMin= 8 ErrMin= 4.96D-03
 ErrMax= 5.84D-03  0.00D+00 EMaxC= 1.00D-01 BMatC= 7.83D-02 BMatP= 8.25D-02
 IDIUse=3 WtCom= 9.50D-01 WtEn= 4.96D-02
 EnCoef did   100 forward-backward iterations
 Coeff-Com: -0.588D-01 0.717D-01-0.250D-01-0.781D-02-0.222D+00 0.217D+00
 Coeff-Com:  0.153D+00-0.723D+00-0.871D+00 0.549D+00 0.192D+01
 Coeff-En:   0.000D+00 0.000D+00 0.000D+00 0.000D+00 0.729D-03 0.127D+00
 Coeff-En:   0.156D+00 0.302D-01 0.154D-02 0.765D-01 0.608D+00
 Coeff:     -0.559D-01 0.681D-01-0.238D-01-0.742D-02-0.211D+00 0.213D+00
 Coeff:      0.153D+00-0.685D+00-0.828D+00 0.525D+00 0.185D+01
 Gap=     0.003 Goal=   None    Shift=    0.000
 Gap=     0.229 Goal=   None    Shift=    0.000
 RMSDP=6.92D-04 MaxDP=4.84D-02 DE=-1.56D-03 OVMax= 5.30D-02

 Cycle  12  Pass 1  IDiag  1:
 RMSU=  3.15D-04    CP:  7.18D-01  3.00D+00 -2.23D-02  8.43D-01  1.13D+00
                    CP:  2.70D-03  1.56D-02  4.85D-01  7.86D-01  3.00D+00
                    CP:  3.00D+00
 E= -1608.73554804651     Delta-E=       -0.004494709411 Rises=F Damp=F
 DIIS: error= 4.88D-03 at cycle  12 NSaved=  12.
 NSaved=12 IEnMin=12 EnMin= -1608.73554804651     IErMin=12 ErrMin= 4.88D-03
 ErrMax= 4.88D-03  0.00D+00 EMaxC= 1.00D-01 BMatC= 5.33D-02 BMatP= 7.83D-02
 IDIUse=3 WtCom= 9.51D-01 WtEn= 4.88D-02
 EnCoef did    15 forward-backward iterations
 Coeff-Com: -0.252D-01 0.275D-01-0.170D-01 0.435D-03-0.117D+00 0.123D+00
 Coeff-Com:  0.107D+00-0.398D+00-0.125D+01-0.122D+01 0.224D+01 0.153D+01
 Coeff-En:   0.000D+00 0.000D+00 0.000D+00 0.000D+00 0.000D+00 0.115D+00
 Coeff-En:   0.135D+00 0.000D+00 0.000D+00 0.000D+00 0.000D+00 0.751D+00
 Coeff:     -0.239D-01 0.262D-01-0.162D-01 0.414D-03-0.111D+00 0.123D+00
 Coeff:      0.108D+00-0.379D+00-0.119D+01-0.116D+01 0.213D+01 0.149D+01
 Gap=    -0.005 Goal=   None    Shift=    0.000
 Gap=     0.238 Goal=   None    Shift=    0.000
 RMSDP=2.10D-02 MaxDP=2.86D+00 DE=-4.49D-03 OVMax= 9.94D-01

 Cycle  13  Pass 1  IDiag  1:
 RMSU=  2.18D-03    CP:  9.00D-01  2.35D+00  1.81D-01  2.62D-01  5.67D-01
                    CP:  9.76D-01  5.87D-01  1.10D+00  1.73D+00 -3.00D+00
                    CP: -3.00D+00 -3.00D+00
 E= -1608.62752847493     Delta-E=        0.108019571581 Rises=F Damp=F
 DIIS: error= 1.49D-02 at cycle  13 NSaved=  13.
 NSaved=13 IEnMin=12 EnMin= -1608.73554804651     IErMin=12 ErrMin= 4.88D-03
 ErrMax= 1.49D-02  0.00D+00 EMaxC= 1.00D-01 BMatC= 5.35D-01 BMatP= 5.33D-02
 IDIUse=2 WtCom= 0.00D+00 WtEn= 1.00D+00
 EnCoef did    22 forward-backward iterations
 Coeff-En:   0.000D+00 0.000D+00 0.000D+00 0.000D+00 0.000D+00 0.148D-01
 Coeff-En:   0.000D+00 0.000D+00 0.000D+00 0.000D+00 0.000D+00 0.764D+00
 Coeff-En:   0.221D+00
 Coeff:      0.000D+00 0.000D+00 0.000D+00 0.000D+00 0.000D+00 0.148D-01
 Coeff:      0.000D+00 0.000D+00 0.000D+00 0.000D+00 0.000D+00 0.764D+00
 Coeff:      0.221D+00
 Gap=    -0.002 Goal=   None    Shift=    0.000
 Gap=     0.233 Goal=   None    Shift=    0.000
 RMSDP=4.55D-03 MaxDP=3.19D-01 DE= 1.08D-01 OVMax= 8.34D-01

 Cycle  14  Pass 1  IDiag  1:
 RMSU=  1.90D-03    CP:  9.22D-01  2.35D+00  1.81D-01  2.09D-01  6.00D-01
                    CP:  1.00D+00  1.35D-01  1.55D-01  8.46D-01 -1.06D+00
                    CP: -2.07D+00 -1.83D+00 -2.45D-01
 E= -1608.63321440524     Delta-E=       -0.005685930304 Rises=F Damp=F
 DIIS: error= 1.39D-02 at cycle  14 NSaved=  14.
 NSaved=14 IEnMin=12 EnMin= -1608.73554804651     IErMin=12 ErrMin= 4.88D-03
 ErrMax= 1.39D-02  0.00D+00 EMaxC= 1.00D-01 BMatC= 4.91D-01 BMatP= 5.33D-02
 IDIUse=2 WtCom= 0.00D+00 WtEn= 1.00D+00
 EnCoef did    25 forward-backward iterations
 Coeff-En:   0.000D+00 0.000D+00 0.000D+00 0.000D+00 0.000D+00 0.000D+00
 Coeff-En:   0.000D+00 0.000D+00 0.000D+00 0.000D+00 0.000D+00 0.758D+00
 Coeff-En:   0.150D+00 0.923D-01
 Coeff:      0.000D+00 0.000D+00 0.000D+00 0.000D+00 0.000D+00 0.000D+00
 Coeff:      0.000D+00 0.000D+00 0.000D+00 0.000D+00 0.000D+00 0.758D+00
 Coeff:      0.150D+00 0.923D-01
 Gap=    -0.000 Goal=   None    Shift=    0.000
 Gap=     0.232 Goal=   None    Shift=    0.000
 RMSDP=4.84D-03 MaxDP=2.35D-01 DE=-5.69D-03 OVMax= 8.13D-01

 Cycle  15  Pass 1  IDiag  1:
 RMSU=  7.43D-04    CP:  8.92D-01  2.45D+00  1.71D-01  2.88D-01  7.34D-01
                    CP:  9.29D-01  8.73D-01  2.39D-02  9.36D-01 -2.19D+00
                    CP:  1.21D+00 -1.10D+00  2.93D-01  5.67D-01
 E= -1608.65372783967     Delta-E=       -0.020513434435 Rises=F Damp=F
 DIIS: error= 1.29D-02 at cycle  15 NSaved=  15.
 NSaved=15 IEnMin=12 EnMin= -1608.73554804651     IErMin=12 ErrMin= 4.88D-03
 ErrMax= 1.29D-02  0.00D+00 EMaxC= 1.00D-01 BMatC= 4.09D-01 BMatP= 5.33D-02
 IDIUse=2 WtCom= 0.00D+00 WtEn= 1.00D+00
 EnCoef did   100 forward-backward iterations
 Coeff-En:   0.000D+00 0.000D+00 0.000D+00 0.000D+00 0.000D+00 0.000D+00
 Coeff-En:   0.000D+00 0.000D+00 0.000D+00 0.000D+00 0.000D+00 0.751D+00
 Coeff-En:   0.867D-01 0.688D-01 0.938D-01
 Coeff:      0.000D+00 0.000D+00 0.000D+00 0.000D+00 0.000D+00 0.000D+00
 Coeff:      0.000D+00 0.000D+00 0.000D+00 0.000D+00 0.000D+00 0.751D+00
 Coeff:      0.867D-01 0.688D-01 0.938D-01
 Gap=    -0.000 Goal=   None    Shift=    0.000
 Gap=     0.232 Goal=   None    Shift=    0.000
 RMSDP=5.16D-03 MaxDP=3.33D-01 DE=-2.05D-02 OVMax= 9.46D-01

 Cycle  16  Pass 1  IDiag  1:
 RMSU=  1.57D-03    CP:  9.13D-01  2.40D+00  1.75D-01  2.45D-01  5.87D-01
                    CP:  9.88D-01  1.97D-01  6.68D-01 -2.94D+00  3.00D+00
                    CP: -3.00D+00  7.52D-01  5.87D-01 -4.70D-01 -3.03D-01
 E= -1608.64463448515     Delta-E=        0.009093354521 Rises=F Damp=F
 DIIS: error= 1.40D-02 at cycle  16 NSaved=  16.
 NSaved=16 IEnMin=12 EnMin= -1608.73554804651     IErMin=12 ErrMin= 4.88D-03
 ErrMax= 1.40D-02  0.00D+00 EMaxC= 1.00D-01 BMatC= 4.41D-01 BMatP= 5.33D-02
 IDIUse=2 WtCom= 0.00D+00 WtEn= 1.00D+00
 EnCoef did    25 forward-backward iterations
 Coeff-En:   0.000D+00 0.000D+00 0.000D+00 0.000D+00 0.000D+00 0.000D+00
 Coeff-En:   0.000D+00 0.000D+00 0.000D+00 0.000D+00 0.000D+00 0.739D+00
 Coeff-En:   0.000D+00 0.517D-02 0.179D+00 0.764D-01
 Coeff:      0.000D+00 0.000D+00 0.000D+00 0.000D+00 0.000D+00 0.000D+00
 Coeff:      0.000D+00 0.000D+00 0.000D+00 0.000D+00 0.000D+00 0.739D+00
 Coeff:      0.000D+00 0.517D-02 0.179D+00 0.764D-01
 Gap=    -0.000 Goal=   None    Shift=    0.000
 Gap=     0.232 Goal=   None    Shift=    0.000
 RMSDP=4.40D-03 MaxDP=3.34D-01 DE= 9.09D-03 OVMax= 7.96D-01

 Cycle  17  Pass 1  IDiag  1:
 RMSU=  2.85D-04    CP:  9.19D-01  2.38D+00  1.83D-01  2.13D-01  5.87D-01
                    CP:  1.01D+00  2.23D-01  4.16D-01  8.58D-01 -3.00D+00
                    CP: -3.00D+00 -3.00D+00 -3.10D-01  1.08D+00  1.75D-01
                    CP: -1.61D-01
 E= -1608.63864988233     Delta-E=        0.005984602824 Rises=F Damp=F
 DIIS: error= 1.35D-02 at cycle  17 NSaved=  17.
 NSaved=17 IEnMin=12 EnMin= -1608.73554804651     IErMin=12 ErrMin= 4.88D-03
 ErrMax= 1.35D-02  0.00D+00 EMaxC= 1.00D-01 BMatC= 4.63D-01 BMatP= 5.33D-02
 IDIUse=2 WtCom= 0.00D+00 WtEn= 1.00D+00
 EnCoef did    77 forward-backward iterations
 Coeff-En:   0.000D+00 0.000D+00 0.000D+00 0.000D+00 0.000D+00 0.000D+00
 Coeff-En:   0.000D+00 0.000D+00 0.000D+00 0.000D+00 0.000D+00 0.740D+00
 Coeff-En:   0.000D+00 0.124D-03 0.168D+00 0.718D-01 0.198D-01
 Coeff:      0.000D+00 0.000D+00 0.000D+00 0.000D+00 0.000D+00 0.000D+00
 Coeff:      0.000D+00 0.000D+00 0.000D+00 0.000D+00 0.000D+00 0.740D+00
 Coeff:      0.000D+00 0.124D-03 0.168D+00 0.718D-01 0.198D-01
 Gap=     0.000 Goal=   None    Shift=    0.000
 Gap=     0.232 Goal=   None    Shift=    0.000
 RMSDP=2.46D-03 MaxDP=1.35D-01 DE= 5.98D-03 OVMax= 3.86D-01

 Cycle  18  Pass 1  IDiag  1:
 RMSU=  1.79D-04    CP:  9.08D-01  2.39D+00  1.81D-01  2.41D-01  6.66D-01
                    CP:  9.78D-01  5.99D-01  1.95D-02  2.34D+00 -3.00D+00
                    CP:  6.95D-01 -2.89D+00 -8.15D-02  1.04D+00  7.52D-01
                    CP: -3.38D-01  3.01D-01
 E= -1608.64292260164     Delta-E=       -0.004272719314 Rises=F Damp=F
 DIIS: error= 1.33D-02 at cycle  18 NSaved=  18.
 NSaved=18 IEnMin=12 EnMin= -1608.73554804651     IErMin=12 ErrMin= 4.88D-03
 ErrMax= 1.33D-02  0.00D+00 EMaxC= 1.00D-01 BMatC= 4.49D-01 BMatP= 5.33D-02
 IDIUse=2 WtCom= 0.00D+00 WtEn= 1.00D+00
 Rare condition: small coef for last iteration: -0.133D-14
 Coeff-En:   0.000D+00 0.000D+00 0.000D+00 0.000D+00 0.000D+00 0.135D-03
 Coeff-En:   0.000D+00 0.000D+00 0.000D+00 0.000D+00 0.000D+00 0.740D+00
 Coeff-En:   0.000D+00 0.000D+00 0.253D+00 0.374D-02 0.000D+00 0.302D-02
 Coeff:      0.000D+00 0.000D+00 0.000D+00 0.000D+00 0.000D+00 0.135D-03
 Coeff:      0.000D+00 0.000D+00 0.000D+00 0.000D+00 0.000D+00 0.740D+00
 Coeff:      0.000D+00 0.000D+00 0.253D+00 0.374D-02 0.000D+00 0.302D-02
 Gap=    -0.002 Goal=   None    Shift=    0.000
 Gap=     0.233 Goal=   None    Shift=    0.000
 RMSDP=4.72D-03 MaxDP=3.45D-01 DE=-4.27D-03 OVMax= 8.05D-01

 Cycle  19  Pass 1  IDiag  1:
 RMSU=  1.26D-04    CP:  9.21D-01  2.34D+00  1.78D-01  2.19D-01  5.77D-01
                    CP:  1.00D+00  4.27D-02  3.75D-01 -1.42D+00  3.00D+00
                    CP: -3.00D+00  3.97D-01  3.46D-01 -1.10D-01 -3.60D-01
                    CP:  6.97D-01 -2.81D-02  9.72D-01
 E= -1608.63579490159     Delta-E=        0.007127700051 Rises=F Damp=F
 DIIS: error= 1.45D-02 at cycle  19 NSaved=  19.
 NSaved=19 IEnMin=12 EnMin= -1608.73554804651     IErMin=12 ErrMin= 4.88D-03
 ErrMax= 1.45D-02  0.00D+00 EMaxC= 1.00D-01 BMatC= 4.80D-01 BMatP= 5.33D-02
 IDIUse=2 WtCom= 0.00D+00 WtEn= 1.00D+00
 EnCoef did   100 forward-backward iterations
 Coeff-En:   0.000D+00 0.000D+00 0.000D+00 0.000D+00 0.000D+00 0.000D+00
 Coeff-En:   0.000D+00 0.000D+00 0.000D+00 0.000D+00 0.000D+00 0.740D+00
 Coeff-En:   0.626D-05 0.410D-04 0.168D+00 0.712D-01 0.193D-01 0.535D-03
 Coeff-En:   0.693D-03
 Coeff:      0.000D+00 0.000D+00 0.000D+00 0.000D+00 0.000D+00 0.000D+00
 Coeff:      0.000D+00 0.000D+00 0.000D+00 0.000D+00 0.000D+00 0.740D+00
 Coeff:      0.626D-05 0.410D-04 0.168D+00 0.712D-01 0.193D-01 0.535D-03
 Coeff:      0.693D-03
 Gap=     0.000 Goal=   None    Shift=    0.000
 Gap=     0.232 Goal=   None    Shift=    0.000
 RMSDP=4.71D-03 MaxDP=3.45D-01 DE= 7.13D-03 OVMax= 8.84D-01

 Cycle  20  Pass 1  IDiag  1:
 RMSU=  6.31D-07    CP:  9.08D-01  2.39D+00  1.81D-01  2.41D-01  6.66D-01
                    CP:  9.78D-01  5.95D-01  2.20D-02  2.34D+00 -3.00D+00
                    CP:  6.67D-01 -2.90D+00 -8.44D-02  1.05D+00  7.48D-01
                    CP: -3.39D-01  3.05D-01  1.00D+00 -1.01D-03
 E= -1608.64283524833     Delta-E=       -0.007040346739 Rises=F Damp=F
 DIIS: error= 1.33D-02 at cycle  20 NSaved=  20.
 NSaved=20 IEnMin=12 EnMin= -1608.73554804651     IErMin=12 ErrMin= 4.88D-03
 ErrMax= 1.33D-02  0.00D+00 EMaxC= 1.00D-01 BMatC= 4.49D-01 BMatP= 5.33D-02
 IDIUse=2 WtCom= 0.00D+00 WtEn= 1.00D+00
 EnCoef did     1 forward-backward iterations
 Rare condition: small coef for last iteration:  0.178D-14
 Coeff-En:   0.000D+00 0.000D+00 0.000D+00 0.000D+00 0.000D+00 0.000D+00
 Coeff-En:   0.000D+00 0.000D+00 0.000D+00 0.000D+00 0.000D+00 0.740D+00
 Coeff-En:   0.000D+00 0.000D+00 0.239D+00 0.106D-01 0.000D+00 0.338D-03
 Coeff-En:   0.272D-02 0.663D-02
 Coeff:      0.000D+00 0.000D+00 0.000D+00 0.000D+00 0.000D+00 0.000D+00
 Coeff:      0.000D+00 0.000D+00 0.000D+00 0.000D+00 0.000D+00 0.740D+00
 Coeff:      0.000D+00 0.000D+00 0.239D+00 0.106D-01 0.000D+00 0.338D-03
 Coeff:      0.272D-02 0.663D-02
 Gap=    -0.001 Goal=   None    Shift=    0.000
 Gap=     0.233 Goal=   None    Shift=    0.000
 RMSDP=4.73D-03 MaxDP=3.44D-01 DE=-7.04D-03 OVMax= 8.20D-01

 Cycle  21  Pass 1  IDiag  1:
 Restarting incremental Fock formation.
 E= -1608.63708572898     Delta-E=        0.005749519344 Rises=F Damp=F
 DIIS: error= 1.44D-02 at cycle  21 NSaved=  20.
 NSaved=20 IEnMin=12 EnMin= -1608.73554804651     IErMin=12 ErrMin= 4.88D-03
 ErrMax= 1.44D-02  0.00D+00 EMaxC= 1.00D-01 BMatC= 4.74D-01 BMatP= 5.33D-02
 IDIUse=2 WtCom= 0.00D+00 WtEn= 1.00D+00
 EnCoef did   100 forward-backward iterations
 Coeff-En:   0.000D+00 0.000D+00 0.000D+00 0.000D+00 0.000D+00 0.000D+00
 Coeff-En:   0.000D+00 0.000D+00 0.000D+00 0.000D+00 0.000D+00 0.740D+00
 Coeff-En:   0.261D-03 0.538D-05 0.168D+00 0.712D-01 0.193D-01 0.321D-03
 Coeff-En:   0.478D-03 0.613D-03
 Coeff:      0.000D+00 0.000D+00 0.000D+00 0.000D+00 0.000D+00 0.000D+00
 Coeff:      0.000D+00 0.000D+00 0.000D+00 0.000D+00 0.000D+00 0.740D+00
 Coeff:      0.261D-03 0.538D-05 0.168D+00 0.712D-01 0.193D-01 0.321D-03
 Coeff:      0.478D-03 0.613D-03
 Gap=     0.000 Goal=   None    Shift=    0.000
 Gap=     0.232 Goal=   None    Shift=    0.000
 RMSDP=4.73D-03 MaxDP=3.44D-01 DE= 5.75D-03 OVMax= 8.86D-01

 Cycle  22  Pass 1  IDiag  1:
 RMSU=  4.70D-03    CP:  9.84D-01
 E= -1608.64276102771     Delta-E=       -0.005675298730 Rises=F Damp=F
 DIIS: error= 1.33D-02 at cycle  22 NSaved=  20.
 NSaved=20 IEnMin=12 EnMin= -1608.73554804651     IErMin=12 ErrMin= 4.88D-03
 ErrMax= 1.33D-02  0.00D+00 EMaxC= 1.00D-01 BMatC= 4.50D-01 BMatP= 5.33D-02
 IDIUse=2 WtCom= 0.00D+00 WtEn= 1.00D+00
 EnCoef did     2 forward-backward iterations
 Coeff-En:   0.000D+00 0.000D+00 0.000D+00 0.000D+00 0.000D+00 0.000D+00
 Coeff-En:   0.000D+00 0.000D+00 0.000D+00 0.000D+00 0.000D+00 0.740D+00
 Coeff-En:   0.261D-03 0.538D-05 0.168D+00 0.712D-01 0.194D-01 0.321D-03
 Coeff-En:   0.613D-03 0.478D-03
 Coeff:      0.000D+00 0.000D+00 0.000D+00 0.000D+00 0.000D+00 0.000D+00
 Coeff:      0.000D+00 0.000D+00 0.000D+00 0.000D+00 0.000D+00 0.740D+00
 Coeff:      0.261D-03 0.538D-05 0.168D+00 0.712D-01 0.194D-01 0.321D-03
 Coeff:      0.613D-03 0.478D-03
 Gap=     0.000 Goal=   None    Shift=    0.000
 Gap=     0.232 Goal=   None    Shift=    0.000
 RMSDP=6.52D-05 MaxDP=3.67D-03 DE=-5.68D-03 OVMax= 9.39D-03

 Cycle  23  Pass 1  IDiag  1:
 RMSU=  5.76D-05    CP:  9.84D-01  1.01D+00
 E= -1608.64301608522     Delta-E=       -0.000255057503 Rises=F Damp=F
 DIIS: error= 1.33D-02 at cycle  23 NSaved=  20.
 NSaved=20 IEnMin=11 EnMin= -1608.73554804651     IErMin=11 ErrMin= 4.88D-03
 ErrMax= 1.33D-02  0.00D+00 EMaxC= 1.00D-01 BMatC= 4.49D-01 BMatP= 5.33D-02
 IDIUse=2 WtCom= 0.00D+00 WtEn= 1.00D+00
 Rare condition: small coef for last iteration:  0.111D-15
 Coeff-En:   0.000D+00 0.000D+00 0.000D+00 0.000D+00 0.000D+00 0.000D+00
 Coeff-En:   0.000D+00 0.000D+00 0.000D+00 0.000D+00 0.740D+00 0.000D+00
 Coeff-En:   0.000D+00 0.239D+00 0.104D-01 0.000D+00 0.000D+00 0.337D-02
 Coeff-En:   0.000D+00 0.717D-02
 Coeff:      0.000D+00 0.000D+00 0.000D+00 0.000D+00 0.000D+00 0.000D+00
 Coeff:      0.000D+00 0.000D+00 0.000D+00 0.000D+00 0.740D+00 0.000D+00
 Coeff:      0.000D+00 0.239D+00 0.104D-01 0.000D+00 0.000D+00 0.337D-02
 Coeff:      0.000D+00 0.717D-02
 Gap=    -0.001 Goal=   None    Shift=    0.000
 Gap=     0.233 Goal=   None    Shift=    0.000
 RMSDP=4.75D-03 MaxDP=3.44D-01 DE=-2.55D-04 OVMax= 8.21D-01

 Cycle  24  Pass 1  IDiag  1:
 RMSU=  3.97D-06    CP:  1.00D+00 -4.13D-04  6.15D-02
 E= -1608.63714457362     Delta-E=        0.005871511595 Rises=F Damp=F
 DIIS: error= 1.44D-02 at cycle  24 NSaved=  20.
 NSaved=20 IEnMin=11 EnMin= -1608.73554804651     IErMin=11 ErrMin= 4.88D-03
 ErrMax= 1.44D-02  0.00D+00 EMaxC= 1.00D-01 BMatC= 4.73D-01 BMatP= 5.33D-02
 IDIUse=2 WtCom= 0.00D+00 WtEn= 1.00D+00
 EnCoef did    98 forward-backward iterations
 Coeff-En:   0.000D+00 0.000D+00 0.000D+00 0.000D+00 0.000D+00 0.000D+00
 Coeff-En:   0.000D+00 0.000D+00 0.000D+00 0.000D+00 0.740D+00 0.286D-03
 Coeff-En:   0.508D-04 0.168D+00 0.712D-01 0.199D-01 0.000D+00 0.139D-03
 Coeff-En:   0.787D-06 0.412D-03
 Coeff:      0.000D+00 0.000D+00 0.000D+00 0.000D+00 0.000D+00 0.000D+00
 Coeff:      0.000D+00 0.000D+00 0.000D+00 0.000D+00 0.740D+00 0.286D-03
 Coeff:      0.508D-04 0.168D+00 0.712D-01 0.199D-01 0.000D+00 0.139D-03
 Coeff:      0.787D-06 0.412D-03
 Gap=     0.000 Goal=   None    Shift=    0.000
 Gap=     0.232 Goal=   None    Shift=    0.000
 RMSDP=4.77D-03 MaxDP=3.44D-01 DE= 5.87D-03 OVMax= 8.91D-01

 Cycle  25  Pass 1  IDiag  1:
 RMSU=  2.50D-06    CP:  9.83D-01  1.01D+00  1.71D+00 -4.66D-01
 E= -1608.64320772877     Delta-E=       -0.006063155150 Rises=F Damp=F
 DIIS: error= 1.34D-02 at cycle  25 NSaved=  20.
 NSaved=20 IEnMin=10 EnMin= -1608.73554804651     IErMin=10 ErrMin= 4.88D-03
 ErrMax= 1.34D-02  0.00D+00 EMaxC= 1.00D-01 BMatC= 4.48D-01 BMatP= 5.33D-02
 IDIUse=2 WtCom= 0.00D+00 WtEn= 1.00D+00
 Rare condition: small coef for last iteration:  0.555D-15
 Coeff-En:   0.000D+00 0.000D+00 0.000D+00 0.000D+00 0.000D+00 0.000D+00
 Coeff-En:   0.000D+00 0.000D+00 0.000D+00 0.740D+00 0.000D+00 0.000D+00
 Coeff-En:   0.240D+00 0.963D-02 0.000D+00 0.000D+00 0.000D+00 0.000D+00
 Coeff-En:   0.324D-02 0.698D-02
 Coeff:      0.000D+00 0.000D+00 0.000D+00 0.000D+00 0.000D+00 0.000D+00
 Coeff:      0.000D+00 0.000D+00 0.000D+00 0.740D+00 0.000D+00 0.000D+00
 Coeff:      0.240D+00 0.963D-02 0.000D+00 0.000D+00 0.000D+00 0.000D+00
 Coeff:      0.324D-02 0.698D-02
 Gap=    -0.001 Goal=   None    Shift=    0.000
 Gap=     0.233 Goal=   None    Shift=    0.000
 RMSDP=4.77D-03 MaxDP=3.44D-01 DE=-6.06D-03 OVMax= 8.21D-01

 Cycle  26  Pass 1  IDiag  1:
 RMSU=  3.94D-06    CP:  1.00D+00  2.62D-04  5.10D-02 -1.78D+00 -2.27D+00
 E= -1608.63700017349     Delta-E=        0.006207555284 Rises=F Damp=F
 DIIS: error= 1.44D-02 at cycle  26 NSaved=  20.
 NSaved=20 IEnMin=10 EnMin= -1608.73554804651     IErMin=10 ErrMin= 4.88D-03
 ErrMax= 1.44D-02  0.00D+00 EMaxC= 1.00D-01 BMatC= 4.74D-01 BMatP= 5.33D-02
 IDIUse=2 WtCom= 0.00D+00 WtEn= 1.00D+00
 EnCoef did   100 forward-backward iterations
 Coeff-En:   0.000D+00 0.000D+00 0.000D+00 0.000D+00 0.000D+00 0.000D+00
 Coeff-En:   0.000D+00 0.000D+00 0.000D+00 0.740D+00 0.755D-04 0.283D-04
 Coeff-En:   0.168D+00 0.715D-01 0.196D-01 0.000D+00 0.250D-03 0.000D+00
 Coeff-En:   0.308D-03 0.128D-03
 Coeff:      0.000D+00 0.000D+00 0.000D+00 0.000D+00 0.000D+00 0.000D+00
 Coeff:      0.000D+00 0.000D+00 0.000D+00 0.740D+00 0.755D-04 0.283D-04
 Coeff:      0.168D+00 0.715D-01 0.196D-01 0.000D+00 0.250D-03 0.000D+00
 Coeff:      0.308D-03 0.128D-03
 Gap=     0.000 Goal=   None    Shift=    0.000
 Gap=     0.232 Goal=   None    Shift=    0.000
 RMSDP=4.73D-03 MaxDP=3.44D-01 DE= 6.21D-03 OVMax= 8.87D-01

 Cycle  27  Pass 1  IDiag  1:
 RMSU=  1.61D-07    CP:  9.84D-01  1.00D+00  2.24D-01  2.44D-02 -6.77D-02
                    CP:  2.06D-02
 E= -1608.64281682834     Delta-E=       -0.005816654855 Rises=F Damp=F
 DIIS: error= 1.33D-02 at cycle  27 NSaved=  20.
 NSaved=20 IEnMin=10 EnMin= -1608.73554804651     IErMin=10 ErrMin= 4.88D-03
 ErrMax= 1.33D-02  0.00D+00 EMaxC= 1.00D-01 BMatC= 4.49D-01 BMatP= 5.33D-02
 IDIUse=2 WtCom= 0.00D+00 WtEn= 1.00D+00
 EnCoef did     1 forward-backward iterations
 Coeff-En:   0.000D+00 0.000D+00 0.000D+00 0.000D+00 0.000D+00 0.000D+00
 Coeff-En:   0.000D+00 0.000D+00 0.000D+00 0.740D+00 0.755D-04 0.283D-04
 Coeff-En:   0.168D+00 0.715D-01 0.197D-01 0.000D+00 0.250D-03 0.000D+00
 Coeff-En:   0.128D-03 0.308D-03
 Coeff:      0.000D+00 0.000D+00 0.000D+00 0.000D+00 0.000D+00 0.000D+00
 Coeff:      0.000D+00 0.000D+00 0.000D+00 0.740D+00 0.755D-04 0.283D-04
 Coeff:      0.168D+00 0.715D-01 0.197D-01 0.000D+00 0.250D-03 0.000D+00
 Coeff:      0.128D-03 0.308D-03
 Gap=     0.000 Goal=   None    Shift=    0.000
 Gap=     0.232 Goal=   None    Shift=    0.000
 RMSDP=3.52D-05 MaxDP=1.98D-03 DE=-5.82D-03 OVMax= 5.07D-03

 Cycle  28  Pass 1  IDiag  1:
 RMSU=  8.17D-10    CP:  9.84D-01  1.00D+00  7.63D-01  2.56D-02 -7.04D-02
                    CP:  2.08D-02  9.98D-01
 E= -1608.64295444653     Delta-E=       -0.000137618183 Rises=F Damp=F
 DIIS: error= 1.33D-02 at cycle  28 NSaved=  20.
 NSaved=20 IEnMin= 9 EnMin= -1608.73554804651     IErMin= 9 ErrMin= 4.88D-03
 ErrMax= 1.33D-02  0.00D+00 EMaxC= 1.00D-01 BMatC= 4.49D-01 BMatP= 5.33D-02
 IDIUse=2 WtCom= 0.00D+00 WtEn= 1.00D+00
 Rare condition: small coef for last iteration:  0.000D+00
 Coeff-En:   0.000D+00 0.000D+00 0.000D+00 0.000D+00 0.000D+00 0.000D+00
 Coeff-En:   0.000D+00 0.000D+00 0.740D+00 0.000D+00 0.000D+00 0.238D+00
 Coeff-En:   0.107D-01 0.000D+00 0.000D+00 0.146D-03 0.219D-03 0.329D-02
 Coeff-En:   0.000D+00 0.702D-02
 Coeff:      0.000D+00 0.000D+00 0.000D+00 0.000D+00 0.000D+00 0.000D+00
 Coeff:      0.000D+00 0.000D+00 0.740D+00 0.000D+00 0.000D+00 0.238D+00
 Coeff:      0.107D-01 0.000D+00 0.000D+00 0.146D-03 0.219D-03 0.329D-02
 Coeff:      0.000D+00 0.702D-02
 Gap=    -0.001 Goal=   None    Shift=    0.000
 Gap=     0.233 Goal=   None    Shift=    0.000
 RMSDP=4.75D-03 MaxDP=3.44D-01 DE=-1.38D-04 OVMax= 8.21D-01

 Cycle  29  Pass 1  IDiag  1:
 RMSU=  1.15D-08    CP:  1.00D+00 -6.93D-04  6.03D-02  2.22D+00  1.07D+00
                    CP: -4.75D-01 -3.02D-02 -3.00D+00
 E= -1608.63720712554     Delta-E=        0.005747320983 Rises=F Damp=F
 DIIS: error= 1.44D-02 at cycle  29 NSaved=  20.
 NSaved=20 IEnMin= 9 EnMin= -1608.73554804651     IErMin= 9 ErrMin= 4.88D-03
 ErrMax= 1.44D-02  0.00D+00 EMaxC= 1.00D-01 BMatC= 4.73D-01 BMatP= 5.33D-02
 IDIUse=2 WtCom= 0.00D+00 WtEn= 1.00D+00
 EnCoef did   100 forward-backward iterations
 Coeff-En:   0.000D+00 0.000D+00 0.000D+00 0.000D+00 0.000D+00 0.000D+00
 Coeff-En:   0.000D+00 0.000D+00 0.740D+00 0.262D-03 0.130D-03 0.168D+00
 Coeff-En:   0.710D-01 0.193D-01 0.000D+00 0.236D-03 0.140D-03 0.605D-03
 Coeff-En:   0.411D-03 0.134D-04
 Coeff:      0.000D+00 0.000D+00 0.000D+00 0.000D+00 0.000D+00 0.000D+00
 Coeff:      0.000D+00 0.000D+00 0.740D+00 0.262D-03 0.130D-03 0.168D+00
 Coeff:      0.710D-01 0.193D-01 0.000D+00 0.236D-03 0.140D-03 0.605D-03
 Coeff:      0.411D-03 0.134D-04
 Gap=     0.000 Goal=   None    Shift=    0.000
 Gap=     0.232 Goal=   None    Shift=    0.000
 RMSDP=4.75D-03 MaxDP=3.44D-01 DE= 5.75D-03 OVMax= 8.88D-01

 Cycle  30  Pass 1  IDiag  1:
 RMSU=  8.72D-08    CP:  9.84D-01  1.00D+00  7.08D-01 -4.44D-01  7.53D-01
                    CP:  3.44D-02  2.91D-01  3.00D+00 -3.00D+00
 E= -1608.64294784146     Delta-E=       -0.005740715915 Rises=F Damp=F
 DIIS: error= 1.33D-02 at cycle  30 NSaved=  20.
 NSaved=20 IEnMin= 9 EnMin= -1608.73554804651     IErMin= 9 ErrMin= 4.88D-03
 ErrMax= 1.33D-02  0.00D+00 EMaxC= 1.00D-01 BMatC= 4.49D-01 BMatP= 5.33D-02
 IDIUse=2 WtCom= 0.00D+00 WtEn= 1.00D+00
 Coeff-En:   0.000D+00 0.000D+00 0.000D+00 0.000D+00 0.000D+00 0.000D+00
 Coeff-En:   0.000D+00 0.000D+00 0.740D+00 0.262D-03 0.130D-03 0.168D+00
 Coeff-En:   0.710D-01 0.193D-01 0.000D+00 0.236D-03 0.140D-03 0.605D-03
 Coeff-En:   0.134D-04 0.411D-03
 Coeff:      0.000D+00 0.000D+00 0.000D+00 0.000D+00 0.000D+00 0.000D+00
 Coeff:      0.000D+00 0.000D+00 0.740D+00 0.262D-03 0.130D-03 0.168D+00
 Coeff:      0.710D-01 0.193D-01 0.000D+00 0.236D-03 0.140D-03 0.605D-03
 Coeff:      0.134D-04 0.411D-03
 Gap=     0.000 Goal=   None    Shift=    0.000
 Gap=     0.232 Goal=   None    Shift=    0.000
 RMSDP=3.02D-07 MaxDP=1.67D-05 DE=-5.74D-03 OVMax= 4.44D-05

 Cycle  31  Pass 1  IDiag  1:
 RMSU=  3.57D-10    CP:  9.84D-01  1.00D+00  7.13D-01 -4.43D-01  7.51D-01
                    CP:  3.43D-02  2.92D-01  3.00D+00 -3.00D+00  9.96D-01
 E= -1608.64294900948     Delta-E=       -0.000001168018 Rises=F Damp=F
 DIIS: error= 1.33D-02 at cycle  31 NSaved=  20.
 NSaved=20 IEnMin= 8 EnMin= -1608.73554804651     IErMin= 8 ErrMin= 4.88D-03
 ErrMax= 1.33D-02  0.00D+00 EMaxC= 1.00D-01 BMatC= 4.49D-01 BMatP= 5.33D-02
 IDIUse=2 WtCom= 0.00D+00 WtEn= 1.00D+00
 Rare condition: small coef for last iteration:  0.000D+00
 Coeff-En:   0.000D+00 0.000D+00 0.000D+00 0.000D+00 0.000D+00 0.000D+00
 Coeff-En:   0.000D+00 0.740D+00 0.000D+00 0.000D+00 0.239D+00 0.105D-01
 Coeff-En:   0.000D+00 0.000D+00 0.429D-04 0.239D-03 0.000D+00 0.336D-02
 Coeff-En:   0.000D+00 0.699D-02
 Coeff:      0.000D+00 0.000D+00 0.000D+00 0.000D+00 0.000D+00 0.000D+00
 Coeff:      0.000D+00 0.740D+00 0.000D+00 0.000D+00 0.239D+00 0.105D-01
 Coeff:      0.000D+00 0.000D+00 0.429D-04 0.239D-03 0.000D+00 0.336D-02
 Coeff:      0.000D+00 0.699D-02
 Gap=    -0.001 Goal=   None    Shift=    0.000
 Gap=     0.233 Goal=   None    Shift=    0.000
 RMSDP=4.75D-03 MaxDP=3.44D-01 DE=-1.17D-06 OVMax= 8.20D-01

 Cycle  32  Pass 1  IDiag  1:
 RMSU=  4.88D-09    CP:  1.00D+00 -5.71D-04  7.17D-02  1.55D+00  3.33D-01
                    CP: -1.56D-01  6.99D-03 -1.88D+00  3.93D-01 -6.35D-02
                    CP: -2.74D+00
 E= -1608.63717348753     Delta-E=        0.005775521949 Rises=F Damp=F
 DIIS: error= 1.44D-02 at cycle  32 NSaved=  20.
 NSaved=20 IEnMin= 8 EnMin= -1608.73554804651     IErMin= 8 ErrMin= 4.88D-03
 ErrMax= 1.44D-02  0.00D+00 EMaxC= 1.00D-01 BMatC= 4.73D-01 BMatP= 5.33D-02
 IDIUse=2 WtCom= 0.00D+00 WtEn= 1.00D+00
 EnCoef did   100 forward-backward iterations
 Coeff-En:   0.000D+00 0.000D+00 0.000D+00 0.000D+00 0.000D+00 0.000D+00
 Coeff-En:   0.000D+00 0.740D+00 0.274D-03 0.494D-04 0.168D+00 0.712D-01
 Coeff-En:   0.193D-01 0.000D+00 0.627D-04 0.287D-03 0.000D+00 0.223D-03
 Coeff-En:   0.441D-03 0.345D-03
 Coeff:      0.000D+00 0.000D+00 0.000D+00 0.000D+00 0.000D+00 0.000D+00
 Coeff:      0.000D+00 0.740D+00 0.274D-03 0.494D-04 0.168D+00 0.712D-01
 Coeff:      0.193D-01 0.000D+00 0.627D-04 0.287D-03 0.000D+00 0.223D-03
 Coeff:      0.441D-03 0.345D-03
 Gap=     0.000 Goal=   None    Shift=    0.000
 Gap=     0.232 Goal=   None    Shift=    0.000
 RMSDP=4.73D-03 MaxDP=3.44D-01 DE= 5.78D-03 OVMax= 8.86D-01

 Cycle  33  Pass 1  IDiag  1:
 RMSU=  9.64D-09    CP:  9.84D-01  1.00D+00 -7.97D-03 -4.20D-02  7.33D-02
                    CP:  3.12D-03  1.06D-01 -3.00D+00  1.37D-01  1.11D-01
                    CP:  3.00D+00  8.48D-01
 E= -1608.64275956971     Delta-E=       -0.005586082179 Rises=F Damp=F
 DIIS: error= 1.33D-02 at cycle  33 NSaved=  20.
 NSaved=20 IEnMin= 8 EnMin= -1608.73554804651     IErMin= 8 ErrMin= 4.88D-03
 ErrMax= 1.33D-02  0.00D+00 EMaxC= 1.00D-01 BMatC= 4.50D-01 BMatP= 5.33D-02
 IDIUse=2 WtCom= 0.00D+00 WtEn= 1.00D+00
 EnCoef did     2 forward-backward iterations
 Coeff-En:   0.000D+00 0.000D+00 0.000D+00 0.000D+00 0.000D+00 0.000D+00
 Coeff-En:   0.000D+00 0.740D+00 0.274D-03 0.494D-04 0.168D+00 0.712D-01
 Coeff-En:   0.194D-01 0.000D+00 0.627D-04 0.287D-03 0.000D+00 0.223D-03
 Coeff-En:   0.345D-03 0.441D-03
 Coeff:      0.000D+00 0.000D+00 0.000D+00 0.000D+00 0.000D+00 0.000D+00
 Coeff:      0.000D+00 0.740D+00 0.274D-03 0.494D-04 0.168D+00 0.712D-01
 Coeff:      0.194D-01 0.000D+00 0.627D-04 0.287D-03 0.000D+00 0.223D-03
 Coeff:      0.345D-03 0.441D-03
 Gap=     0.000 Goal=   None    Shift=    0.000
 Gap=     0.232 Goal=   None    Shift=    0.000
 RMSDP=6.61D-05 MaxDP=3.73D-03 DE=-5.59D-03 OVMax= 9.52D-03

 Cycle  34  Pass 1  IDiag  1:
 RMSU=  5.09D-10    CP:  9.84D-01  1.01D+00  1.01D+00 -4.28D-02  7.51D-02
                    CP:  2.96D-03  1.02D-01 -3.00D+00  2.01D-01  1.05D-01
                    CP:  3.00D+00  9.11D-01  1.02D+00
 E= -1608.64301820614     Delta-E=       -0.000258636435 Rises=F Damp=F
 DIIS: error= 1.33D-02 at cycle  34 NSaved=  20.
 NSaved=20 IEnMin= 7 EnMin= -1608.73554804651     IErMin= 7 ErrMin= 4.88D-03
 ErrMax= 1.33D-02  0.00D+00 EMaxC= 1.00D-01 BMatC= 4.49D-01 BMatP= 5.33D-02
 IDIUse=2 WtCom= 0.00D+00 WtEn= 1.00D+00
 Rare condition: small coef for last iteration:  0.000D+00
 Coeff-En:   0.000D+00 0.000D+00 0.000D+00 0.000D+00 0.000D+00 0.000D+00
 Coeff-En:   0.740D+00 0.000D+00 0.000D+00 0.239D+00 0.104D-01 0.000D+00
 Coeff-En:   0.000D+00 0.000D+00 0.303D-04 0.000D+00 0.178D-04 0.341D-02
 Coeff-En:   0.000D+00 0.716D-02
 Coeff:      0.000D+00 0.000D+00 0.000D+00 0.000D+00 0.000D+00 0.000D+00
 Coeff:      0.740D+00 0.000D+00 0.000D+00 0.239D+00 0.104D-01 0.000D+00
 Coeff:      0.000D+00 0.000D+00 0.303D-04 0.000D+00 0.178D-04 0.341D-02
 Coeff:      0.000D+00 0.716D-02
 Gap=    -0.001 Goal=   None    Shift=    0.000
 Gap=     0.233 Goal=   None    Shift=    0.000
 RMSDP=4.75D-03 MaxDP=3.44D-01 DE=-2.59D-04 OVMax= 8.21D-01

 Cycle  35  Pass 1  IDiag  1:
 RMSU=  6.03D-10    CP:  1.00D+00 -4.54D-04  6.56D-02  1.12D+00  4.67D-02
                    CP: -2.16D-02 -7.44D-03 -1.28D-01  2.58D-02 -1.80D-03
                    CP: -1.21D+00  3.64D-02 -6.97D-02 -8.14D-01
 E= -1608.63715126144     Delta-E=        0.005866944698 Rises=F Damp=F
 DIIS: error= 1.44D-02 at cycle  35 NSaved=  20.
 NSaved=20 IEnMin= 7 EnMin= -1608.73554804651     IErMin= 7 ErrMin= 4.88D-03
 ErrMax= 1.44D-02  0.00D+00 EMaxC= 1.00D-01 BMatC= 4.73D-01 BMatP= 5.33D-02
 IDIUse=2 WtCom= 0.00D+00 WtEn= 1.00D+00
 EnCoef did    99 forward-backward iterations
 Coeff-En:   0.000D+00 0.000D+00 0.000D+00 0.000D+00 0.000D+00 0.000D+00
 Coeff-En:   0.740D+00 0.285D-03 0.313D-04 0.168D+00 0.714D-01 0.199D-01
 Coeff-En:   0.000D+00 0.000D+00 0.316D-04 0.000D+00 0.186D-04 0.144D-03
 Coeff-En:   0.907D-04 0.151D-03
 Coeff:      0.000D+00 0.000D+00 0.000D+00 0.000D+00 0.000D+00 0.000D+00
 Coeff:      0.740D+00 0.285D-03 0.313D-04 0.168D+00 0.714D-01 0.199D-01
 Coeff:      0.000D+00 0.000D+00 0.316D-04 0.000D+00 0.186D-04 0.144D-03
 Coeff:      0.907D-04 0.151D-03
 Gap=     0.000 Goal=   None    Shift=    0.000
 Gap=     0.232 Goal=   None    Shift=    0.000
 RMSDP=4.75D-03 MaxDP=3.44D-01 DE= 5.87D-03 OVMax= 8.89D-01

 Cycle  36  Pass 1  IDiag  1:
 RMSU=  2.85D-08    CP:  9.84D-01  1.00D+00  7.76D-01 -2.19D-01  3.61D-01
                    CP:  2.02D-02  2.93D-01  3.00D+00 -3.00D+00  1.52D-01
                    CP: -3.00D+00 -2.65D-01 -3.98D-01 -3.00D+00  3.00D+00
 E= -1608.64296088121     Delta-E=       -0.005809619769 Rises=F Damp=F
 DIIS: error= 1.33D-02 at cycle  36 NSaved=  20.
 NSaved=20 IEnMin= 7 EnMin= -1608.73554804651     IErMin= 7 ErrMin= 4.88D-03
 ErrMax= 1.33D-02  0.00D+00 EMaxC= 1.00D-01 BMatC= 4.49D-01 BMatP= 5.33D-02
 IDIUse=2 WtCom= 0.00D+00 WtEn= 1.00D+00
 Rare condition: small coef for last iteration:  0.666D-15
 Coeff-En:   0.000D+00 0.000D+00 0.000D+00 0.000D+00 0.000D+00 0.000D+00
 Coeff-En:   0.740D+00 0.000D+00 0.000D+00 0.239D+00 0.105D-01 0.000D+00
 Coeff-En:   0.000D+00 0.487D-04 0.251D-03 0.175D-04 0.105D-03 0.196D-03
 Coeff-En:   0.323D-02 0.677D-02
 Coeff:      0.000D+00 0.000D+00 0.000D+00 0.000D+00 0.000D+00 0.000D+00
 Coeff:      0.740D+00 0.000D+00 0.000D+00 0.239D+00 0.105D-01 0.000D+00
 Coeff:      0.000D+00 0.487D-04 0.251D-03 0.175D-04 0.105D-03 0.196D-03
 Coeff:      0.323D-02 0.677D-02
 Gap=    -0.001 Goal=   None    Shift=    0.000
 Gap=     0.233 Goal=   None    Shift=    0.000
 RMSDP=4.75D-03 MaxDP=3.44D-01 DE=-5.81D-03 OVMax= 8.21D-01

 Cycle  37  Pass 1  IDiag  1:
 RMSU=  5.66D-10    CP:  1.00D+00 -5.48D-04  6.68D-02  1.51D+00  3.69D-01
                    CP: -1.69D-01  1.17D-03 -2.78D+00  3.24D-01 -3.59D-02
                    CP: -2.08D+00  6.27D-01 -2.95D-03 -6.10D-02  5.58D-01
                    CP:  7.64D-03
 E= -1608.63717117475     Delta-E=        0.005789706463 Rises=F Damp=F
 DIIS: error= 1.44D-02 at cycle  37 NSaved=  20.
 NSaved=20 IEnMin= 7 EnMin= -1608.73554804651     IErMin= 7 ErrMin= 4.88D-03
 ErrMax= 1.44D-02  0.00D+00 EMaxC= 1.00D-01 BMatC= 4.73D-01 BMatP= 5.33D-02
 IDIUse=2 WtCom= 0.00D+00 WtEn= 1.00D+00
 EnCoef did   100 forward-backward iterations
 Coeff-En:   0.000D+00 0.000D+00 0.000D+00 0.000D+00 0.000D+00 0.000D+00
 Coeff-En:   0.740D+00 0.277D-03 0.716D-04 0.168D+00 0.712D-01 0.193D-01
 Coeff-En:   0.000D+00 0.508D-04 0.262D-03 0.182D-04 0.311D-03 0.204D-03
 Coeff-En:   0.236D-03 0.237D-03
 Coeff:      0.000D+00 0.000D+00 0.000D+00 0.000D+00 0.000D+00 0.000D+00
 Coeff:      0.740D+00 0.277D-03 0.716D-04 0.168D+00 0.712D-01 0.193D-01
 Coeff:      0.000D+00 0.508D-04 0.262D-03 0.182D-04 0.311D-03 0.204D-03
 Coeff:      0.236D-03 0.237D-03
 Gap=     0.000 Goal=   None    Shift=    0.000
 Gap=     0.232 Goal=   None    Shift=    0.000
 RMSDP=4.73D-03 MaxDP=3.44D-01 DE= 5.79D-03 OVMax= 8.86D-01

 Cycle  38  Pass 1  IDiag  1:
 RMSU=  8.27D-10    CP:  9.84D-01  1.00D+00 -8.38D-03 -4.98D-02  8.62D-02
                    CP:  4.04D-03  1.68D-01 -3.00D+00  3.40D-01  1.25D-01
                    CP:  3.00D+00  1.29D+00  1.58D+00  5.84D-01 -2.12D+00
                    CP: -2.32D-02 -1.43D+00
 E= -1608.64275954044     Delta-E=       -0.005588365694 Rises=F Damp=F
 DIIS: error= 1.33D-02 at cycle  38 NSaved=  20.
 NSaved=20 IEnMin= 7 EnMin= -1608.73554804651     IErMin= 7 ErrMin= 4.88D-03
 ErrMax= 1.33D-02  0.00D+00 EMaxC= 1.00D-01 BMatC= 4.50D-01 BMatP= 5.33D-02
 IDIUse=2 WtCom= 0.00D+00 WtEn= 1.00D+00
 EnCoef did     2 forward-backward iterations
 Coeff-En:   0.000D+00 0.000D+00 0.000D+00 0.000D+00 0.000D+00 0.000D+00
 Coeff-En:   0.740D+00 0.277D-03 0.716D-04 0.168D+00 0.712D-01 0.194D-01
 Coeff-En:   0.000D+00 0.508D-04 0.262D-03 0.182D-04 0.311D-03 0.204D-03
 Coeff-En:   0.237D-03 0.236D-03
 Coeff:      0.000D+00 0.000D+00 0.000D+00 0.000D+00 0.000D+00 0.000D+00
 Coeff:      0.740D+00 0.277D-03 0.716D-04 0.168D+00 0.712D-01 0.194D-01
 Coeff:      0.000D+00 0.508D-04 0.262D-03 0.182D-04 0.311D-03 0.204D-03
 Coeff:      0.237D-03 0.236D-03
 Gap=     0.000 Goal=   None    Shift=    0.000
 Gap=     0.232 Goal=   None    Shift=    0.000
 RMSDP=6.54D-05 MaxDP=3.68D-03 DE=-5.59D-03 OVMax= 9.41D-03

 Cycle  39  Pass 1  IDiag  1:
 RMSU=  5.41D-11    CP:  9.84D-01  1.01D+00  9.94D-01 -5.11D-02  8.71D-02
                    CP:  4.21D-03  1.65D-01 -3.00D+00  3.48D-01  1.23D-01
                    CP:  3.00D+00  1.30D+00  1.58D+00  9.17D-01 -2.05D+00
                    CP: -2.31D-02 -1.45D+00  1.01D+00
 E= -1608.64301515736     Delta-E=       -0.000255616920 Rises=F Damp=F
 DIIS: error= 1.33D-02 at cycle  39 NSaved=  20.
 NSaved=20 IEnMin= 7 EnMin= -1608.73554804651     IErMin= 7 ErrMin= 4.88D-03
 ErrMax= 1.33D-02  0.00D+00 EMaxC= 1.00D-01 BMatC= 4.49D-01 BMatP= 5.33D-02
 IDIUse=2 WtCom= 0.00D+00 WtEn= 1.00D+00
 Rare condition: small coef for last iteration:  0.000D+00
 Coeff-En:   0.000D+00 0.000D+00 0.000D+00 0.000D+00 0.000D+00 0.000D+00
 Coeff-En:   0.740D+00 0.000D+00 0.000D+00 0.239D+00 0.104D-01 0.000D+00
 Coeff-En:   0.000D+00 0.445D-04 0.178D-04 0.680D-05 0.108D-04 0.339D-02
 Coeff-En:   0.000D+00 0.713D-02
 Coeff:      0.000D+00 0.000D+00 0.000D+00 0.000D+00 0.000D+00 0.000D+00
 Coeff:      0.740D+00 0.000D+00 0.000D+00 0.239D+00 0.104D-01 0.000D+00
 Coeff:      0.000D+00 0.445D-04 0.178D-04 0.680D-05 0.108D-04 0.339D-02
 Coeff:      0.000D+00 0.713D-02
 Gap=    -0.001 Goal=   None    Shift=    0.000
 Gap=     0.233 Goal=   None    Shift=    0.000
 RMSDP=4.75D-03 MaxDP=3.44D-01 DE=-2.56D-04 OVMax= 8.21D-01

 Cycle  40  Pass 1  IDiag  1:
 RMSU=  3.04D-11    CP:  1.00D+00 -4.52D-04  6.56D-02  1.12D+00  4.23D-02
                    CP: -2.00D-02 -6.75D-03 -1.40D-02  3.06D-02 -4.59D-03
                    CP: -1.29D+00  7.57D-02 -7.01D-02 -8.52D-01  9.52D-01
                    CP: -7.08D-04 -1.19D-01 -5.64D-03  1.62D-01
 E= -1608.63715093293     Delta-E=        0.005864224438 Rises=F Damp=F
 DIIS: error= 1.44D-02 at cycle  40 NSaved=  20.
 NSaved=20 IEnMin= 7 EnMin= -1608.73554804651     IErMin= 7 ErrMin= 4.88D-03
 ErrMax= 1.44D-02  0.00D+00 EMaxC= 1.00D-01 BMatC= 4.73D-01 BMatP= 5.33D-02
 IDIUse=2 WtCom= 0.00D+00 WtEn= 1.00D+00
 EnCoef did   100 forward-backward iterations
 Rare condition: small coef for last iteration:  0.187D-05
 Coeff-En:   0.000D+00 0.000D+00 0.000D+00 0.000D+00 0.000D+00 0.000D+00
 Coeff-En:   0.740D+00 0.000D+00 0.000D+00 0.239D+00 0.104D-01 0.000D+00
 Coeff-En:   0.000D+00 0.678D-04 0.177D-04 0.179D-04 0.343D-04 0.112D-04
 Coeff-En:   0.708D-02 0.336D-02
 Coeff:      0.000D+00 0.000D+00 0.000D+00 0.000D+00 0.000D+00 0.000D+00
 Coeff:      0.740D+00 0.000D+00 0.000D+00 0.239D+00 0.104D-01 0.000D+00
 Coeff:      0.000D+00 0.678D-04 0.177D-04 0.179D-04 0.343D-04 0.112D-04
 Coeff:      0.708D-02 0.336D-02
 Gap=     0.002 Goal=   None    Shift=    0.000
 Gap=     0.233 Goal=   None    Shift=    0.000
 RMSDP=1.71D-07 MaxDP=1.36D-05 DE= 5.86D-03 OVMax= 1.69D-05

 Cycle  41  Pass 1  IDiag  1:
 Restarting incremental Fock formation.
 E= -1608.63714904342     Delta-E=        0.000001889508 Rises=F Damp=F
 DIIS: error= 1.44D-02 at cycle  41 NSaved=  20.
 NSaved=20 IEnMin= 7 EnMin= -1608.73554804651     IErMin= 7 ErrMin= 4.88D-03
 ErrMax= 1.44D-02  0.00D+00 EMaxC= 1.00D-01 BMatC= 4.73D-01 BMatP= 5.33D-02
 IDIUse=2 WtCom= 0.00D+00 WtEn= 1.00D+00
 EnCoef did   100 forward-backward iterations
 Coeff-En:   0.000D+00 0.000D+00 0.000D+00 0.000D+00 0.000D+00 0.000D+00
 Coeff-En:   0.740D+00 0.000D+00 0.720D-05 0.168D+00 0.715D-01 0.197D-01
 Coeff-En:   0.000D+00 0.709D-04 0.185D-04 0.188D-04 0.358D-04 0.117D-04
 Coeff-En:   0.492D-04 0.284D-03
 Coeff:      0.000D+00 0.000D+00 0.000D+00 0.000D+00 0.000D+00 0.000D+00
 Coeff:      0.740D+00 0.000D+00 0.720D-05 0.168D+00 0.715D-01 0.197D-01
 Coeff:      0.000D+00 0.709D-04 0.185D-04 0.188D-04 0.358D-04 0.117D-04
 Coeff:      0.492D-04 0.284D-03
 Gap=     0.000 Goal=   None    Shift=    0.000
 Gap=     0.232 Goal=   None    Shift=    0.000
 RMSDP=4.74D-03 MaxDP=3.44D-01 DE= 1.89D-06 OVMax= 8.88D-01

 Cycle  42  Pass 1  IDiag  1:
 RMSU=  4.71D-03    CP:  9.84D-01
 E= -1608.64287179300     Delta-E=       -0.005722749581 Rises=F Damp=F
 DIIS: error= 1.33D-02 at cycle  42 NSaved=  20.
 NSaved=20 IEnMin= 7 EnMin= -1608.73554804651     IErMin= 7 ErrMin= 4.88D-03
 ErrMax= 1.33D-02  0.00D+00 EMaxC= 1.00D-01 BMatC= 4.49D-01 BMatP= 5.33D-02
 IDIUse=2 WtCom= 0.00D+00 WtEn= 1.00D+00
 EnCoef did     1 forward-backward iterations
 Coeff-En:   0.000D+00 0.000D+00 0.000D+00 0.000D+00 0.000D+00 0.000D+00
 Coeff-En:   0.740D+00 0.000D+00 0.720D-05 0.168D+00 0.715D-01 0.198D-01
 Coeff-En:   0.000D+00 0.709D-04 0.185D-04 0.188D-04 0.358D-04 0.117D-04
 Coeff-En:   0.284D-03 0.492D-04
 Coeff:      0.000D+00 0.000D+00 0.000D+00 0.000D+00 0.000D+00 0.000D+00
 Coeff:      0.740D+00 0.000D+00 0.720D-05 0.168D+00 0.715D-01 0.198D-01
 Coeff:      0.000D+00 0.709D-04 0.185D-04 0.188D-04 0.358D-04 0.117D-04
 Coeff:      0.284D-03 0.492D-04
 Gap=     0.000 Goal=   None    Shift=    0.000
 Gap=     0.232 Goal=   None    Shift=    0.000
 RMSDP=1.08D-05 MaxDP=5.70D-04 DE=-5.72D-03 OVMax= 1.81D-03

 Cycle  43  Pass 1  IDiag  1:
 RMSU=  9.74D-06    CP:  9.84D-01  1.00D+00
 E= -1608.64290737356     Delta-E=       -0.000035580560 Rises=F Damp=F
 DIIS: error= 1.33D-02 at cycle  43 NSaved=  20.
 NSaved=20 IEnMin= 7 EnMin= -1608.73554804651     IErMin= 7 ErrMin= 4.88D-03
 ErrMax= 1.33D-02  0.00D+00 EMaxC= 1.00D-01 BMatC= 4.49D-01 BMatP= 5.33D-02
 IDIUse=2 WtCom= 0.00D+00 WtEn= 1.00D+00
 Rare condition: small coef for last iteration:  0.000D+00
 Coeff-En:   0.000D+00 0.000D+00 0.000D+00 0.000D+00 0.000D+00 0.000D+00
 Coeff-En:   0.740D+00 0.000D+00 0.238D+00 0.106D-01 0.000D+00 0.125D-03
 Coeff-En:   0.411D-03 0.173D-04 0.182D-03 0.379D-03 0.114D-04 0.310D-02
 Coeff-En:   0.000D+00 0.645D-02
 Coeff:      0.000D+00 0.000D+00 0.000D+00 0.000D+00 0.000D+00 0.000D+00
 Coeff:      0.740D+00 0.000D+00 0.238D+00 0.106D-01 0.000D+00 0.125D-03
 Coeff:      0.411D-03 0.173D-04 0.182D-03 0.379D-03 0.114D-04 0.310D-02
 Coeff:      0.000D+00 0.645D-02
 Gap=    -0.001 Goal=   None    Shift=    0.000
 Gap=     0.233 Goal=   None    Shift=    0.000
 RMSDP=4.75D-03 MaxDP=3.44D-01 DE=-3.56D-05 OVMax= 8.21D-01

 Cycle  44  Pass 1  IDiag  1:
 RMSU=  4.97D-06    CP:  1.00D+00 -2.48D-04  3.92D-02
 E= -1608.63720307565     Delta-E=        0.005704297906 Rises=F Damp=F
 DIIS: error= 1.44D-02 at cycle  44 NSaved=  20.
 NSaved=20 IEnMin= 7 EnMin= -1608.73554804651     IErMin= 7 ErrMin= 4.88D-03
 ErrMax= 1.44D-02  0.00D+00 EMaxC= 1.00D-01 BMatC= 4.73D-01 BMatP= 5.33D-02
 IDIUse=2 WtCom= 0.00D+00 WtEn= 1.00D+00
 EnCoef did    97 forward-backward iterations
 Coeff-En:   0.000D+00 0.000D+00 0.000D+00 0.000D+00 0.000D+00 0.000D+00
 Coeff-En:   0.740D+00 0.131D-03 0.169D+00 0.708D-01 0.192D-01 0.322D-03
 Coeff-En:   0.187D-03 0.180D-04 0.443D-03 0.107D-03 0.119D-04 0.298D-03
 Coeff-En:   0.648D-05 0.144D-04
 Coeff:      0.000D+00 0.000D+00 0.000D+00 0.000D+00 0.000D+00 0.000D+00
 Coeff:      0.740D+00 0.131D-03 0.169D+00 0.708D-01 0.192D-01 0.322D-03
 Coeff:      0.187D-03 0.180D-04 0.443D-03 0.107D-03 0.119D-04 0.298D-03
 Coeff:      0.648D-05 0.144D-04
 Gap=     0.000 Goal=   None    Shift=    0.000
 Gap=     0.232 Goal=   None    Shift=    0.000
 RMSDP=4.74D-03 MaxDP=3.44D-01 DE= 5.70D-03 OVMax= 8.87D-01

 Cycle  45  Pass 1  IDiag  1:
 RMSU=  1.37D-06    CP:  9.84D-01  1.00D+00 -5.22D-01  6.42D-02
 E= -1608.64284914217     Delta-E=       -0.005646066511 Rises=F Damp=F
 DIIS: error= 1.33D-02 at cycle  45 NSaved=  20.
 NSaved=20 IEnMin= 6 EnMin= -1608.73554804651     IErMin= 6 ErrMin= 4.88D-03
 ErrMax= 1.33D-02  0.00D+00 EMaxC= 1.00D-01 BMatC= 4.49D-01 BMatP= 5.33D-02
 IDIUse=2 WtCom= 0.00D+00 WtEn= 1.00D+00
 Rare condition: small coef for last iteration:  0.111D-14
 Coeff-En:   0.000D+00 0.000D+00 0.000D+00 0.000D+00 0.000D+00 0.740D+00
 Coeff-En:   0.000D+00 0.238D+00 0.108D-01 0.000D+00 0.181D-03 0.530D-03
 Coeff-En:   0.172D-04 0.239D-03 0.500D-03 0.111D-04 0.602D-04 0.180D-03
 Coeff-En:   0.296D-02 0.608D-02
 Coeff:      0.000D+00 0.000D+00 0.000D+00 0.000D+00 0.000D+00 0.740D+00
 Coeff:      0.000D+00 0.238D+00 0.108D-01 0.000D+00 0.181D-03 0.530D-03
 Coeff:      0.172D-04 0.239D-03 0.500D-03 0.111D-04 0.602D-04 0.180D-03
 Coeff:      0.296D-02 0.608D-02
 Gap=    -0.001 Goal=   None    Shift=    0.000
 Gap=     0.233 Goal=   None    Shift=    0.000
 RMSDP=4.74D-03 MaxDP=3.44D-01 DE=-5.65D-03 OVMax= 8.20D-01

 Cycle  46  Pass 1  IDiag  1:
 RMSU=  8.90D-08    CP:  1.00D+00 -4.09D-04  1.03D-01  1.53D+00  7.75D-02
 E= -1608.63723434756     Delta-E=        0.005614794609 Rises=F Damp=F
 DIIS: error= 1.44D-02 at cycle  46 NSaved=  20.
 NSaved=20 IEnMin= 6 EnMin= -1608.73554804651     IErMin= 6 ErrMin= 4.88D-03
 ErrMax= 1.44D-02  0.00D+00 EMaxC= 1.00D-01 BMatC= 4.73D-01 BMatP= 5.33D-02
 IDIUse=2 WtCom= 0.00D+00 WtEn= 1.00D+00
 EnCoef did   100 forward-backward iterations
 Coeff-En:   0.000D+00 0.000D+00 0.000D+00 0.000D+00 0.000D+00 0.740D+00
 Coeff-En:   0.336D-04 0.168D+00 0.709D-01 0.187D-01 0.189D-03 0.553D-03
 Coeff-En:   0.179D-04 0.249D-03 0.521D-03 0.116D-04 0.628D-04 0.187D-03
 Coeff-En:   0.965D-04 0.610D-03
 Coeff:      0.000D+00 0.000D+00 0.000D+00 0.000D+00 0.000D+00 0.740D+00
 Coeff:      0.336D-04 0.168D+00 0.709D-01 0.187D-01 0.189D-03 0.553D-03
 Coeff:      0.179D-04 0.249D-03 0.521D-03 0.116D-04 0.628D-04 0.187D-03
 Coeff:      0.965D-04 0.610D-03
 Gap=     0.000 Goal=   None    Shift=    0.000
 Gap=     0.232 Goal=   None    Shift=    0.000
 RMSDP=4.74D-03 MaxDP=3.44D-01 DE= 5.61D-03 OVMax= 8.87D-01

 Cycle  47  Pass 1  IDiag  1:
 RMSU=  1.14D-06    CP:  9.84D-01  9.99D-01 -1.27D+00  2.49D-01  3.00D+00
                    CP: -9.95D-03
 E= -1608.64280975312     Delta-E=       -0.005575405563 Rises=F Damp=F
 DIIS: error= 1.33D-02 at cycle  47 NSaved=  20.
 NSaved=20 IEnMin= 6 EnMin= -1608.73554804651     IErMin= 6 ErrMin= 4.88D-03
 ErrMax= 1.33D-02  0.00D+00 EMaxC= 1.00D-01 BMatC= 4.49D-01 BMatP= 5.33D-02
 IDIUse=2 WtCom= 0.00D+00 WtEn= 1.00D+00
 EnCoef did     1 forward-backward iterations
 Coeff-En:   0.000D+00 0.000D+00 0.000D+00 0.000D+00 0.000D+00 0.740D+00
 Coeff-En:   0.336D-04 0.168D+00 0.709D-01 0.187D-01 0.189D-03 0.553D-03
 Coeff-En:   0.179D-04 0.249D-03 0.521D-03 0.116D-04 0.628D-04 0.187D-03
 Coeff-En:   0.610D-03 0.965D-04
 Coeff:      0.000D+00 0.000D+00 0.000D+00 0.000D+00 0.000D+00 0.740D+00
 Coeff:      0.336D-04 0.168D+00 0.709D-01 0.187D-01 0.189D-03 0.553D-03
 Coeff:      0.179D-04 0.249D-03 0.521D-03 0.116D-04 0.628D-04 0.187D-03
 Coeff:      0.610D-03 0.965D-04
 Gap=     0.000 Goal=   None    Shift=    0.000
 Gap=     0.232 Goal=   None    Shift=    0.000
 RMSDP=3.14D-05 MaxDP=1.76D-03 DE=-5.58D-03 OVMax= 4.52D-03

 Cycle  48  Pass 1  IDiag  1:
 RMSU=  1.87D-07    CP:  9.84D-01  1.00D+00  1.48D+00 -6.96D-02 -1.14D+00
                    CP: -4.11D-01 -4.16D-02
 E= -1608.64293212584     Delta-E=       -0.000122372718 Rises=F Damp=F
 DIIS: error= 1.33D-02 at cycle  48 NSaved=  20.
 NSaved=20 IEnMin= 5 EnMin= -1608.73554804651     IErMin= 5 ErrMin= 4.88D-03
 ErrMax= 1.33D-02  0.00D+00 EMaxC= 1.00D-01 BMatC= 4.49D-01 BMatP= 5.33D-02
 IDIUse=2 WtCom= 0.00D+00 WtEn= 1.00D+00
 Rare condition: small coef for last iteration:  0.000D+00
 Coeff-En:   0.000D+00 0.000D+00 0.000D+00 0.000D+00 0.740D+00 0.000D+00
 Coeff-En:   0.239D+00 0.105D-01 0.000D+00 0.452D-04 0.244D-03 0.175D-04
 Coeff-En:   0.102D-03 0.282D-03 0.000D+00 0.000D+00 0.000D+00 0.324D-02
 Coeff-En:   0.000D+00 0.669D-02
 Coeff:      0.000D+00 0.000D+00 0.000D+00 0.000D+00 0.740D+00 0.000D+00
 Coeff:      0.239D+00 0.105D-01 0.000D+00 0.452D-04 0.244D-03 0.175D-04
 Coeff:      0.102D-03 0.282D-03 0.000D+00 0.000D+00 0.000D+00 0.324D-02
 Coeff:      0.000D+00 0.669D-02
 Gap=    -0.001 Goal=   None    Shift=    0.000
 Gap=     0.233 Goal=   None    Shift=    0.000
 RMSDP=4.75D-03 MaxDP=3.44D-01 DE=-1.22D-04 OVMax= 8.21D-01

 Cycle  49  Pass 1  IDiag  1:
 RMSU=  3.30D-09    CP:  1.00D+00 -1.08D-04  3.47D-02  3.82D-01  3.60D-02
                    CP:  4.34D-01  2.62D-04 -1.55D-02
 E= -1608.63717069217     Delta-E=        0.005761433667 Rises=F Damp=F
 DIIS: error= 1.44D-02 at cycle  49 NSaved=  20.
 NSaved=20 IEnMin= 5 EnMin= -1608.73554804651     IErMin= 5 ErrMin= 4.88D-03
 ErrMax= 1.44D-02  0.00D+00 EMaxC= 1.00D-01 BMatC= 4.73D-01 BMatP= 5.33D-02
 IDIUse=2 WtCom= 0.00D+00 WtEn= 1.00D+00
 EnCoef did   100 forward-backward iterations
 Coeff-En:   0.000D+00 0.000D+00 0.000D+00 0.000D+00 0.740D+00 0.929D-04
 Coeff-En:   0.168D+00 0.713D-01 0.192D-01 0.802D-04 0.324D-03 0.181D-04
 Coeff-En:   0.140D-03 0.363D-03 0.000D+00 0.000D+00 0.000D+00 0.235D-03
 Coeff-En:   0.323D-04 0.132D-03
 Coeff:      0.000D+00 0.000D+00 0.000D+00 0.000D+00 0.740D+00 0.929D-04
 Coeff:      0.168D+00 0.713D-01 0.192D-01 0.802D-04 0.324D-03 0.181D-04
 Coeff:      0.140D-03 0.363D-03 0.000D+00 0.000D+00 0.000D+00 0.235D-03
 Coeff:      0.323D-04 0.132D-03
 Gap=     0.000 Goal=   None    Shift=    0.000
 Gap=     0.232 Goal=   None    Shift=    0.000
 RMSDP=4.74D-03 MaxDP=3.44D-01 DE= 5.76D-03 OVMax= 8.88D-01

 Cycle  50  Pass 1  IDiag  1:
 RMSU=  6.37D-08    CP:  9.84D-01  1.00D+00  9.57D-02  4.58D-02  7.19D-01
                    CP: -5.31D-02  2.67D-02 -1.98D-01 -3.00D+00
 E= -1608.64287241954     Delta-E=       -0.005701727373 Rises=F Damp=F
 DIIS: error= 1.33D-02 at cycle  50 NSaved=  20.
 NSaved=20 IEnMin= 5 EnMin= -1608.73554804651     IErMin= 5 ErrMin= 4.88D-03
 ErrMax= 1.33D-02  0.00D+00 EMaxC= 1.00D-01 BMatC= 4.49D-01 BMatP= 5.33D-02
 IDIUse=2 WtCom= 0.00D+00 WtEn= 1.00D+00
 EnCoef did     1 forward-backward iterations
 Coeff-En:   0.000D+00 0.000D+00 0.000D+00 0.000D+00 0.740D+00 0.929D-04
 Coeff-En:   0.168D+00 0.713D-01 0.192D-01 0.802D-04 0.324D-03 0.181D-04
 Coeff-En:   0.140D-03 0.363D-03 0.000D+00 0.000D+00 0.000D+00 0.235D-03
 Coeff-En:   0.132D-03 0.323D-04
 Coeff:      0.000D+00 0.000D+00 0.000D+00 0.000D+00 0.740D+00 0.929D-04
 Coeff:      0.168D+00 0.713D-01 0.192D-01 0.802D-04 0.324D-03 0.181D-04
 Coeff:      0.140D-03 0.363D-03 0.000D+00 0.000D+00 0.000D+00 0.235D-03
 Coeff:      0.132D-03 0.323D-04
 Gap=     0.000 Goal=   None    Shift=    0.000
[...]
    15  H   -0.000062  -0.000001   0.330894  -0.000063   0.000000  -0.000063
    16  H   -0.000001  -0.000001  -0.000063   0.330916  -0.000001  -0.000062
    17  H   -0.000001  -0.000062   0.000000  -0.000001   0.330908  -0.000001
    18  H    0.000000   0.000000  -0.000063  -0.000062  -0.000001   0.330902
    19  H   -0.000001  -0.000001  -0.000001   0.000000  -0.000062  -0.000063
              19
     1  Mn  -0.002677
     2  O   -0.000335
     3  H    0.000000
     4  O    0.001091
     5  H   -0.000063
     6  O    0.003419
     7  H   -0.000062
     8  O    0.287903
     9  H   -0.016746
    10  O    0.001084
    11  H   -0.000001
    12  O    0.000696
    13  H   -0.000001
    14  H   -0.000001
    15  H   -0.000001
    16  H    0.000000
    17  H   -0.000062
    18  H   -0.000063
    19  H    0.330923
          Atomic-Atomic Spin Densities.
               1          2          3          4          5          6
     1  Mn   5.187107  -0.061215   0.002781  -0.061251   0.002778  -0.061243
     2  O   -0.061215   0.134102  -0.006622  -0.015244   0.000231  -0.015245
     3  H    0.002781  -0.006622   0.005223   0.000620  -0.000002   0.000232
     4  O   -0.061251  -0.015244   0.000620   0.134170  -0.006616  -0.015256
     5  H    0.002778   0.000231  -0.000002  -0.006616   0.005218   0.000621
     6  O   -0.061243  -0.015245   0.000232  -0.015256   0.000621   0.134162
     7  H    0.002782   0.000622  -0.000002   0.000232  -0.000002  -0.006620
     8  O   -0.061248   0.011726  -0.000161  -0.015263   0.001143  -0.015238
     9  H    0.002783  -0.000161   0.000000   0.000622  -0.000029   0.000232
    10  O   -0.061244  -0.015244   0.000623   0.011729  -0.000161  -0.015262
    11  H    0.002777   0.001143  -0.000029  -0.000161   0.000000   0.000621
    12  O   -0.061234  -0.015265   0.001143  -0.015231   0.000621   0.011730
    13  H    0.002783   0.000624  -0.000029   0.001138  -0.000028  -0.000161
    14  H    0.002783   0.000620  -0.000028   0.000232  -0.000002  -0.000161
    15  H    0.002786   0.001139  -0.000028  -0.006625   0.000874   0.000622
    16  H    0.002780  -0.006620   0.000875   0.000621  -0.000002   0.001141
    17  H    0.002792   0.000233  -0.000002  -0.000161   0.000000   0.000624
    18  H    0.002783   0.000620  -0.000002   0.001141  -0.000028  -0.006621
    19  H    0.002788  -0.000161   0.000000   0.000622  -0.000029   0.001138
               7          8          9         10         11         12
     1  Mn   0.002782  -0.061248   0.002783  -0.061244   0.002777  -0.061234
     2  O    0.000622   0.011726  -0.000161  -0.015244   0.001143  -0.015265
     3  H   -0.000002  -0.000161   0.000000   0.000623  -0.000029   0.001143
     4  O    0.000232  -0.015263   0.000622   0.011729  -0.000161  -0.015231
     5  H   -0.000002   0.001143  -0.000029  -0.000161   0.000000   0.000621
     6  O   -0.006620  -0.015238   0.000232  -0.015262   0.000621   0.011730
     7  H    0.005223   0.000619  -0.000002   0.001142  -0.000028  -0.000161
     8  O    0.000619   0.134154  -0.006620  -0.015243   0.000231  -0.015253
     9  H   -0.000002  -0.006620   0.005223   0.000619  -0.000002   0.001141
    10  O    0.001142  -0.015243   0.000619   0.134154  -0.006617  -0.015246
    11  H   -0.000028   0.000231  -0.000002  -0.006617   0.005216   0.000623
    12  O   -0.000161  -0.015253   0.001141  -0.015246   0.000623   0.134136
    13  H    0.000000   0.000620  -0.000028   0.000232  -0.000002  -0.006621
    14  H    0.000000   0.000623  -0.000029   0.001141  -0.000029  -0.006621
    15  H   -0.000002   0.000232  -0.000002  -0.000161   0.000000   0.000619
    16  H   -0.000029  -0.000161   0.000000   0.000622  -0.000029   0.000232
    17  H   -0.000029   0.001137  -0.000028  -0.006633   0.000876   0.000620
    18  H    0.000874   0.000621  -0.000002   0.000232  -0.000002  -0.000161
    19  H   -0.000028  -0.006624   0.000874   0.000620  -0.000002   0.000232
              13         14         15         16         17         18
     1  Mn   0.002783   0.002783   0.002786   0.002780   0.002792   0.002783
     2  O    0.000624   0.000620   0.001139  -0.006620   0.000233   0.000620
     3  H   -0.000029  -0.000028  -0.000028   0.000875  -0.000002  -0.000002
     4  O    0.001138   0.000232  -0.006625   0.000621  -0.000161   0.001141
     5  H   -0.000028  -0.000002   0.000874  -0.000002   0.000000  -0.000028
     6  O   -0.000161  -0.000161   0.000622   0.001141   0.000624  -0.006621
     7  H    0.000000   0.000000  -0.000002  -0.000029  -0.000029   0.000874
     8  O    0.000620   0.000623   0.000232  -0.000161   0.001137   0.000621
     9  H   -0.000028  -0.000029  -0.000002   0.000000  -0.000028  -0.000002
    10  O    0.000232   0.001141  -0.000161   0.000622  -0.006633   0.000232
    11  H   -0.000002  -0.000029   0.000000  -0.000029   0.000876  -0.000002
    12  O   -0.006621  -0.006621   0.000619   0.000232   0.000620  -0.000161
    13  H    0.005224   0.000874  -0.000028  -0.000002  -0.000002   0.000000
    14  H    0.000874   0.005223  -0.000002  -0.000002  -0.000028   0.000000
    15  H   -0.000028  -0.000002   0.005227  -0.000029   0.000000  -0.000029
    16  H   -0.000002  -0.000002  -0.000029   0.005221  -0.000002  -0.000028
    17  H   -0.000002  -0.000028   0.000000  -0.000002   0.005243  -0.000002
    18  H    0.000000   0.000000  -0.000029  -0.000028  -0.000002   0.005223
    19  H   -0.000002  -0.000002  -0.000002   0.000000  -0.000028  -0.000028
              19
     1  Mn   0.002788
     2  O   -0.000161
     3  H    0.000000
     4  O    0.000622
     5  H   -0.000029
     6  O    0.001138
     7  H   -0.000028
     8  O   -0.006624
     9  H    0.000874
    10  O    0.000620
    11  H   -0.000002
    12  O    0.000232
    13  H   -0.000002
    14  H   -0.000002
    15  H   -0.000002
    16  H    0.000000
    17  H   -0.000028
    18  H   -0.000028
    19  H    0.005227
 Mulliken charges and spin densities:
               1          2
     1  Mn   1.203771   4.853068
     2  O   -0.657209   0.015285
     3  H    0.394902   0.004593
     4  O   -0.657067   0.015320
     5  H    0.394915   0.004589
     6  O   -0.657090   0.015314
     7  H    0.394906   0.004592
     8  O   -0.657138   0.015295
     9  H    0.394919   0.004592
    10  O   -0.657163   0.015301
    11  H    0.394911   0.004587
    12  O   -0.657136   0.015302
    13  H    0.394906   0.004592
    14  H    0.394904   0.004592
    15  H    0.394928   0.004594
    16  H    0.394919   0.004590
    17  H    0.395018   0.004609
    18  H    0.394905   0.004592
    19  H    0.394897   0.004595
 Sum of Mulliken charges =   2.00000   5.00000
 Mulliken charges and spin densities with hydrogens summed into heavy atoms:
               1          2
     1  Mn   1.203771   4.853068
     2  O    0.132613   0.024468
     4  O    0.132776   0.024503
     6  O    0.132721   0.024498
     8  O    0.132679   0.024482
    10  O    0.132766   0.024497
    12  O    0.132674   0.024486
 Electronic spatial extent (au):  <R**2>=           1226.4029
 Charge=              2.0000 electrons
 Dipole moment (field-independent basis, Debye):
    X=              0.0028    Y=             -0.0011    Z=              0.0006  Tot=              0.0030
 Quadrupole moment (field-independent basis, Debye-Ang):
   XX=            -16.0769   YY=            -16.0987   ZZ=            -16.1046
   XY=              0.0064   XZ=              0.0019   YZ=             -0.0046
 Traceless Quadrupole moment (field-independent basis, Debye-Ang):
   XX=              0.0165   YY=             -0.0053   ZZ=             -0.0112
   XY=              0.0064   XZ=              0.0019   YZ=             -0.0046
 Octapole moment (field-independent basis, Debye-Ang**2):
  XXX=              0.0056  YYY=              0.0000  ZZZ=              0.0159  XYY=              0.0112
  XXY=              0.0037  XXZ=              0.0143  XZZ=             -0.0024  YZZ=             -0.0105
  YYZ=             -0.0039  XYZ=             -0.0253
 Hexadecapole moment (field-independent basis, Debye-Ang**3):
 XXXX=           -249.6562 YYYY=           -153.0089 ZZZZ=           -249.1795 XXXY=            -15.0265
 XXXZ=              0.4648 YYYX=             28.8109 YYYZ=            -29.5462 ZZZX=              8.8155
 ZZZY=             14.1065 XXYY=           -109.2730 XXZZ=            -12.7834 YYZZ=           -109.2432
 XXYZ=             15.4029 YYXZ=             -9.2551 ZZXY=            -13.7380
 N-N= 6.248441302359D+02 E-N=-5.039438145306D+03  KE= 1.604286756706D+03
                          Isotropic Fermi Contact Couplings
        Atom                 a.u.       MegaHertz       Gauss      10(-4) cm-1
     1  Mn(55)             0.44513      98.40482      35.11329      32.82431
     2  O(17)              0.10258     -12.43633      -4.43759      -4.14831
     3  H(1)               0.00189       1.69398       0.60445       0.56505
     4  O(17)              0.10257     -12.43528      -4.43722      -4.14796
     5  H(1)               0.00189       1.69299       0.60410       0.56472
     6  O(17)              0.10256     -12.43448      -4.43693      -4.14770
     7  H(1)               0.00189       1.69394       0.60444       0.56504
     8  O(17)              0.10257     -12.43529      -4.43722      -4.14797
     9  H(1)               0.00189       1.69382       0.60440       0.56500
    10  O(17)              0.10260     -12.43874      -4.43845      -4.14912
    11  H(1)               0.00189       1.69072       0.60329       0.56396
    12  O(17)              0.10255     -12.43333      -4.43652      -4.14731
    13  H(1)               0.00190       1.69419       0.60453       0.56512
    14  H(1)               0.00190       1.69414       0.60451       0.56511
    15  H(1)               0.00190       1.69528       0.60492       0.56548
    16  H(1)               0.00189       1.69265       0.60398       0.56461
    17  H(1)               0.00190       1.70171       0.60721       0.56763
    18  H(1)               0.00190       1.69421       0.60454       0.56513
    19  H(1)               0.00190       1.69545       0.60498       0.56554
 --------------------------------------------------------
       Center         ----  Spin Dipole Couplings  ----
                      3XX-RR        3YY-RR        3ZZ-RR
 --------------------------------------------------------
     1   Atom        0.000143     -0.000034     -0.000109
     2   Atom        0.058002     -0.109352      0.051349
     3   Atom        0.015460     -0.027511      0.012051
     4   Atom        0.008515     -0.026941      0.018426
     5   Atom        0.040056     -0.031398     -0.008658
     6   Atom       -0.066571      0.136268     -0.069697
     7   Atom       -0.029629      0.047780     -0.018151
     8   Atom        0.058113     -0.109344      0.051230
     9   Atom        0.004584     -0.005989      0.001405
    10   Atom        0.008667     -0.026733      0.018066
    11   Atom        0.040165     -0.031427     -0.008738
    12   Atom       -0.065986      0.136222     -0.070235
    13   Atom       -0.029670      0.047704     -0.018034
    14   Atom       -0.019026      0.048450     -0.029424
    15   Atom       -0.011382     -0.031234      0.042617
    16   Atom        0.004568     -0.006025      0.001456
    17   Atom       -0.011330     -0.031237      0.042567
    18   Atom       -0.018965      0.048424     -0.029459
    19   Atom        0.015442     -0.027524      0.012082
 --------------------------------------------------------
                        XY            XZ            YZ
 --------------------------------------------------------
     1   Atom        0.000151     -0.000047     -0.000016
     2   Atom       -0.038628     -0.077252      0.037825
     3   Atom        0.006712     -0.045565     -0.006493
     4   Atom        0.015440      0.129976     -0.013197
     5   Atom       -0.005110      0.037066     -0.002000
     6   Atom        0.023298     -0.052795     -0.024767
     7   Atom       -0.005916      0.004123     -0.030634
     8   Atom       -0.038648     -0.077169      0.037953
     9   Atom       -0.027972     -0.034811      0.026688
    10   Atom        0.015072      0.130048     -0.012907
    11   Atom       -0.005018      0.037023     -0.001958
    12   Atom        0.023376     -0.052765     -0.024886
    13   Atom       -0.005742      0.004065     -0.030737
    14   Atom        0.029830      0.004197      0.006369
    15   Atom        0.002338      0.035066      0.006224
    16   Atom       -0.027933     -0.034821      0.026680
    17   Atom        0.002266      0.035070      0.006030
    18   Atom        0.029877      0.004169      0.006278
    19   Atom        0.006682     -0.045577     -0.006475
 --------------------------------------------------------


 ---------------------------------------------------------------------------------
              Anisotropic Spin Dipole Couplings in Principal Axis System
 ---------------------------------------------------------------------------------

       Atom             a.u.   MegaHertz   Gauss  10(-4) cm-1        Axes

              Baa    -0.0001    -0.017    -0.006    -0.006 -0.4617  0.6351 -0.6193
     1 Mn(55) Bbb    -0.0001    -0.014    -0.005    -0.005 -0.2139  0.5979  0.7726
              Bcc     0.0002     0.031     0.011     0.010  0.8609  0.4891 -0.1402
 
              Baa    -0.1209     8.749     3.122     2.918  0.1468  0.9779 -0.1489
     2 O(17)  Bbb    -0.0226     1.639     0.585     0.547  0.6931  0.0056  0.7208
              Bcc     0.1436   -10.388    -3.707    -3.465  0.7057 -0.2090 -0.6770
 
              Baa    -0.0318   -16.989    -6.062    -5.667  0.6933  0.0058  0.7206
     3 H(1)   Bbb    -0.0285   -15.208    -5.427    -5.073 -0.0802  0.9944  0.0691
              Bcc     0.0603    32.197    11.489    10.740  0.7161  0.1057 -0.6899
 
              Baa    -0.1210     8.753     3.123     2.920  0.7049 -0.2108 -0.6772
     4 O(17)  Bbb    -0.0226     1.634     0.583     0.545  0.1470  0.9775 -0.1513
              Bcc     0.1435   -10.387    -3.706    -3.465  0.6939  0.0071  0.7200
 
              Baa    -0.0319   -16.998    -6.065    -5.670  0.1474  0.9774 -0.1513
     5 H(1)   Bbb    -0.0285   -15.215    -5.429    -5.075 -0.4539  0.2028  0.8677
              Bcc     0.0604    32.213    11.494    10.745  0.8788 -0.0592  0.4736
 
              Baa    -0.1210     8.753     3.123     2.920  0.6951  0.0063  0.7189
     6 O(17)  Bbb    -0.0226     1.634     0.583     0.545  0.7039 -0.2091 -0.6788
              Bcc     0.1435   -10.386    -3.706    -3.465  0.1461  0.9779 -0.1497
 
              Baa    -0.0319   -16.994    -6.064    -5.669  0.7039 -0.2089 -0.6789
     7 H(1)   Bbb    -0.0285   -15.213    -5.428    -5.074  0.7061  0.3103  0.6365
              Bcc     0.0604    32.207    11.492    10.743 -0.0777  0.9274 -0.3659
 
              Baa    -0.1210     8.752     3.123     2.919  0.1464  0.9778 -0.1499
     8 O(17)  Bbb    -0.0226     1.633     0.583     0.545  0.6929  0.0068  0.7210
              Bcc     0.1435   -10.385    -3.706    -3.464  0.7060 -0.2094 -0.6765
 
              Baa    -0.0319   -16.995    -6.064    -5.669  0.6931  0.0059  0.7208
     9 H(1)   Bbb    -0.0285   -15.214    -5.429    -5.075  0.3593  0.8640 -0.3526
              Bcc     0.0604    32.209    11.493    10.744  0.6248 -0.5034 -0.5968
 
              Baa    -0.1209     8.751     3.122     2.919  0.7050 -0.2058 -0.6787
    10 O(17)  Bbb    -0.0226     1.634     0.583     0.545  0.1433  0.9786 -0.1478
              Bcc     0.1435   -10.384    -3.705    -3.464  0.6946  0.0070  0.7194
 
              Baa    -0.0319   -17.005    -6.068    -5.672  0.1443  0.9784 -0.1481
    11 H(1)   Bbb    -0.0285   -15.219    -5.430    -5.076 -0.4538  0.1984  0.8688
              Bcc     0.0604    32.223    11.498    10.748  0.8794 -0.0581  0.4726
 
              Baa    -0.1209     8.750     3.122     2.919  0.6911  0.0071  0.7228
    12 O(17)  Bbb    -0.0226     1.637     0.584     0.546  0.7077 -0.2098 -0.6746
              Bcc     0.1436   -10.387    -3.706    -3.465  0.1469  0.9777 -0.1501
 
              Baa    -0.0318   -16.992    -6.063    -5.668  0.7075 -0.2097 -0.6749
    13 H(1)   Bbb    -0.0285   -15.211    -5.428    -5.074  0.7026  0.3110  0.6400
              Bcc     0.0604    32.203    11.491    10.742 -0.0757  0.9270 -0.3674
 
              Baa    -0.0319   -16.994    -6.064    -5.669  0.7080 -0.2095 -0.6745
    14 H(1)   Bbb    -0.0285   -15.213    -5.428    -5.074  0.6109 -0.2975  0.7337
              Bcc     0.0604    32.207    11.492    10.743  0.3544  0.9315  0.0826
 
              Baa    -0.0318   -16.990    -6.063    -5.667  0.1469  0.9776 -0.1509
    15 H(1)   Bbb    -0.0285   -15.210    -5.427    -5.074  0.8859 -0.1978 -0.4195
              Bcc     0.0604    32.200    11.490    10.741  0.4399  0.0721  0.8951
 
              Baa    -0.0318   -16.990    -6.062    -5.667  0.6933  0.0054  0.7206
    16 H(1)   Bbb    -0.0285   -15.209    -5.427    -5.073  0.3593  0.8643 -0.3521
              Bcc     0.0603    32.199    11.489    10.740  0.6247 -0.5030 -0.5973
 
              Baa    -0.0318   -16.972    -6.056    -5.661  0.1432  0.9787 -0.1469
    17 H(1)   Bbb    -0.0285   -15.198    -5.423    -5.070  0.8863 -0.1929 -0.4211
              Bcc     0.0603    32.171    11.479    10.731  0.4405  0.0699  0.8951
 
              Baa    -0.0319   -16.994    -6.064    -5.669  0.7041 -0.2090 -0.6787
    18 H(1)   Bbb    -0.0285   -15.213    -5.428    -5.074  0.6150 -0.2984  0.7299
              Bcc     0.0604    32.207    11.492    10.743  0.3550  0.9313  0.0816
 
              Baa    -0.0318   -16.991    -6.063    -5.668  0.6934  0.0075  0.7205
    19 H(1)   Bbb    -0.0285   -15.211    -5.428    -5.074 -0.0810  0.9944  0.0677
              Bcc     0.0604    32.203    11.491    10.742  0.7160  0.1053 -0.6901
 

 ---------------------------------------------------------------------------------

 No NMR shielding tensors so no spin-rotation constants.
 Leave Link  601 at Thu May 23 14:52:36 2024, MaxMem= 26843545600 cpu:              29.1 elap:               0.3
 (Enter /gpfs/fs1/soft/improv/software/custom-built/gaussian/g16/l9999.exe)
 Unable to Open any file for archive entry.
 1\1\GINC-I037\SP\UBLYP\Gen\H12Mn1O6(2+,6)\HHARB\23-May-2024\0\\#p BLYP
  empiricaldispersion=gd3 scf=(maxcycles=500,xqc,maxconventional=50) sc
 rf=(cpcm,solvent=water) geom=allcheck guess=read chkbasis\\Title\\2,6\
 Mn,-0.7845475718,0.7123852766,0.031937608\O,-1.3799761099,2.8049298685
 ,-0.3127953901\H,-1.4916501315,3.2444655275,-1.1786049436\O,1.33208261
 19,1.3202546735,0.0704377583\H,2.1041516136,0.7355571072,0.201655933\O
 ,-0.9159906738,1.0336708942,2.206908605\H,-1.7049320524,0.9038610518,2
 .7689887873\O,-0.1885950911,-1.3799253195,0.3757961591\H,0.015224854,-
 2.0480110319,-0.3078408342\O,-2.9016664722,0.1059026806,-0.0062181638\
 H,-3.6726257593,0.6913645964,-0.141352015\O,-0.6541376117,0.3924531361
 ,-2.1433699392\H,0.1331936918,0.5268732801,-2.7065713268\H,-1.37250265
 59,0.0881364269,-2.7320592319\H,1.6810905239,2.2263385657,-0.040773302
 5\H,-1.5833137054,3.473540166,0.3704515366\H,-3.2527115868,-0.79912258
 64,0.1095314964\H,-0.1966937317,1.3336752847,2.7966445394\H,-0.0779177
 115,-1.820269828,1.2412781342\\Version=ES64L-G16RevC.02\State=6-A\HF=-
 1609.3603706\S2=8.75222\S2-1=0.\S2A=8.750001\RMSD=8.092e-09\Dipole=-0.
 0010953,0.0004382,0.0001644\Quadrupole=0.0073027,-0.007976,0.0006732,-
 0.00619,0.006006,-0.0045743\PG=C01 [X(H12Mn1O6)]\\@
 The archive entry for this job was punched.


 The most important thing in communication is to hear what isn't being said.
 -- Peter F. Drucker
 Job cpu time:       0 days  1 hours  1 minutes 31.9 seconds.
 Elapsed time:       0 days  0 hours  0 minutes 31.7 seconds.
 File lengths (MBytes):  RWF=    124 Int=      0 D2E=      0 Chk=     32 Scr=      1
 Normal termination of Gaussian 16 at Thu May 23 14:52:36 2024.
