 Entering Gaussian System, Link 0=g16
 Input=Ti_3_PBE0.com
 Output=Ti_3_PBE0.log
 Initial command:
 /gpfs/fs1/soft/improv/software/custom-built/gaussian/g16/l1.exe "/scratch/Gau-517361.inp" -scrdir="/scratch/"
 Default CPUs for threads: 0-127
 Default linda workers: i019.lcrc.anl.gov
 Default is to use 128 SMP processors on each worker.
 Entering Link 1 = /gpfs/fs1/soft/improv/software/custom-built/gaussian/g16/l1.exe PID=    517362.
  
 Copyright (c) 1988-2021, Gaussian, Inc.  All Rights Reserved.
  
 This is part of the Gaussian(R) 16 program.  It is based on
 the Gaussian(R) 09 system (copyright 2009, Gaussian, Inc.),
 the Gaussian(R) 03 system (copyright 2003, Gaussian, Inc.),
 the Gaussian(R) 98 system (copyright 1998, Gaussian, Inc.),
 the Gaussian(R) 94 system (copyright 1995, Gaussian, Inc.),
 the Gaussian 92(TM) system (copyright 1992, Gaussian, Inc.),
 the Gaussian 90(TM) system (copyright 1990, Gaussian, Inc.),
 the Gaussian 88(TM) system (copyright 1988, Gaussian, Inc.),
 the Gaussian 86(TM) system (copyright 1986, Carnegie Mellon
 University), and the Gaussian 82(TM) system (copyright 1983,
 Carnegie Mellon University). Gaussian is a federally registered
 trademark of Gaussian, Inc.
  
 This software contains proprietary and confidential information,
 including trade secrets, belonging to Gaussian, Inc.
  
 This software is provided under written license and may be
 used, copied, transmitted, or stored only in accord with that
 written license.
  
 The following legend is applicable only to US Government
 contracts under FAR:
  
                    RESTRICTED RIGHTS LEGEND
  
 Use, reproduction and disclosure by the US Government is
 subject to restrictions as set forth in subparagraphs (a)
 and (c) of the Commercial Computer Software - Restricted
 Rights clause in FAR 52.227-19.
  
 Gaussian, Inc.
 340 Quinnipiac St., Bldg. 40, Wallingford CT 06492
  
  
 ---------------------------------------------------------------
 Warning -- This program may not be used in any manner that
 competes with the business of Gaussian, Inc. or will provide
 assistance to any competitor of Gaussian, Inc.  The licensee
 of this program is prohibited from giving any competitor of
 Gaussian, Inc. access to this program.  By using this program,
 the user acknowledges that Gaussian, Inc. is engaged in the
 business of creating and licensing software in the field of
 computational chemistry and represents and warrants to the
 licensee that it is not a competitor of Gaussian, Inc. and that
 it will not use this program in any manner prohibited above.
 ---------------------------------------------------------------
  

 Cite this work as:
 Gaussian 16, Revision C.02,
 M. J. Frisch, G. W. Trucks, H. B. Schlegel, G. E. Scuseria, 
 M. A. Robb, J. R. Cheeseman, G. Scalmani, V. Barone, 
 G. A. Petersson, H. Nakatsuji, X. Li, M. Caricato, A. V. Marenich, 
 J. Bloino, B. G. Janesko, R. Gomperts, B. Mennucci, H. P. Hratchian, 
 J. V. Ortiz, A. F. Izmaylov, J. L. Sonnenberg, D. Williams-Young, 
 F. Ding, F. Lipparini, F. Egidi, J. Goings, B. Peng, A. Petrone, 
 T. Henderson, D. Ranasinghe, V. G. Zakrzewski, J. Gao, N. Rega, 
 G. Zheng, W. Liang, M. Hada, M. Ehara, K. Toyota, R. Fukuda, 
 J. Hasegawa, M. Ishida, T. Nakajima, Y. Honda, O. Kitao, H. Nakai, 
 T. Vreven, K. Throssell, J. A. Montgomery, Jr., J. E. Peralta, 
 F. Ogliaro, M. J. Bearpark, J. J. Heyd, E. N. Brothers, K. N. Kudin, 
 V. N. Staroverov, T. A. Keith, R. Kobayashi, J. Normand, 
 K. Raghavachari, A. P. Rendell, J. C. Burant, S. S. Iyengar, 
 J. Tomasi, M. Cossi, J. M. Millam, M. Klene, C. Adamo, R. Cammi, 
 J. W. Ochterski, R. L. Martin, K. Morokuma, O. Farkas, 
 J. B. Foresman, and D. J. Fox, Gaussian, Inc., Wallingford CT, 2019.
 
 ******************************************
 Gaussian 16:  ES64L-G16RevC.02  7-Dec-2021
                23-May-2024 
 ******************************************
 %chk=Ti_3_PBE0.chk
 SetSPE:  set environment variable "OMP_PROC_BIND" = "true"
 SetSPE:  set environment variable "OMP_PLACES" = "{0},{1},{2},{3},{4},{5},{6},{7},{8},{9},{10},{11},{12},{13},{14},{15},{16},{17},{18},{19},{20},{21},{22},{23},{24},{25},{26},{27},{28},{29},{30},{31},{32},{33},{34},{35},{36},{37},{38},{39},{40},{41},{42},{43},{44},{45},{46},{47},{48},{49},{50},{51},{52},{53},{54},{55},{56},{57},{58},{59},{60},{61},{62},{63},{64},{65},{66},{67},{68},{69},{70},{71},{72},{73},{74},{75},{76},{77},{78},{79},{80},{81},{82},{83},{84},{85},{86},{87},{88},{89},{90},{91},{92},{93},{94},{95},{96},{97},{98},{99},{100},{101},{102},{103},{104},{105},{106},{107},{108},{109},{110},{111},{112},{113},{114},{115},{116},{117},{118},{119},{120},{121},{122},{123},{124},{125},{126},{127}"
 SetLPE:    new flags="-opt 'Tsnet.Node.lindarsharg: ssh'  -nodelist 'i019.lcrc.anl.gov' -env GAUSS_MDEF=26843545600 -env GAUSS_EXEDIR="/gpfs/fs1/soft/improv/software/custom-built/gaussian/g16/bsd:/gpfs/fs1/soft/improv/software/custom-built/gaussian/g16" -env "OMP_PROC_BIND=true" -env "OMP_PLACES={0},{1},{2},{3},{4},{5},{6},{7},{8},{9},{10},{11},{12},{13},{14},{15},{16},{17},{18},{19},{20},{21},{22},{23},{24},{25},{26},{27},{28},{29},{30},{31},{32},{33},{34},{35},{36},{37},{38},{39},{40},{41},{42},{43},{44},{45},{46},{47},{48},{49},{50},{51},{52},{53},{54},{55},{56},{57},{58},{59},{60},{61},{62},{63},{64},{65},{66},{67},{68},{69},{70},{71},{72},{73},{74},{75},{76},{77},{78},{79},{80},{81},{82},{83},{84},{85},{86},{87},{88},{89},{90},{91},{92},{93},{94},{95},{96},{97},{98},{99},{100},{101},{102},{103},{104},{105},{106},{107},{108},{109},{110},{111},{112},{113},{114},{115},{116},{117},{118},{119},{120},{121},{122},{123},{124},{125},{126},{127}" -env GAUSS_ADEF="0,1,2,3,4,5,6,7,8,9,10,11,12,13,14,15,16,17,18,19,20,21,22,23,24,25,26,27,28,29,30,31,32,33,34,35,36,37,38,39,40,41,42,43,44,45,46,47,48,49,50,51,52,53,54,55,56,57,58,59,60,61,62,63,64,65,66,67,68,69,70,71,72,73,74,75,76,77,78,79,80,81,82,83,84,85,86,87,88,89,90,91,92,93,94,95,96,97,98,99,100,101,102,103,104,105,106,107,108,109,110,111,112,113,114,115,116,117,118,119,120,121,122,123,124,125,126,127""
 Will use up to    1 processors via Linda.
 ----------------------------------------------------------------------
 #p PBE1PBE empiricaldispersion=gd3 6-31+G(2df,p) opt=(cartesian,calcal
 l,maxcycles=500) freq scf=(maxcycles=500,xqc,maxconventional=50)
 ----------------------------------------------------------------------
 1/6=500,10=4,18=10,26=3,38=1/1,3;
 2/12=2,17=6,18=5,29=2,40=1/2;
 3/5=1,6=6,7=114,11=2,25=1,30=1,71=2,74=-13,124=31,140=1/1,2,3;
 4//1;
 5/5=2,7=500,8=3,13=1,38=5,85=50/2,8;
 8/6=4,10=90,11=11/1;
 11/6=1,8=1,9=11,15=111,16=1/1,2,10;
 10/6=1/2;
 6/7=2,8=2,9=2,10=2,18=1,28=1/1;
 7/7=1,10=1,25=1/1,2,3,16;
 1/6=500,10=4,18=10,26=3/3(3);
 2/29=1/2;
 7/7=1,8=1,9=1,25=1,44=-1/16;
 99/12=1/99;
 2/29=1/2;
 3/5=1,6=6,7=114,11=2,25=1,30=1,71=2,74=-13,124=31,140=1/1,2,3;
 4/5=5,16=3,69=1/1;
 5/5=2,7=500,8=3,13=1,38=5,85=50/2,8;
 8/6=4,10=90,11=11/1;
 11/6=1,8=1,9=11,15=111,16=1/1,2,10;
 10/6=1/2;
 7/7=1,10=1,25=1/1,2,3,16;
 1/6=500,10=4,18=10,26=3/3(-8);
 2/29=1/2;
 6/7=2,8=2,9=2,10=2,18=1,19=2,28=1/1;
 7/7=1,8=1,9=1,25=1,44=-1/16;
 99/12=1/99;
 Leave Link    1 at Thu May 23 16:38:37 2024, MaxMem=           0 cpu:               6.2 elap:               0.1
 (Enter /gpfs/fs1/soft/improv/software/custom-built/gaussian/g16/l101.exe)
 -----
 Title
 -----
 Symbolic Z-matrix:
 Charge =  3 Multiplicity = 2
 Ti                   -0.79304   0.81881  -0.09491 
 O                    -1.20497   2.57394  -0.35687 
 H                    -2.12106   2.64974  -0.63312 
 O                     0.99012   1.19063  -0.05794 
 H                     1.42696   0.5998    0.55971 
 O                    -0.81752   1.03069   1.71365 
 H                    -1.02108   0.1906    2.13133 
 O                    -0.38507  -0.93351   0.17118 
 H                    -1.15682  -1.47369  -0.01433 
 O                    -2.57341   0.45178  -0.12186 
 H                    -2.77756  -0.08744  -0.88929 
 O                    -0.76966   0.60461  -1.90111 
 H                     0.09872   0.83457  -2.23949 
 H                    -0.96534  -0.30999  -2.11742 
 H                     1.12208   2.09943   0.22124 
 H                    -1.07671   3.0584    0.46184 
 H                    -2.81407  -0.02398   0.6765 
 H                     0.0422    1.33615   2.01181 
 H                    -0.11532  -1.06446   1.08312 
 
 ITRead=  0  0  0  0  0  0  0  0  0  0  0  0  0  0  0  0  0  0  0
 MicOpt= -1 -1 -1 -1 -1 -1 -1 -1 -1 -1 -1 -1 -1 -1 -1 -1 -1 -1 -1
 NAtoms=     19 NQM=       19 NQMF=       0 NMMI=      0 NMMIF=      0
                NMic=       0 NMicF=      0.
                    Isotopes and Nuclear Properties:
 (Nuclear quadrupole moments (NQMom) in fm**2, nuclear magnetic moments (NMagM)
  in nuclear magnetons)

  Atom         1           2           3           4           5           6           7           8           9          10
 IAtWgt=          48          16           1          16           1          16           1          16           1          16
 AtmWgt=  47.9479467  15.9949146   1.0078250  15.9949146   1.0078250  15.9949146   1.0078250  15.9949146   1.0078250  15.9949146
 NucSpn=           0           0           1           0           1           0           1           0           1           0
 AtZEff=  -0.0000000  -0.0000000  -0.0000000  -0.0000000  -0.0000000  -0.0000000  -0.0000000  -0.0000000  -0.0000000  -0.0000000
 NQMom=    0.0000000   0.0000000   0.0000000   0.0000000   0.0000000   0.0000000   0.0000000   0.0000000   0.0000000   0.0000000
 NMagM=    0.0000000   0.0000000   2.7928460   0.0000000   2.7928460   0.0000000   2.7928460   0.0000000   2.7928460   0.0000000
 AtZNuc=  22.0000000   8.0000000   1.0000000   8.0000000   1.0000000   8.0000000   1.0000000   8.0000000   1.0000000   8.0000000

  Atom        11          12          13          14          15          16          17          18          19
 IAtWgt=           1          16           1           1           1           1           1           1           1
 AtmWgt=   1.0078250  15.9949146   1.0078250   1.0078250   1.0078250   1.0078250   1.0078250   1.0078250   1.0078250
 NucSpn=           1           0           1           1           1           1           1           1           1
 AtZEff=  -0.0000000  -0.0000000  -0.0000000  -0.0000000  -0.0000000  -0.0000000  -0.0000000  -0.0000000  -0.0000000
 NQMom=    0.0000000   0.0000000   0.0000000   0.0000000   0.0000000   0.0000000   0.0000000   0.0000000   0.0000000
 NMagM=    2.7928460   0.0000000   2.7928460   2.7928460   2.7928460   2.7928460   2.7928460   2.7928460   2.7928460
 AtZNuc=   1.0000000   8.0000000   1.0000000   1.0000000   1.0000000   1.0000000   1.0000000   1.0000000   1.0000000
 Leave Link  101 at Thu May 23 16:38:37 2024, MaxMem= 26843545600 cpu:               0.4 elap:               0.0
 (Enter /gpfs/fs1/soft/improv/software/custom-built/gaussian/g16/l103.exe)

 GradGradGradGradGradGradGradGradGradGradGradGradGradGradGradGradGradGrad
 Berny optimization.
 Initialization pass.
 No Z-matrix variables, so optimization will use Cartesian coordinates.
 Trust Radius=3.00D-01 FncErr=1.00D-07 GrdErr=1.00D-06 EigMax=2.50D+02 EigMin=1.00D-04
 Number of steps in this run=    114 maximum allowed number of steps=    114.
 GradGradGradGradGradGradGradGradGradGradGradGradGradGradGradGradGradGrad

 Leave Link  103 at Thu May 23 16:38:37 2024, MaxMem= 26843545600 cpu:               0.4 elap:               0.0
 (Enter /gpfs/fs1/soft/improv/software/custom-built/gaussian/g16/l202.exe)
 ---------------------------------------------------------------------------------------------------
                            Z-MATRIX (ANGSTROMS AND DEGREES)
   CD    Cent   Atom    N1       Length/X        N2       Alpha/Y        N3        Beta/Z          J
 ---------------------------------------------------------------------------------------------------
      1      1  Ti       0  -0.793037          0.818805         -0.094905
      2      2  O        0  -1.204971          2.573941         -0.356874
      3      3  H        0  -2.121063          2.649743         -0.633122
      4      4  O        0   0.990122          1.190635         -0.057941
      5      5  H        0   1.426962          0.599798          0.559707
      6      6  O        0  -0.817519          1.030691          1.713650
      7      7  H        0  -1.021079          0.190602          2.131326
      8      8  O        0  -0.385068         -0.933506          0.171177
      9      9  H        0  -1.156817         -1.473692         -0.014327
     10     10  O        0  -2.573405          0.451778         -0.121857
     11     11  H        0  -2.777557         -0.087440         -0.889285
     12     12  O        0  -0.769659          0.604612         -1.901109
     13     13  H        0   0.098725          0.834573         -2.239490
     14     14  H        0  -0.965336         -0.309994         -2.117418
     15     15  H        0   1.122081          2.099426          0.221242
     16     16  H        0  -1.076711          3.058396          0.461841
     17     17  H        0  -2.814074         -0.023981          0.676500
     18     18  H        0   0.042204          1.336153          2.011809
     19     19  H        0  -0.115315         -1.064459          1.083123
 ---------------------------------------------------------------------------------------------------
                         Z-Matrix orientation:                         
 ---------------------------------------------------------------------
 Center     Atomic      Atomic             Coordinates (Angstroms)
 Number     Number       Type             X           Y           Z
 ---------------------------------------------------------------------
      1         22           0       -0.793037    0.818805   -0.094905
      2          8           0       -1.204971    2.573941   -0.356874
      3          1           0       -2.121063    2.649743   -0.633122
      4          8           0        0.990122    1.190635   -0.057941
      5          1           0        1.426962    0.599798    0.559707
      6          8           0       -0.817519    1.030691    1.713650
      7          1           0       -1.021079    0.190602    2.131326
      8          8           0       -0.385068   -0.933506    0.171177
      9          1           0       -1.156817   -1.473692   -0.014327
     10          8           0       -2.573405    0.451778   -0.121857
     11          1           0       -2.777557   -0.087440   -0.889285
     12          8           0       -0.769659    0.604612   -1.901109
     13          1           0        0.098725    0.834573   -2.239490
     14          1           0       -0.965336   -0.309994   -2.117418
     15          1           0        1.122081    2.099426    0.221242
     16          1           0       -1.076711    3.058396    0.461841
     17          1           0       -2.814074   -0.023981    0.676500
     18          1           0        0.042204    1.336153    2.011809
     19          1           0       -0.115315   -1.064459    1.083123
 ---------------------------------------------------------------------
                    Distance matrix (angstroms):
                    1          2          3          4          5
     1  Ti   0.000000
     2  O    1.821762   0.000000
     3  H    2.325008   0.959835   0.000000
     4  O    1.821889   2.611767   3.484150   0.000000
     5  H    2.324839   3.415322   4.267739   0.959899   0.000000
     6  O    1.821090   2.611285   3.134947   2.536076   2.560263
     7  H    2.324381   3.450400   3.859988   3.136540   2.937743
     8  O    1.818745   3.640503   4.062050   2.540791   2.405292
     9  H    2.322579   4.062387   4.279649   3.421971   3.362259
    10  O    1.818006   2.536025   2.301533   3.639880   4.060711
    11  H    2.321775   3.136788   2.826442   4.064482   4.499984
    12  O    1.819010   2.540161   2.759827   2.614866   3.298603
    13  H    2.322657   2.875634   3.286750   2.383386   3.107223
    14  H    2.322591   3.387332   3.506977   3.212032   3.703756
    15  H    2.325429   2.444290   3.398642   0.959822   1.567289
    16  H    2.325125   0.959918   1.567358   2.833814   3.510364
    17  H    2.321626   3.225876   3.056824   4.060370   4.288255
    18  H    2.324547   2.949275   3.660724   2.281137   2.137375
    19  H    2.322443   4.061883   4.556733   2.758526   2.328591
                    6          7          8          9         10
     6  O    0.000000
     7  H    0.960021   0.000000
     8  O    2.534622   2.347406   0.000000
     9  H    3.061530   2.718847   0.960108   0.000000
    10  O    2.605257   2.748593   2.606473   2.392848   0.000000
    11  H    3.444886   3.505227   2.750347   2.305222   0.959885
    12  O    3.640099   4.061422   2.609231   2.833582   2.538227
    13  H    4.062670   4.557707   3.028445   3.443229   3.430916
    14  H    4.061572   4.278496   2.441955   2.411193   2.673658
    15  H    2.670492   3.447487   3.387136   4.244531   4.060675
    16  H    2.397039   3.318813   4.061790   4.557738   3.061904
    17  H    2.484803   2.318921   2.642472   2.307685   0.960023
    18  H    0.959858   1.567527   2.953276   3.665802   3.489421
    19  H    2.297892   1.869309   0.959980   1.567353   3.129403
                   11         12         13         14         15
    11  H    0.000000
    12  O    2.352526   0.000000
    13  H    3.308498   0.959935   0.000000
    14  H    2.200452   0.959991   1.567533   0.000000
    15  H    4.606825   3.212091   2.949969   3.953725   0.000000
    16  H    3.822919   3.420362   3.691102   4.243941   2.410850
    17  H    1.567497   3.349453   4.210050   3.362383   4.495491
    18  H    4.288824   4.062660   4.281159   4.558009   2.225950
    19  H    3.454344   3.481323   3.833001   3.396353   3.504877
                   16         17         18         19
    16  H    0.000000
    17  H    3.544793   0.000000
    18  H    2.573032   3.433851   0.000000
    19  H    4.278809   2.920828   2.578800   0.000000
 Stoichiometry    H12O6Ti(3+,2)
 Framework group  C1[X(H12O6Ti)]
 Deg. of freedom    51
 Full point group                 C1      NOp   1
 Largest Abelian subgroup         C1      NOp   1
 Largest concise Abelian subgroup C1      NOp   1
                         Standard orientation:                         
 ---------------------------------------------------------------------
 Center     Atomic      Atomic             Coordinates (Angstroms)
 Number     Number       Type             X           Y           Z
 ---------------------------------------------------------------------
      1         22           0       -0.021180   -0.031230    0.010242
      2          8           0       -0.320919   -1.688924   -0.683318
      3          1           0       -1.137185   -1.681640   -1.188234
      4          8           0        1.254245   -0.678703    1.138670
      5          1           0        1.942694   -0.019880    1.254406
      6          8           0        1.297272    0.293478   -1.203273
      7          1           0        1.380717    1.240156   -1.339207
      8          8           0        0.279127    1.625671    0.697504
      9          1           0       -0.432969    2.214440    0.436587
     10          8           0       -1.286964    0.614116   -1.123984
     11          1           0       -2.036002    0.936648   -0.617728
     12          8           0       -1.338898   -0.352897    1.222244
     13          1           0       -0.972045   -0.816749    1.978376
     14          1           0       -1.718130    0.480302    1.511284
     15          1           0        1.635288   -1.477345    0.766869
     16          1           0        0.408469   -1.932016   -1.258072
     17          1           0       -0.916621    1.333448   -1.640754
     18          1           0        2.128227   -0.056953   -0.874579
     19          1           0        1.112611    1.964725    0.362979
 ---------------------------------------------------------------------
 Rotational constants (GHZ):           2.0397079           1.9739543           1.9252950
 Leave Link  202 at Thu May 23 16:38:38 2024, MaxMem= 26843545600 cpu:               0.5 elap:               0.1
 (Enter /gpfs/fs1/soft/improv/software/custom-built/gaussian/g16/l301.exe)
 Standard basis: 6-31+G(2df,p) (6D, 7F)
 Ernie: Thresh=  0.10000D-02 Tol=  0.10000D-05 Strict=F.
 There are   347 symmetry adapted cartesian basis functions of A   symmetry.
 There are   317 symmetry adapted basis functions of A   symmetry.
   317 basis functions,   514 primitive gaussians,   347 cartesian basis functions
    40 alpha electrons       39 beta electrons
       nuclear repulsion energy       701.0339313636 Hartrees.
 IExCor= 1009 DFT=T Ex+Corr=PBE1PBE ExCW=0 ScaHFX=  0.250000
 ScaDFX=  0.750000  0.750000  1.000000  1.000000 ScalE2=  1.000000  1.000000
 IRadAn=      5 IRanWt=     -1 IRanGd=            0 ICorTp=0 IEmpDi=131
 NAtoms=   19 NActive=   19 NUniq=   19 SFac= 1.00D+00 NAtFMM=   60 NAOKFM=F Big=F
 Integral buffers will be    131072 words long.
 Raffenetti 2 integral format.
 Two-electron integral symmetry is turned on.
 R6Disp:  Grimme-D3 Dispersion energy=       -0.0129405104 Hartrees.
 Nuclear repulsion after empirical dispersion term =      701.0209908532 Hartrees.
 Leave Link  301 at Thu May 23 16:38:38 2024, MaxMem= 26843545600 cpu:               0.4 elap:               0.0
 (Enter /gpfs/fs1/soft/improv/software/custom-built/gaussian/g16/l302.exe)
 NPDir=0 NMtPBC=     1 NCelOv=     1 NCel=       1 NClECP=     1 NCelD=      1
         NCelK=      1 NCelE2=     1 NClLst=     1 CellRange=     0.0.
 One-electron integrals computed using PRISM.
 One-electron integral symmetry used in STVInt
 NBasis=   317 RedAO= T EigKep=  4.19D-05  NBF=   317
 NBsUse=   317 1.00D-06 EigRej= -1.00D+00 NBFU=   317
 Precomputing XC quadrature grid using
 IXCGrd= 4 IRadAn=           5 IRanWt=          -1 IRanGd=           0 AccXCQ= 0.00D+00.
 Generated NRdTot=       0 NPtTot=           0 NUsed=           0 NTot=          32
 NSgBfM=   347   347   347   347   347 MxSgAt=    19 MxSgA2=    19.
 Leave Link  302 at Thu May 23 16:38:38 2024, MaxMem= 26843545600 cpu:              22.2 elap:               0.3
 (Enter /gpfs/fs1/soft/improv/software/custom-built/gaussian/g16/l303.exe)
 DipDrv:  MaxL=1.
 Leave Link  303 at Thu May 23 16:38:39 2024, MaxMem= 26843545600 cpu:               1.0 elap:               0.0
 (Enter /gpfs/fs1/soft/improv/software/custom-built/gaussian/g16/l401.exe)
 ExpMin= 9.99D-03 ExpMax= 4.32D+04 ExpMxC= 6.48D+03 IAcc=3 IRadAn=         5 AccDes= 0.00D+00
 Harris functional with IExCor= 1009 and IRadAn=       5 diagonalized for initial guess.
 HarFok:  IExCor= 1009 AccDes= 0.00D+00 IRadAn=         5 IDoV= 1 UseB2=F ITyADJ=14
 ICtDFT=  3500011 ScaDFX=  1.000000  1.000000  1.000000  1.000000
 FoFCou: FMM=F IPFlag=           0 FMFlag=      100000 FMFlg1=           0
         NFxFlg=           0 DoJE=T BraDBF=F KetDBF=T FulRan=T
         wScrn=  0.000000 ICntrl=       500 IOpCl=  0 I1Cent=   200000004 NGrid=           0
         NMat0=    1 NMatS0=      1 NMatT0=    0 NMatD0=    1 NMtDS0=    0 NMtDT0=    0
 Petite list used in FoFCou.
 Harris En= -1306.76551717546    
 JPrj=0 DoOrth=F DoCkMO=F.
 Initial guess <Sx>= 0.0000 <Sy>= 0.0000 <Sz>= 0.5000 <S**2>= 0.7500 S= 0.5000
 Leave Link  401 at Thu May 23 16:38:39 2024, MaxMem= 26843545600 cpu:              40.7 elap:               0.5
 (Enter /gpfs/fs1/soft/improv/software/custom-built/gaussian/g16/l502.exe)
 Integral symmetry usage will be decided dynamically.
 UHF open shell SCF:
 Using DIIS extrapolation, IDIIS=  1040.
 NGot= 26843545600 LenX= 26843256607 LenY= 26843135757
 Requested convergence on RMS density matrix=1.00D-08 within  50 cycles.
 Requested convergence on MAX density matrix=1.00D-06.
 Requested convergence on             energy=1.00D-06.
 No special actions if energy rises.
 Fock matrices will be formed incrementally for  20 cycles.

 Cycle   1  Pass 1  IDiag  1:
 FoFJK:  IHMeth= 1 ICntrl=       0 DoSepK=F KAlg= 0 I1Cent=           0 FoldK=F
 IRaf= 990000000 NMat=       1 IRICut=       1 DoRegI=T DoRafI=F ISym2E= 0 IDoP0=0 IntGTp=1.
 FoFCou: FMM=F IPFlag=           0 FMFlag=      100000 FMFlg1=           0
         NFxFlg=           0 DoJE=F BraDBF=F KetDBF=F FulRan=T
         wScrn=  0.000000 ICntrl=         0 IOpCl=  1 I1Cent=           0 NGrid=           0
         NMat0=    1 NMatS0=      1 NMatT0=    0 NMatD0=    1 NMtDS0=    0 NMtDT0=    0
 Symmetry not used in FoFCou.
 E= -1305.78234397918    
 DIIS: error= 3.12D-02 at cycle   1 NSaved=   1.
 NSaved= 1 IEnMin= 1 EnMin= -1305.78234397918     IErMin= 1 ErrMin= 3.12D-02
 ErrMax= 3.12D-02  0.00D+00 EMaxC= 1.00D-01 BMatC= 2.37D+00 BMatP= 2.37D+00
 IDIUse=3 WtCom= 6.88D-01 WtEn= 3.12D-01
 Coeff-Com:  0.100D+01
 Coeff-En:   0.100D+01
 Coeff:      0.100D+01
 Gap=     0.139 Goal=   None    Shift=    0.000
 Gap=     0.225 Goal=   None    Shift=    0.000
 GapD=    0.139 DampG=1.000 DampE=0.250 DampFc=0.2500 IDamp=-1.
 Damping current iteration by 2.50D-01
 RMSDP=6.91D-03 MaxDP=3.53D-01              OVMax= 1.83D-01

 Cycle   2  Pass 1  IDiag  1:
 RMSU=  1.70D-03    CP:  9.83D-01
 E= -1305.91663847245     Delta-E=       -0.134294493270 Rises=F Damp=T
 DIIS: error= 1.42D-02 at cycle   2 NSaved=   2.
 NSaved= 2 IEnMin= 2 EnMin= -1305.91663847245     IErMin= 2 ErrMin= 1.42D-02
 ErrMax= 1.42D-02  0.00D+00 EMaxC= 1.00D-01 BMatC= 4.86D-01 BMatP= 2.37D+00
 IDIUse=3 WtCom= 8.58D-01 WtEn= 1.42D-01
 Coeff-Com: -0.699D+00 0.170D+01
 Coeff-En:   0.000D+00 0.100D+01
 Coeff:     -0.600D+00 0.160D+01
 Gap=     0.166 Goal=   None    Shift=    0.000
 Gap=     0.383 Goal=   None    Shift=    0.000
 RMSDP=2.12D-03 MaxDP=1.14D-01 DE=-1.34D-01 OVMax= 1.40D-01

 Cycle   3  Pass 1  IDiag  1:
 RMSU=  1.37D-03    CP:  9.64D-01  1.93D+00
 E= -1306.13939916054     Delta-E=       -0.222760688097 Rises=F Damp=F
 DIIS: error= 4.80D-03 at cycle   3 NSaved=   3.
 NSaved= 3 IEnMin= 3 EnMin= -1306.13939916054     IErMin= 3 ErrMin= 4.80D-03
 ErrMax= 4.80D-03  0.00D+00 EMaxC= 1.00D-01 BMatC= 4.45D-02 BMatP= 4.86D-01
 IDIUse=3 WtCom= 9.52D-01 WtEn= 4.80D-02
 Coeff-Com: -0.255D+00 0.603D+00 0.652D+00
 Coeff-En:   0.000D+00 0.000D+00 0.100D+01
 Coeff:     -0.243D+00 0.574D+00 0.668D+00
 Gap=     0.167 Goal=   None    Shift=    0.000
 Gap=     0.375 Goal=   None    Shift=    0.000
 RMSDP=1.06D-03 MaxDP=6.30D-02 DE=-2.23D-01 OVMax= 4.73D-02

 Cycle   4  Pass 1  IDiag  1:
 RMSU=  9.65D-04    CP:  9.60D-01  2.15D+00  8.32D-01
 E= -1306.14575124688     Delta-E=       -0.006352086341 Rises=F Damp=F
 DIIS: error= 2.32D-03 at cycle   4 NSaved=   4.
 NSaved= 4 IEnMin= 4 EnMin= -1306.14575124688     IErMin= 4 ErrMin= 2.32D-03
 ErrMax= 2.32D-03  0.00D+00 EMaxC= 1.00D-01 BMatC= 1.27D-02 BMatP= 4.45D-02
 IDIUse=3 WtCom= 9.77D-01 WtEn= 2.32D-02
 Coeff-Com: -0.282D-01 0.356D-01 0.342D+00 0.650D+00
 Coeff-En:   0.000D+00 0.000D+00 0.220D+00 0.780D+00
 Coeff:     -0.275D-01 0.348D-01 0.339D+00 0.653D+00
 Gap=     0.146 Goal=   None    Shift=    0.000
 Gap=     0.357 Goal=   None    Shift=    0.000
 RMSDP=3.32D-04 MaxDP=2.41D-02 DE=-6.35D-03 OVMax= 9.21D-03

 Cycle   5  Pass 1  IDiag  1:
 RMSU=  1.26D-04    CP:  9.59D-01  2.09D+00  8.85D-01  7.07D-01
 E= -1306.14824837456     Delta-E=       -0.002497127678 Rises=F Damp=F
 DIIS: error= 2.20D-04 at cycle   5 NSaved=   5.
 NSaved= 5 IEnMin= 5 EnMin= -1306.14824837456     IErMin= 5 ErrMin= 2.20D-04
 ErrMax= 2.20D-04  0.00D+00 EMaxC= 1.00D-01 BMatC= 1.54D-04 BMatP= 1.27D-02
 IDIUse=3 WtCom= 9.98D-01 WtEn= 2.20D-03
 Coeff-Com: -0.918D-02 0.894D-02 0.112D+00 0.245D+00 0.644D+00
 Coeff-En:   0.000D+00 0.000D+00 0.000D+00 0.000D+00 0.100D+01
 Coeff:     -0.916D-02 0.892D-02 0.112D+00 0.244D+00 0.644D+00
 Gap=     0.146 Goal=   None    Shift=    0.000
 Gap=     0.356 Goal=   None    Shift=    0.000
 RMSDP=2.75D-05 MaxDP=1.04D-03 DE=-2.50D-03 OVMax= 3.08D-03

 Cycle   6  Pass 1  IDiag  1:
 RMSU=  2.64D-05    CP:  9.59D-01  2.09D+00  8.85D-01  7.12D-01  1.05D+00
 E= -1306.14827316279     Delta-E=       -0.000024788226 Rises=F Damp=F
 DIIS: error= 1.05D-04 at cycle   6 NSaved=   6.
 NSaved= 6 IEnMin= 6 EnMin= -1306.14827316279     IErMin= 6 ErrMin= 1.05D-04
 ErrMax= 1.05D-04  0.00D+00 EMaxC= 1.00D-01 BMatC= 3.62D-05 BMatP= 1.54D-04
 IDIUse=3 WtCom= 9.99D-01 WtEn= 1.05D-03
 Coeff-Com:  0.445D-03-0.185D-02-0.164D-01-0.113D-01 0.330D+00 0.699D+00
 Coeff-En:   0.000D+00 0.000D+00 0.000D+00 0.000D+00 0.507D-01 0.949D+00
 Coeff:      0.445D-03-0.185D-02-0.164D-01-0.113D-01 0.330D+00 0.699D+00
 Gap=     0.147 Goal=   None    Shift=    0.000
 Gap=     0.356 Goal=   None    Shift=    0.000
 RMSDP=2.28D-05 MaxDP=1.04D-03 DE=-2.48D-05 OVMax= 3.60D-03

 Cycle   7  Pass 1  IDiag  1:
 RMSU=  1.48D-05    CP:  9.59D-01  2.10D+00  8.83D-01  7.25D-01  1.11D+00
                    CP:  9.61D-01
 E= -1306.14828387014     Delta-E=       -0.000010707354 Rises=F Damp=F
 DIIS: error= 4.90D-05 at cycle   7 NSaved=   7.
 NSaved= 7 IEnMin= 7 EnMin= -1306.14828387014     IErMin= 7 ErrMin= 4.90D-05
 ErrMax= 4.90D-05  0.00D+00 EMaxC= 1.00D-01 BMatC= 2.27D-06 BMatP= 3.62D-05
 IDIUse=1 WtCom= 1.00D+00 WtEn= 0.00D+00
 Coeff-Com:  0.449D-03-0.566D-03-0.109D-01-0.180D-01 0.562D-01 0.207D+00
 Coeff-Com:  0.765D+00
 Coeff:      0.449D-03-0.566D-03-0.109D-01-0.180D-01 0.562D-01 0.207D+00
 Coeff:      0.765D+00
 Gap=     0.147 Goal=   None    Shift=    0.000
 Gap=     0.356 Goal=   None    Shift=    0.000
 RMSDP=1.15D-05 MaxDP=9.78D-04 DE=-1.07D-05 OVMax= 3.07D-03

 Cycle   8  Pass 1  IDiag  1:
 RMSU=  5.98D-06    CP:  9.59D-01  2.09D+00  8.83D-01  7.24D-01  1.14D+00
                    CP:  1.15D+00  1.51D+00
 E= -1306.14828761774     Delta-E=       -0.000003747597 Rises=F Damp=F
 DIIS: error= 4.30D-05 at cycle   8 NSaved=   8.
 NSaved= 8 IEnMin= 8 EnMin= -1306.14828761774     IErMin= 8 ErrMin= 4.30D-05
 ErrMax= 4.30D-05  0.00D+00 EMaxC= 1.00D-01 BMatC= 1.37D-06 BMatP= 2.27D-06
 IDIUse=1 WtCom= 1.00D+00 WtEn= 0.00D+00
 Coeff-Com: -0.173D-04 0.193D-03 0.188D-02 0.234D-03-0.398D-01-0.759D-01
 Coeff-Com:  0.248D-01 0.109D+01
 Coeff:     -0.173D-04 0.193D-03 0.188D-02 0.234D-03-0.398D-01-0.759D-01
 Coeff:      0.248D-01 0.109D+01
 Gap=     0.147 Goal=   None    Shift=    0.000
 Gap=     0.356 Goal=   None    Shift=    0.000
 RMSDP=1.47D-05 MaxDP=1.39D-03 DE=-3.75D-06 OVMax= 4.24D-03

 Cycle   9  Pass 1  IDiag  1:
 RMSU=  3.68D-06    CP:  9.59D-01  2.09D+00  8.83D-01  7.24D-01  1.16D+00
                    CP:  1.36D+00  2.25D+00  2.14D+00
 E= -1306.14829231865     Delta-E=       -0.000004700910 Rises=F Damp=F
 DIIS: error= 4.07D-05 at cycle   9 NSaved=   9.
 NSaved= 9 IEnMin= 9 EnMin= -1306.14829231865     IErMin= 9 ErrMin= 4.07D-05
 ErrMax= 4.07D-05  0.00D+00 EMaxC= 1.00D-01 BMatC= 1.17D-06 BMatP= 1.37D-06
 IDIUse=1 WtCom= 1.00D+00 WtEn= 0.00D+00
 Coeff-Com: -0.318D-03 0.409D-03 0.821D-02 0.136D-01-0.387D-01-0.154D+00
 Coeff-Com: -0.538D+00-0.327D-01 0.174D+01
 Coeff:     -0.318D-03 0.409D-03 0.821D-02 0.136D-01-0.387D-01-0.154D+00
 Coeff:     -0.538D+00-0.327D-01 0.174D+01
 Gap=     0.147 Goal=   None    Shift=    0.000
 Gap=     0.356 Goal=   None    Shift=    0.000
 RMSDP=3.03D-05 MaxDP=2.94D-03 DE=-4.70D-06 OVMax= 8.78D-03

 Cycle  10  Pass 1  IDiag  1:
 RMSU=  1.51D-05    CP:  9.59D-01  2.09D+00  8.83D-01  7.24D-01  1.19D+00
                    CP:  1.76D+00  3.00D+00  3.00D+00  3.00D+00
 E= -1306.14830098983     Delta-E=       -0.000008671177 Rises=F Damp=F
 DIIS: error= 3.19D-05 at cycle  10 NSaved=  10.
 NSaved=10 IEnMin=10 EnMin= -1306.14830098983     IErMin=10 ErrMin= 3.19D-05
 ErrMax= 3.19D-05  0.00D+00 EMaxC= 1.00D-01 BMatC= 8.91D-07 BMatP= 1.17D-06
 IDIUse=1 WtCom= 1.00D+00 WtEn= 0.00D+00
 Coeff-Com: -0.272D-03 0.231D-03 0.200D-02 0.814D-02 0.355D-01 0.758D-02
 Coeff-Com: -0.307D+00-0.170D+01 0.100D+01 0.195D+01
 Coeff:     -0.272D-03 0.231D-03 0.200D-02 0.814D-02 0.355D-01 0.758D-02
 Coeff:     -0.307D+00-0.170D+01 0.100D+01 0.195D+01
 Gap=     0.147 Goal=   None    Shift=    0.000
 Gap=     0.356 Goal=   None    Shift=    0.000
 RMSDP=6.49D-05 MaxDP=6.46D-03 DE=-8.67D-06 OVMax= 1.89D-02

 Cycle  11  Pass 1  IDiag  1:
 RMSU=  3.29D-05    CP:  9.59D-01  2.10D+00  8.83D-01  7.25D-01  1.24D+00
                    CP:  2.59D+00  3.00D+00  3.00D+00  3.00D+00  3.00D+00
 E= -1306.14831497681     Delta-E=       -0.000013986980 Rises=F Damp=F
 DIIS: error= 1.91D-05 at cycle  11 NSaved=  11.
 NSaved=11 IEnMin=11 EnMin= -1306.14831497681     IErMin=11 ErrMin= 1.91D-05
 ErrMax= 1.91D-05  0.00D+00 EMaxC= 1.00D-01 BMatC= 5.51D-07 BMatP= 8.91D-07
 IDIUse=1 WtCom= 1.00D+00 WtEn= 0.00D+00
 Coeff-Com: -0.125D-03 0.170D-03-0.512D-02-0.420D-02 0.663D-01 0.148D+00
 Coeff-Com:  0.251D+00-0.127D+01-0.692D+00 0.147D+01 0.104D+01
 Coeff:     -0.125D-03 0.170D-03-0.512D-02-0.420D-02 0.663D-01 0.148D+00
 Coeff:      0.251D+00-0.127D+01-0.692D+00 0.147D+01 0.104D+01
 Gap=     0.147 Goal=   None    Shift=    0.000
 Gap=     0.356 Goal=   None    Shift=    0.000
 RMSDP=5.56D-05 MaxDP=5.65D-03 DE=-1.40D-05 OVMax= 1.62D-02

 Cycle  12  Pass 1  IDiag  1:
 RMSU=  1.62D-05    CP:  9.59D-01  2.10D+00  8.83D-01  7.26D-01  1.29D+00
                    CP:  3.00D+00  3.00D+00  3.00D+00  3.00D+00  3.00D+00
                    CP:  2.52D+00
 E= -1306.14832215651     Delta-E=       -0.000007179708 Rises=F Damp=F
 DIIS: error= 1.52D-05 at cycle  12 NSaved=  12.
 NSaved=12 IEnMin=12 EnMin= -1306.14832215651     IErMin=12 ErrMin= 1.52D-05
 ErrMax= 1.52D-05  0.00D+00 EMaxC= 1.00D-01 BMatC= 2.44D-07 BMatP= 5.51D-07
 IDIUse=1 WtCom= 1.00D+00 WtEn= 0.00D+00
 Coeff-Com: -0.115D-03 0.205D-03-0.116D-02-0.176D-02 0.167D-01 0.567D-01
 Coeff-Com:  0.116D+00 0.129D+00-0.129D+00-0.324D+00-0.941D-01 0.123D+01
 Coeff:     -0.115D-03 0.205D-03-0.116D-02-0.176D-02 0.167D-01 0.567D-01
 Coeff:      0.116D+00 0.129D+00-0.129D+00-0.324D+00-0.941D-01 0.123D+01
 Gap=     0.147 Goal=   None    Shift=    0.000
 Gap=     0.356 Goal=   None    Shift=    0.000
 RMSDP=1.22D-05 MaxDP=1.21D-03 DE=-7.18D-06 OVMax= 3.62D-03

 Cycle  13  Pass 1  IDiag  1:
 RMSU=  4.53D-06    CP:  9.59D-01  2.10D+00  8.83D-01  7.26D-01  1.30D+00
                    CP:  3.00D+00  3.00D+00  3.00D+00  3.00D+00  3.00D+00
                    CP:  2.84D+00  1.27D+00
 E= -1306.14832350526     Delta-E=       -0.000001348750 Rises=F Damp=F
 DIIS: error= 1.44D-05 at cycle  13 NSaved=  13.
 NSaved=13 IEnMin=13 EnMin= -1306.14832350526     IErMin=13 ErrMin= 1.44D-05
 ErrMax= 1.44D-05  0.00D+00 EMaxC= 1.00D-01 BMatC= 1.59D-07 BMatP= 2.44D-07
 IDIUse=1 WtCom= 1.00D+00 WtEn= 0.00D+00
 Coeff-Com:  0.127D-04 0.681D-05 0.266D-02 0.194D-02-0.394D-01-0.786D-01
 Coeff-Com: -0.112D+00 0.705D+00 0.389D+00-0.965D+00-0.602D+00 0.310D+00
 Coeff-Com:  0.139D+01
 Coeff:      0.127D-04 0.681D-05 0.266D-02 0.194D-02-0.394D-01-0.786D-01
 Coeff:     -0.112D+00 0.705D+00 0.389D+00-0.965D+00-0.602D+00 0.310D+00
 Coeff:      0.139D+01
 Gap=     0.147 Goal=   None    Shift=    0.000
 Gap=     0.356 Goal=   None    Shift=    0.000
 RMSDP=2.28D-05 MaxDP=2.26D-03 DE=-1.35D-06 OVMax= 6.77D-03

 Cycle  14  Pass 1  IDiag  1:
 RMSU=  1.42D-05    CP:  9.59D-01  2.10D+00  8.83D-01  7.26D-01  1.32D+00
                    CP:  3.00D+00  3.00D+00  3.00D+00  3.00D+00  3.00D+00
                    CP:  3.00D+00  1.81D+00  2.58D+00
 E= -1306.14832537466     Delta-E=       -0.000001869398 Rises=F Damp=F
 DIIS: error= 1.12D-05 at cycle  14 NSaved=  14.
 NSaved=14 IEnMin=14 EnMin= -1306.14832537466     IErMin=14 ErrMin= 1.12D-05
 ErrMax= 1.12D-05  0.00D+00 EMaxC= 1.00D-01 BMatC= 1.06D-07 BMatP= 1.59D-07
 IDIUse=1 WtCom= 1.00D+00 WtEn= 0.00D+00
 Coeff-Com:  0.102D-03-0.125D-03 0.145D-02 0.117D-02-0.214D-01-0.489D-01
 Coeff-Com: -0.532D-01 0.307D+00 0.175D+00-0.311D+00-0.115D+00 0.104D+00
 Coeff-Com: -0.135D+01 0.231D+01
 Coeff:      0.102D-03-0.125D-03 0.145D-02 0.117D-02-0.214D-01-0.489D-01
 Coeff:     -0.532D-01 0.307D+00 0.175D+00-0.311D+00-0.115D+00 0.104D+00
 Coeff:     -0.135D+01 0.231D+01
 Gap=     0.147 Goal=   None    Shift=    0.000
 Gap=     0.356 Goal=   None    Shift=    0.000
 RMSDP=2.11D-05 MaxDP=1.83D-03 DE=-1.87D-06 OVMax= 6.31D-03

 Cycle  15  Pass 1  IDiag  1:
 RMSU=  9.67D-06    CP:  9.59D-01  2.10D+00  8.83D-01  7.26D-01  1.34D+00
                    CP:  3.00D+00  3.00D+00  3.00D+00  3.00D+00  3.00D+00
                    CP:  3.00D+00  2.28D+00  3.00D+00  2.11D+00
 E= -1306.14832675941     Delta-E=       -0.000001384751 Rises=F Damp=F
 DIIS: error= 7.28D-06 at cycle  15 NSaved=  15.
 NSaved=15 IEnMin=15 EnMin= -1306.14832675941     IErMin=15 ErrMin= 7.28D-06
 ErrMax= 7.28D-06  0.00D+00 EMaxC= 1.00D-01 BMatC= 7.15D-08 BMatP= 1.06D-07
 IDIUse=1 WtCom= 1.00D+00 WtEn= 0.00D+00
 Coeff-Com:  0.964D-04-0.129D-03-0.283D-03-0.253D-03 0.528D-02 0.898D-02
 Coeff-Com:  0.383D-01-0.672D-01-0.102D+00 0.216D+00 0.254D+00 0.212D+00
 Coeff-Com: -0.259D+01 0.195D+01 0.108D+01
 Coeff:      0.964D-04-0.129D-03-0.283D-03-0.253D-03 0.528D-02 0.898D-02
 Coeff:      0.383D-01-0.672D-01-0.102D+00 0.216D+00 0.254D+00 0.212D+00
 Coeff:     -0.259D+01 0.195D+01 0.108D+01
 Gap=     0.147 Goal=   None    Shift=    0.000
 Gap=     0.356 Goal=   None    Shift=    0.000
 RMSDP=2.07D-05 MaxDP=1.70D-03 DE=-1.38D-06 OVMax= 6.21D-03

 Cycle  16  Pass 1  IDiag  1:
 RMSU=  2.15D-06    CP:  9.59D-01  2.10D+00  8.83D-01  7.26D-01  1.35D+00
                    CP:  3.00D+00  3.00D+00  3.00D+00  3.00D+00  3.00D+00
                    CP:  3.00D+00  2.73D+00  3.00D+00  3.00D+00  2.30D+00
 E= -1306.14832746832     Delta-E=       -0.000000708906 Rises=F Damp=F
 DIIS: error= 2.28D-06 at cycle  16 NSaved=  16.
 NSaved=16 IEnMin=16 EnMin= -1306.14832746832     IErMin=16 ErrMin= 2.28D-06
 ErrMax= 2.28D-06  0.00D+00 EMaxC= 1.00D-01 BMatC= 1.38D-08 BMatP= 7.15D-08
 IDIUse=1 WtCom= 1.00D+00 WtEn= 0.00D+00
 Coeff-Com:  0.787D-05-0.160D-04-0.736D-03-0.658D-03 0.112D-01 0.261D-01
 Coeff-Com:  0.452D-01-0.149D+00-0.136D+00 0.215D+00 0.173D+00 0.123D+00
 Coeff-Com: -0.668D+00-0.800D-01 0.491D+00 0.949D+00
 Coeff:      0.787D-05-0.160D-04-0.736D-03-0.658D-03 0.112D-01 0.261D-01
 Coeff:      0.452D-01-0.149D+00-0.136D+00 0.215D+00 0.173D+00 0.123D+00
 Coeff:     -0.668D+00-0.800D-01 0.491D+00 0.949D+00
 Gap=     0.147 Goal=   None    Shift=    0.000
 Gap=     0.356 Goal=   None    Shift=    0.000
 RMSDP=8.08D-06 MaxDP=6.34D-04 DE=-7.09D-07 OVMax= 2.42D-03

 Cycle  17  Pass 1  IDiag  1:
 RMSU=  2.24D-06    CP:  9.59D-01  2.10D+00  8.83D-01  7.27D-01  1.36D+00
                    CP:  3.00D+00  3.00D+00  3.00D+00  3.00D+00  3.00D+00
                    CP:  3.00D+00  2.90D+00  3.00D+00  3.00D+00  2.84D+00
                    CP:  3.00D+00
 E= -1306.14832754663     Delta-E=       -0.000000078307 Rises=F Damp=F
 DIIS: error= 8.24D-07 at cycle  17 NSaved=  17.
 NSaved=17 IEnMin=17 EnMin= -1306.14832754663     IErMin=17 ErrMin= 8.24D-07
 ErrMax= 8.24D-07  0.00D+00 EMaxC= 1.00D-01 BMatC= 1.30D-09 BMatP= 1.38D-08
 IDIUse=1 WtCom= 1.00D+00 WtEn= 0.00D+00
 Coeff-Com: -0.166D-04 0.216D-04-0.875D-04-0.621D-04 0.146D-02 0.386D-02
 Coeff-Com:  0.126D-03-0.227D-01 0.272D-02 0.114D-01-0.145D-01-0.581D-01
 Coeff-Com:  0.307D+00-0.313D+00-0.511D-01 0.234D+00 0.900D+00
 Coeff:     -0.166D-04 0.216D-04-0.875D-04-0.621D-04 0.146D-02 0.386D-02
 Coeff:      0.126D-03-0.227D-01 0.272D-02 0.114D-01-0.145D-01-0.581D-01
 Coeff:      0.307D+00-0.313D+00-0.511D-01 0.234D+00 0.900D+00
 Gap=     0.147 Goal=   None    Shift=    0.000
 Gap=     0.356 Goal=   None    Shift=    0.000
 RMSDP=1.05D-06 MaxDP=8.67D-05 DE=-7.83D-08 OVMax= 3.14D-04

 Cycle  18  Pass 1  IDiag  1:
 RMSU=  4.33D-07    CP:  9.59D-01  2.10D+00  8.83D-01  7.27D-01  1.36D+00
                    CP:  3.00D+00  3.00D+00  3.00D+00  3.00D+00  3.00D+00
                    CP:  3.00D+00  2.91D+00  3.00D+00  3.00D+00  2.93D+00
                    CP:  3.00D+00  1.16D+00
 E= -1306.14832754843     Delta-E=       -0.000000001802 Rises=F Damp=F
 DIIS: error= 2.52D-07 at cycle  18 NSaved=  18.
 NSaved=18 IEnMin=18 EnMin= -1306.14832754843     IErMin=18 ErrMin= 2.52D-07
 ErrMax= 2.52D-07  0.00D+00 EMaxC= 1.00D-01 BMatC= 1.04D-10 BMatP= 1.30D-09
 IDIUse=1 WtCom= 1.00D+00 WtEn= 0.00D+00
 Coeff-Com: -0.447D-05 0.614D-05 0.254D-04 0.504D-04-0.379D-03-0.126D-02
 Coeff-Com: -0.350D-02-0.207D-02 0.104D-01-0.209D-02-0.846D-02-0.349D-01
 Coeff-Com:  0.836D-01-0.155D-01-0.359D-01-0.423D-01 0.358D-01 0.102D+01
 Coeff:     -0.447D-05 0.614D-05 0.254D-04 0.504D-04-0.379D-03-0.126D-02
 Coeff:     -0.350D-02-0.207D-02 0.104D-01-0.209D-02-0.846D-02-0.349D-01
 Coeff:      0.836D-01-0.155D-01-0.359D-01-0.423D-01 0.358D-01 0.102D+01
 Gap=     0.147 Goal=   None    Shift=    0.000
 Gap=     0.356 Goal=   None    Shift=    0.000
 RMSDP=5.79D-08 MaxDP=4.92D-06 DE=-1.80D-09 OVMax= 1.48D-05

 Cycle  19  Pass 1  IDiag  1:
 RMSU=  4.18D-08    CP:  9.59D-01  2.10D+00  8.83D-01  7.27D-01  1.36D+00
                    CP:  3.00D+00  3.00D+00  3.00D+00  3.00D+00  3.00D+00
                    CP:  3.00D+00  2.91D+00  3.00D+00  3.00D+00  2.93D+00
                    CP:  3.00D+00  1.17D+00  1.07D+00
 E= -1306.14832754846     Delta-E=       -0.000000000037 Rises=F Damp=F
 DIIS: error= 1.22D-07 at cycle  19 NSaved=  19.
 NSaved=19 IEnMin=19 EnMin= -1306.14832754846     IErMin=19 ErrMin= 1.22D-07
 ErrMax= 1.22D-07  0.00D+00 EMaxC= 1.00D-01 BMatC= 5.52D-11 BMatP= 1.04D-10
 IDIUse=1 WtCom= 1.00D+00 WtEn= 0.00D+00
 Coeff-Com:  0.170D-06-0.150D-06 0.257D-04 0.422D-04-0.394D-03-0.131D-02
 Coeff-Com: -0.195D-02 0.208D-03 0.482D-02-0.110D-03-0.505D-03-0.127D-01
 Coeff-Com: -0.695D-02 0.481D-01-0.109D-01-0.663D-01-0.152D+00 0.581D+00
 Coeff-Com:  0.619D+00
 Coeff:      0.170D-06-0.150D-06 0.257D-04 0.422D-04-0.394D-03-0.131D-02
 Coeff:     -0.195D-02 0.208D-03 0.482D-02-0.110D-03-0.505D-03-0.127D-01
 Coeff:     -0.695D-02 0.481D-01-0.109D-01-0.663D-01-0.152D+00 0.581D+00
 Coeff:      0.619D+00
 Gap=     0.147 Goal=   None    Shift=    0.000
 Gap=     0.356 Goal=   None    Shift=    0.000
 RMSDP=6.84D-08 MaxDP=5.22D-06 DE=-3.68D-11 OVMax= 1.96D-05

 Cycle  20  Pass 1  IDiag  1:
 RMSU=  1.78D-08    CP:  9.59D-01  2.10D+00  8.83D-01  7.27D-01  1.36D+00
                    CP:  3.00D+00  3.00D+00  3.00D+00  3.00D+00  3.00D+00
                    CP:  3.00D+00  2.92D+00  3.00D+00  3.00D+00  2.93D+00
                    CP:  3.00D+00  1.19D+00  1.17D+00  1.12D+00
 E= -1306.14832754847     Delta-E=       -0.000000000006 Rises=F Damp=F
 DIIS: error= 4.21D-08 at cycle  20 NSaved=  20.
 NSaved=20 IEnMin=20 EnMin= -1306.14832754847     IErMin=20 ErrMin= 4.21D-08
 ErrMax= 4.21D-08  0.00D+00 EMaxC= 1.00D-01 BMatC= 2.60D-12 BMatP= 5.52D-11
 IDIUse=1 WtCom= 1.00D+00 WtEn= 0.00D+00
 Coeff-Com:  0.619D-06-0.935D-06-0.121D-05 0.237D-06 0.476D-04 0.801D-04
 Coeff-Com:  0.240D-03-0.935D-03-0.973D-03 0.156D-02 0.145D-02 0.127D-02
 Coeff-Com: -0.726D-02 0.471D-02 0.185D-02-0.205D-02-0.188D-01-0.103D+00
 Coeff-Com:  0.869D-01 0.103D+01
 Coeff:      0.619D-06-0.935D-06-0.121D-05 0.237D-06 0.476D-04 0.801D-04
 Coeff:      0.240D-03-0.935D-03-0.973D-03 0.156D-02 0.145D-02 0.127D-02
 Coeff:     -0.726D-02 0.471D-02 0.185D-02-0.205D-02-0.188D-01-0.103D+00
 Coeff:      0.869D-01 0.103D+01
 Gap=     0.147 Goal=   None    Shift=    0.000
 Gap=     0.356 Goal=   None    Shift=    0.000
 RMSDP=1.70D-08 MaxDP=1.44D-06 DE=-5.91D-12 OVMax= 4.77D-06

 Cycle  21  Pass 1  IDiag  1:
 Restarting incremental Fock formation.
 E= -1306.14832754849     Delta-E=       -0.000000000017 Rises=F Damp=F
 DIIS: error= 8.93D-09 at cycle  21 NSaved=  20.
 NSaved=20 IEnMin=20 EnMin= -1306.14832754849     IErMin=20 ErrMin= 8.93D-09
 ErrMax= 8.93D-09  0.00D+00 EMaxC= 1.00D-01 BMatC= 2.44D-13 BMatP= 2.60D-12
 IDIUse=1 WtCom= 1.00D+00 WtEn= 0.00D+00
 Coeff-Com:  0.550D-07-0.962D-06-0.129D-05 0.331D-04 0.935D-04 0.104D-03
 Coeff-Com: -0.329D-03-0.366D-03 0.439D-03 0.249D-03 0.567D-03 0.270D-03
 Coeff-Com: -0.298D-02 0.932D-03 0.482D-02 0.811D-02-0.653D-01-0.299D-01
 Coeff-Com:  0.213D+00 0.871D+00
 Coeff:      0.550D-07-0.962D-06-0.129D-05 0.331D-04 0.935D-04 0.104D-03
 Coeff:     -0.329D-03-0.366D-03 0.439D-03 0.249D-03 0.567D-03 0.270D-03
 Coeff:     -0.298D-02 0.932D-03 0.482D-02 0.811D-02-0.653D-01-0.299D-01
 Coeff:      0.213D+00 0.871D+00
 Gap=     0.147 Goal=   None    Shift=    0.000
 Gap=     0.356 Goal=   None    Shift=    0.000
 RMSDP=8.34D-09 MaxDP=7.93D-07 DE=-1.73D-11 OVMax= 2.50D-06

 SCF Done:  E(UPBE1PBE) =  -1306.14832755     A.U. after   21 cycles
            NFock= 21  Conv=0.83D-08     -V/T= 2.0002
 <Sx>= 0.0000 <Sy>= 0.0000 <Sz>= 0.5000 <S**2>= 0.7513 S= 0.5007
 <L.S>=  0.00000000000    
 KE= 1.305866692443D+03 PE=-4.449794755219D+03 EE= 1.136758744374D+03
 Annihilation of the first spin contaminant:
 S**2 before annihilation     0.7513,   after     0.7500
 Leave Link  502 at Thu May 23 16:39:14 2024, MaxMem= 26843545600 cpu:            3898.5 elap:              34.3
 (Enter /gpfs/fs1/soft/improv/software/custom-built/gaussian/g16/l508.exe)
 QCSCF skips out because SCF is already converged.
 Leave Link  508 at Thu May 23 16:39:14 2024, MaxMem= 26843545600 cpu:               0.2 elap:               0.0
 (Enter /gpfs/fs1/soft/improv/software/custom-built/gaussian/g16/l801.exe)
 DoSCS=F DFT=T ScalE2(SS,OS)=  1.000000  1.000000
 Range of M.O.s used for correlation:     1   317
 NBasis=   317 NAE=    40 NBE=    39 NFC=     0 NFV=     0
 NROrb=    317 NOA=    40 NOB=    39 NVA=   277 NVB=   278

 **** Warning!!: The largest alpha MO coefficient is  0.78990363D+02


 **** Warning!!: The largest beta MO coefficient is  0.78986126D+02

 Leave Link  801 at Thu May 23 16:39:14 2024, MaxMem= 26843545600 cpu:               0.3 elap:               0.0
 (Enter /gpfs/fs1/soft/improv/software/custom-built/gaussian/g16/l1101.exe)
 Using compressed storage, NAtomX=    19.
 Will process     20 centers per pass.
 R6Disp: Adding Grimme-D3 dispersion energy 1st derivatives to the gradient.
 Leave Link 1101 at Thu May 23 16:39:15 2024, MaxMem= 26843545600 cpu:              51.4 elap:               0.5
 (Enter /gpfs/fs1/soft/improv/software/custom-built/gaussian/g16/l1102.exe)
 Symmetrizing basis deriv contribution to polar:
 IMax=3 JMax=2 DiffMx= 0.00D+00
 Leave Link 1102 at Thu May 23 16:39:15 2024, MaxMem= 26843545600 cpu:               1.0 elap:               0.0
 (Enter /gpfs/fs1/soft/improv/software/custom-built/gaussian/g16/l1110.exe)
 Forming Gx(P) for the SCF density, NAtomX=    19.
 Integral derivatives from FoFJK, PRISM(SPDF).
 Do as many integral derivatives as possible in FoFJK.
 G2DrvN: MDV=   26843543431.
 G2DrvN: will do    20 centers at a time, making    1 passes.
 Calling FoFCou, ICntrl=  3107 FMM=F I1Cent=   0 AccDes= 0.00D+00.
 FoFJK:  IHMeth= 1 ICntrl=    3107 DoSepK=F KAlg= 0 I1Cent=           0 FoldK=F
 IRaf=         0 NMat=       1 IRICut=       1 DoRegI=T DoRafI=F ISym2E= 0 IDoP0=0 IntGTp=1.
 FoFCou: FMM=F IPFlag=           0 FMFlag=      100000 FMFlg1=           0
         NFxFlg=           0 DoJE=F BraDBF=F KetDBF=F FulRan=T
         wScrn=  0.000000 ICntrl=      3107 IOpCl=  1 I1Cent=           0 NGrid=           0
         NMat0=    1 NMatS0=      1 NMatT0=    0 NMatD0=    1 NMtDS0=    0 NMtDT0=    0
 Symmetry not used in FoFCou.
 End of G2Drv F.D. properties file   721 does not exist.
 End of G2Drv F.D. properties file   722 does not exist.
 End of G2Drv F.D. properties file   788 does not exist.
 Leave Link 1110 at Thu May 23 16:39:30 2024, MaxMem= 26843545600 cpu:            1868.6 elap:              14.9
 (Enter /gpfs/fs1/soft/improv/software/custom-built/gaussian/g16/l1002.exe)
 Minotr:  UHF open shell wavefunction.
          IDoAtm=1111111111111111111
          Direct CPHF calculation.
          Differentiating once with respect to electric field.
                with respect to dipole field.
          Differentiating once with respect to nuclear coordinates.
          Requested convergence is 1.0D-08 RMS, and 1.0D-07 maximum.
          Secondary convergence is 1.0D-12 RMS, and 1.0D-12 maximum.
          NewPWx=T KeepS1=F KeepF1=F KeepIn=T MapXYZ=F SortEE=F KeepMc=T.
         6034 words used for storage of precomputed grid.
 Two-electron integrals replicated using symmetry.
          MDV=   26843545600 using IRadAn=       1.
          Solving linear equations simultaneously, MaxMat=     384.
 FoF2E skips out because all densities are zero.
 CalDSu exits because no D1Ps are significant.
 FoFJK:  IHMeth= 1 ICntrl=       0 DoSepK=F KAlg= 0 I1Cent=           0 FoldK=F
 IRaf= 990000000 NMat=      57 IRICut=     142 DoRegI=T DoRafI=T ISym2E= 2 IDoP0=3 IntGTp=2.
 FoFCou: FMM=F IPFlag=           0 FMFlag=      100000 FMFlg1=           0
         NFxFlg=           0 DoJE=F BraDBF=F KetDBF=F FulRan=T
         wScrn=  0.000000 ICntrl=         0 IOpCl=  1 I1Cent=           0 NGrid=           0
         NMat0=   57 NMatS0=     57 NMatT0=    0 NMatD0=   57 NMtDS0=    0 NMtDT0=    0
 Integrals replicated using symmetry in FoFCou.
 Raff kept on since  98.06% of shell-pairs survive, threshold=   0.20 IRatSp=98.
          There are    60 degrees of freedom in the 1st order CPHF.  IDoFFX=6 NUNeed=     3.
     57 vectors produced by pass  0 Test12= 3.65D-14 1.67D-09 XBig12= 4.87D+01 1.19D+00.
 AX will form    57 AO Fock derivatives at one time.
     57 vectors produced by pass  1 Test12= 3.65D-14 1.67D-09 XBig12= 4.47D+00 2.15D-01.
     57 vectors produced by pass  2 Test12= 3.65D-14 1.67D-09 XBig12= 5.35D-02 2.42D-02.
     57 vectors produced by pass  3 Test12= 3.65D-14 1.67D-09 XBig12= 2.06D-04 1.96D-03.
     57 vectors produced by pass  4 Test12= 3.65D-14 1.67D-09 XBig12= 1.30D-06 1.50D-04.
     57 vectors produced by pass  5 Test12= 3.65D-14 1.67D-09 XBig12= 1.05D-08 1.23D-05.
     48 vectors produced by pass  6 Test12= 3.65D-14 1.67D-09 XBig12= 5.98D-11 8.42D-07.
     10 vectors produced by pass  7 Test12= 3.65D-14 1.67D-09 XBig12= 2.38D-13 4.98D-08.
      3 vectors produced by pass  8 Test12= 3.65D-14 1.67D-09 XBig12= 1.00D-15 4.32D-09.
 InvSVY:  IOpt=1 It=  1 EMax= 6.22D-15
 Solved reduced A of dimension   403 with    60 vectors.
 FullF1:  Do perturbations      1 to       3.
 Isotropic polarizability for W=    0.000000       48.77 Bohr**3.
 End of Minotr F.D. properties file   721 does not exist.
 End of Minotr F.D. properties file   722 does not exist.
 End of Minotr F.D. properties file   788 does not exist.
 Leave Link 1002 at Thu May 23 16:40:35 2024, MaxMem= 26843545600 cpu:            7913.3 elap:              65.4
 (Enter /gpfs/fs1/soft/improv/software/custom-built/gaussian/g16/l601.exe)
 Copying SCF densities to generalized density rwf, IOpCl= 1 IROHF=0.

 **********************************************************************

            Population analysis using the SCF Density.

 **********************************************************************

 Orbital symmetries:
 Alpha Orbitals:
       Occupied  (A) (A) (A) (A) (A) (A) (A) (A) (A) (A) (A) (A)
                 (A) (A) (A) (A) (A) (A) (A) (A) (A) (A) (A) (A)
                 (A) (A) (A) (A) (A) (A) (A) (A) (A) (A) (A) (A)
                 (A) (A) (A) (A)
       Virtual   (A) (A) (A) (A) (A) (A) (A) (A) (A) (A) (A) (A)
                 (A) (A) (A) (A) (A) (A) (A) (A) (A) (A) (A) (A)
                 (A) (A) (A) (A) (A) (A) (A) (A) (A) (A) (A) (A)
                 (A) (A) (A) (A) (A) (A) (A) (A) (A) (A) (A) (A)
                 (A) (A) (A) (A) (A) (A) (A) (A) (A) (A) (A) (A)
                 (A) (A) (A) (A) (A) (A) (A) (A) (A) (A) (A) (A)
                 (A) (A) (A) (A) (A) (A) (A) (A) (A) (A) (A) (A)
                 (A) (A) (A) (A) (A) (A) (A) (A) (A) (A) (A) (A)
                 (A) (A) (A) (A) (A) (A) (A) (A) (A) (A) (A) (A)
                 (A) (A) (A) (A) (A) (A) (A) (A) (A) (A) (A) (A)
                 (A) (A) (A) (A) (A) (A) (A) (A) (A) (A) (A) (A)
                 (A) (A) (A) (A) (A) (A) (A) (A) (A) (A) (A) (A)
                 (A) (A) (A) (A) (A) (A) (A) (A) (A) (A) (A) (A)
                 (A) (A) (A) (A) (A) (A) (A) (A) (A) (A) (A) (A)
                 (A) (A) (A) (A) (A) (A) (A) (A) (A) (A) (A) (A)
                 (A) (A) (A) (A) (A) (A) (A) (A) (A) (A) (A) (A)
                 (A) (A) (A) (A) (A) (A) (A) (A) (A) (A) (A) (A)
                 (A) (A) (A) (A) (A) (A) (A) (A) (A) (A) (A) (A)
                 (A) (A) (A) (A) (A) (A) (A) (A) (A) (A) (A) (A)
                 (A) (A) (A) (A) (A) (A) (A) (A) (A) (A) (A) (A)
                 (A) (A) (A) (A) (A) (A) (A) (A) (A) (A) (A) (A)
                 (A) (A) (A) (A) (A) (A) (A) (A) (A) (A) (A) (A)
                 (A) (A) (A) (A) (A) (A) (A) (A) (A) (A) (A) (A)
                 (A)
 Beta  Orbitals:
       Occupied  (A) (A) (A) (A) (A) (A) (A) (A) (A) (A) (A) (A)
                 (A) (A) (A) (A) (A) (A) (A) (A) (A) (A) (A) (A)
                 (A) (A) (A) (A) (A) (A) (A) (A) (A) (A) (A) (A)
                 (A) (A) (A)
       Virtual   (A) (A) (A) (A) (A) (A) (A) (A) (A) (A) (A) (A)
                 (A) (A) (A) (A) (A) (A) (A) (A) (A) (A) (A) (A)
                 (A) (A) (A) (A) (A) (A) (A) (A) (A) (A) (A) (A)
                 (A) (A) (A) (A) (A) (A) (A) (A) (A) (A) (A) (A)
                 (A) (A) (A) (A) (A) (A) (A) (A) (A) (A) (A) (A)
                 (A) (A) (A) (A) (A) (A) (A) (A) (A) (A) (A) (A)
                 (A) (A) (A) (A) (A) (A) (A) (A) (A) (A) (A) (A)
                 (A) (A) (A) (A) (A) (A) (A) (A) (A) (A) (A) (A)
                 (A) (A) (A) (A) (A) (A) (A) (A) (A) (A) (A) (A)
                 (A) (A) (A) (A) (A) (A) (A) (A) (A) (A) (A) (A)
                 (A) (A) (A) (A) (A) (A) (A) (A) (A) (A) (A) (A)
                 (A) (A) (A) (A) (A) (A) (A) (A) (A) (A) (A) (A)
                 (A) (A) (A) (A) (A) (A) (A) (A) (A) (A) (A) (A)
                 (A) (A) (A) (A) (A) (A) (A) (A) (A) (A) (A) (A)
                 (A) (A) (A) (A) (A) (A) (A) (A) (A) (A) (A) (A)
                 (A) (A) (A) (A) (A) (A) (A) (A) (A) (A) (A) (A)
                 (A) (A) (A) (A) (A) (A) (A) (A) (A) (A) (A) (A)
                 (A) (A) (A) (A) (A) (A) (A) (A) (A) (A) (A) (A)
                 (A) (A) (A) (A) (A) (A) (A) (A) (A) (A) (A) (A)
                 (A) (A) (A) (A) (A) (A) (A) (A) (A) (A) (A) (A)
                 (A) (A) (A) (A) (A) (A) (A) (A) (A) (A) (A) (A)
                 (A) (A) (A) (A) (A) (A) (A) (A) (A) (A) (A) (A)
                 (A) (A) (A) (A) (A) (A) (A) (A) (A) (A) (A) (A)
                 (A) (A)
 The electronic state is 2-A.
 Alpha  occ. eigenvalues -- -179.57996 -20.50053 -19.84791 -19.84524 -19.83532
 Alpha  occ. eigenvalues --  -19.83039 -19.81013 -19.80584 -17.18380 -17.18002
 Alpha  occ. eigenvalues --  -17.17344  -2.96084  -2.08008  -2.07885  -2.07560
 Alpha  occ. eigenvalues --   -1.69311  -1.67362  -1.67009  -1.65282  -1.63581
 Alpha  occ. eigenvalues --   -1.63214  -1.21527  -1.19795  -1.17753  -1.17161
 Alpha  occ. eigenvalues --   -1.15284  -1.13953  -1.08463  -1.08282  -1.07740
 Alpha  occ. eigenvalues --   -1.04241  -1.03409  -1.00873  -0.99891  -0.97193
 Alpha  occ. eigenvalues --   -0.96868  -0.94943  -0.93066  -0.91984  -0.72782
 Alpha virt. eigenvalues --   -0.58069  -0.56596  -0.54160  -0.48549  -0.46544
 Alpha virt. eigenvalues --   -0.45456  -0.43227  -0.42791  -0.40169  -0.39182
 Alpha virt. eigenvalues --   -0.38826  -0.38147  -0.35451  -0.34222  -0.33762
 Alpha virt. eigenvalues --   -0.32165  -0.31313  -0.30669  -0.29778  -0.28013
 Alpha virt. eigenvalues --   -0.27094  -0.26554  -0.26521  -0.25832  -0.23893
 Alpha virt. eigenvalues --   -0.23714  -0.23051  -0.22515  -0.21243  -0.20396
 Alpha virt. eigenvalues --   -0.19801  -0.18966  -0.18159  -0.17568  -0.16043
 Alpha virt. eigenvalues --   -0.15579  -0.14743  -0.14333  -0.13639  -0.13076
 Alpha virt. eigenvalues --   -0.11453  -0.10677  -0.09791  -0.08884  -0.07552
 Alpha virt. eigenvalues --   -0.06573  -0.06340  -0.04737  -0.03866  -0.02928
 Alpha virt. eigenvalues --   -0.01714  -0.00861   0.00955   0.02479   0.04928
 Alpha virt. eigenvalues --    0.07189   0.09524   0.21078   0.22172   0.22591
 Alpha virt. eigenvalues --    0.24342   0.26393   0.27001   0.27712   0.28505
 Alpha virt. eigenvalues --    0.32768   0.34331   0.35271   0.35815   0.36223
 Alpha virt. eigenvalues --    0.38918   0.39105   0.39827   0.40128   0.41594
 Alpha virt. eigenvalues --    0.41993   0.45823   0.47619   0.48927   0.49615
 Alpha virt. eigenvalues --    0.50702   0.52458   0.53502   0.54018   0.54994
 Alpha virt. eigenvalues --    0.56483   0.57952   0.59087   0.59349   0.62144
 Alpha virt. eigenvalues --    0.63289   0.65474   0.66473   0.68934   0.71434
 Alpha virt. eigenvalues --    0.71569   0.74512   0.75697   0.78836   0.79606
 Alpha virt. eigenvalues --    0.80121   0.80726   0.82026   0.85240   0.86602
 Alpha virt. eigenvalues --    0.89285   0.89910   0.95238   0.96527   0.99474
 Alpha virt. eigenvalues --    1.01246   1.05027   1.08954   1.11053   1.13657
 Alpha virt. eigenvalues --    1.15503   1.20382   1.21176   1.27354   1.29219
 Alpha virt. eigenvalues --    1.33194   1.35994   1.36767   1.38921   1.40079
 Alpha virt. eigenvalues --    1.45825   1.49751   1.68385   1.69311   1.71543
 Alpha virt. eigenvalues --    1.72111   1.73148   1.76317   1.76420   1.77948
 Alpha virt. eigenvalues --    1.82437   1.85837   1.88500   1.89480   1.91540
 Alpha virt. eigenvalues --    1.93631   1.96736   1.98444   2.00909   2.05328
 Alpha virt. eigenvalues --    2.07609   2.12415   2.19580   2.21106   2.27433
 Alpha virt. eigenvalues --    2.29334   2.32362   2.33916   2.35687   2.36752
 Alpha virt. eigenvalues --    2.39261   2.40906   2.42381   2.43277   2.45754
 Alpha virt. eigenvalues --    2.45851   2.48274   2.49988   2.50214   2.52006
 Alpha virt. eigenvalues --    2.55518   2.62367   2.64087   2.65637   2.66778
 Alpha virt. eigenvalues --    2.67971   2.68480   2.71242   2.75232   2.77372
 Alpha virt. eigenvalues --    2.78413   2.83280   2.87308   2.90701   3.04415
 Alpha virt. eigenvalues --    3.05623   3.06446   3.08838   3.11838   3.51597
 Alpha virt. eigenvalues --    3.53654   3.56712   3.59209   3.61649   3.63057
 Alpha virt. eigenvalues --    3.65774   3.66502   3.67723   3.68817   3.69558
 Alpha virt. eigenvalues --    3.72911   3.76043   3.78343   3.80839   3.87232
 Alpha virt. eigenvalues --    3.87992   3.90591   3.93020   3.98230   3.99498
 Alpha virt. eigenvalues --    4.01892   4.04160   4.06965   4.09307   4.17709
 Alpha virt. eigenvalues --    4.17953   4.18851   4.22706   4.24901   4.32322
 Alpha virt. eigenvalues --    4.33543   4.36185   4.38230   4.40612   4.41211
 Alpha virt. eigenvalues --    4.43015   4.50613   4.63312   4.68490   4.70525
 Alpha virt. eigenvalues --    4.75055   4.75952   4.77710   4.86237   4.87981
 Alpha virt. eigenvalues --    4.91517   4.91579   4.92162   4.92843   4.98714
 Alpha virt. eigenvalues --    4.99446   5.01059   5.05173   5.06728   5.08683
 Alpha virt. eigenvalues --    5.10187   5.12849   5.17508   5.18549   5.22727
 Alpha virt. eigenvalues --    5.25080   5.25918   5.27138   5.28683   5.29770
 Alpha virt. eigenvalues --    5.31109   5.35920   5.36759   5.37988   5.39461
 Alpha virt. eigenvalues --    5.40328   5.42623   5.44307   5.45586   5.49150
 Alpha virt. eigenvalues --    5.53725   5.82342   5.84409   5.88698   6.92651
 Alpha virt. eigenvalues --    6.95274   6.96210   7.07966   7.13601   7.17578
 Alpha virt. eigenvalues --   13.20048  13.22248  13.22981  13.79412  13.83420
 Alpha virt. eigenvalues --   13.89255  28.47324
  Beta  occ. eigenvalues -- -179.57994 -20.48997 -19.84821 -19.84564 -19.83537
  Beta  occ. eigenvalues --  -19.83019 -19.81040 -19.80609 -17.17991 -17.17184
  Beta  occ. eigenvalues --  -17.15832  -2.92416  -2.06280  -2.04292  -2.01333
  Beta  occ. eigenvalues --   -1.69226  -1.67276  -1.66939  -1.65062  -1.63445
  Beta  occ. eigenvalues --   -1.63066  -1.21097  -1.19657  -1.17587  -1.17056
  Beta  occ. eigenvalues --   -1.15068  -1.13818  -1.08279  -1.08064  -1.07516
  Beta  occ. eigenvalues --   -1.04130  -1.03278  -1.00763  -0.99736  -0.97071
  Beta  occ. eigenvalues --   -0.96694  -0.94830  -0.92973  -0.91972
  Beta virt. eigenvalues --   -0.56347  -0.55267  -0.53654  -0.53014  -0.48430
  Beta virt. eigenvalues --   -0.46240  -0.45342  -0.42696  -0.42399  -0.39489
  Beta virt. eigenvalues --   -0.38893  -0.38247  -0.37371  -0.35159  -0.34086
  Beta virt. eigenvalues --   -0.33617  -0.31916  -0.31236  -0.30540  -0.29655
  Beta virt. eigenvalues --   -0.27887  -0.26988  -0.26472  -0.26375  -0.25707
  Beta virt. eigenvalues --   -0.23803  -0.23608  -0.22923  -0.22088  -0.20936
  Beta virt. eigenvalues --   -0.20284  -0.19701  -0.18805  -0.18025  -0.17110
  Beta virt. eigenvalues --   -0.15877  -0.15463  -0.14619  -0.14264  -0.13451
  Beta virt. eigenvalues --   -0.12974  -0.11222  -0.10490  -0.09633  -0.08791
  Beta virt. eigenvalues --   -0.07147  -0.06386  -0.06211  -0.04487  -0.03658
  Beta virt. eigenvalues --   -0.02770  -0.01626  -0.00418   0.01649   0.02896
  Beta virt. eigenvalues --    0.05234   0.07521   0.09844   0.22158   0.22683
  Beta virt. eigenvalues --    0.23283   0.25026   0.27142   0.28060   0.28109
  Beta virt. eigenvalues --    0.29027   0.32941   0.34500   0.35465   0.36034
  Beta virt. eigenvalues --    0.36364   0.39139   0.39394   0.40029   0.40310
  Beta virt. eigenvalues --    0.41868   0.42296   0.46058   0.47805   0.49318
  Beta virt. eigenvalues --    0.49733   0.50853   0.52710   0.53654   0.54207
  Beta virt. eigenvalues --    0.55146   0.56632   0.58122   0.59283   0.59519
  Beta virt. eigenvalues --    0.62394   0.63505   0.65690   0.66593   0.69328
  Beta virt. eigenvalues --    0.71634   0.71766   0.74651   0.76516   0.79062
  Beta virt. eigenvalues --    0.79862   0.80406   0.80843   0.82905   0.85425
  Beta virt. eigenvalues --    0.86686   0.89591   0.90173   0.95916   0.97087
  Beta virt. eigenvalues --    1.00214   1.01664   1.05392   1.11658   1.12121
  Beta virt. eigenvalues --    1.14479   1.17168   1.21767   1.22758   1.27905
  Beta virt. eigenvalues --    1.29629   1.33536   1.36245   1.37506   1.39388
  Beta virt. eigenvalues --    1.41182   1.46363   1.50161   1.68676   1.69625
  Beta virt. eigenvalues --    1.71844   1.72494   1.73527   1.76521   1.76737
  Beta virt. eigenvalues --    1.78188   1.82733   1.86063   1.88774   1.90015
  Beta virt. eigenvalues --    1.91866   1.94141   1.97164   1.98933   2.01451
  Beta virt. eigenvalues --    2.06089   2.08453   2.13675   2.20182   2.21567
  Beta virt. eigenvalues --    2.27818   2.29775   2.32922   2.34607   2.36169
  Beta virt. eigenvalues --    2.37357   2.39717   2.41222   2.42718   2.44122
  Beta virt. eigenvalues --    2.46133   2.46656   2.48616   2.50301   2.50538
  Beta virt. eigenvalues --    2.52581   2.56059   2.62673   2.64328   2.65921
  Beta virt. eigenvalues --    2.67819   2.68205   2.69210   2.71999   2.76025
  Beta virt. eigenvalues --    2.77689   2.79968   2.84103   2.88061   2.91644
  Beta virt. eigenvalues --    3.05978   3.06394   3.07601   3.10005   3.13159
  Beta virt. eigenvalues --    3.51864   3.53862   3.56809   3.59578   3.61879
  Beta virt. eigenvalues --    3.63267   3.65922   3.66863   3.67833   3.68941
  Beta virt. eigenvalues --    3.69623   3.73134   3.76175   3.78446   3.80867
  Beta virt. eigenvalues --    3.87463   3.88199   3.90692   3.93231   3.99307
  Beta virt. eigenvalues --    3.99914   4.02949   4.06201   4.08157   4.10183
  Beta virt. eigenvalues --    4.18597   4.18946   4.19937   4.23845   4.24989
  Beta virt. eigenvalues --    4.32665   4.34024   4.36903   4.38957   4.40932
  Beta virt. eigenvalues --    4.41658   4.43408   4.52177   4.63358   4.68752
  Beta virt. eigenvalues --    4.70712   4.75288   4.76080   4.77960   4.86268
  Beta virt. eigenvalues --    4.88008   4.91604   4.91670   4.92205   4.92960
  Beta virt. eigenvalues --    4.98889   4.99592   5.01273   5.05446   5.07463
  Beta virt. eigenvalues --    5.08921   5.10435   5.13086   5.17694   5.18743
  Beta virt. eigenvalues --    5.22976   5.25215   5.26008   5.27285   5.28870
  Beta virt. eigenvalues --    5.30064   5.31407   5.36138   5.36888   5.38355
  Beta virt. eigenvalues --    5.39757   5.40480   5.42776   5.44694   5.45812
  Beta virt. eigenvalues --    5.49428   5.54121   5.82393   5.84474   5.88813
  Beta virt. eigenvalues --    6.92776   6.95415   6.96373   7.08042   7.13653
  Beta virt. eigenvalues --    7.17656  13.20159  13.22331  13.23048  13.79430
  Beta virt. eigenvalues --   13.83454  13.89272  28.48155
          Condensed to atoms (all electrons):
               1          2          3          4          5          6
     1  Ti  20.827294   0.064292  -0.002190   0.122649  -0.001612   0.059677
     2  O    0.064292   7.909754   0.299649  -0.035516  -0.000262  -0.030954
     3  H   -0.002190   0.299649   0.244563   0.000988  -0.000021   0.000798
     4  O    0.122649  -0.035516   0.000988   7.991896   0.296415  -0.104886
     5  H   -0.001612  -0.000262  -0.000021   0.296415   0.265289   0.000746
     6  O    0.059677  -0.030954   0.000798  -0.104886   0.000746   8.036964
     7  H   -0.013730   0.001180   0.000033  -0.003837   0.000066   0.306995
     8  O    0.034829   0.054435  -0.000682  -0.064392   0.000921  -0.111605
     9  H   -0.003335  -0.000942  -0.000017   0.003045  -0.000007  -0.001051
    10  O    0.128806   0.033810   0.003597   0.039072  -0.000947  -0.067839
    11  H   -0.004122   0.001680  -0.000412  -0.001114   0.000007   0.000654
    12  O    0.080457  -0.014004  -0.000723   0.034812   0.000576   0.055077
    13  H   -0.007756  -0.002403   0.000111   0.004058   0.000073  -0.000437
    14  H   -0.000413   0.001051  -0.000068   0.000188   0.000015  -0.000674
    15  H   -0.003028   0.004230  -0.000031   0.295390  -0.018740  -0.004812
    16  H   -0.009069   0.309869  -0.012977  -0.004571   0.000037  -0.000031
    17  H   -0.004075   0.000065   0.000217  -0.001497  -0.000006   0.003644
    18  H   -0.009680  -0.000541  -0.000007   0.015446  -0.001467   0.297489
    19  H   -0.010692  -0.001861   0.000009  -0.008066   0.000711   0.013350
               7          8          9         10         11         12
     1  Ti  -0.013730   0.034829  -0.003335   0.128806  -0.004122   0.080457
     2  O    0.001180   0.054435  -0.000942   0.033810   0.001680  -0.014004
     3  H    0.000033  -0.000682  -0.000017   0.003597  -0.000412  -0.000723
     4  O   -0.003837  -0.064392   0.003045   0.039072  -0.001114   0.034812
     5  H    0.000066   0.000921  -0.000007  -0.000947   0.000007   0.000576
     6  O    0.306995  -0.111605  -0.001051  -0.067839   0.000654   0.055077
     7  H    0.286651   0.008146  -0.000569  -0.004030  -0.000067  -0.001828
     8  O    0.008146   8.043847   0.297419  -0.065044  -0.005405  -0.045115
     9  H   -0.000569   0.297419   0.258921   0.006902   0.000787  -0.002487
    10  O   -0.004030  -0.065044   0.006902   7.973028   0.293842  -0.060410
    11  H   -0.000067  -0.005405   0.000787   0.293842   0.264532   0.004959
    12  O   -0.001828  -0.045115  -0.002487  -0.060410   0.004959   7.916136
    13  H    0.000012  -0.000403   0.000003   0.002350  -0.000155   0.303089
    14  H   -0.000035  -0.000085   0.000741  -0.006442   0.002730   0.299370
    15  H    0.000119   0.001550  -0.000030  -0.001338  -0.000002   0.001269
    16  H   -0.000145  -0.000320   0.000007   0.000106   0.000018  -0.000136
    17  H    0.001456   0.000902  -0.001415   0.293699  -0.019577   0.000995
    18  H   -0.018032  -0.003126   0.000100   0.001978  -0.000016  -0.000907
    19  H    0.004437   0.302358  -0.016195  -0.003779   0.000079   0.002568
              13         14         15         16         17         18
     1  Ti  -0.007756  -0.000413  -0.003028  -0.009069  -0.004075  -0.009680
     2  O   -0.002403   0.001051   0.004230   0.309869   0.000065  -0.000541
     3  H    0.000111  -0.000068  -0.000031  -0.012977   0.000217  -0.000007
     4  O    0.004058   0.000188   0.295390  -0.004571  -0.001497   0.015446
     5  H    0.000073   0.000015  -0.018740   0.000037  -0.000006  -0.001467
     6  O   -0.000437  -0.000674  -0.004812  -0.000031   0.003644   0.297489
     7  H    0.000012  -0.000035   0.000119  -0.000145   0.001456  -0.018032
     8  O   -0.000403  -0.000085   0.001550  -0.000320   0.000902  -0.003126
     9  H    0.000003   0.000741  -0.000030   0.000007  -0.001415   0.000100
    10  O    0.002350  -0.006442  -0.001338   0.000106   0.293699   0.001978
    11  H   -0.000155   0.002730  -0.000002   0.000018  -0.019577  -0.000016
    12  O    0.303089   0.299370   0.001269  -0.000136   0.000995  -0.000907
    13  H    0.243755  -0.014526  -0.000234  -0.000027  -0.000024  -0.000024
    14  H   -0.014526   0.280686   0.000004  -0.000022  -0.000067   0.000011
    15  H   -0.000234   0.000004   0.253864   0.000833   0.000008   0.000297
    16  H   -0.000027  -0.000022   0.000833   0.264251  -0.000008   0.000239
    17  H   -0.000024  -0.000067   0.000008  -0.000008   0.266598  -0.000110
    18  H   -0.000024   0.000011   0.000297   0.000239  -0.000110   0.262114
    19  H    0.000034  -0.000164   0.000003  -0.000028   0.000250  -0.000903
              19
     1  Ti  -0.010692
     2  O   -0.001861
     3  H    0.000009
     4  O   -0.008066
     5  H    0.000711
     6  O    0.013350
     7  H    0.004437
     8  O    0.302358
     9  H   -0.016195
    10  O   -0.003779
    11  H    0.000079
    12  O    0.002568
    13  H    0.000034
    14  H   -0.000164
    15  H    0.000003
    16  H   -0.000028
    17  H    0.000250
    18  H   -0.000903
    19  H    0.280746
          Atomic-Atomic Spin Densities.
               1          2          3          4          5          6
     1  Ti   1.165717  -0.011580  -0.001469  -0.026167  -0.000916  -0.016373
     2  O   -0.011580  -0.012308   0.000262   0.005322  -0.000281  -0.000499
     3  H   -0.001469   0.000262   0.004700  -0.000411   0.000004   0.000202
     4  O   -0.026167   0.005322  -0.000411   0.013521   0.000610   0.000353
     5  H   -0.000916  -0.000281   0.000004   0.000610  -0.000182   0.000265
     6  O   -0.016373  -0.000499   0.000202   0.000353   0.000265  -0.018098
     7  H   -0.014961  -0.001220   0.000036  -0.002315   0.000127   0.010393
     8  O   -0.012213  -0.000713   0.000068  -0.000835   0.000266   0.004285
     9  H   -0.004357   0.000115  -0.000008   0.000085  -0.000034  -0.001590
    10  O   -0.014578  -0.001215   0.001662  -0.000062  -0.000064   0.003495
    11  H   -0.009036   0.000083  -0.000241   0.000095  -0.000003  -0.001122
    12  O   -0.012766   0.004267   0.000023   0.001551  -0.000070  -0.000505
    13  H   -0.004630  -0.000168   0.000089   0.002228   0.000063   0.000154
    14  H   -0.013723  -0.000150  -0.000069  -0.000783  -0.000025  -0.000461
    15  H   -0.005889   0.001452  -0.000043   0.003963  -0.000524   0.000110
    16  H   -0.009189   0.006947  -0.001442   0.001827  -0.000026   0.000374
    17  H   -0.005226  -0.000512   0.000118  -0.000271   0.000005   0.001917
    18  H   -0.007004   0.002228  -0.000049   0.005699  -0.000357   0.001217
    19  H   -0.010365  -0.000384   0.000006  -0.001466   0.000319   0.004130
               7          8          9         10         11         12
     1  Ti  -0.014961  -0.012213  -0.004357  -0.014578  -0.009036  -0.012766
     2  O   -0.001220  -0.000713   0.000115  -0.001215   0.000083   0.004267
     3  H    0.000036   0.000068  -0.000008   0.001662  -0.000241   0.000023
     4  O   -0.002315  -0.000835   0.000085  -0.000062   0.000095   0.001551
     5  H    0.000127   0.000266  -0.000034  -0.000064  -0.000003  -0.000070
     6  O    0.010393   0.004285  -0.001590   0.003495  -0.001122  -0.000505
     7  H    0.015449   0.003487  -0.000421   0.000257  -0.000111  -0.000315
     8  O    0.003487  -0.014307   0.002047   0.001303   0.000247   0.002396
     9  H   -0.000421   0.002047   0.005167   0.001708   0.000699   0.001412
    10  O    0.000257   0.001303   0.001708  -0.009234   0.004029   0.003993
    11  H   -0.000111   0.000247   0.000699   0.004029   0.010508   0.002442
    12  O   -0.000315   0.002396   0.001412   0.003993   0.002442  -0.021647
    13  H    0.000008  -0.000187  -0.000071  -0.000343  -0.000119   0.003502
    14  H   -0.000021   0.001139   0.000673   0.001768   0.001211   0.007839
    15  H   -0.000070  -0.000512   0.000007  -0.000042   0.000003  -0.000280
    16  H   -0.000131  -0.000234   0.000004  -0.000941   0.000034  -0.000287
    17  H    0.000796   0.000556  -0.000474   0.002888  -0.001837  -0.000601
    18  H   -0.003586  -0.002031   0.000056  -0.000332   0.000016  -0.000002
    19  H    0.002468   0.005734  -0.002244  -0.000657  -0.000111  -0.000719
              13         14         15         16         17         18
     1  Ti  -0.004630  -0.013723  -0.005889  -0.009189  -0.005226  -0.007004
     2  O   -0.000168  -0.000150   0.001452   0.006947  -0.000512   0.002228
     3  H    0.000089  -0.000069  -0.000043  -0.001442   0.000118  -0.000049
     4  O    0.002228  -0.000783   0.003963   0.001827  -0.000271   0.005699
     5  H    0.000063  -0.000025  -0.000524  -0.000026   0.000005  -0.000357
     6  O    0.000154  -0.000461   0.000110   0.000374   0.001917   0.001217
     7  H    0.000008  -0.000021  -0.000070  -0.000131   0.000796  -0.003586
     8  O   -0.000187   0.001139  -0.000512  -0.000234   0.000556  -0.002031
     9  H   -0.000071   0.000673   0.000007   0.000004  -0.000474   0.000056
    10  O   -0.000343   0.001768  -0.000042  -0.000941   0.002888  -0.000332
    11  H   -0.000119   0.001211   0.000003   0.000034  -0.001837   0.000016
    12  O    0.003502   0.007839  -0.000280  -0.000287  -0.000601  -0.000002
    13  H    0.007817  -0.002613  -0.000136  -0.000039   0.000011  -0.000014
    14  H   -0.002613   0.011975   0.000021   0.000014  -0.000106   0.000009
    15  H   -0.000136   0.000021   0.004553   0.000331  -0.000003   0.000651
    16  H   -0.000039   0.000014   0.000331   0.006047  -0.000047   0.000478
    17  H    0.000011  -0.000106  -0.000003  -0.000047   0.002939  -0.000087
    18  H   -0.000014   0.000009   0.000651   0.000478  -0.000087   0.011315
    19  H    0.000042  -0.000146  -0.000053  -0.000012   0.000243  -0.000666
              19
     1  Ti  -0.010365
     2  O   -0.000384
     3  H    0.000006
     4  O   -0.001466
     5  H    0.000319
     6  O    0.004130
     7  H    0.002468
     8  O    0.005734
     9  H   -0.002244
    10  O   -0.000657
    11  H   -0.000111
    12  O   -0.000719
    13  H    0.000042
    14  H   -0.000146
    15  H   -0.000053
    16  H   -0.000012
    17  H    0.000243
    18  H   -0.000666
    19  H    0.012117
 Mulliken charges and spin densities:
               1          2
     1  Ti   0.751702   0.985274
     2  O   -0.593531  -0.008356
     3  H    0.467166   0.003439
     4  O   -0.580080   0.002944
     5  H    0.458207  -0.000823
     6  O   -0.453107  -0.011753
     7  H    0.433177   0.009869
     8  O   -0.448231  -0.009502
     9  H    0.458123   0.002777
    10  O   -0.567361  -0.006365
    11  H    0.461583   0.006786
    12  O   -0.573699  -0.009767
    13  H    0.472502   0.005595
    14  H    0.437700   0.006551
    15  H    0.470649   0.003539
    16  H    0.451973   0.003709
    17  H    0.458947   0.000307
    18  H    0.457138   0.007544
    19  H    0.437144   0.008234
 Sum of Mulliken charges =   3.00000   1.00000
 Mulliken charges and spin densities with hydrogens summed into heavy atoms:
               1          2
     1  Ti   0.751702   0.985274
     2  O    0.325607  -0.001208
     4  O    0.348776   0.005660
     6  O    0.437208   0.005660
     8  O    0.447036   0.001509
    10  O    0.353168   0.000728
    12  O    0.336503   0.002378
 APT charges:
               1
     1  Ti   2.299328
     2  O   -0.679257
     3  H    0.414163
     4  O   -0.652573
     5  H    0.377287
     6  O   -0.591716
     7  H    0.343845
     8  O   -0.627536
     9  H    0.381809
    10  O   -0.642212
    11  H    0.376587
    12  O   -0.643254
    13  H    0.412029
    14  H    0.368714
    15  H    0.384764
    16  H    0.384911
    17  H    0.376857
    18  H    0.366094
    19  H    0.350163
 Sum of APT charges =   3.00000
 APT charges with hydrogens summed into heavy atoms:
               1
     1  Ti   2.299328
     2  O    0.119816
     4  O    0.109478
     6  O    0.118222
     8  O    0.104436
    10  O    0.111232
    12  O    0.137488
 Electronic spatial extent (au):  <R**2>=            839.3928
 Charge=              3.0000 electrons
 Dipole moment (field-independent basis, Debye):
    X=              2.3058    Y=              3.7236    Z=             -1.0320  Tot=              4.4997
 Quadrupole moment (field-independent basis, Debye-Ang):
   XX=            -12.2976   YY=            -15.6905   ZZ=            -26.6762
   XY=             -4.2113   XZ=             -1.4212   YZ=             -0.8595
 Traceless Quadrupole moment (field-independent basis, Debye-Ang):
   XX=              5.9238   YY=              2.5310   ZZ=             -8.4548
   XY=             -4.2113   XZ=             -1.4212   YZ=             -0.8595
 Octapole moment (field-independent basis, Debye-Ang**2):
  XXX=             18.5247  YYY=             17.7678  ZZZ=              4.7732  XYY=              4.1413
  XXY=              9.1601  XXZ=              3.1777  XZZ=             -8.0350  YZZ=             -3.2040
  YYZ=            -14.6599  XYZ=             -3.1455
 Hexadecapole moment (field-independent basis, Debye-Ang**3):
 XXXX=           -167.2507 YYYY=           -174.4121 ZZZZ=           -213.8342 XXXY=            -21.6217
 XXXZ=              2.8784 YYYX=             -9.8317 YYYZ=             10.7766 ZZZX=            -16.2285
 ZZZY=            -14.8919 XXYY=            -47.0445 XXZZ=            -54.5715 YYZZ=            -50.9896
 XXYZ=              0.1141 YYXZ=              3.3484 ZZXY=              1.8950
 N-N= 7.010209908532D+02 E-N=-4.449794754610D+03  KE= 1.305866692443D+03
  Exact polarizability:      50.541      -0.545      49.524      -1.064      -0.055      46.253
 Approx polarizability:      66.893      -0.868      65.835      -1.987      -0.058      60.503
                          Isotropic Fermi Contact Couplings
        Atom                 a.u.       MegaHertz       Gauss      10(-4) cm-1
     1  Ti(47)            -0.05455      13.76655       4.91225       4.59203
     2  O(17)             -0.01208       7.32468       2.61363       2.44325
     3  H(1)               0.00229      10.22567       3.64877       3.41092
     4  O(17)              0.00102      -0.61802      -0.22053      -0.20615
     5  H(1)              -0.00024      -1.06533      -0.38014      -0.35536
     6  O(17)             -0.01758      10.65626       3.80242       3.55455
     7  H(1)               0.00645      28.81628      10.28237       9.61208
     8  O(17)             -0.01116       6.76430       2.41367       2.25633
     9  H(1)               0.00189       8.44224       3.01240       2.81603
    10  O(17)             -0.00531       3.22040       1.14912       1.07421
    11  H(1)               0.00503      22.47721       8.02043       7.49759
    12  O(17)             -0.01504       9.11957       3.25409       3.04196
    13  H(1)               0.00391      17.46610       6.23234       5.82606
    14  H(1)               0.00500      22.36306       7.97970       7.45951
    15  H(1)               0.00292      13.05284       4.65758       4.35396
    16  H(1)               0.00297      13.26265       4.73244       4.42394
    17  H(1)               0.00056       2.51036       0.89576       0.83736
    18  H(1)               0.00457      20.42172       7.28698       6.81195
    19  H(1)               0.00497      22.20068       7.92175       7.40535
 --------------------------------------------------------
       Center         ----  Spin Dipole Couplings  ----
                      3XX-RR        3YY-RR        3ZZ-RR
 --------------------------------------------------------
     1   Atom        0.212205      0.102297     -0.314502
[...]
    14  H   -0.012292   0.266412   0.000003   0.000003  -0.000013   0.000000
    15  H   -0.000014   0.000003   0.266468   0.000012   0.000000   0.000013
    16  H   -0.000005   0.000003   0.000012   0.266410  -0.000014   0.000013
    17  H    0.000002  -0.000013   0.000000  -0.000014   0.269959  -0.000005
    18  H    0.000000   0.000000   0.000013   0.000013  -0.000005   0.266411
    19  H    0.000002   0.000002  -0.000005   0.000000   0.000002  -0.000014
              19
     1  Ti   0.001270
     2  O   -0.000420
     3  H   -0.000000
     4  O    0.002051
     5  H   -0.000039
     6  O    0.001818
     7  H   -0.000039
     8  O    0.289151
     9  H   -0.012294
    10  O    0.001436
    11  H   -0.000013
    12  O    0.000273
    13  H    0.000002
    14  H    0.000002
    15  H   -0.000005
    16  H    0.000000
    17  H    0.000002
    18  H   -0.000014
    19  H    0.269910
          Atomic-Atomic Spin Densities.
               1          2          3          4          5          6
     1  Ti   1.070090  -0.002119  -0.001814  -0.002140  -0.001818  -0.002111
     2  O   -0.002119  -0.013525   0.001697   0.000703  -0.000014   0.000702
     3  H   -0.001814   0.001697   0.001752   0.000042   0.000001  -0.000014
     4  O   -0.002140   0.000703   0.000042  -0.013495   0.001699   0.000701
     5  H   -0.001818  -0.000014   0.000001   0.001699   0.001755   0.000041
     6  O   -0.002111   0.000702  -0.000014   0.000701   0.000041  -0.013544
     7  H   -0.001813   0.000042   0.000001  -0.000014   0.000001   0.001692
     8  O   -0.002120  -0.000121  -0.000012   0.001234   0.000227   0.001231
     9  H   -0.001224  -0.000011  -0.000000  -0.000135  -0.000015  -0.000094
    10  O   -0.002138   0.001234  -0.000038  -0.000122  -0.000012   0.001227
    11  H   -0.001226  -0.000095  -0.000002  -0.000011  -0.000000  -0.000134
    12  O   -0.002112   0.001230   0.000225   0.001227  -0.000038  -0.000121
    13  H   -0.001813  -0.000038   0.000021   0.000228   0.000021  -0.000012
    14  H   -0.001229  -0.000134  -0.000015  -0.000095  -0.000002  -0.000011
    15  H   -0.001225   0.000213  -0.000011   0.000983  -0.000544   0.000043
    16  H   -0.001225   0.000981  -0.000544   0.000042  -0.000002   0.000214
    17  H   -0.001818   0.000227   0.000021  -0.000012   0.000000  -0.000038
    18  H   -0.001230   0.000042  -0.000002   0.000214  -0.000011   0.000988
    19  H   -0.001814  -0.000012   0.000000  -0.000038   0.000021   0.000225
               7          8          9         10         11         12
     1  Ti  -0.001813  -0.002120  -0.001224  -0.002138  -0.001226  -0.002112
     2  O    0.000042  -0.000121  -0.000011   0.001234  -0.000095   0.001230
     3  H    0.000001  -0.000012  -0.000000  -0.000038  -0.000002   0.000225
     4  O   -0.000014   0.001234  -0.000135  -0.000122  -0.000011   0.001227
     5  H    0.000001   0.000227  -0.000015  -0.000012  -0.000000  -0.000038
     6  O    0.001692   0.001231  -0.000094   0.001227  -0.000134  -0.000121
     7  H    0.001754  -0.000038  -0.000002   0.000228  -0.000015  -0.000012
     8  O   -0.000038  -0.013523   0.000981   0.000702   0.000213   0.000702
     9  H   -0.000002   0.000981   0.001916   0.000042   0.000028   0.000215
    10  O    0.000228   0.000702   0.000042  -0.013503   0.000983   0.000701
    11  H   -0.000015   0.000213   0.000028   0.000983   0.001919   0.000043
    12  O   -0.000012   0.000702   0.000215   0.000701   0.000043  -0.013542
    13  H    0.000000   0.000042  -0.000011  -0.000014  -0.000002   0.001692
    14  H   -0.000000   0.000042   0.000028   0.000214   0.000028   0.000988
    15  H   -0.000002  -0.000095   0.000001  -0.000011   0.000000  -0.000134
    16  H   -0.000011  -0.000011   0.000000  -0.000135   0.000001  -0.000094
    17  H    0.000021  -0.000014  -0.000002   0.001699  -0.000544   0.000041
    18  H   -0.000544  -0.000134   0.000001  -0.000095   0.000001  -0.000011
    19  H    0.000021   0.001697  -0.000543   0.000042  -0.000011  -0.000014
              13         14         15         16         17         18
     1  Ti  -0.001813  -0.001229  -0.001225  -0.001225  -0.001818  -0.001230
     2  O   -0.000038  -0.000134   0.000213   0.000981   0.000227   0.000042
     3  H    0.000021  -0.000015  -0.000011  -0.000544   0.000021  -0.000002
     4  O    0.000228  -0.000095   0.000983   0.000042  -0.000012   0.000214
     5  H    0.000021  -0.000002  -0.000544  -0.000002   0.000000  -0.000011
     6  O   -0.000012  -0.000011   0.000043   0.000214  -0.000038   0.000988
     7  H    0.000000  -0.000000  -0.000002  -0.000011   0.000021  -0.000544
     8  O    0.000042   0.000042  -0.000095  -0.000011  -0.000014  -0.000134
     9  H   -0.000011   0.000028   0.000001   0.000000  -0.000002   0.000001
    10  O   -0.000014   0.000214  -0.000011  -0.000135   0.001699  -0.000095
    11  H   -0.000002   0.000028   0.000000   0.000001  -0.000544   0.000001
    12  O    0.001692   0.000988  -0.000134  -0.000094   0.000041  -0.000011
    13  H    0.001754  -0.000544  -0.000015  -0.000002   0.000001  -0.000000
    14  H   -0.000544   0.001918   0.000001   0.000001  -0.000011   0.000000
    15  H   -0.000015   0.000001   0.001918   0.000028  -0.000000   0.000028
    16  H   -0.000002   0.000001   0.000028   0.001916  -0.000015   0.000028
    17  H    0.000001  -0.000011  -0.000000  -0.000015   0.001756  -0.000002
    18  H   -0.000000   0.000000   0.000028   0.000028  -0.000002   0.001919
    19  H    0.000001  -0.000002  -0.000002  -0.000000   0.000001  -0.000015
              19
     1  Ti  -0.001814
     2  O   -0.000012
     3  H    0.000000
     4  O   -0.000038
     5  H    0.000021
     6  O    0.000225
     7  H    0.000021
     8  O    0.001697
     9  H   -0.000543
    10  O    0.000042
    11  H   -0.000011
    12  O   -0.000014
    13  H    0.000001
    14  H   -0.000002
    15  H   -0.000002
    16  H   -0.000000
    17  H    0.000001
    18  H   -0.000015
    19  H    0.001752
 Mulliken charges and spin densities:
               1          2
     1  Ti   1.688934   1.039100
     2  O   -0.680582  -0.008998
     3  H    0.446908   0.001309
     4  O   -0.680656  -0.008990
     5  H    0.446874   0.001310
     6  O   -0.680740  -0.009016
     7  H    0.446955   0.001309
     8  O   -0.680575  -0.008997
     9  H    0.452280   0.001174
    10  O   -0.680644  -0.008993
    11  H    0.452230   0.001176
    12  O   -0.680745  -0.009015
    13  H    0.446956   0.001309
    14  H    0.452259   0.001177
    15  H    0.452231   0.001176
    16  H    0.452281   0.001174
    17  H    0.446869   0.001310
    18  H    0.452258   0.001177
    19  H    0.446909   0.001309
 Sum of Mulliken charges =   3.00000   1.00000
 Mulliken charges and spin densities with hydrogens summed into heavy atoms:
               1          2
     1  Ti   1.688934   1.039100
     2  O    0.218606  -0.006516
     4  O    0.218448  -0.006504
     6  O    0.218474  -0.006530
     8  O    0.218614  -0.006514
    10  O    0.218455  -0.006507
    12  O    0.218470  -0.006529
 Electronic spatial extent (au):  <R**2>=           1083.5880
 Charge=              3.0000 electrons
 Dipole moment (field-independent basis, Debye):
    X=              0.0001    Y=             -0.0001    Z=              0.0000  Tot=              0.0001
 Quadrupole moment (field-independent basis, Debye-Ang):
   XX=             -7.7803   YY=             -7.7911   ZZ=             -5.9905
   XY=              0.0059   XZ=              0.0043   YZ=              0.0034
 Traceless Quadrupole moment (field-independent basis, Debye-Ang):
   XX=             -0.5930   YY=             -0.6038   ZZ=              1.1968
   XY=              0.0059   XZ=              0.0043   YZ=              0.0034
 Octapole moment (field-independent basis, Debye-Ang**2):
  XXX=              0.0017  YYY=             -0.0007  ZZZ=             -0.0006  XYY=              0.0008
  XXY=              0.0006  XXZ=              0.0010  XZZ=             -0.0017  YZZ=             -0.0004
  YYZ=             -0.0003  XYZ=             -0.0002
 Hexadecapole moment (field-independent basis, Debye-Ang**3):
 XXXX=           -160.7313 YYYY=           -160.4429 ZZZZ=           -144.7023 XXXY=              0.0436
 XXXZ=             32.0513 YYYX=             -0.1025 YYYZ=             53.8743 ZZZX=             -0.0065
 ZZZY=             -0.0954 XXYY=            -53.6734 XXZZ=            -28.0855 YYZZ=            -28.3761
 XXYZ=            -53.7690 YYXZ=            -32.0097 ZZXY=              0.0737
 N-N= 6.148109018743D+02 E-N=-4.277619858295D+03  KE= 1.302620142208D+03
                          Isotropic Fermi Contact Couplings
        Atom                 a.u.       MegaHertz       Gauss      10(-4) cm-1
     1  Ti(47)            -0.04992      12.60046       4.49616       4.20306
     2  O(17)             -0.01210       7.33702       2.61803       2.44737
     3  H(1)               0.00097       4.33769       1.54780       1.44690
     4  O(17)             -0.01210       7.33353       2.61679       2.44620
     5  H(1)               0.00097       4.33927       1.54836       1.44743
     6  O(17)             -0.01212       7.34420       2.62059       2.44976
     7  H(1)               0.00097       4.33597       1.54718       1.44633
     8  O(17)             -0.01210       7.33675       2.61794       2.44728
     9  H(1)               0.00092       4.12759       1.47283       1.37682
    10  O(17)             -0.01210       7.33474       2.61722       2.44661
    11  H(1)               0.00093       4.13678       1.47611       1.37988
    12  O(17)             -0.01211       7.34386       2.62047       2.44965
    13  H(1)               0.00097       4.33597       1.54718       1.44632
    14  H(1)               0.00093       4.13916       1.47695       1.38067
    15  H(1)               0.00093       4.13508       1.47550       1.37932
    16  H(1)               0.00092       4.12766       1.47285       1.37684
    17  H(1)               0.00097       4.34132       1.54909       1.44811
    18  H(1)               0.00093       4.13994       1.47723       1.38094
    19  H(1)               0.00097       4.33648       1.54736       1.44649
 --------------------------------------------------------
       Center         ----  Spin Dipole Couplings  ----
                      3XX-RR        3YY-RR        3ZZ-RR
 --------------------------------------------------------
     1   Atom       -0.581556     -0.579469      1.161026
     2   Atom       -0.005345     -0.000188      0.005533
     3   Atom        0.007101     -0.002186     -0.004916
     4   Atom       -0.011645      0.006077      0.005568
     5   Atom       -0.006049      0.010986     -0.004937
     6   Atom        0.008658     -0.014251      0.005593
     7   Atom        0.006329     -0.001420     -0.004909
     8   Atom       -0.005346     -0.000188      0.005534
     9   Atom       -0.002800      0.000175      0.002625
    10   Atom       -0.011651      0.006083      0.005568
    11   Atom       -0.004899      0.002317      0.002582
    12   Atom        0.008659     -0.014252      0.005593
    13   Atom        0.006328     -0.001419     -0.004909
    14   Atom        0.003798     -0.006405      0.002607
    15   Atom       -0.004898      0.002317      0.002582
    16   Atom       -0.002799      0.000174      0.002625
    17   Atom       -0.006049      0.010987     -0.004938
    18   Atom        0.003798     -0.006405      0.002607
    19   Atom        0.007101     -0.002186     -0.004916
 --------------------------------------------------------
                        XY            XZ            YZ
 --------------------------------------------------------
     1   Atom       -0.000666      0.000047      0.002443
     2   Atom        0.011736     -0.004598      0.006672
     3   Atom        0.007141     -0.005452     -0.003005
     4   Atom       -0.008103      0.008136      0.000618
     5   Atom        0.000449      0.000123      0.006199
     6   Atom       -0.003698     -0.003466     -0.007247
     7   Atom       -0.007580      0.005334     -0.003220
     8   Atom        0.011735     -0.004599      0.006675
     9   Atom        0.005015     -0.006557     -0.008544
    10   Atom       -0.008099      0.008128      0.000622
    11   Atom       -0.003817     -0.004129      0.009948
    12   Atom       -0.003696     -0.003468     -0.007248
    13   Atom       -0.007581      0.005334     -0.003220
    14   Atom       -0.001199      0.010682     -0.001387
    15   Atom       -0.003818     -0.004130      0.009948
    16   Atom        0.005015     -0.006558     -0.008544
    17   Atom        0.000448      0.000122      0.006199
    18   Atom       -0.001200      0.010682     -0.001387
    19   Atom        0.007141     -0.005452     -0.003005
 --------------------------------------------------------


 ---------------------------------------------------------------------------------
              Anisotropic Spin Dipole Couplings in Principal Axis System
 ---------------------------------------------------------------------------------

       Atom             a.u.   MegaHertz   Gauss  10(-4) cm-1        Axes

              Baa    -0.5818    17.526     6.254     5.846  0.9598  0.2807 -0.0004
     1 Ti(47) Bbb    -0.5793    17.452     6.227     5.821 -0.2807  0.9598 -0.0013
              Bcc     1.1610   -34.978   -12.481   -11.667  0.0000  0.0014  1.0000
 
              Baa    -0.0174     1.261     0.450     0.421  0.7197 -0.6147  0.3227
     2 O(17)  Bbb     0.0065    -0.467    -0.167    -0.156 -0.5960 -0.3087  0.7412
              Bcc     0.0110    -0.794    -0.283    -0.265  0.3560  0.7258  0.5886
 
              Baa    -0.0071    -3.770    -1.345    -1.257  0.2678  0.1899  0.9446
     3 H(1)   Bbb    -0.0061    -3.232    -1.153    -1.078 -0.4884  0.8719 -0.0368
              Bcc     0.0131     7.002     2.499     2.336  0.8305  0.4514 -0.3262
 
              Baa    -0.0175     1.264     0.451     0.421  0.8920  0.3156 -0.3236
     4 O(17)  Bbb     0.0064    -0.465    -0.166    -0.155  0.0264  0.6784  0.7343
              Bcc     0.0110    -0.798    -0.285    -0.266 -0.4512  0.6635 -0.5968
 
              Baa    -0.0071    -3.771    -1.345    -1.258  0.0296 -0.3253  0.9452
     5 H(1)   Bbb    -0.0061    -3.233    -1.154    -1.078  0.9993 -0.0133 -0.0359
              Bcc     0.0131     7.004     2.499     2.336  0.0242  0.9455  0.3246
 
              Baa    -0.0174     1.261     0.450     0.421  0.1745  0.9314  0.3194
     6 O(17)  Bbb     0.0065    -0.468    -0.167    -0.156  0.5658 -0.3604  0.7416
              Bcc     0.0110    -0.793    -0.283    -0.265  0.8059  0.0513 -0.5899
 
              Baa    -0.0071    -3.769    -1.345    -1.257 -0.2970  0.1400  0.9446
     7 H(1)   Bbb    -0.0061    -3.232    -1.153    -1.078  0.5112  0.8588  0.0334
              Bcc     0.0131     7.000     2.498     2.335  0.8065 -0.4928  0.3266
 
              Baa    -0.0174     1.261     0.450     0.421  0.7197 -0.6147  0.3228
     8 O(17)  Bbb     0.0065    -0.467    -0.167    -0.156 -0.5963 -0.3091  0.7409
              Bcc     0.0110    -0.795    -0.284    -0.265  0.3556  0.7257  0.5890
 
              Baa    -0.0075    -4.017    -1.433    -1.340  0.4924  0.4828  0.7242
     9 H(1)   Bbb    -0.0065    -3.485    -1.244    -1.163  0.7514 -0.6557 -0.0737
              Bcc     0.0141     7.502     2.677     2.502 -0.4393 -0.5805  0.6856
 
              Baa    -0.0175     1.263     0.451     0.421  0.8921  0.3154 -0.3234
    10 O(17)  Bbb     0.0064    -0.466    -0.166    -0.155  0.0267  0.6778  0.7348
              Bcc     0.0110    -0.798    -0.285    -0.266 -0.4510  0.6642 -0.5962
 
              Baa    -0.0075    -4.018    -1.434    -1.340  0.1722 -0.6662  0.7256
    11 H(1)   Bbb    -0.0065    -3.486    -1.244    -1.163  0.9432  0.3240  0.0736
              Bcc     0.0141     7.504     2.678     2.503 -0.2842  0.6717  0.6841
 
              Baa    -0.0174     1.261     0.450     0.421  0.1744  0.9314  0.3195
    12 O(17)  Bbb     0.0065    -0.468    -0.167    -0.156  0.5659 -0.3604  0.7415
              Bcc     0.0110    -0.793    -0.283    -0.265  0.8058  0.0515 -0.5899
 
              Baa    -0.0071    -3.769    -1.345    -1.257 -0.2970  0.1400  0.9446
    13 H(1)   Bbb    -0.0061    -3.232    -1.153    -1.078  0.5112  0.8588  0.0334
              Bcc     0.0131     7.001     2.498     2.335  0.8065 -0.4928  0.3266
 
              Baa    -0.0075    -4.018    -1.434    -1.340 -0.6636  0.1856  0.7247
    14 H(1)   Bbb    -0.0065    -3.486    -1.244    -1.163  0.1915  0.9786 -0.0753
              Bcc     0.0141     7.504     2.677     2.503  0.7231 -0.0888  0.6850
 
              Baa    -0.0075    -4.018    -1.434    -1.340  0.1721 -0.6662  0.7256
    15 H(1)   Bbb    -0.0065    -3.486    -1.244    -1.163  0.9432  0.3240  0.0738
              Bcc     0.0141     7.504     2.678     2.503 -0.2843  0.6717  0.6841
 
              Baa    -0.0075    -4.017    -1.433    -1.340  0.4924  0.4828  0.7242
    16 H(1)   Bbb    -0.0065    -3.485    -1.244    -1.163  0.7514 -0.6557 -0.0737
              Bcc     0.0141     7.502     2.677     2.502 -0.4393 -0.5805  0.6856
 
              Baa    -0.0071    -3.771    -1.345    -1.258  0.0299 -0.3253  0.9452
    17 H(1)   Bbb    -0.0061    -3.233    -1.154    -1.078  0.9993 -0.0131 -0.0361
              Bcc     0.0131     7.004     2.499     2.336  0.0242  0.9455  0.3246
 
              Baa    -0.0075    -4.018    -1.434    -1.340 -0.6637  0.1855  0.7247
    18 H(1)   Bbb    -0.0065    -3.486    -1.244    -1.163  0.1914  0.9786 -0.0752
              Bcc     0.0141     7.504     2.677     2.503  0.7231 -0.0888  0.6850
 
              Baa    -0.0071    -3.770    -1.345    -1.257  0.2678  0.1898  0.9446
    19 H(1)   Bbb    -0.0061    -3.232    -1.153    -1.078 -0.4883  0.8719 -0.0367
              Bcc     0.0131     7.002     2.499     2.336  0.8305  0.4514 -0.3262
 

 ---------------------------------------------------------------------------------

 No NMR shielding tensors so no spin-rotation constants.
 Leave Link  601 at Thu May 23 17:54:08 2024, MaxMem= 26843545600 cpu:              29.1 elap:               0.3
 (Enter /gpfs/fs1/soft/improv/software/custom-built/gaussian/g16/l9999.exe)
 Unable to Open any file for archive entry.
 1\1\GINC-I019\SP\UPBE1PBE\Gen\H12O6Ti1(3+,2)\HHARB\23-May-2024\0\\#p P
 BE1PBE empiricaldispersion=gd3 scf=(maxcycles=500,xqc,maxconventional=
 50) scrf=(cpcm,solvent=water) geom=allcheck guess=read chkbasis\\Title
 \\3,2\Ti,-0.7848277701,0.7129486567,0.031792114\O,-1.3439607741,2.6939
 487489,-0.2343143293\H,-1.683360188,3.0916532577,-1.0551077482\O,1.227
 0545227,1.2229827812,0.0427761532\H,1.9759979954,0.6175065564,-0.09704
 19436\O,-0.9013930147,0.8975082476,2.0958828683\H,-1.5975928572,0.5317
 157714,2.6690889861\O,-0.2256535333,-1.2680394274,0.2979059043\H,-0.21
 64875483,-1.9757992012,-0.3696005603\O,-2.7967095802,0.2029466761,0.02
 07837586\H,-3.1824195081,-0.683255212,-0.0907672834\O,-0.6682420135,0.
 5283628916,-2.0322959067\H,0.0279984923,0.8941078047,-2.6054838943\H,-
 1.305153016,0.0925186357,-2.6247100685\H,1.6127414881,2.1092146411,0.1
 541792677\H,-1.3530815148,3.4017182858,0.4331817594\H,-3.5456334365,0.
 8083995825,0.1607805352\H,-0.2644945648,1.3333931323,2.6882808303\H,0.
 1136992512,-1.6657520593,1.1187149671\\Version=ES64L-G16RevC.02\State=
 2-A\HF=-1307.0740292\S2=0.75173\S2-1=0.\S2A=0.750003\RMSD=2.152e-09\Di
 pole=-0.0000203,-0.0000075,0.0000376\Quadrupole=-0.2525792,0.3364515,-
 0.0838723,0.389268,0.2696274,0.5268679\PG=C01 [X(H12O6Ti1)]\\@
 The archive entry for this job was punched.


 DESK:  A WASTEBASKET WITH DRAWERS.
 Job cpu time:       0 days  0 hours 53 minutes  4.7 seconds.
 Elapsed time:       0 days  0 hours  0 minutes 28.9 seconds.
 File lengths (MBytes):  RWF=    121 Int=      0 D2E=      0 Chk=     32 Scr=      1
 Normal termination of Gaussian 16 at Thu May 23 17:54:08 2024.
