 Entering Gaussian System, Link 0=g16
 Input=Ti_3_BLYP.com
 Output=Ti_3_BLYP.log
 Initial command:
 /gpfs/fs1/soft/improv/software/custom-built/gaussian/g16/l1.exe "/scratch/Gau-276060.inp" -scrdir="/scratch/"
 Default CPUs for threads: 0-127
 Default linda workers: i300.lcrc.anl.gov
 Default is to use 128 SMP processors on each worker.
 Entering Link 1 = /gpfs/fs1/soft/improv/software/custom-built/gaussian/g16/l1.exe PID=    276061.
  
 Copyright (c) 1988-2021, Gaussian, Inc.  All Rights Reserved.
  
 This is part of the Gaussian(R) 16 program.  It is based on
 the Gaussian(R) 09 system (copyright 2009, Gaussian, Inc.),
 the Gaussian(R) 03 system (copyright 2003, Gaussian, Inc.),
 the Gaussian(R) 98 system (copyright 1998, Gaussian, Inc.),
 the Gaussian(R) 94 system (copyright 1995, Gaussian, Inc.),
 the Gaussian 92(TM) system (copyright 1992, Gaussian, Inc.),
 the Gaussian 90(TM) system (copyright 1990, Gaussian, Inc.),
 the Gaussian 88(TM) system (copyright 1988, Gaussian, Inc.),
 the Gaussian 86(TM) system (copyright 1986, Carnegie Mellon
 University), and the Gaussian 82(TM) system (copyright 1983,
 Carnegie Mellon University). Gaussian is a federally registered
 trademark of Gaussian, Inc.
  
 This software contains proprietary and confidential information,
 including trade secrets, belonging to Gaussian, Inc.
  
 This software is provided under written license and may be
 used, copied, transmitted, or stored only in accord with that
 written license.
  
 The following legend is applicable only to US Government
 contracts under FAR:
  
                    RESTRICTED RIGHTS LEGEND
  
 Use, reproduction and disclosure by the US Government is
 subject to restrictions as set forth in subparagraphs (a)
 and (c) of the Commercial Computer Software - Restricted
 Rights clause in FAR 52.227-19.
  
 Gaussian, Inc.
 340 Quinnipiac St., Bldg. 40, Wallingford CT 06492
  
  
 ---------------------------------------------------------------
 Warning -- This program may not be used in any manner that
 competes with the business of Gaussian, Inc. or will provide
 assistance to any competitor of Gaussian, Inc.  The licensee
 of this program is prohibited from giving any competitor of
 Gaussian, Inc. access to this program.  By using this program,
 the user acknowledges that Gaussian, Inc. is engaged in the
 business of creating and licensing software in the field of
 computational chemistry and represents and warrants to the
 licensee that it is not a competitor of Gaussian, Inc. and that
 it will not use this program in any manner prohibited above.
 ---------------------------------------------------------------
  

 Cite this work as:
 Gaussian 16, Revision C.02,
 M. J. Frisch, G. W. Trucks, H. B. Schlegel, G. E. Scuseria, 
 M. A. Robb, J. R. Cheeseman, G. Scalmani, V. Barone, 
 G. A. Petersson, H. Nakatsuji, X. Li, M. Caricato, A. V. Marenich, 
 J. Bloino, B. G. Janesko, R. Gomperts, B. Mennucci, H. P. Hratchian, 
 J. V. Ortiz, A. F. Izmaylov, J. L. Sonnenberg, D. Williams-Young, 
 F. Ding, F. Lipparini, F. Egidi, J. Goings, B. Peng, A. Petrone, 
 T. Henderson, D. Ranasinghe, V. G. Zakrzewski, J. Gao, N. Rega, 
 G. Zheng, W. Liang, M. Hada, M. Ehara, K. Toyota, R. Fukuda, 
 J. Hasegawa, M. Ishida, T. Nakajima, Y. Honda, O. Kitao, H. Nakai, 
 T. Vreven, K. Throssell, J. A. Montgomery, Jr., J. E. Peralta, 
 F. Ogliaro, M. J. Bearpark, J. J. Heyd, E. N. Brothers, K. N. Kudin, 
 V. N. Staroverov, T. A. Keith, R. Kobayashi, J. Normand, 
 K. Raghavachari, A. P. Rendell, J. C. Burant, S. S. Iyengar, 
 J. Tomasi, M. Cossi, J. M. Millam, M. Klene, C. Adamo, R. Cammi, 
 J. W. Ochterski, R. L. Martin, K. Morokuma, O. Farkas, 
 J. B. Foresman, and D. J. Fox, Gaussian, Inc., Wallingford CT, 2019.
 
 ******************************************
 Gaussian 16:  ES64L-G16RevC.02  7-Dec-2021
                23-May-2024 
 ******************************************
 %chk=Ti_3_BLYP.chk
 SetSPE:  set environment variable "OMP_PROC_BIND" = "true"
 SetSPE:  set environment variable "OMP_PLACES" = "{0},{1},{2},{3},{4},{5},{6},{7},{8},{9},{10},{11},{12},{13},{14},{15},{16},{17},{18},{19},{20},{21},{22},{23},{24},{25},{26},{27},{28},{29},{30},{31},{32},{33},{34},{35},{36},{37},{38},{39},{40},{41},{42},{43},{44},{45},{46},{47},{48},{49},{50},{51},{52},{53},{54},{55},{56},{57},{58},{59},{60},{61},{62},{63},{64},{65},{66},{67},{68},{69},{70},{71},{72},{73},{74},{75},{76},{77},{78},{79},{80},{81},{82},{83},{84},{85},{86},{87},{88},{89},{90},{91},{92},{93},{94},{95},{96},{97},{98},{99},{100},{101},{102},{103},{104},{105},{106},{107},{108},{109},{110},{111},{112},{113},{114},{115},{116},{117},{118},{119},{120},{121},{122},{123},{124},{125},{126},{127}"
 SetLPE:    new flags="-opt 'Tsnet.Node.lindarsharg: ssh'  -nodelist 'i300.lcrc.anl.gov' -env GAUSS_MDEF=26843545600 -env GAUSS_EXEDIR="/gpfs/fs1/soft/improv/software/custom-built/gaussian/g16/bsd:/gpfs/fs1/soft/improv/software/custom-built/gaussian/g16" -env "OMP_PROC_BIND=true" -env "OMP_PLACES={0},{1},{2},{3},{4},{5},{6},{7},{8},{9},{10},{11},{12},{13},{14},{15},{16},{17},{18},{19},{20},{21},{22},{23},{24},{25},{26},{27},{28},{29},{30},{31},{32},{33},{34},{35},{36},{37},{38},{39},{40},{41},{42},{43},{44},{45},{46},{47},{48},{49},{50},{51},{52},{53},{54},{55},{56},{57},{58},{59},{60},{61},{62},{63},{64},{65},{66},{67},{68},{69},{70},{71},{72},{73},{74},{75},{76},{77},{78},{79},{80},{81},{82},{83},{84},{85},{86},{87},{88},{89},{90},{91},{92},{93},{94},{95},{96},{97},{98},{99},{100},{101},{102},{103},{104},{105},{106},{107},{108},{109},{110},{111},{112},{113},{114},{115},{116},{117},{118},{119},{120},{121},{122},{123},{124},{125},{126},{127}" -env GAUSS_ADEF="0,1,2,3,4,5,6,7,8,9,10,11,12,13,14,15,16,17,18,19,20,21,22,23,24,25,26,27,28,29,30,31,32,33,34,35,36,37,38,39,40,41,42,43,44,45,46,47,48,49,50,51,52,53,54,55,56,57,58,59,60,61,62,63,64,65,66,67,68,69,70,71,72,73,74,75,76,77,78,79,80,81,82,83,84,85,86,87,88,89,90,91,92,93,94,95,96,97,98,99,100,101,102,103,104,105,106,107,108,109,110,111,112,113,114,115,116,117,118,119,120,121,122,123,124,125,126,127""
 Will use up to    1 processors via Linda.
 ----------------------------------------------------------------------
 #p BLYP empiricaldispersion=gd3 6-31+G(2df,p) opt=(cartesian,calcall,m
 axcycles=500) freq scf=(maxcycles=500,xqc,maxconventional=50)
 ----------------------------------------------------------------------
 1/6=500,10=4,18=10,26=3,38=1/1,3;
 2/12=2,17=6,18=5,29=2,40=1/2;
 3/5=1,6=6,7=114,11=2,25=1,30=1,71=2,74=402,124=31,140=1/1,2,3;
 4//1;
 5/5=2,7=500,8=3,13=1,38=5,85=50/2,8;
 8/6=4,10=90,11=11/1;
 11/6=1,8=1,9=11,15=111,16=1/1,2,10;
 10/6=1/2;
 6/7=2,8=2,9=2,10=2,18=1,28=1/1;
 7/7=1,10=1,25=1/1,2,3,16;
 1/6=500,10=4,18=10,26=3/3(3);
 2/29=1/2;
 7/7=1,8=1,9=1,25=1,44=-1/16;
 99/12=1/99;
 2/29=1/2;
 3/5=1,6=6,7=114,11=2,25=1,30=1,71=2,74=402,124=31,140=1/1,2,3;
 4/5=5,16=3,69=1/1;
 5/5=2,7=500,8=3,13=1,38=5,85=50/2,8;
 8/6=4,10=90,11=11/1;
 11/6=1,8=1,9=11,15=111,16=1/1,2,10;
 10/6=1/2;
 7/7=1,10=1,25=1/1,2,3,16;
 1/6=500,10=4,18=10,26=3/3(-8);
 2/29=1/2;
 6/7=2,8=2,9=2,10=2,18=1,19=2,28=1/1;
 7/7=1,8=1,9=1,25=1,44=-1/16;
 99/12=1/99;
 Leave Link    1 at Thu May 23 16:26:34 2024, MaxMem=           0 cpu:               4.9 elap:               0.1
 (Enter /gpfs/fs1/soft/improv/software/custom-built/gaussian/g16/l101.exe)
 -----
 Title
 -----
 Symbolic Z-matrix:
 Charge =  3 Multiplicity = 2
 Ti                   -0.79304   0.81881  -0.09491 
 O                    -1.20497   2.57394  -0.35687 
 H                    -2.12106   2.64974  -0.63312 
 O                     0.99012   1.19063  -0.05794 
 H                     1.42696   0.5998    0.55971 
 O                    -0.81752   1.03069   1.71365 
 H                    -1.02108   0.1906    2.13133 
 O                    -0.38507  -0.93351   0.17118 
 H                    -1.15682  -1.47369  -0.01433 
 O                    -2.57341   0.45178  -0.12186 
 H                    -2.77756  -0.08744  -0.88929 
 O                    -0.76966   0.60461  -1.90111 
 H                     0.09872   0.83457  -2.23949 
 H                    -0.96534  -0.30999  -2.11742 
 H                     1.12208   2.09943   0.22124 
 H                    -1.07671   3.0584    0.46184 
 H                    -2.81407  -0.02398   0.6765 
 H                     0.0422    1.33615   2.01181 
 H                    -0.11532  -1.06446   1.08312 
 
 ITRead=  0  0  0  0  0  0  0  0  0  0  0  0  0  0  0  0  0  0  0
 MicOpt= -1 -1 -1 -1 -1 -1 -1 -1 -1 -1 -1 -1 -1 -1 -1 -1 -1 -1 -1
 NAtoms=     19 NQM=       19 NQMF=       0 NMMI=      0 NMMIF=      0
                NMic=       0 NMicF=      0.
                    Isotopes and Nuclear Properties:
 (Nuclear quadrupole moments (NQMom) in fm**2, nuclear magnetic moments (NMagM)
  in nuclear magnetons)

  Atom         1           2           3           4           5           6           7           8           9          10
 IAtWgt=          48          16           1          16           1          16           1          16           1          16
 AtmWgt=  47.9479467  15.9949146   1.0078250  15.9949146   1.0078250  15.9949146   1.0078250  15.9949146   1.0078250  15.9949146
 NucSpn=           0           0           1           0           1           0           1           0           1           0
 AtZEff=  -0.0000000  -0.0000000  -0.0000000  -0.0000000  -0.0000000  -0.0000000  -0.0000000  -0.0000000  -0.0000000  -0.0000000
 NQMom=    0.0000000   0.0000000   0.0000000   0.0000000   0.0000000   0.0000000   0.0000000   0.0000000   0.0000000   0.0000000
 NMagM=    0.0000000   0.0000000   2.7928460   0.0000000   2.7928460   0.0000000   2.7928460   0.0000000   2.7928460   0.0000000
 AtZNuc=  22.0000000   8.0000000   1.0000000   8.0000000   1.0000000   8.0000000   1.0000000   8.0000000   1.0000000   8.0000000

  Atom        11          12          13          14          15          16          17          18          19
 IAtWgt=           1          16           1           1           1           1           1           1           1
 AtmWgt=   1.0078250  15.9949146   1.0078250   1.0078250   1.0078250   1.0078250   1.0078250   1.0078250   1.0078250
 NucSpn=           1           0           1           1           1           1           1           1           1
 AtZEff=  -0.0000000  -0.0000000  -0.0000000  -0.0000000  -0.0000000  -0.0000000  -0.0000000  -0.0000000  -0.0000000
 NQMom=    0.0000000   0.0000000   0.0000000   0.0000000   0.0000000   0.0000000   0.0000000   0.0000000   0.0000000
 NMagM=    2.7928460   0.0000000   2.7928460   2.7928460   2.7928460   2.7928460   2.7928460   2.7928460   2.7928460
 AtZNuc=   1.0000000   8.0000000   1.0000000   1.0000000   1.0000000   1.0000000   1.0000000   1.0000000   1.0000000
 Leave Link  101 at Thu May 23 16:26:34 2024, MaxMem= 26843545600 cpu:               0.4 elap:               0.0
 (Enter /gpfs/fs1/soft/improv/software/custom-built/gaussian/g16/l103.exe)

 GradGradGradGradGradGradGradGradGradGradGradGradGradGradGradGradGradGrad
 Berny optimization.
 Initialization pass.
 No Z-matrix variables, so optimization will use Cartesian coordinates.
 Trust Radius=3.00D-01 FncErr=1.00D-07 GrdErr=1.00D-06 EigMax=2.50D+02 EigMin=1.00D-04
 Number of steps in this run=    114 maximum allowed number of steps=    114.
 GradGradGradGradGradGradGradGradGradGradGradGradGradGradGradGradGradGrad

 Leave Link  103 at Thu May 23 16:26:34 2024, MaxMem= 26843545600 cpu:               0.4 elap:               0.1
 (Enter /gpfs/fs1/soft/improv/software/custom-built/gaussian/g16/l202.exe)
 ---------------------------------------------------------------------------------------------------
                            Z-MATRIX (ANGSTROMS AND DEGREES)
   CD    Cent   Atom    N1       Length/X        N2       Alpha/Y        N3        Beta/Z          J
 ---------------------------------------------------------------------------------------------------
      1      1  Ti       0  -0.793037          0.818805         -0.094905
      2      2  O        0  -1.204971          2.573941         -0.356874
      3      3  H        0  -2.121063          2.649743         -0.633122
      4      4  O        0   0.990122          1.190635         -0.057941
      5      5  H        0   1.426962          0.599798          0.559707
      6      6  O        0  -0.817519          1.030691          1.713650
      7      7  H        0  -1.021079          0.190602          2.131326
      8      8  O        0  -0.385068         -0.933506          0.171177
      9      9  H        0  -1.156817         -1.473692         -0.014327
     10     10  O        0  -2.573405          0.451778         -0.121857
     11     11  H        0  -2.777557         -0.087440         -0.889285
     12     12  O        0  -0.769659          0.604612         -1.901109
     13     13  H        0   0.098725          0.834573         -2.239490
     14     14  H        0  -0.965336         -0.309994         -2.117418
     15     15  H        0   1.122081          2.099426          0.221242
     16     16  H        0  -1.076711          3.058396          0.461841
     17     17  H        0  -2.814074         -0.023981          0.676500
     18     18  H        0   0.042204          1.336153          2.011809
     19     19  H        0  -0.115315         -1.064459          1.083123
 ---------------------------------------------------------------------------------------------------
                         Z-Matrix orientation:                         
 ---------------------------------------------------------------------
 Center     Atomic      Atomic             Coordinates (Angstroms)
 Number     Number       Type             X           Y           Z
 ---------------------------------------------------------------------
      1         22           0       -0.793037    0.818805   -0.094905
      2          8           0       -1.204971    2.573941   -0.356874
      3          1           0       -2.121063    2.649743   -0.633122
      4          8           0        0.990122    1.190635   -0.057941
      5          1           0        1.426962    0.599798    0.559707
      6          8           0       -0.817519    1.030691    1.713650
      7          1           0       -1.021079    0.190602    2.131326
      8          8           0       -0.385068   -0.933506    0.171177
      9          1           0       -1.156817   -1.473692   -0.014327
     10          8           0       -2.573405    0.451778   -0.121857
     11          1           0       -2.777557   -0.087440   -0.889285
     12          8           0       -0.769659    0.604612   -1.901109
     13          1           0        0.098725    0.834573   -2.239490
     14          1           0       -0.965336   -0.309994   -2.117418
     15          1           0        1.122081    2.099426    0.221242
     16          1           0       -1.076711    3.058396    0.461841
     17          1           0       -2.814074   -0.023981    0.676500
     18          1           0        0.042204    1.336153    2.011809
     19          1           0       -0.115315   -1.064459    1.083123
 ---------------------------------------------------------------------
                    Distance matrix (angstroms):
                    1          2          3          4          5
     1  Ti   0.000000
     2  O    1.821762   0.000000
     3  H    2.325008   0.959835   0.000000
     4  O    1.821889   2.611767   3.484150   0.000000
     5  H    2.324839   3.415322   4.267739   0.959899   0.000000
     6  O    1.821090   2.611285   3.134947   2.536076   2.560263
     7  H    2.324381   3.450400   3.859988   3.136540   2.937743
     8  O    1.818745   3.640503   4.062050   2.540791   2.405292
     9  H    2.322579   4.062387   4.279649   3.421971   3.362259
    10  O    1.818006   2.536025   2.301533   3.639880   4.060711
    11  H    2.321775   3.136788   2.826442   4.064482   4.499984
    12  O    1.819010   2.540161   2.759827   2.614866   3.298603
    13  H    2.322657   2.875634   3.286750   2.383386   3.107223
    14  H    2.322591   3.387332   3.506977   3.212032   3.703756
    15  H    2.325429   2.444290   3.398642   0.959822   1.567289
    16  H    2.325125   0.959918   1.567358   2.833814   3.510364
    17  H    2.321626   3.225876   3.056824   4.060370   4.288255
    18  H    2.324547   2.949275   3.660724   2.281137   2.137375
    19  H    2.322443   4.061883   4.556733   2.758526   2.328591
                    6          7          8          9         10
     6  O    0.000000
     7  H    0.960021   0.000000
     8  O    2.534622   2.347406   0.000000
     9  H    3.061530   2.718847   0.960108   0.000000
    10  O    2.605257   2.748593   2.606473   2.392848   0.000000
    11  H    3.444886   3.505227   2.750347   2.305222   0.959885
    12  O    3.640099   4.061422   2.609231   2.833582   2.538227
    13  H    4.062670   4.557707   3.028445   3.443229   3.430916
    14  H    4.061572   4.278496   2.441955   2.411193   2.673658
    15  H    2.670492   3.447487   3.387136   4.244531   4.060675
    16  H    2.397039   3.318813   4.061790   4.557738   3.061904
    17  H    2.484803   2.318921   2.642472   2.307685   0.960023
    18  H    0.959858   1.567527   2.953276   3.665802   3.489421
    19  H    2.297892   1.869309   0.959980   1.567353   3.129403
                   11         12         13         14         15
    11  H    0.000000
    12  O    2.352526   0.000000
    13  H    3.308498   0.959935   0.000000
    14  H    2.200452   0.959991   1.567533   0.000000
    15  H    4.606825   3.212091   2.949969   3.953725   0.000000
    16  H    3.822919   3.420362   3.691102   4.243941   2.410850
    17  H    1.567497   3.349453   4.210050   3.362383   4.495491
    18  H    4.288824   4.062660   4.281159   4.558009   2.225950
    19  H    3.454344   3.481323   3.833001   3.396353   3.504877
                   16         17         18         19
    16  H    0.000000
    17  H    3.544793   0.000000
    18  H    2.573032   3.433851   0.000000
    19  H    4.278809   2.920828   2.578800   0.000000
 Stoichiometry    H12O6Ti(3+,2)
 Framework group  C1[X(H12O6Ti)]
 Deg. of freedom    51
 Full point group                 C1      NOp   1
 Largest Abelian subgroup         C1      NOp   1
 Largest concise Abelian subgroup C1      NOp   1
                         Standard orientation:                         
 ---------------------------------------------------------------------
 Center     Atomic      Atomic             Coordinates (Angstroms)
 Number     Number       Type             X           Y           Z
 ---------------------------------------------------------------------
      1         22           0       -0.021180   -0.031230    0.010242
      2          8           0       -0.320919   -1.688924   -0.683318
      3          1           0       -1.137185   -1.681640   -1.188234
      4          8           0        1.254245   -0.678703    1.138670
      5          1           0        1.942694   -0.019880    1.254406
      6          8           0        1.297272    0.293478   -1.203273
      7          1           0        1.380717    1.240156   -1.339207
      8          8           0        0.279127    1.625671    0.697504
      9          1           0       -0.432969    2.214440    0.436587
     10          8           0       -1.286964    0.614116   -1.123984
     11          1           0       -2.036002    0.936648   -0.617728
     12          8           0       -1.338898   -0.352897    1.222244
     13          1           0       -0.972045   -0.816749    1.978376
     14          1           0       -1.718130    0.480302    1.511284
     15          1           0        1.635288   -1.477345    0.766869
     16          1           0        0.408469   -1.932016   -1.258072
     17          1           0       -0.916621    1.333448   -1.640754
     18          1           0        2.128227   -0.056953   -0.874579
     19          1           0        1.112611    1.964725    0.362979
 ---------------------------------------------------------------------
 Rotational constants (GHZ):           2.0397079           1.9739543           1.9252950
 Leave Link  202 at Thu May 23 16:26:35 2024, MaxMem= 26843545600 cpu:               0.5 elap:               0.1
 (Enter /gpfs/fs1/soft/improv/software/custom-built/gaussian/g16/l301.exe)
 Standard basis: 6-31+G(2df,p) (6D, 7F)
 Ernie: Thresh=  0.10000D-02 Tol=  0.10000D-05 Strict=F.
 There are   347 symmetry adapted cartesian basis functions of A   symmetry.
 There are   317 symmetry adapted basis functions of A   symmetry.
   317 basis functions,   514 primitive gaussians,   347 cartesian basis functions
    40 alpha electrons       39 beta electrons
       nuclear repulsion energy       701.0339313636 Hartrees.
 IExCor=  402 DFT=T Ex=B Corr=LYP ExCW=0 ScaHFX=  0.000000
 ScaDFX=  1.000000  1.000000  1.000000  1.000000 ScalE2=  1.000000  1.000000
 IRadAn=      5 IRanWt=     -1 IRanGd=            0 ICorTp=0 IEmpDi=131
 NAtoms=   19 NActive=   19 NUniq=   19 SFac= 1.00D+00 NAtFMM=   60 NAOKFM=F Big=F
 Integral buffers will be    131072 words long.
 Raffenetti 2 integral format.
 Two-electron integral symmetry is turned on.
 R6Disp:  Grimme-D3 Dispersion energy=       -0.0259622839 Hartrees.
 Nuclear repulsion after empirical dispersion term =      701.0079690797 Hartrees.
 Leave Link  301 at Thu May 23 16:26:35 2024, MaxMem= 26843545600 cpu:               0.4 elap:               0.0
 (Enter /gpfs/fs1/soft/improv/software/custom-built/gaussian/g16/l302.exe)
 NPDir=0 NMtPBC=     1 NCelOv=     1 NCel=       1 NClECP=     1 NCelD=      1
         NCelK=      1 NCelE2=     1 NClLst=     1 CellRange=     0.0.
 One-electron integrals computed using PRISM.
 One-electron integral symmetry used in STVInt
 NBasis=   317 RedAO= T EigKep=  4.19D-05  NBF=   317
 NBsUse=   317 1.00D-06 EigRej= -1.00D+00 NBFU=   317
 Precomputing XC quadrature grid using
 IXCGrd= 4 IRadAn=           5 IRanWt=          -1 IRanGd=           0 AccXCQ= 0.00D+00.
 Generated NRdTot=       0 NPtTot=           0 NUsed=           0 NTot=          32
 NSgBfM=   347   347   347   347   347 MxSgAt=    19 MxSgA2=    19.
 Leave Link  302 at Thu May 23 16:26:35 2024, MaxMem= 26843545600 cpu:              21.7 elap:               0.3
 (Enter /gpfs/fs1/soft/improv/software/custom-built/gaussian/g16/l303.exe)
 DipDrv:  MaxL=1.
 Leave Link  303 at Thu May 23 16:26:36 2024, MaxMem= 26843545600 cpu:               1.0 elap:               0.0
 (Enter /gpfs/fs1/soft/improv/software/custom-built/gaussian/g16/l401.exe)
 ExpMin= 9.99D-03 ExpMax= 4.32D+04 ExpMxC= 6.48D+03 IAcc=3 IRadAn=         5 AccDes= 0.00D+00
 Harris functional with IExCor=  402 and IRadAn=       5 diagonalized for initial guess.
 HarFok:  IExCor=  402 AccDes= 0.00D+00 IRadAn=         5 IDoV= 1 UseB2=F ITyADJ=14
 ICtDFT=  3500011 ScaDFX=  1.000000  1.000000  1.000000  1.000000
 FoFCou: FMM=F IPFlag=           0 FMFlag=      100000 FMFlg1=           0
         NFxFlg=           0 DoJE=T BraDBF=F KetDBF=T FulRan=T
         wScrn=  0.000000 ICntrl=       500 IOpCl=  0 I1Cent=   200000004 NGrid=           0
         NMat0=    1 NMatS0=      1 NMatT0=    0 NMatD0=    1 NMtDS0=    0 NMtDT0=    0
 Petite list used in FoFCou.
 Harris En= -1307.50155244335    
 JPrj=0 DoOrth=F DoCkMO=F.
 Initial guess <Sx>= 0.0000 <Sy>= 0.0000 <Sz>= 0.5000 <S**2>= 0.7500 S= 0.5000
 Leave Link  401 at Thu May 23 16:26:37 2024, MaxMem= 26843545600 cpu:              40.4 elap:               0.5
 (Enter /gpfs/fs1/soft/improv/software/custom-built/gaussian/g16/l502.exe)
 Integral symmetry usage will be decided dynamically.
 UHF open shell SCF:
 Using DIIS extrapolation, IDIIS=  1040.
 NGot= 26843545600 LenX= 26843256607 LenY= 26843135757
 Requested convergence on RMS density matrix=1.00D-08 within  50 cycles.
 Requested convergence on MAX density matrix=1.00D-06.
 Requested convergence on             energy=1.00D-06.
 No special actions if energy rises.
 Fock matrices will be formed incrementally for  20 cycles.

 Cycle   1  Pass 1  IDiag  1:
 FoFJK:  IHMeth= 1 ICntrl=     500 DoSepK=F KAlg= 0 I1Cent=           0 FoldK=F
 IRaf= 990000000 NMat=       1 IRICut=       1 DoRegI=T DoRafI=F ISym2E= 0 IDoP0=0 IntGTp=1.
 FoFCou: FMM=F IPFlag=           0 FMFlag=      100000 FMFlg1=           0
         NFxFlg=           0 DoJE=T BraDBF=F KetDBF=F FulRan=T
         wScrn=  0.000000 ICntrl=       500 IOpCl=  0 I1Cent=           0 NGrid=           0
         NMat0=    1 NMatS0=      1 NMatT0=    0 NMatD0=    1 NMtDS0=    0 NMtDT0=    0
 Symmetry not used in FoFCou.
 E= -1306.29953214496    
 DIIS: error= 3.74D-02 at cycle   1 NSaved=   1.
 NSaved= 1 IEnMin= 1 EnMin= -1306.29953214496     IErMin= 1 ErrMin= 3.74D-02
 ErrMax= 3.74D-02  0.00D+00 EMaxC= 1.00D-01 BMatC= 2.61D+00 BMatP= 2.61D+00
 IDIUse=3 WtCom= 6.26D-01 WtEn= 3.74D-01
 Coeff-Com:  0.100D+01
 Coeff-En:   0.100D+01
 Coeff:      0.100D+01
 Gap=     0.018 Goal=   None    Shift=    0.000
 Gap=     0.059 Goal=   None    Shift=    0.000
 GapD=    0.018 DampG=0.250 DampE=0.250 DampFc=0.1250 IDamp=-1.
 Damping current iteration by 1.25D-01
 RMSDP=9.96D-03 MaxDP=3.38D-01              OVMax= 4.63D-01

 Cycle   2  Pass 1  IDiag  1:
 RMSU=  1.23D-03    CP:  9.90D-01
 E= -1306.40456132674     Delta-E=       -0.105029181780 Rises=F Damp=T
 DIIS: error= 2.33D-02 at cycle   2 NSaved=   2.
 NSaved= 2 IEnMin= 2 EnMin= -1306.40456132674     IErMin= 2 ErrMin= 2.33D-02
 ErrMax= 2.33D-02  0.00D+00 EMaxC= 1.00D-01 BMatC= 9.88D-01 BMatP= 2.61D+00
 IDIUse=3 WtCom= 7.67D-01 WtEn= 2.33D-01
 Coeff-Com: -0.134D+01 0.234D+01
 Coeff-En:   0.000D+00 0.100D+01
 Coeff:     -0.103D+01 0.203D+01
 Gap=    -0.032 Goal=   None    Shift=    0.000
 Gap=     0.200 Goal=   None    Shift=    0.000
 RMSDP=1.27D-02 MaxDP=1.59D+00 DE=-1.05D-01 OVMax= 9.80D-01

 Cycle   3  Pass 1  IDiag  1:
 RMSU=  1.25D-02    CP:  9.55D-01  2.58D+00
 E= -1306.24961649447     Delta-E=        0.154944832267 Rises=F Damp=F
 DIIS: error= 2.99D-02 at cycle   3 NSaved=   3.
 NSaved= 3 IEnMin= 2 EnMin= -1306.40456132674     IErMin= 2 ErrMin= 2.33D-02
 ErrMax= 2.99D-02  0.00D+00 EMaxC= 1.00D-01 BMatC= 1.68D+00 BMatP= 9.88D-01
 IDIUse=2 WtCom= 0.00D+00 WtEn= 1.00D+00
 Coeff-En:   0.000D+00 0.632D+00 0.368D+00
 Coeff:      0.000D+00 0.632D+00 0.368D+00
 Gap=    -0.170 Goal=   None    Shift=    0.000
 Gap=     0.267 Goal=   None    Shift=    0.000
 RMSDP=1.36D-02 MaxDP=1.59D+00 DE= 1.55D-01 OVMax= 9.40D-01

 Cycle   4  Pass 1  IDiag  1:
 RMSU=  4.28D-03    CP:  9.43D-01  3.00D+00 -2.14D-02
 E= -1305.55535711658     Delta-E=        0.694259377892 Rises=F Damp=F
 DIIS: error= 5.59D-02 at cycle   4 NSaved=   4.
 NSaved= 4 IEnMin= 2 EnMin= -1306.40456132674     IErMin= 2 ErrMin= 2.33D-02
 ErrMax= 5.59D-02  0.00D+00 EMaxC= 1.00D-01 BMatC= 7.40D+00 BMatP= 9.88D-01
 IDIUse=2 WtCom= 0.00D+00 WtEn= 1.00D+00
 EnCoef did   100 forward-backward iterations
 Coeff-En:   0.334D+00 0.765D-02 0.404D+00 0.254D+00
 Coeff:      0.334D+00 0.765D-02 0.404D+00 0.254D+00
 Gap=     0.008 Goal=   None    Shift=    0.000
 Gap=     0.170 Goal=   None    Shift=    0.000
 RMSDP=3.34D-03 MaxDP=2.03D-01 DE= 6.94D-01 OVMax= 2.48D-01

 Cycle   5  Pass 1  IDiag  1:
 RMSU=  1.50D-03    CP:  9.62D-01  2.58D+00  5.82D-03  3.99D-01
 E= -1306.71043990004     Delta-E=       -1.155082783459 Rises=F Damp=F
 DIIS: error= 8.29D-03 at cycle   5 NSaved=   5.
 NSaved= 5 IEnMin= 5 EnMin= -1306.71043990004     IErMin= 5 ErrMin= 8.29D-03
 ErrMax= 8.29D-03  0.00D+00 EMaxC= 1.00D-01 BMatC= 1.34D-01 BMatP= 9.88D-01
 IDIUse=3 WtCom= 9.17D-01 WtEn= 8.29D-02
 Coeff-Com: -0.285D-01 0.135D+00 0.146D+00-0.447D-01 0.792D+00
 Coeff-En:   0.000D+00 0.000D+00 0.744D-01 0.000D+00 0.926D+00
 Coeff:     -0.262D-01 0.124D+00 0.140D+00-0.410D-01 0.803D+00
 Gap=     0.015 Goal=   None    Shift=    0.000
 Gap=     0.228 Goal=   None    Shift=    0.000
 RMSDP=9.02D-04 MaxDP=4.94D-02 DE=-1.16D+00 OVMax= 5.06D-02

 Cycle   6  Pass 1  IDiag  1:
 RMSU=  6.21D-04    CP:  9.64D-01  2.44D+00  9.13D-03  2.51D-01  9.93D-01
 E= -1306.73669777891     Delta-E=       -0.026257878875 Rises=F Damp=F
 DIIS: error= 1.08D-03 at cycle   6 NSaved=   6.
 NSaved= 6 IEnMin= 6 EnMin= -1306.73669777891     IErMin= 6 ErrMin= 1.08D-03
 ErrMax= 1.08D-03  0.00D+00 EMaxC= 1.00D-01 BMatC= 4.26D-03 BMatP= 1.34D-01
 IDIUse=3 WtCom= 9.89D-01 WtEn= 1.08D-02
 Coeff-Com:  0.881D-01-0.121D+00 0.487D-01-0.105D-01 0.202D+00 0.792D+00
 Coeff-En:   0.000D+00 0.000D+00 0.000D+00 0.000D+00 0.000D+00 0.100D+01
 Coeff:      0.871D-01-0.119D+00 0.482D-01-0.104D-01 0.200D+00 0.794D+00
 Gap=     0.017 Goal=   None    Shift=    0.000
 Gap=     0.225 Goal=   None    Shift=    0.000
 RMSDP=1.70D-04 MaxDP=6.75D-03 DE=-2.63D-02 OVMax= 1.15D-02

 Cycle   7  Pass 1  IDiag  1:
 RMSU=  1.47D-04    CP:  9.63D-01  2.49D+00  9.62D-03  2.55D-01  1.01D+00
                    CP:  9.07D-01
 E= -1306.73651050614     Delta-E=        0.000187272771 Rises=F Damp=F
 DIIS: error= 1.45D-03 at cycle   7 NSaved=   7.
 NSaved= 7 IEnMin= 6 EnMin= -1306.73669777891     IErMin= 6 ErrMin= 1.08D-03
 ErrMax= 1.45D-03  0.00D+00 EMaxC= 1.00D-01 BMatC= 5.33D-03 BMatP= 4.26D-03
 IDIUse=3 WtCom= 9.89D-01 WtEn= 1.08D-02
 Coeff-Com:  0.423D-01-0.636D-01 0.156D-01-0.328D-02-0.416D-01 0.532D+00
 Coeff-Com:  0.519D+00
 Coeff-En:   0.000D+00 0.000D+00 0.000D+00 0.000D+00 0.000D+00 0.597D+00
 Coeff-En:   0.403D+00
 Coeff:      0.418D-01-0.629D-01 0.155D-01-0.325D-02-0.411D-01 0.532D+00
 Coeff:      0.518D+00
 Gap=     0.018 Goal=   None    Shift=    0.000
 Gap=     0.230 Goal=   None    Shift=    0.000
 RMSDP=1.47D-04 MaxDP=8.14D-03 DE= 1.87D-04 OVMax= 8.85D-03

 Cycle   8  Pass 1  IDiag  1:
 RMSU=  7.73D-05    CP:  9.63D-01  2.44D+00  1.03D-02  2.36D-01  1.01D+00
                    CP:  1.01D+00  7.47D-01
 E= -1306.73744152589     Delta-E=       -0.000931019752 Rises=F Damp=F
 DIIS: error= 4.39D-04 at cycle   8 NSaved=   8.
 NSaved= 8 IEnMin= 8 EnMin= -1306.73744152589     IErMin= 8 ErrMin= 4.39D-04
 ErrMax= 4.39D-04  0.00D+00 EMaxC= 1.00D-01 BMatC= 5.02D-04 BMatP= 4.26D-03
 IDIUse=3 WtCom= 9.96D-01 WtEn= 4.39D-03
 Coeff-Com:  0.699D-02-0.978D-02 0.351D-02-0.104D-02-0.686D-01 0.162D+00
 Coeff-Com:  0.232D+00 0.675D+00
 Coeff-En:   0.000D+00 0.000D+00 0.000D+00 0.000D+00 0.000D+00 0.000D+00
 Coeff-En:   0.000D+00 0.100D+01
 Coeff:      0.696D-02-0.973D-02 0.350D-02-0.104D-02-0.683D-01 0.161D+00
 Coeff:      0.231D+00 0.677D+00
 Gap=     0.018 Goal=   None    Shift=    0.000
 Gap=     0.232 Goal=   None    Shift=    0.000
 RMSDP=6.41D-05 MaxDP=2.68D-03 DE=-9.31D-04 OVMax= 7.44D-03

 Cycle   9  Pass 1  IDiag  1:
 RMSU=  3.48D-05    CP:  9.63D-01  2.42D+00  1.05D-02  2.28D-01  1.01D+00
                    CP:  1.06D+00  7.97D-01  9.16D-01
 E= -1306.73753811830     Delta-E=       -0.000096592407 Rises=F Damp=F
 DIIS: error= 1.14D-04 at cycle   9 NSaved=   9.
 NSaved= 9 IEnMin= 9 EnMin= -1306.73753811830     IErMin= 9 ErrMin= 1.14D-04
 ErrMax= 1.14D-04  0.00D+00 EMaxC= 1.00D-01 BMatC= 4.23D-05 BMatP= 5.02D-04
 IDIUse=3 WtCom= 9.99D-01 WtEn= 1.14D-03
 Coeff-Com:  0.745D-02-0.106D-01 0.856D-03 0.398D-03-0.301D-01 0.269D-01
 Coeff-Com:  0.502D-01 0.373D+00 0.582D+00
 Coeff-En:   0.000D+00 0.000D+00 0.000D+00 0.000D+00 0.000D+00 0.000D+00
 Coeff-En:   0.000D+00 0.000D+00 0.100D+01
 Coeff:      0.745D-02-0.105D-01 0.855D-03 0.398D-03-0.301D-01 0.268D-01
 Coeff:      0.502D-01 0.373D+00 0.582D+00
 Gap=     0.018 Goal=   None    Shift=    0.000
 Gap=     0.232 Goal=   None    Shift=    0.000
 RMSDP=1.67D-05 MaxDP=1.03D-03 DE=-9.66D-05 OVMax= 3.44D-03

 Cycle  10  Pass 1  IDiag  1:
 RMSU=  1.47D-05    CP:  9.64D-01  2.43D+00  1.05D-02  2.27D-01  1.01D+00
                    CP:  1.07D+00  7.96D-01  9.43D-01  1.06D+00
 E= -1306.73754477702     Delta-E=       -0.000006658718 Rises=F Damp=F
 DIIS: error= 5.28D-05 at cycle  10 NSaved=  10.
 NSaved=10 IEnMin=10 EnMin= -1306.73754477702     IErMin=10 ErrMin= 5.28D-05
 ErrMax= 5.28D-05  0.00D+00 EMaxC= 1.00D-01 BMatC= 6.97D-06 BMatP= 4.23D-05
 IDIUse=1 WtCom= 1.00D+00 WtEn= 0.00D+00
 Coeff-Com:  0.115D-02-0.135D-02-0.837D-04 0.890D-04-0.427D-02-0.191D-01
 Coeff-Com: -0.208D-01 0.787D-01 0.264D+00 0.702D+00
 Coeff:      0.115D-02-0.135D-02-0.837D-04 0.890D-04-0.427D-02-0.191D-01
 Coeff:     -0.208D-01 0.787D-01 0.264D+00 0.702D+00
 Gap=     0.018 Goal=   None    Shift=    0.000
 Gap=     0.232 Goal=   None    Shift=    0.000
 RMSDP=1.28D-05 MaxDP=1.04D-03 DE=-6.66D-06 OVMax= 2.79D-03

 Cycle  11  Pass 1  IDiag  1:
 RMSU=  6.28D-06    CP:  9.64D-01  2.42D+00  1.06D-02  2.26D-01  1.01D+00
                    CP:  1.07D+00  8.09D-01  1.01D+00  1.22D+00  1.28D+00
 E= -1306.73754649738     Delta-E=       -0.000001720365 Rises=F Damp=F
 DIIS: error= 1.49D-05 at cycle  11 NSaved=  11.
 NSaved=11 IEnMin=11 EnMin= -1306.73754649738     IErMin=11 ErrMin= 1.49D-05
 ErrMax= 1.49D-05  0.00D+00 EMaxC= 1.00D-01 BMatC= 6.16D-07 BMatP= 6.97D-06
 IDIUse=1 WtCom= 1.00D+00 WtEn= 0.00D+00
 Coeff-Com: -0.757D-03 0.129D-02-0.141D-03-0.644D-04 0.456D-02-0.131D-01
 Coeff-Com: -0.140D-01-0.295D-01-0.463D-01 0.128D+00 0.970D+00
 Coeff:     -0.757D-03 0.129D-02-0.141D-03-0.644D-04 0.456D-02-0.131D-01
 Coeff:     -0.140D-01-0.295D-01-0.463D-01 0.128D+00 0.970D+00
 Gap=     0.018 Goal=   None    Shift=    0.000
 Gap=     0.232 Goal=   None    Shift=    0.000
 RMSDP=1.08D-05 MaxDP=9.21D-04 DE=-1.72D-06 OVMax= 2.97D-03

 Cycle  12  Pass 1  IDiag  1:
 RMSU=  2.99D-06    CP:  9.64D-01  2.42D+00  1.06D-02  2.26D-01  1.01D+00
                    CP:  1.08D+00  8.23D-01  1.05D+00  1.38D+00  1.75D+00
                    CP:  1.57D+00
 E= -1306.73754683396     Delta-E=       -0.000000336576 Rises=F Damp=F
 DIIS: error= 1.01D-05 at cycle  12 NSaved=  12.
 NSaved=12 IEnMin=12 EnMin= -1306.73754683396     IErMin=12 ErrMin= 1.01D-05
 ErrMax= 1.01D-05  0.00D+00 EMaxC= 1.00D-01 BMatC= 5.57D-07 BMatP= 6.16D-07
 IDIUse=1 WtCom= 1.00D+00 WtEn= 0.00D+00
 Coeff-Com: -0.989D-03 0.143D-02-0.716D-04-0.740D-04 0.521D-02-0.266D-03
 Coeff-Com:  0.178D-02-0.493D-01-0.158D+00-0.265D+00 0.686D+00 0.779D+00
 Coeff:     -0.989D-03 0.143D-02-0.716D-04-0.740D-04 0.521D-02-0.266D-03
 Coeff:      0.178D-02-0.493D-01-0.158D+00-0.265D+00 0.686D+00 0.779D+00
 Gap=     0.018 Goal=   None    Shift=    0.000
 Gap=     0.232 Goal=   None    Shift=    0.000
 RMSDP=9.35D-06 MaxDP=7.84D-04 DE=-3.37D-07 OVMax= 2.57D-03

 Cycle  13  Pass 1  IDiag  1:
 RMSU=  1.81D-06    CP:  9.64D-01  2.42D+00  1.06D-02  2.26D-01  1.01D+00
                    CP:  1.08D+00  8.34D-01  1.09D+00  1.51D+00  2.16D+00
                    CP:  2.23D+00  1.41D+00
 E= -1306.73754705882     Delta-E=       -0.000000224863 Rises=F Damp=F
 DIIS: error= 6.38D-06 at cycle  13 NSaved=  13.
 NSaved=13 IEnMin=13 EnMin= -1306.73754705882     IErMin=13 ErrMin= 6.38D-06
 ErrMax= 6.38D-06  0.00D+00 EMaxC= 1.00D-01 BMatC= 2.02D-07 BMatP= 5.57D-07
 IDIUse=1 WtCom= 1.00D+00 WtEn= 0.00D+00
 Coeff-Com: -0.789D-03 0.105D-02-0.409D-04-0.311D-04 0.207D-02 0.503D-02
 Coeff-Com:  0.719D-02-0.253D-01-0.101D+00-0.260D+00 0.977D-01 0.539D+00
 Coeff-Com:  0.736D+00
 Coeff:     -0.789D-03 0.105D-02-0.409D-04-0.311D-04 0.207D-02 0.503D-02
 Coeff:      0.719D-02-0.253D-01-0.101D+00-0.260D+00 0.977D-01 0.539D+00
 Coeff:      0.736D+00
 Gap=     0.018 Goal=   None    Shift=    0.000
 Gap=     0.232 Goal=   None    Shift=    0.000
 RMSDP=6.41D-06 MaxDP=5.52D-04 DE=-2.25D-07 OVMax= 1.74D-03

 Cycle  14  Pass 1  IDiag  1:
 RMSU=  8.78D-07    CP:  9.64D-01  2.42D+00  1.06D-02  2.26D-01  1.01D+00
                    CP:  1.08D+00  8.41D-01  1.11D+00  1.59D+00  2.45D+00
                    CP:  2.68D+00  1.88D+00  1.11D+00
 E= -1306.73754713587     Delta-E=       -0.000000077049 Rises=F Damp=F
 DIIS: error= 3.26D-06 at cycle  14 NSaved=  14.
 NSaved=14 IEnMin=14 EnMin= -1306.73754713587     IErMin=14 ErrMin= 3.26D-06
 ErrMax= 3.26D-06  0.00D+00 EMaxC= 1.00D-01 BMatC= 3.20D-08 BMatP= 2.02D-07
 IDIUse=1 WtCom= 1.00D+00 WtEn= 0.00D+00
 Coeff-Com: -0.161D-03 0.181D-03-0.920D-05 0.162D-04-0.732D-03 0.179D-02
 Coeff-Com:  0.201D-02 0.522D-02 0.113D-01-0.697D-02-0.138D+00-0.498D-01
 Coeff-Com:  0.217D+00 0.959D+00
 Coeff:     -0.161D-03 0.181D-03-0.920D-05 0.162D-04-0.732D-03 0.179D-02
 Coeff:      0.201D-02 0.522D-02 0.113D-01-0.697D-02-0.138D+00-0.498D-01
 Coeff:      0.217D+00 0.959D+00
 Gap=     0.018 Goal=   None    Shift=    0.000
 Gap=     0.232 Goal=   None    Shift=    0.000
 RMSDP=2.45D-06 MaxDP=2.14D-04 DE=-7.70D-08 OVMax= 6.64D-04

 Cycle  15  Pass 1  IDiag  1:
 RMSU=  4.29D-07    CP:  9.64D-01  2.42D+00  1.06D-02  2.26D-01  1.01D+00
                    CP:  1.08D+00  8.43D-01  1.12D+00  1.62D+00  2.55D+00
                    CP:  2.87D+00  2.08D+00  1.33D+00  1.37D+00
 E= -1306.73754714669     Delta-E=       -0.000000010814 Rises=F Damp=F
 DIIS: error= 7.85D-07 at cycle  15 NSaved=  15.
 NSaved=15 IEnMin=15 EnMin= -1306.73754714669     IErMin=15 ErrMin= 7.85D-07
 ErrMax= 7.85D-07  0.00D+00 EMaxC= 1.00D-01 BMatC= 4.19D-09 BMatP= 3.20D-08
 IDIUse=1 WtCom= 1.00D+00 WtEn= 0.00D+00
 Coeff-Com: -0.101D-04-0.298D-05-0.244D-05 0.112D-04-0.534D-03 0.210D-03
 Coeff-Com:  0.173D-03 0.493D-02 0.158D-01 0.277D-01-0.741D-01-0.832D-01
 Coeff-Com:  0.229D-01 0.447D+00 0.639D+00
 Coeff:     -0.101D-04-0.298D-05-0.244D-05 0.112D-04-0.534D-03 0.210D-03
 Coeff:      0.173D-03 0.493D-02 0.158D-01 0.277D-01-0.741D-01-0.832D-01
 Coeff:      0.229D-01 0.447D+00 0.639D+00
 Gap=     0.018 Goal=   None    Shift=    0.000
 Gap=     0.232 Goal=   None    Shift=    0.000
 RMSDP=3.78D-07 MaxDP=2.88D-05 DE=-1.08D-08 OVMax= 9.25D-05

 Cycle  16  Pass 1  IDiag  1:
 RMSU=  1.56D-07    CP:  9.64D-01  2.42D+00  1.06D-02  2.26D-01  1.01D+00
                    CP:  1.08D+00  8.43D-01  1.12D+00  1.62D+00  2.56D+00
                    CP:  2.89D+00  2.12D+00  1.38D+00  1.50D+00  1.13D+00
 E= -1306.73754714750     Delta-E=       -0.000000000816 Rises=F Damp=F
 DIIS: error= 5.40D-07 at cycle  16 NSaved=  16.
 NSaved=16 IEnMin=16 EnMin= -1306.73754714750     IErMin=16 ErrMin= 5.40D-07
 ErrMax= 5.40D-07  0.00D+00 EMaxC= 1.00D-01 BMatC= 1.15D-09 BMatP= 4.19D-09
 IDIUse=1 WtCom= 1.00D+00 WtEn= 0.00D+00
 Coeff-Com:  0.272D-04-0.413D-04 0.126D-06 0.438D-05-0.221D-03-0.265D-03
 Coeff-Com: -0.307D-03 0.236D-02 0.914D-02 0.225D-01-0.277D-01-0.504D-01
 Coeff-Com: -0.250D-01 0.124D+00 0.389D+00 0.557D+00
 Coeff:      0.272D-04-0.413D-04 0.126D-06 0.438D-05-0.221D-03-0.265D-03
 Coeff:     -0.307D-03 0.236D-02 0.914D-02 0.225D-01-0.277D-01-0.504D-01
 Coeff:     -0.250D-01 0.124D+00 0.389D+00 0.557D+00
 Gap=     0.018 Goal=   None    Shift=    0.000
 Gap=     0.232 Goal=   None    Shift=    0.000
 RMSDP=1.72D-07 MaxDP=1.31D-05 DE=-8.16D-10 OVMax= 4.23D-05

 Cycle  17  Pass 1  IDiag  1:
 RMSU=  6.85D-08    CP:  9.64D-01  2.42D+00  1.06D-02  2.26D-01  1.01D+00
                    CP:  1.08D+00  8.43D-01  1.12D+00  1.62D+00  2.57D+00
                    CP:  2.90D+00  2.13D+00  1.40D+00  1.57D+00  1.28D+00
                    CP:  1.02D+00
 E= -1306.73754714773     Delta-E=       -0.000000000230 Rises=F Damp=F
 DIIS: error= 2.38D-07 at cycle  17 NSaved=  17.
 NSaved=17 IEnMin=17 EnMin= -1306.73754714773     IErMin=17 ErrMin= 2.38D-07
 ErrMax= 2.38D-07  0.00D+00 EMaxC= 1.00D-01 BMatC= 2.13D-10 BMatP= 1.15D-09
 IDIUse=1 WtCom= 1.00D+00 WtEn= 0.00D+00
 Coeff-Com:  0.234D-04-0.272D-04 0.175D-05-0.215D-05 0.863D-04-0.250D-03
 Coeff-Com: -0.239D-03-0.690D-03-0.747D-03 0.254D-02 0.865D-02 0.392D-02
 Coeff-Com: -0.156D-01-0.901D-01-0.922D-01 0.252D+00 0.933D+00
 Coeff:      0.234D-04-0.272D-04 0.175D-05-0.215D-05 0.863D-04-0.250D-03
 Coeff:     -0.239D-03-0.690D-03-0.747D-03 0.254D-02 0.865D-02 0.392D-02
 Coeff:     -0.156D-01-0.901D-01-0.922D-01 0.252D+00 0.933D+00
 Gap=     0.018 Goal=   None    Shift=    0.000
 Gap=     0.232 Goal=   None    Shift=    0.000
 RMSDP=1.37D-07 MaxDP=1.04D-05 DE=-2.30D-10 OVMax= 3.53D-05

 Cycle  18  Pass 1  IDiag  1:
 RMSU=  2.74D-08    CP:  9.64D-01  2.42D+00  1.06D-02  2.26D-01  1.01D+00
                    CP:  1.08D+00  8.43D-01  1.12D+00  1.62D+00  2.57D+00
                    CP:  2.91D+00  2.15D+00  1.42D+00  1.64D+00  1.43D+00
                    CP:  1.31D+00  1.15D+00
 E= -1306.73754714779     Delta-E=       -0.000000000060 Rises=F Damp=F
 DIIS: error= 1.16D-07 at cycle  18 NSaved=  18.
 NSaved=18 IEnMin=18 EnMin= -1306.73754714779     IErMin=18 ErrMin= 1.16D-07
 ErrMax= 1.16D-07  0.00D+00 EMaxC= 1.00D-01 BMatC= 4.84D-11 BMatP= 2.13D-10
 IDIUse=1 WtCom= 1.00D+00 WtEn= 0.00D+00
 Coeff-Com:  0.600D-05-0.603D-05 0.684D-06-0.110D-05 0.453D-04-0.288D-04
 Coeff-Com: -0.238D-04-0.507D-03-0.118D-02-0.188D-02 0.471D-02 0.819D-02
 Coeff-Com:  0.311D-02-0.298D-01-0.833D-01-0.260D-01 0.259D+00 0.868D+00
 Coeff:      0.600D-05-0.603D-05 0.684D-06-0.110D-05 0.453D-04-0.288D-04
 Coeff:     -0.238D-04-0.507D-03-0.118D-02-0.188D-02 0.471D-02 0.819D-02
 Coeff:      0.311D-02-0.298D-01-0.833D-01-0.260D-01 0.259D+00 0.868D+00
 Gap=     0.018 Goal=   None    Shift=    0.000
 Gap=     0.232 Goal=   None    Shift=    0.000
 RMSDP=4.57D-08 MaxDP=3.39D-06 DE=-6.03D-11 OVMax= 1.16D-05

 Cycle  19  Pass 1  IDiag  1:
 RMSU=  8.82D-09    CP:  9.64D-01  2.42D+00  1.06D-02  2.26D-01  1.01D+00
                    CP:  1.08D+00  8.43D-01  1.12D+00  1.62D+00  2.57D+00
                    CP:  2.91D+00  2.15D+00  1.42D+00  1.65D+00  1.47D+00
                    CP:  1.40D+00  1.32D+00  1.04D+00
 E= -1306.73754714782     Delta-E=       -0.000000000024 Rises=F Damp=F
 DIIS: error= 4.40D-08 at cycle  19 NSaved=  19.
 NSaved=19 IEnMin=19 EnMin= -1306.73754714782     IErMin=19 ErrMin= 4.40D-08
 ErrMax= 4.40D-08  0.00D+00 EMaxC= 1.00D-01 BMatC= 9.01D-12 BMatP= 4.84D-11
 IDIUse=1 WtCom= 1.00D+00 WtEn= 0.00D+00
 Coeff-Com:  0.235D-05-0.227D-05 0.253D-06-0.434D-06 0.172D-04 0.210D-05
 Coeff-Com:  0.149D-05-0.231D-03-0.554D-03-0.122D-02 0.168D-02 0.411D-02
 Coeff-Com:  0.314D-02-0.881D-02-0.413D-01-0.401D-01 0.655D-01 0.506D+00
 Coeff-Com:  0.512D+00
 Coeff:      0.235D-05-0.227D-05 0.253D-06-0.434D-06 0.172D-04 0.210D-05
 Coeff:      0.149D-05-0.231D-03-0.554D-03-0.122D-02 0.168D-02 0.411D-02
 Coeff:      0.314D-02-0.881D-02-0.413D-01-0.401D-01 0.655D-01 0.506D+00
 Coeff:      0.512D+00
 Gap=     0.018 Goal=   None    Shift=    0.000
 Gap=     0.232 Goal=   None    Shift=    0.000
 RMSDP=8.98D-09 MaxDP=6.59D-07 DE=-2.43D-11 OVMax= 1.90D-06

 SCF Done:  E(UB-LYP) =  -1306.73754715     A.U. after   19 cycles
            NFock= 19  Conv=0.90D-08     -V/T= 2.0004
 <Sx>= 0.0000 <Sy>= 0.0000 <Sz>= 0.5000 <S**2>= 0.7510 S= 0.5005
 <L.S>=  0.00000000000    
 KE= 1.306202760048D+03 PE=-4.450317553498D+03 EE= 1.136369277222D+03
 Annihilation of the first spin contaminant:
 S**2 before annihilation     0.7510,   after     0.7500
 Leave Link  502 at Thu May 23 16:27:42 2024, MaxMem= 26843545600 cpu:            7787.8 elap:              64.8
 (Enter /gpfs/fs1/soft/improv/software/custom-built/gaussian/g16/l508.exe)
 QCSCF skips out because SCF is already converged.
 Leave Link  508 at Thu May 23 16:27:42 2024, MaxMem= 26843545600 cpu:               0.2 elap:               0.0
 (Enter /gpfs/fs1/soft/improv/software/custom-built/gaussian/g16/l801.exe)
 DoSCS=F DFT=T ScalE2(SS,OS)=  1.000000  1.000000
 Range of M.O.s used for correlation:     1   317
 NBasis=   317 NAE=    40 NBE=    39 NFC=     0 NFV=     0
 NROrb=    317 NOA=    40 NOB=    39 NVA=   277 NVB=   278

 **** Warning!!: The largest alpha MO coefficient is  0.78992362D+02


 **** Warning!!: The smallest alpha delta epsilon is  0.18449152D-01


 **** Warning!!: The largest beta MO coefficient is  0.78987762D+02

 Leave Link  801 at Thu May 23 16:27:42 2024, MaxMem= 26843545600 cpu:               0.4 elap:               0.0
 (Enter /gpfs/fs1/soft/improv/software/custom-built/gaussian/g16/l1101.exe)
 Using compressed storage, NAtomX=    19.
 Will process     20 centers per pass.
 R6Disp: Adding Grimme-D3 dispersion energy 1st derivatives to the gradient.
 Leave Link 1101 at Thu May 23 16:27:43 2024, MaxMem= 26843545600 cpu:              51.6 elap:               0.5
 (Enter /gpfs/fs1/soft/improv/software/custom-built/gaussian/g16/l1102.exe)
 Symmetrizing basis deriv contribution to polar:
 IMax=3 JMax=2 DiffMx= 0.00D+00
 Leave Link 1102 at Thu May 23 16:27:43 2024, MaxMem= 26843545600 cpu:               0.9 elap:               0.0
 (Enter /gpfs/fs1/soft/improv/software/custom-built/gaussian/g16/l1110.exe)
 Forming Gx(P) for the SCF density, NAtomX=    19.
 Integral derivatives from FoFJK, PRISM(SPDF).
 Do as many integral derivatives as possible in FoFJK.
 G2DrvN: MDV=   26843543431.
 G2DrvN: will do    20 centers at a time, making    1 passes.
 Calling FoFCou, ICntrl=  3507 FMM=F I1Cent=   0 AccDes= 0.00D+00.
 FoFJK:  IHMeth= 1 ICntrl=    3507 DoSepK=F KAlg= 0 I1Cent=           0 FoldK=F
 IRaf=         0 NMat=       1 IRICut=       1 DoRegI=T DoRafI=F ISym2E= 0 IDoP0=0 IntGTp=1.
 FoFCou: FMM=F IPFlag=           0 FMFlag=      100000 FMFlg1=           0
         NFxFlg=           0 DoJE=F BraDBF=F KetDBF=F FulRan=T
         wScrn=  0.000000 ICntrl=      3507 IOpCl=  0 I1Cent=           0 NGrid=           0
         NMat0=    1 NMatS0=      1 NMatT0=    0 NMatD0=    1 NMtDS0=    0 NMtDT0=    0
 Symmetry not used in FoFCou.
 End of G2Drv F.D. properties file   721 does not exist.
 End of G2Drv F.D. properties file   722 does not exist.
 End of G2Drv F.D. properties file   788 does not exist.
 Leave Link 1110 at Thu May 23 16:27:58 2024, MaxMem= 26843545600 cpu:            1750.6 elap:              14.1
 (Enter /gpfs/fs1/soft/improv/software/custom-built/gaussian/g16/l1002.exe)
 Minotr:  UHF open shell wavefunction.
          IDoAtm=1111111111111111111
          Direct CPHF calculation.
          Differentiating once with respect to electric field.
                with respect to dipole field.
          Differentiating once with respect to nuclear coordinates.
          Requested convergence is 1.0D-08 RMS, and 1.0D-07 maximum.
          Secondary convergence is 1.0D-12 RMS, and 1.0D-12 maximum.
          NewPWx=T KeepS1=F KeepF1=F KeepIn=T MapXYZ=F SortEE=F KeepMc=T.
         6034 words used for storage of precomputed grid.
 Two-electron integrals replicated using symmetry.
          MDV=   26843545600 using IRadAn=       1.
          Solving linear equations simultaneously, MaxMat=     384.
 FoF2E skips out because all densities are zero.
 CalDSu exits because no D1Ps are significant.
 FoFJK:  IHMeth= 1 ICntrl=     500 DoSepK=F KAlg= 0 I1Cent=           0 FoldK=F
 IRaf= 990000000 NMat=      57 IRICut=       1 DoRegI=T DoRafI=F ISym2E= 2 IDoP0=3 IntGTp=2.
 FoFCou: FMM=F IPFlag=           0 FMFlag=      100000 FMFlg1=           0
         NFxFlg=           0 DoJE=F BraDBF=F KetDBF=F FulRan=T
         wScrn=  0.000000 ICntrl=       500 IOpCl=  0 I1Cent=           0 NGrid=           0
         NMat0=   57 NMatS0=     57 NMatT0=    0 NMatD0=   57 NMtDS0=    0 NMtDT0=    0
 Integrals replicated using symmetry in FoFCou.
          There are    60 degrees of freedom in the 1st order CPHF.  IDoFFX=6 NUNeed=     3.
     57 vectors produced by pass  0 Test12= 3.65D-14 1.67D-09 XBig12= 9.77D+01 2.13D+00.
 AX will form    57 AO Fock derivatives at one time.
     57 vectors produced by pass  1 Test12= 3.65D-14 1.67D-09 XBig12= 1.20D+01 3.96D-01.
     57 vectors produced by pass  2 Test12= 3.65D-14 1.67D-09 XBig12= 8.63D-02 3.77D-02.
     57 vectors produced by pass  3 Test12= 3.65D-14 1.67D-09 XBig12= 2.66D-04 1.58D-03.
     57 vectors produced by pass  4 Test12= 3.65D-14 1.67D-09 XBig12= 7.43D-07 8.74D-05.
     49 vectors produced by pass  5 Test12= 3.65D-14 1.67D-09 XBig12= 2.00D-09 4.00D-06.
     15 vectors produced by pass  6 Test12= 3.65D-14 1.67D-09 XBig12= 3.44D-12 1.40D-07.
      3 vectors produced by pass  7 Test12= 3.65D-14 1.67D-09 XBig12= 5.72D-15 4.46D-09.
 InvSVY:  IOpt=1 It=  1 EMax= 7.11D-15
 Solved reduced A of dimension   352 with    60 vectors.
 FullF1:  Do perturbations      1 to       3.
 Isotropic polarizability for W=    0.000000       53.22 Bohr**3.
 End of Minotr F.D. properties file   721 does not exist.
 End of Minotr F.D. properties file   722 does not exist.
 End of Minotr F.D. properties file   788 does not exist.
 Leave Link 1002 at Thu May 23 16:28:40 2024, MaxMem= 26843545600 cpu:            5084.6 elap:              42.6
 (Enter /gpfs/fs1/soft/improv/software/custom-built/gaussian/g16/l601.exe)
 Copying SCF densities to generalized density rwf, IOpCl= 1 IROHF=0.

 **********************************************************************

            Population analysis using the SCF Density.

 **********************************************************************

 Orbital symmetries:
 Alpha Orbitals:
       Occupied  (A) (A) (A) (A) (A) (A) (A) (A) (A) (A) (A) (A)
                 (A) (A) (A) (A) (A) (A) (A) (A) (A) (A) (A) (A)
                 (A) (A) (A) (A) (A) (A) (A) (A) (A) (A) (A) (A)
                 (A) (A) (A) (A)
       Virtual   (A) (A) (A) (A) (A) (A) (A) (A) (A) (A) (A) (A)
                 (A) (A) (A) (A) (A) (A) (A) (A) (A) (A) (A) (A)
                 (A) (A) (A) (A) (A) (A) (A) (A) (A) (A) (A) (A)
                 (A) (A) (A) (A) (A) (A) (A) (A) (A) (A) (A) (A)
                 (A) (A) (A) (A) (A) (A) (A) (A) (A) (A) (A) (A)
                 (A) (A) (A) (A) (A) (A) (A) (A) (A) (A) (A) (A)
                 (A) (A) (A) (A) (A) (A) (A) (A) (A) (A) (A) (A)
                 (A) (A) (A) (A) (A) (A) (A) (A) (A) (A) (A) (A)
                 (A) (A) (A) (A) (A) (A) (A) (A) (A) (A) (A) (A)
                 (A) (A) (A) (A) (A) (A) (A) (A) (A) (A) (A) (A)
                 (A) (A) (A) (A) (A) (A) (A) (A) (A) (A) (A) (A)
                 (A) (A) (A) (A) (A) (A) (A) (A) (A) (A) (A) (A)
                 (A) (A) (A) (A) (A) (A) (A) (A) (A) (A) (A) (A)
                 (A) (A) (A) (A) (A) (A) (A) (A) (A) (A) (A) (A)
                 (A) (A) (A) (A) (A) (A) (A) (A) (A) (A) (A) (A)
                 (A) (A) (A) (A) (A) (A) (A) (A) (A) (A) (A) (A)
                 (A) (A) (A) (A) (A) (A) (A) (A) (A) (A) (A) (A)
                 (A) (A) (A) (A) (A) (A) (A) (A) (A) (A) (A) (A)
                 (A) (A) (A) (A) (A) (A) (A) (A) (A) (A) (A) (A)
                 (A) (A) (A) (A) (A) (A) (A) (A) (A) (A) (A) (A)
                 (A) (A) (A) (A) (A) (A) (A) (A) (A) (A) (A) (A)
                 (A) (A) (A) (A) (A) (A) (A) (A) (A) (A) (A) (A)
                 (A) (A) (A) (A) (A) (A) (A) (A) (A) (A) (A) (A)
                 (A)
 Beta  Orbitals:
       Occupied  (A) (A) (A) (A) (A) (A) (A) (A) (A) (A) (A) (A)
                 (A) (A) (A) (A) (A) (A) (A) (A) (A) (A) (A) (A)
                 (A) (A) (A) (A) (A) (A) (A) (A) (A) (A) (A) (A)
                 (A) (A) (A)
       Virtual   (A) (A) (A) (A) (A) (A) (A) (A) (A) (A) (A) (A)
                 (A) (A) (A) (A) (A) (A) (A) (A) (A) (A) (A) (A)
                 (A) (A) (A) (A) (A) (A) (A) (A) (A) (A) (A) (A)
                 (A) (A) (A) (A) (A) (A) (A) (A) (A) (A) (A) (A)
                 (A) (A) (A) (A) (A) (A) (A) (A) (A) (A) (A) (A)
                 (A) (A) (A) (A) (A) (A) (A) (A) (A) (A) (A) (A)
                 (A) (A) (A) (A) (A) (A) (A) (A) (A) (A) (A) (A)
                 (A) (A) (A) (A) (A) (A) (A) (A) (A) (A) (A) (A)
                 (A) (A) (A) (A) (A) (A) (A) (A) (A) (A) (A) (A)
                 (A) (A) (A) (A) (A) (A) (A) (A) (A) (A) (A) (A)
                 (A) (A) (A) (A) (A) (A) (A) (A) (A) (A) (A) (A)
                 (A) (A) (A) (A) (A) (A) (A) (A) (A) (A) (A) (A)
                 (A) (A) (A) (A) (A) (A) (A) (A) (A) (A) (A) (A)
                 (A) (A) (A) (A) (A) (A) (A) (A) (A) (A) (A) (A)
                 (A) (A) (A) (A) (A) (A) (A) (A) (A) (A) (A) (A)
                 (A) (A) (A) (A) (A) (A) (A) (A) (A) (A) (A) (A)
                 (A) (A) (A) (A) (A) (A) (A) (A) (A) (A) (A) (A)
                 (A) (A) (A) (A) (A) (A) (A) (A) (A) (A) (A) (A)
                 (A) (A) (A) (A) (A) (A) (A) (A) (A) (A) (A) (A)
                 (A) (A) (A) (A) (A) (A) (A) (A) (A) (A) (A) (A)
                 (A) (A) (A) (A) (A) (A) (A) (A) (A) (A) (A) (A)
                 (A) (A) (A) (A) (A) (A) (A) (A) (A) (A) (A) (A)
                 (A) (A) (A) (A) (A) (A) (A) (A) (A) (A) (A) (A)
                 (A) (A)
 The electronic state is 2-A.
 Alpha  occ. eigenvalues -- -178.25632 -19.98540 -19.42008 -19.41726 -19.40896
 Alpha  occ. eigenvalues --  -19.40409 -19.38572 -19.38170 -16.78294 -16.77837
 Alpha  occ. eigenvalues --  -16.77043  -2.76335  -1.94295  -1.93794  -1.92971
 Alpha  occ. eigenvalues --   -1.56650  -1.54822  -1.54509  -1.52999  -1.51371
 Alpha  occ. eigenvalues --   -1.51026  -1.13567  -1.12093  -1.10189  -1.09664
 Alpha  occ. eigenvalues --   -1.07828  -1.06639  -1.00568  -1.00468  -0.99891
 Alpha  occ. eigenvalues --   -0.96572  -0.95864  -0.93480  -0.92143  -0.89678
 Alpha  occ. eigenvalues --   -0.89365  -0.87684  -0.85896  -0.84836  -0.64889
 Alpha virt. eigenvalues --   -0.63044  -0.61440  -0.58111  -0.52578  -0.50627
 Alpha virt. eigenvalues --   -0.49501  -0.47812  -0.47415  -0.45003  -0.43895
 Alpha virt. eigenvalues --   -0.43259  -0.42842  -0.40255  -0.38804  -0.38455
 Alpha virt. eigenvalues --   -0.37008  -0.34381  -0.33685  -0.32522  -0.30975
 Alpha virt. eigenvalues --   -0.30201  -0.29923  -0.29319  -0.28986  -0.27180
 Alpha virt. eigenvalues --   -0.26899  -0.26544  -0.25741  -0.24375  -0.23657
 Alpha virt. eigenvalues --   -0.23406  -0.21684  -0.21341  -0.20734  -0.19398
 Alpha virt. eigenvalues --   -0.17905  -0.17363  -0.17304  -0.16947  -0.16497
 Alpha virt. eigenvalues --   -0.14674  -0.14196  -0.13680  -0.11811  -0.11180
 Alpha virt. eigenvalues --   -0.09719  -0.09660  -0.08474  -0.07278  -0.06258
 Alpha virt. eigenvalues --   -0.04969  -0.04524  -0.02550  -0.00985   0.00830
 Alpha virt. eigenvalues --    0.03577   0.05935   0.16553   0.17689   0.18493
 Alpha virt. eigenvalues --    0.20022   0.21742   0.22287   0.22899   0.23249
 Alpha virt. eigenvalues --    0.27860   0.28674   0.29822   0.30837   0.31431
 Alpha virt. eigenvalues --    0.33532   0.33826   0.34463   0.34784   0.36188
 Alpha virt. eigenvalues --    0.36687   0.40322   0.41810   0.42934   0.43486
 Alpha virt. eigenvalues --    0.44859   0.46263   0.47253   0.47750   0.48706
 Alpha virt. eigenvalues --    0.50263   0.51535   0.52525   0.53096   0.55457
 Alpha virt. eigenvalues --    0.56198   0.59070   0.59167   0.62585   0.64281
 Alpha virt. eigenvalues --    0.64984   0.67656   0.69024   0.71892   0.72870
 Alpha virt. eigenvalues --    0.73290   0.73535   0.75832   0.78003   0.79007
 Alpha virt. eigenvalues --    0.82403   0.82952   0.87270   0.88529   0.92117
 Alpha virt. eigenvalues --    0.93672   0.97733   1.01996   1.04078   1.06758
 Alpha virt. eigenvalues --    1.09370   1.14152   1.14791   1.19367   1.21298
 Alpha virt. eigenvalues --    1.25118   1.28142   1.29142   1.30994   1.32447
 Alpha virt. eigenvalues --    1.37990   1.41730   1.60057   1.61331   1.63857
 Alpha virt. eigenvalues --    1.64209   1.65303   1.68339   1.68644   1.69782
 Alpha virt. eigenvalues --    1.73691   1.76975   1.79617   1.81178   1.83143
 Alpha virt. eigenvalues --    1.85390   1.89107   1.90589   1.93170   1.97626
 Alpha virt. eigenvalues --    2.00033   2.04415   2.11503   2.13109   2.19190
 Alpha virt. eigenvalues --    2.21069   2.23532   2.25312   2.27289   2.28270
 Alpha virt. eigenvalues --    2.30053   2.31346   2.33173   2.35265   2.36745
 Alpha virt. eigenvalues --    2.37690   2.39123   2.41565   2.41747   2.43205
 Alpha virt. eigenvalues --    2.46589   2.52699   2.54581   2.56079   2.57933
 Alpha virt. eigenvalues --    2.58141   2.59599   2.62306   2.66800   2.68222
 Alpha virt. eigenvalues --    2.70239   2.75258   2.78677   2.81925   2.96207
 Alpha virt. eigenvalues --    2.97350   2.97975   3.00440   3.03519   3.40284
 Alpha virt. eigenvalues --    3.42273   3.45138   3.48017   3.49902   3.51630
 Alpha virt. eigenvalues --    3.54037   3.54681   3.56039   3.56955   3.57748
 Alpha virt. eigenvalues --    3.60975   3.64360   3.66476   3.68884   3.75316
 Alpha virt. eigenvalues --    3.76128   3.78724   3.81329   3.86735   3.87644
 Alpha virt. eigenvalues --    3.90107   3.92576   3.95457   3.97572   4.05964
 Alpha virt. eigenvalues --    4.06144   4.06921   4.10693   4.12446   4.20573
 Alpha virt. eigenvalues --    4.21734   4.24107   4.26095   4.28523   4.28877
 Alpha virt. eigenvalues --    4.30975   4.38647   4.51921   4.56987   4.59069
 Alpha virt. eigenvalues --    4.63591   4.64457   4.66098   4.74517   4.76286
 Alpha virt. eigenvalues --    4.79792   4.79914   4.80374   4.81111   4.86908
 Alpha virt. eigenvalues --    4.87758   4.89320   4.93374   4.94805   4.96866
 Alpha virt. eigenvalues --    4.98362   5.01038   5.05748   5.06733   5.10789
 Alpha virt. eigenvalues --    5.13127   5.13782   5.14864   5.16508   5.17872
 Alpha virt. eigenvalues --    5.19139   5.23748   5.24584   5.25808   5.27342
 Alpha virt. eigenvalues --    5.28168   5.30364   5.32015   5.33657   5.37441
 Alpha virt. eigenvalues --    5.42013   5.69731   5.71777   5.76491   6.77716
 Alpha virt. eigenvalues --    6.80297   6.81223   6.92539   6.98078   7.02243
 Alpha virt. eigenvalues --   12.98294  13.00534  13.01268  13.57631  13.61455
 Alpha virt. eigenvalues --   13.67277  28.25352
  Beta  occ. eigenvalues -- -178.25627 -19.97684 -19.42028 -19.41754 -19.40895
  Beta  occ. eigenvalues --  -19.40385 -19.38589 -19.38185 -16.77988 -16.77227
  Beta  occ. eigenvalues --  -16.75961  -2.73426  -1.93026  -1.91234  -1.88589
  Beta  occ. eigenvalues --   -1.56576  -1.54752  -1.54446  -1.52837  -1.51263
  Beta  occ. eigenvalues --   -1.50916  -1.13350  -1.11987  -1.10068  -1.09588
  Beta  occ. eigenvalues --   -1.07703  -1.06550  -1.00403  -1.00275  -0.99710
  Beta  occ. eigenvalues --   -0.96472  -0.95759  -0.93373  -0.92019  -0.89591
  Beta  occ. eigenvalues --   -0.89254  -0.87569  -0.85818  -0.84812
  Beta virt. eigenvalues --   -0.61584  -0.60129  -0.58762  -0.57916  -0.52509
  Beta virt. eigenvalues --   -0.50426  -0.49411  -0.47296  -0.47003  -0.44300
  Beta virt. eigenvalues --   -0.43396  -0.43054  -0.42537  -0.40042  -0.38713
  Beta virt. eigenvalues --   -0.38338  -0.36776  -0.34365  -0.33640  -0.32490
  Beta virt. eigenvalues --   -0.30927  -0.30175  -0.29899  -0.29225  -0.28924
  Beta virt. eigenvalues --   -0.27136  -0.26860  -0.26500  -0.25561  -0.24225
  Beta virt. eigenvalues --   -0.23554  -0.23353  -0.21661  -0.21237  -0.20454
  Beta virt. eigenvalues --   -0.19311  -0.17850  -0.17328  -0.17219  -0.16845
  Beta virt. eigenvalues --   -0.16416  -0.14522  -0.14090  -0.13574  -0.11756
  Beta virt. eigenvalues --   -0.10875  -0.09643  -0.09572  -0.08305  -0.07165
  Beta virt. eigenvalues --   -0.06187  -0.04894  -0.04292  -0.02053  -0.00686
  Beta virt. eigenvalues --    0.01038   0.03797   0.06173   0.17285   0.17950
  Beta virt. eigenvalues --    0.18974   0.20407   0.22159   0.22836   0.23280
  Beta virt. eigenvalues --    0.23610   0.27967   0.28811   0.29948   0.30987
  Beta virt. eigenvalues --    0.31513   0.33705   0.34008   0.34581   0.34951
  Beta virt. eigenvalues --    0.36354   0.36931   0.40476   0.41922   0.43191
  Beta virt. eigenvalues --    0.43596   0.44970   0.46404   0.47376   0.47955
  Beta virt. eigenvalues --    0.48803   0.50348   0.51666   0.52683   0.53217
  Beta virt. eigenvalues --    0.55620   0.56354   0.59190   0.59295   0.62814
  Beta virt. eigenvalues --    0.64352   0.65235   0.67766   0.69615   0.72106
  Beta virt. eigenvalues --    0.73008   0.73341   0.73689   0.76463   0.78204
  Beta virt. eigenvalues --    0.79096   0.82692   0.83141   0.87796   0.88962
  Beta virt. eigenvalues --    0.92697   0.93946   0.97992   1.04329   1.04862
  Beta virt. eigenvalues --    1.07305   1.10768   1.15295   1.16089   1.19909
  Beta virt. eigenvalues --    1.21690   1.25419   1.28328   1.29792   1.31388
  Beta virt. eigenvalues --    1.33511   1.38467   1.42089   1.60381   1.61622
  Beta virt. eigenvalues --    1.64218   1.64602   1.65605   1.68635   1.68892
  Beta virt. eigenvalues --    1.69998   1.73979   1.77218   1.79899   1.81685
  Beta virt. eigenvalues --    1.83460   1.85863   1.89533   1.91053   1.93650
  Beta virt. eigenvalues --    1.98318   2.00815   2.05612   2.12075   2.13538
  Beta virt. eigenvalues --    2.19545   2.21450   2.24043   2.25982   2.27715
  Beta virt. eigenvalues --    2.28801   2.30530   2.31631   2.33514   2.36000
  Beta virt. eigenvalues --    2.37082   2.38464   2.39547   2.41908   2.42073
  Beta virt. eigenvalues --    2.43779   2.47103   2.53040   2.54845   2.56385
  Beta virt. eigenvalues --    2.58328   2.58768   2.60311   2.63239   2.67427
  Beta virt. eigenvalues --    2.68771   2.71760   2.75956   2.79425   2.82807
  Beta virt. eigenvalues --    2.97670   2.98109   2.99126   3.01538   3.04793
  Beta virt. eigenvalues --    3.40426   3.42448   3.45207   3.48368   3.50098
  Beta virt. eigenvalues --    3.51872   3.54190   3.55021   3.56187   3.57109
  Beta virt. eigenvalues --    3.57802   3.61200   3.64508   3.66576   3.68908
  Beta virt. eigenvalues --    3.75537   3.76317   3.78819   3.81562   3.87456
  Beta virt. eigenvalues --    3.88037   3.90923   3.94814   3.96634   3.98266
  Beta virt. eigenvalues --    4.06451   4.07123   4.08025   4.11903   4.12585
  Beta virt. eigenvalues --    4.20861   4.22185   4.24775   4.26753   4.28832
  Beta virt. eigenvalues --    4.29347   4.31413   4.40200   4.51967   4.57236
  Beta virt. eigenvalues --    4.59252   4.63824   4.64588   4.66339   4.74556
  Beta virt. eigenvalues --    4.76324   4.79894   4.80011   4.80423   4.81243
  Beta virt. eigenvalues --    4.87084   4.87904   4.89539   4.93626   4.95537
  Beta virt. eigenvalues --    4.97096   4.98601   5.01269   5.05919   5.06942
  Beta virt. eigenvalues --    5.11032   5.13262   5.13880   5.15009   5.16709
  Beta virt. eigenvalues --    5.18166   5.19445   5.23978   5.24717   5.26182
  Beta virt. eigenvalues --    5.27637   5.28351   5.30531   5.32424   5.33896
  Beta virt. eigenvalues --    5.37734   5.42432   5.69781   5.71844   5.76615
  Beta virt. eigenvalues --    6.77854   6.80456   6.81404   6.92631   6.98149
  Beta virt. eigenvalues --    7.02340  12.98405  13.00613  13.01330  13.57644
  Beta virt. eigenvalues --   13.61490  13.67291  28.26208
          Condensed to atoms (all electrons):
               1          2          3          4          5          6
     1  Ti  21.189100   0.036533  -0.010087   0.085698  -0.010134   0.031812
     2  O    0.036533   7.831064   0.304870  -0.020851  -0.000519  -0.020668
     3  H   -0.010087   0.304870   0.275358   0.002182  -0.000026  -0.001300
     4  O    0.085698  -0.020851   0.002182   7.921258   0.303544  -0.075975
     5  H   -0.010134  -0.000519  -0.000026   0.303544   0.294333  -0.000140
     6  O    0.031812  -0.020668  -0.001300  -0.075975  -0.000140   7.944365
     7  H   -0.027528   0.000029   0.000069  -0.004827   0.000098   0.315498
     8  O    0.001596   0.037255  -0.000748  -0.051550  -0.000135  -0.102430
     9  H   -0.011758  -0.001028  -0.000023   0.003304  -0.000011  -0.001770
    10  O    0.092675   0.028395   0.010247   0.022045  -0.001178  -0.043826
    11  H   -0.011295   0.002743  -0.000728  -0.001770   0.000007   0.000451
    12  O    0.061999   0.011166  -0.005173   0.037473   0.000584   0.034747
    13  H   -0.019137  -0.007657   0.000251   0.012124   0.000025  -0.000390
    14  H   -0.014979   0.002291  -0.000113  -0.002755   0.000015  -0.000699
    15  H   -0.010907   0.004986  -0.000060   0.298692  -0.021195  -0.005286
    16  H   -0.020843   0.318536  -0.016552  -0.008250   0.000050   0.003707
    17  H   -0.016215  -0.000516   0.000255  -0.001540  -0.000004   0.001827
    18  H   -0.017692   0.000868  -0.000033   0.017649  -0.001340   0.299970
    19  H   -0.019435  -0.002398   0.000014  -0.008604   0.000726   0.013325
               7          8          9         10         11         12
     1  Ti  -0.027528   0.001596  -0.011758   0.092675  -0.011295   0.061999
     2  O    0.000029   0.037255  -0.001028   0.028395   0.002743   0.011166
     3  H    0.000069  -0.000748  -0.000023   0.010247  -0.000728  -0.005173
     4  O   -0.004827  -0.051550   0.003304   0.022045  -0.001770   0.037473
     5  H    0.000098  -0.000135  -0.000011  -0.001178   0.000007   0.000584
     6  O    0.315498  -0.102430  -0.001770  -0.043826   0.000451   0.034747
     7  H    0.325489   0.006737  -0.000958  -0.004357  -0.000143  -0.002111
     8  O    0.006737   7.967273   0.303494  -0.047636  -0.004506  -0.025187
     9  H   -0.000958   0.303494   0.291727   0.007732   0.001189  -0.003056
    10  O   -0.004357  -0.047636   0.007732   7.904648   0.291701  -0.041710
    11  H   -0.000143  -0.004506   0.001189   0.291701   0.299007   0.006079
    12  O   -0.002111  -0.025187  -0.003056  -0.041710   0.006079   7.805787
    13  H    0.000019  -0.004442  -0.000005   0.004207  -0.000250   0.312298
    14  H   -0.000055   0.003414   0.001055  -0.011458   0.003904   0.308586
    15  H    0.000081   0.001519  -0.000031  -0.001791   0.000002   0.001340
    16  H   -0.000243  -0.000251   0.000009  -0.003179   0.000051   0.001075
    17  H    0.002044  -0.000199  -0.001523   0.305261  -0.022964   0.000236
    18  H   -0.023207  -0.003560   0.000158   0.001914  -0.000009  -0.001238
    19  H    0.008070   0.304660  -0.020365  -0.003563   0.000012   0.002052
              13         14         15         16         17         18
     1  Ti  -0.019137  -0.014979  -0.010907  -0.020843  -0.016215  -0.017692
     2  O   -0.007657   0.002291   0.004986   0.318536  -0.000516   0.000868
     3  H    0.000251  -0.000113  -0.000060  -0.016552   0.000255  -0.000033
     4  O    0.012124  -0.002755   0.298692  -0.008250  -0.001540   0.017649
     5  H    0.000025   0.000015  -0.021195   0.000050  -0.000004  -0.001340
     6  O   -0.000390  -0.000699  -0.005286   0.003707   0.001827   0.299970
     7  H    0.000019  -0.000055   0.000081  -0.000243   0.002044  -0.023207
     8  O   -0.004442   0.003414   0.001519  -0.000251  -0.000199  -0.003560
     9  H   -0.000005   0.001055  -0.000031   0.000009  -0.001523   0.000158
    10  O    0.004207  -0.011458  -0.001791  -0.003179   0.305261   0.001914
    11  H   -0.000250   0.003904   0.000002   0.000051  -0.022964  -0.000009
    12  O    0.312298   0.308586   0.001340   0.001075   0.000236  -0.001238
    13  H    0.275905  -0.018765  -0.000450  -0.000050  -0.000026  -0.000035
    14  H   -0.018765   0.316593   0.000021  -0.000020  -0.000102   0.000018
    15  H   -0.000450   0.000021   0.284988   0.001111   0.000006   0.000816
    16  H   -0.000050  -0.000020   0.001111   0.297805  -0.000032   0.000354
    17  H   -0.000026  -0.000102   0.000006  -0.000032   0.296992  -0.000163
    18  H   -0.000035   0.000018   0.000816   0.000354  -0.000163   0.298816
    19  H    0.000081  -0.000264  -0.000025  -0.000040   0.000393  -0.001573
              19
     1  Ti  -0.019435
     2  O   -0.002398
     3  H    0.000014
     4  O   -0.008604
     5  H    0.000726
     6  O    0.013325
     7  H    0.008070
     8  O    0.304660
     9  H   -0.020365
    10  O   -0.003563
    11  H    0.000012
    12  O    0.002052
    13  H    0.000081
    14  H   -0.000264
    15  H   -0.000025
    16  H   -0.000040
    17  H    0.000393
    18  H   -0.001573
    19  H    0.318685
          Atomic-Atomic Spin Densities.
               1          2          3          4          5          6
     1  Ti   1.213883  -0.023935  -0.001429  -0.038192  -0.001236  -0.020981
     2  O   -0.023935   0.006160  -0.002845   0.002961  -0.000403   0.002438
     3  H   -0.001429  -0.002845   0.007286  -0.000062   0.000005  -0.000168
     4  O   -0.038192   0.002961  -0.000062   0.033032   0.001546   0.002607
     5  H   -0.001236  -0.000403   0.000005   0.001546  -0.000144   0.000109
     6  O   -0.020981   0.002438  -0.000168   0.002607   0.000109  -0.014101
     7  H   -0.020160  -0.002643   0.000070  -0.002345   0.000166   0.009711
     8  O   -0.018169  -0.000501  -0.000044  -0.001876   0.000018   0.001732
     9  H   -0.007436   0.000335  -0.000015  -0.000502  -0.000043  -0.002013
    10  O   -0.024486  -0.008536   0.004484  -0.000055  -0.000002   0.003837
    11  H   -0.010484   0.000805  -0.000451  -0.000248  -0.000004  -0.001349
    12  O   -0.020239   0.003698  -0.000048   0.000352  -0.000131  -0.001244
    13  H   -0.006813  -0.000881   0.000161   0.005747   0.000078   0.000085
    14  H   -0.020459   0.000340  -0.000130  -0.002642  -0.000032  -0.000507
    15  H   -0.007066   0.003137  -0.000086   0.000870  -0.000616   0.000921
    16  H   -0.014473   0.011213  -0.002344   0.001365  -0.000031   0.001559
    17  H   -0.008293  -0.001144   0.000199  -0.000142   0.000005   0.002133
    18  H   -0.011220   0.004299  -0.000090   0.005792  -0.000421   0.003156
    19  H   -0.012858  -0.000852   0.000011  -0.000262   0.000401   0.005093
               7          8          9         10         11         12
     1  Ti  -0.020160  -0.018169  -0.007436  -0.024486  -0.010484  -0.020239
     2  O   -0.002643  -0.000501   0.000335  -0.008536   0.000805   0.003698
     3  H    0.000070  -0.000044  -0.000015   0.004484  -0.000451  -0.000048
     4  O   -0.002345  -0.001876  -0.000502  -0.000055  -0.000248   0.000352
     5  H    0.000166   0.000018  -0.000043  -0.000002  -0.000004  -0.000131
     6  O    0.009711   0.001732  -0.002013   0.003837  -0.001349  -0.001244
     7  H    0.025180   0.003619  -0.000768   0.002549  -0.000223  -0.000588
     8  O    0.003619  -0.007261   0.004985   0.002355   0.001660   0.005594
     9  H   -0.000768   0.004985   0.007698   0.000970   0.001206   0.002402
    10  O    0.002549   0.002355   0.000970   0.013940  -0.001663   0.000518
    11  H   -0.000223   0.001660   0.001206  -0.001663   0.016168   0.004255
    12  O   -0.000588   0.005594   0.002402   0.000518   0.004255  -0.011701
    13  H    0.000015  -0.001126  -0.000123   0.000197  -0.000218   0.002771
    14  H   -0.000042   0.003644   0.001125   0.000606   0.002113   0.010620
    15  H   -0.000147  -0.000475   0.000014  -0.000286   0.000007  -0.000355
    16  H   -0.000244  -0.000190   0.000008  -0.002387   0.000063  -0.000274
    17  H    0.001342  -0.000021  -0.000752   0.006463  -0.002934  -0.000990
    18  H   -0.006187  -0.002319   0.000100  -0.001241   0.000030   0.000100
    19  H    0.004574   0.002416  -0.003800   0.000012  -0.000219  -0.001343
              13         14         15         16         17         18
     1  Ti  -0.006813  -0.020459  -0.007066  -0.014473  -0.008293  -0.011220
     2  O   -0.000881   0.000340   0.003137   0.011213  -0.001144   0.004299
     3  H    0.000161  -0.000130  -0.000086  -0.002344   0.000199  -0.000090
     4  O    0.005747  -0.002642   0.000870   0.001365  -0.000142   0.005792
     5  H    0.000078  -0.000032  -0.000616  -0.000031   0.000005  -0.000421
     6  O    0.000085  -0.000507   0.000921   0.001559   0.002133   0.003156
     7  H    0.000015  -0.000042  -0.000147  -0.000244   0.001342  -0.006187
     8  O   -0.001126   0.003644  -0.000475  -0.000190  -0.000021  -0.002319
     9  H   -0.000123   0.001125   0.000014   0.000008  -0.000752   0.000100
    10  O    0.000197   0.000606  -0.000286  -0.002387   0.006463  -0.001241
    11  H   -0.000218   0.002113   0.000007   0.000063  -0.002934   0.000030
    12  O    0.002771   0.010620  -0.000355  -0.000274  -0.000990   0.000100
    13  H    0.011387  -0.004236  -0.000258  -0.000070   0.000019  -0.000025
    14  H   -0.004236   0.017764   0.000041   0.000026  -0.000176   0.000017
    15  H   -0.000258   0.000041   0.007024   0.000598  -0.000006   0.001183
    16  H   -0.000070   0.000026   0.000598   0.008563  -0.000078   0.000810
    17  H    0.000019  -0.000176  -0.000006  -0.000078   0.004410  -0.000146
    18  H   -0.000025   0.000017   0.001183   0.000810  -0.000146   0.017279
    19  H    0.000080  -0.000277  -0.000113  -0.000024   0.000423  -0.001227
              19
     1  Ti  -0.012858
     2  O   -0.000852
     3  H    0.000011
     4  O   -0.000262
     5  H    0.000401
     6  O    0.005093
     7  H    0.004574
     8  O    0.002416
     9  H   -0.003800
    10  O    0.000012
    11  H   -0.000219
    12  O   -0.001343
    13  H    0.000080
    14  H   -0.000277
    15  H   -0.000113
    16  H   -0.000024
    17  H    0.000423
    18  H   -0.001227
    19  H    0.019868
 Mulliken charges and spin densities:
               1          2
     1  Ti   0.690596   0.945957
     2  O   -0.525100  -0.006353
     3  H    0.441597   0.004504
     4  O   -0.527847   0.007947
     5  H    0.435301  -0.000735
     6  O   -0.393215  -0.006982
     7  H    0.405297   0.013880
     8  O   -0.385305  -0.005961
     9  H    0.431860   0.003390
    10  O   -0.510125  -0.002724
    11  H    0.436519   0.008514
    12  O   -0.504945  -0.006602
    13  H    0.446297   0.006792
    14  H    0.413314   0.007796
    15  H    0.446186   0.004385
    16  H    0.426763   0.004090
    17  H    0.436272   0.000312
    18  H    0.428286   0.009888
    19  H    0.408250   0.011903
 Sum of Mulliken charges =   3.00000   1.00000
 Mulliken charges and spin densities with hydrogens summed into heavy atoms:
               1          2
     1  Ti   0.690596   0.945957
     2  O    0.343260   0.002241
     4  O    0.353640   0.011596
     6  O    0.440368   0.016785
     8  O    0.454805   0.009333
    10  O    0.362666   0.006102
    12  O    0.354665   0.007986
 APT charges:
               1
     1  Ti   2.248959
     2  O   -0.632089
     3  H    0.395928
     4  O   -0.604045
     5  H    0.357041
     6  O   -0.494902
     7  H    0.293577
     8  O   -0.550856
     9  H    0.356745
    10  O   -0.590176
    11  H    0.348263
    12  O   -0.585321
    13  H    0.393302
    14  H    0.346322
    15  H    0.361436
    16  H    0.366204
    17  H    0.355453
    18  H    0.328828
    19  H    0.305331
 Sum of APT charges =   3.00000
 APT charges with hydrogens summed into heavy atoms:
               1
     1  Ti   2.248959
     2  O    0.130043
     4  O    0.114432
     6  O    0.127503
     8  O    0.111220
    10  O    0.113540
    12  O    0.154303
 Electronic spatial extent (au):  <R**2>=            840.7712
 Charge=              3.0000 electrons
 Dipole moment (field-independent basis, Debye):
    X=              2.1723    Y=              3.5435    Z=             -0.9836  Tot=              4.2712
 Quadrupole moment (field-independent basis, Debye-Ang):
   XX=            -13.0925   YY=            -16.3812   ZZ=            -27.0448
   XY=             -4.1499   XZ=             -1.3431   YZ=             -0.7953
 Traceless Quadrupole moment (field-independent basis, Debye-Ang):
   XX=              5.7470   YY=              2.4583   ZZ=             -8.2053
   XY=             -4.1499   XZ=             -1.3431   YZ=             -0.7953
 Octapole moment (field-independent basis, Debye-Ang**2):
  XXX=             17.7398  YYY=             16.7553  ZZZ=              4.7960  XYY=              3.7904
  XXY=              8.7017  XXZ=              3.2695  XZZ=             -8.0521  YZZ=             -3.3054
  YYZ=            -14.3535  XYZ=             -3.0162
 Hexadecapole moment (field-independent basis, Debye-Ang**3):
 XXXX=           -175.3922 YYYY=           -180.9122 ZZZZ=           -218.4999 XXXY=            -21.2439
 XXXZ=              2.9556 YYYX=             -9.7099 YYYZ=             11.2024 ZZZX=            -15.8620
 ZZZY=            -14.5068 XXYY=            -50.1015 XXZZ=            -56.3643 YYZZ=            -53.1773
 XXYZ=             -0.1946 YYXZ=              3.6400 ZZXY=              1.7943
 N-N= 7.010079690797D+02 E-N=-4.450317545324D+03  KE= 1.306202760048D+03
  Exact polarizability:      55.364      -0.147      54.252      -1.482      -0.217      50.043
 Approx polarizability:      88.500       0.096      87.304      -3.604      -0.170      78.797
                          Isotropic Fermi Contact Couplings
        Atom                 a.u.       MegaHertz       Gauss      10(-4) cm-1
     1  Ti(47)            -0.01932       4.87663       1.74010       1.62667
     2  O(17)             -0.00868       5.26309       1.87800       1.75558
     3  H(1)               0.00276      12.34227       4.40403       4.11694
     4  O(17)              0.00587      -3.55935      -1.27007      -1.18727
     5  H(1)              -0.00017      -0.74695      -0.26653      -0.24916
     6  O(17)             -0.01328       8.05316       2.87357       2.68625
     7  H(1)               0.00802      35.82726      12.78406      11.95069
     8  O(17)             -0.00731       4.42895       1.58036       1.47734
     9  H(1)               0.00221       9.87919       3.52514       3.29534
    10  O(17)             -0.00142       0.86031       0.30698       0.28697
    11  H(1)               0.00595      26.59955       9.49138       8.87265
    12  O(17)             -0.01126       6.82669       2.43593       2.27714
    13  H(1)               0.00452      20.21962       7.21486       6.74454
    14  H(1)               0.00571      25.53283       9.11075       8.51683
    15  H(1)               0.00338      15.10743       5.39071       5.03929
    16  H(1)               0.00329      14.70467       5.24699       4.90495
    17  H(1)               0.00066       2.96908       1.05944       0.99038
    18  H(1)               0.00563      25.15335       8.97534       8.39025
    19  H(1)               0.00634      28.33118      10.10927       9.45026
 --------------------------------------------------------
       Center         ----  Spin Dipole Couplings  ----
                      3XX-RR        3YY-RR        3ZZ-RR
 --------------------------------------------------------
     1   Atom        0.205448      0.100258     -0.305706
     2   Atom        0.005472      0.003208     -0.008681
     3   Atom       -0.003038      0.004213     -0.001175
     4   Atom       -0.019368     -0.042740      0.062109
     5   Atom        0.009936     -0.009448     -0.000488
     6   Atom        0.007207     -0.008619      0.001411
     7   Atom        0.001378     -0.001462      0.000084
     8   Atom       -0.006691      0.016979     -0.010288
     9   Atom       -0.010371      0.020319     -0.009947
    10   Atom       -0.014158     -0.018104      0.032262
    11   Atom        0.014892     -0.007666     -0.007225
    12   Atom       -0.009730      0.013590     -0.003860
    13   Atom       -0.004252     -0.007705      0.011957
    14   Atom        0.005586     -0.009719      0.004134
    15   Atom        0.003858      0.003218     -0.007077
    16   Atom       -0.009681      0.010934     -0.001254
    17   Atom       -0.005332      0.000522      0.004810
    18   Atom        0.016372     -0.010563     -0.005808
    19   Atom       -0.003094      0.010855     -0.007761
 --------------------------------------------------------
                        XY            XZ            YZ
 --------------------------------------------------------
     1   Atom       -0.674001     -0.503026     -0.001492
     2   Atom        0.015088     -0.007516      0.013889
     3   Atom        0.009043      0.007206      0.009231
     4   Atom       -0.008644     -0.009713      0.005929
     5   Atom        0.002611      0.011854      0.000515
     6   Atom        0.001984     -0.021767     -0.007969
     7   Atom        0.010000     -0.010512     -0.009145
     8   Atom        0.004183      0.001631      0.014950
     9   Atom       -0.002433     -0.000730      0.005917
    10   Atom       -0.011898      0.004250      0.009891
    11   Atom       -0.010997      0.008647     -0.004216
    12   Atom       -0.000874     -0.021806     -0.014615
    13   Atom        0.003927     -0.009194     -0.008710
    14   Atom       -0.004886     -0.017164      0.003546
    15   Atom       -0.014398      0.008459     -0.007248
    16   Atom       -0.002875     -0.001693      0.015772
    17   Atom       -0.005607      0.008791     -0.012366
[...]
    15  H   -0.000056  -0.000004   0.303452  -0.000056  -0.000000  -0.000026
    16  H    0.000004   0.000001  -0.000056   0.303407   0.000004  -0.000031
    17  H    0.000004  -0.000026  -0.000000   0.000004   0.303451  -0.000004
    18  H   -0.000000   0.000000  -0.000026  -0.000031  -0.000004   0.299159
    19  H   -0.000004   0.000003   0.000001  -0.000000  -0.000032   0.000004
              19
     1  Ti  -0.006624
     2  O   -0.000338
     3  H    0.000000
     4  O    0.001166
     5  H    0.000004
     6  O    0.000688
     7  H   -0.000026
     8  O    0.289569
     9  H   -0.015562
    10  O    0.001140
    11  H    0.000004
    12  O    0.000606
    13  H   -0.000004
    14  H    0.000003
    15  H    0.000001
    16  H   -0.000000
    17  H   -0.000032
    18  H    0.000004
    19  H    0.299105
          Atomic-Atomic Spin Densities.
               1          2          3          4          5          6
     1  Ti   1.086428  -0.005526  -0.001694  -0.005541  -0.001691  -0.005547
     2  O   -0.005526  -0.009087   0.000953   0.000945  -0.000122   0.000945
     3  H   -0.001694   0.000953   0.002764  -0.000170   0.000002  -0.000122
     4  O   -0.005541   0.000945  -0.000170  -0.009082   0.000947   0.000779
     5  H   -0.001691  -0.000122   0.000002   0.000947   0.002764   0.000081
     6  O   -0.005547   0.000945  -0.000122   0.000779   0.000081  -0.009081
     7  H   -0.002171  -0.000028  -0.000004  -0.000044  -0.000003   0.001740
     8  O   -0.005528  -0.000065  -0.000011   0.000776   0.000332   0.000783
     9  H   -0.002168  -0.000014  -0.000000   0.000036  -0.000016  -0.000044
    10  O   -0.005541   0.000776   0.000082  -0.000063  -0.000011   0.000956
    11  H   -0.001692   0.000332   0.000044  -0.000011   0.000000  -0.000171
    12  O   -0.005549   0.000783   0.000329   0.000956  -0.000171  -0.000063
    13  H   -0.002171   0.000036  -0.000016   0.000352  -0.000024  -0.000014
    14  H   -0.001683   0.000082   0.000044  -0.000122   0.000002  -0.000012
    15  H   -0.002167   0.000352  -0.000024   0.001732  -0.000816   0.000037
    16  H   -0.002168   0.001729  -0.000817  -0.000027  -0.000004   0.000354
    17  H   -0.002167  -0.000044  -0.000003  -0.000014  -0.000000  -0.000026
    18  H   -0.001683  -0.000169   0.000002   0.000330   0.000044   0.000939
    19  H   -0.001694  -0.000011   0.000000   0.000082   0.000044   0.000329
               7          8          9         10         11         12
     1  Ti  -0.002171  -0.005528  -0.002168  -0.005541  -0.001692  -0.005549
     2  O   -0.000028  -0.000065  -0.000014   0.000776   0.000332   0.000783
     3  H   -0.000004  -0.000011  -0.000000   0.000082   0.000044   0.000329
     4  O   -0.000044   0.000776   0.000036  -0.000063  -0.000011   0.000956
     5  H   -0.000003   0.000332  -0.000016  -0.000011   0.000000  -0.000171
     6  O    0.001740   0.000783  -0.000044   0.000956  -0.000171  -0.000063
     7  H    0.002682   0.000036   0.000002   0.000352  -0.000024  -0.000014
     8  O    0.000036  -0.009083   0.001729   0.000945  -0.000122   0.000945
     9  H    0.000002   0.001729   0.002689  -0.000027  -0.000004   0.000355
    10  O    0.000352   0.000945  -0.000027  -0.009084   0.000947   0.000779
    11  H   -0.000024  -0.000122  -0.000004   0.000947   0.002765   0.000081
    12  O   -0.000014   0.000945   0.000355   0.000779   0.000081  -0.009076
    13  H    0.000000  -0.000028   0.000038  -0.000044  -0.000003   0.001739
    14  H   -0.000000  -0.000169  -0.000024   0.000330   0.000044   0.000939
    15  H    0.000002  -0.000044   0.000002  -0.000014  -0.000000  -0.000026
    16  H    0.000038  -0.000014   0.000000   0.000036  -0.000016  -0.000044
    17  H    0.000038   0.000352   0.000038   0.001732  -0.000816   0.000037
    18  H   -0.000815   0.000082  -0.000003  -0.000122   0.000002  -0.000012
    19  H   -0.000016   0.000953  -0.000817  -0.000170   0.000002  -0.000122
              13         14         15         16         17         18
     1  Ti  -0.002171  -0.001683  -0.002167  -0.002168  -0.002167  -0.001683
     2  O    0.000036   0.000082   0.000352   0.001729  -0.000044  -0.000169
     3  H   -0.000016   0.000044  -0.000024  -0.000817  -0.000003   0.000002
     4  O    0.000352  -0.000122   0.001732  -0.000027  -0.000014   0.000330
     5  H   -0.000024   0.000002  -0.000816  -0.000004  -0.000000   0.000044
     6  O   -0.000014  -0.000012   0.000037   0.000354  -0.000026   0.000939
     7  H    0.000000  -0.000000   0.000002   0.000038   0.000038  -0.000815
     8  O   -0.000028  -0.000169  -0.000044  -0.000014   0.000352   0.000082
     9  H    0.000038  -0.000024   0.000002   0.000000   0.000038  -0.000003
    10  O   -0.000044   0.000330  -0.000014   0.000036   0.001732  -0.000122
    11  H   -0.000003   0.000044  -0.000000  -0.000016  -0.000816   0.000002
    12  O    0.001739   0.000939  -0.000026  -0.000044   0.000037  -0.000012
    13  H    0.002681  -0.000815   0.000038   0.000002   0.000002  -0.000000
    14  H   -0.000815   0.002762  -0.000004  -0.000003  -0.000016   0.000000
    15  H    0.000038  -0.000004   0.002683   0.000038   0.000000  -0.000016
    16  H    0.000002  -0.000003   0.000038   0.002689   0.000002  -0.000024
    17  H    0.000002  -0.000016   0.000000   0.000002   0.002683  -0.000004
    18  H   -0.000000   0.000000  -0.000016  -0.000024  -0.000004   0.002763
    19  H   -0.000004   0.000002  -0.000003  -0.000000  -0.000024   0.000044
              19
     1  Ti  -0.001694
     2  O   -0.000011
     3  H    0.000000
     4  O    0.000082
     5  H    0.000044
     6  O    0.000329
     7  H   -0.000016
     8  O    0.000953
     9  H   -0.000817
    10  O   -0.000170
    11  H    0.000002
    12  O   -0.000122
    13  H   -0.000004
    14  H    0.000002
    15  H   -0.000003
    16  H   -0.000000
    17  H   -0.000024
    18  H    0.000044
    19  H    0.002764
 Mulliken charges and spin densities:
               1          2
     1  Ti   1.576203   1.030047
     2  O   -0.617442  -0.008133
     3  H    0.430298   0.001358
     4  O   -0.617437  -0.008139
     5  H    0.430238   0.001358
     6  O   -0.617524  -0.008135
     7  H    0.424497   0.001768
     8  O   -0.617451  -0.008130
     9  H    0.424529   0.001771
    10  O   -0.617441  -0.008139
    11  H    0.430241   0.001358
    12  O   -0.617529  -0.008133
    13  H    0.424498   0.001768
    14  H    0.430237   0.001357
    15  H    0.424508   0.001769
    16  H    0.424530   0.001771
    17  H    0.424510   0.001769
    18  H    0.430238   0.001358
    19  H    0.430296   0.001358
 Sum of Mulliken charges =   3.00000   1.00000
 Mulliken charges and spin densities with hydrogens summed into heavy atoms:
               1          2
     1  Ti   1.576203   1.030047
     2  O    0.237386  -0.005003
     4  O    0.237309  -0.005012
     6  O    0.237212  -0.005010
     8  O    0.237374  -0.005002
    10  O    0.237310  -0.005012
    12  O    0.237206  -0.005008
 Electronic spatial extent (au):  <R**2>=           1114.9912
 Charge=              3.0000 electrons
 Dipole moment (field-independent basis, Debye):
    X=              0.0001    Y=              0.0001    Z=              0.0001  Tot=              0.0001
 Quadrupole moment (field-independent basis, Debye-Ang):
   XX=             -7.6849   YY=             -7.6908   ZZ=             -5.6336
   XY=             -0.0099   XZ=              0.0050   YZ=              0.0019
 Traceless Quadrupole moment (field-independent basis, Debye-Ang):
   XX=             -0.6818   YY=             -0.6877   ZZ=              1.3695
   XY=             -0.0099   XZ=              0.0050   YZ=              0.0019
 Octapole moment (field-independent basis, Debye-Ang**2):
  XXX=              0.0016  YYY=              0.0005  ZZZ=              0.0007  XYY=              0.0010
  XXY=             -0.0004  XXZ=             -0.0004  XZZ=             -0.0017  YZZ=              0.0006
  YYZ=              0.0002  XYZ=             -0.0011
 Hexadecapole moment (field-independent basis, Debye-Ang**3):
 XXXX=           -172.6297 YYYY=           -172.3321 ZZZZ=           -152.8900 XXXY=             -0.0563
 XXXZ=            -65.4503 YYYX=              0.0597 YYYZ=             -7.6428 ZZZX=             -0.0384
 ZZZY=             -0.0448 XXYY=            -57.2591 XXZZ=            -31.3218 YYZZ=            -31.5701
 XXYZ=              7.6918 YYXZ=             65.5363 ZZXY=             -0.0957
 N-N= 6.058936779292D+02 E-N=-4.260523226387D+03  KE= 1.302504280509D+03
                          Isotropic Fermi Contact Couplings
        Atom                 a.u.       MegaHertz       Gauss      10(-4) cm-1
     1  Ti(47)            -0.01211       3.05740       1.09095       1.01984
     2  O(17)             -0.00803       4.86590       1.73627       1.62309
     3  H(1)               0.00109       4.89030       1.74498       1.63123
     4  O(17)             -0.00804       4.87171       1.73835       1.62503
     5  H(1)               0.00109       4.88889       1.74448       1.63076
     6  O(17)             -0.00804       4.87597       1.73987       1.62645
     7  H(1)               0.00126       5.61880       2.00493       1.87423
     8  O(17)             -0.00803       4.86538       1.73609       1.62291
     9  H(1)               0.00126       5.62761       2.00807       1.87717
    10  O(17)             -0.00804       4.87179       1.73838       1.62506
    11  H(1)               0.00109       4.88929       1.74462       1.63089
    12  O(17)             -0.00804       4.87546       1.73969       1.62628
    13  H(1)               0.00126       5.61723       2.00437       1.87371
    14  H(1)               0.00109       4.88487       1.74304       1.62942
    15  H(1)               0.00126       5.62147       2.00588       1.87512
    16  H(1)               0.00126       5.62881       2.00850       1.87757
    17  H(1)               0.00126       5.62176       2.00599       1.87522
    18  H(1)               0.00109       4.88591       1.74341       1.62976
    19  H(1)               0.00109       4.88926       1.74461       1.63088
 --------------------------------------------------------
       Center         ----  Spin Dipole Couplings  ----
                      3XX-RR        3YY-RR        3ZZ-RR
 --------------------------------------------------------
     1   Atom       -0.568316     -0.568393      1.136709
     2   Atom       -0.006504      0.001045      0.005458
     3   Atom       -0.002119     -0.000431      0.002550
     4   Atom        0.010997     -0.016438      0.005441
     5   Atom        0.003365     -0.005938      0.002573
     6   Atom       -0.012612      0.007174      0.005438
     7   Atom        0.001997      0.002710     -0.004707
     8   Atom       -0.006499      0.001042      0.005457
     9   Atom       -0.004528      0.009222     -0.004694
    10   Atom        0.010998     -0.016439      0.005441
    11   Atom        0.003364     -0.005938      0.002573
    12   Atom       -0.012613      0.007176      0.005437
    13   Atom        0.001997      0.002710     -0.004707
    14   Atom       -0.005071      0.002538      0.002533
    15   Atom        0.009569     -0.004886     -0.004683
    16   Atom       -0.004527      0.009221     -0.004694
    17   Atom        0.009569     -0.004886     -0.004683
    18   Atom       -0.005071      0.002537      0.002534
    19   Atom       -0.002118     -0.000432      0.002550
 --------------------------------------------------------
                        XY            XZ            YZ
 --------------------------------------------------------
     1   Atom       -0.000514      0.001570      0.000740
     2   Atom       -0.013653     -0.005923     -0.003931
     3   Atom       -0.004890      0.006636     -0.007831
     4   Atom        0.003537     -0.000449      0.007098
     5   Atom        0.001695     -0.010103     -0.001817
     6   Atom        0.010117      0.006379     -0.003155
     7   Atom        0.008155      0.003951      0.004339
     8   Atom       -0.013652     -0.005928     -0.003931
     9   Atom       -0.004391      0.001791     -0.005610
    10   Atom        0.003536     -0.000450      0.007097
    11   Atom        0.001695     -0.010103     -0.001817
    12   Atom        0.010112      0.006381     -0.003160
    13   Atom        0.008155      0.003951      0.004339
    14   Atom        0.003198      0.003482      0.009652
    15   Atom       -0.003767     -0.005763      0.001261
    16   Atom       -0.004392      0.001791     -0.005610
    17   Atom       -0.003767     -0.005763      0.001261
    18   Atom        0.003198      0.003483      0.009652
    19   Atom       -0.004890      0.006636     -0.007830
 --------------------------------------------------------


 ---------------------------------------------------------------------------------
              Anisotropic Spin Dipole Couplings in Principal Axis System
 ---------------------------------------------------------------------------------

       Atom             a.u.   MegaHertz   Gauss  10(-4) cm-1        Axes

              Baa    -0.5689    17.138     6.115     5.717  0.6807  0.7326 -0.0009
     1 Ti(47) Bbb    -0.5678    17.107     6.104     5.706  0.7326 -0.6807 -0.0004
              Bcc     1.1367   -34.245   -12.220   -11.423  0.0009  0.0004  1.0000
 
              Baa    -0.0190     1.372     0.489     0.458  0.7667  0.5782  0.2791
     2 O(17)  Bbb     0.0075    -0.541    -0.193    -0.180 -0.1542 -0.2561  0.9543
              Bcc     0.0115    -0.831    -0.297    -0.277 -0.6232  0.7747  0.1072
 
              Baa    -0.0072    -3.821    -1.363    -1.275 -0.4613  0.5097  0.7262
     3 H(1)   Bbb    -0.0062    -3.328    -1.187    -1.110  0.7533  0.6575  0.0170
              Bcc     0.0134     7.149     2.551     2.385  0.4688 -0.5549  0.6873
 
              Baa    -0.0190     1.371     0.489     0.457 -0.1167  0.9530 -0.2795
     4 O(17)  Bbb     0.0075    -0.540    -0.193    -0.180 -0.1413  0.2626  0.9545
              Bcc     0.0115    -0.832    -0.297    -0.277  0.9831  0.1509  0.1040
 
              Baa    -0.0072    -3.821    -1.363    -1.275  0.6728  0.1453  0.7254
     5 H(1)   Bbb    -0.0062    -3.327    -1.187    -1.110 -0.1923  0.9812 -0.0182
              Bcc     0.0134     7.148     2.551     2.384  0.7144  0.1273 -0.6881
 
              Baa    -0.0189     1.370     0.489     0.457  0.8833 -0.3760 -0.2798
     6 O(17)  Bbb     0.0075    -0.540    -0.193    -0.180  0.2974 -0.0119  0.9547
              Bcc     0.0115    -0.830    -0.296    -0.277  0.3623  0.9265 -0.1013
 
              Baa    -0.0067    -3.589    -1.281    -1.197 -0.1124 -0.3333  0.9361
     7 H(1)   Bbb    -0.0058    -3.088    -1.102    -1.030  0.7492 -0.6472 -0.1405
              Bcc     0.0125     6.677     2.383     2.227  0.6527  0.6856  0.3225
 
              Baa    -0.0190     1.372     0.489     0.458  0.7666  0.5782  0.2792
     8 O(17)  Bbb     0.0075    -0.541    -0.193    -0.180 -0.1536 -0.2571  0.9541
              Bcc     0.0115    -0.831    -0.297    -0.277 -0.6235  0.7743  0.1083
 
              Baa    -0.0067    -3.590    -1.281    -1.198 -0.2322  0.2653  0.9358
     9 H(1)   Bbb    -0.0058    -3.089    -1.102    -1.030  0.9351  0.3257  0.1397
              Bcc     0.0125     6.679     2.383     2.228 -0.2678  0.9075 -0.3237
 
              Baa    -0.0190     1.371     0.489     0.457 -0.1167  0.9530 -0.2794
    10 O(17)  Bbb     0.0075    -0.540    -0.193    -0.180 -0.1412  0.2626  0.9545
              Bcc     0.0115    -0.832    -0.297    -0.277  0.9831  0.1508  0.1039
 
              Baa    -0.0072    -3.821    -1.363    -1.275  0.6728  0.1454  0.7254
    11 H(1)   Bbb    -0.0062    -3.327    -1.187    -1.110 -0.1924  0.9812 -0.0182
              Bcc     0.0134     7.148     2.551     2.384  0.7144  0.1273 -0.6881
 
              Baa    -0.0189     1.370     0.489     0.457  0.8833 -0.3759 -0.2800
    12 O(17)  Bbb     0.0075    -0.540    -0.193    -0.180  0.2979 -0.0108  0.9545
              Bcc     0.0115    -0.830    -0.296    -0.277  0.3618  0.9266 -0.1025
 
              Baa    -0.0067    -3.589    -1.281    -1.197 -0.1125 -0.3332  0.9361
    13 H(1)   Bbb    -0.0058    -3.088    -1.102    -1.030  0.7492 -0.6473 -0.1404
              Bcc     0.0125     6.677     2.383     2.227  0.6527  0.6856  0.3225
 
              Baa    -0.0072    -3.820    -1.363    -1.274 -0.2103 -0.6539  0.7267
    14 H(1)   Bbb    -0.0062    -3.327    -1.187    -1.110  0.9457 -0.3245 -0.0183
              Bcc     0.0134     7.147     2.550     2.384  0.2478  0.6834  0.6867
 
              Baa    -0.0067    -3.589    -1.281    -1.197  0.3468  0.0690  0.9354
    15 H(1)   Bbb    -0.0058    -3.088    -1.102    -1.030  0.1858  0.9725 -0.1406
              Bcc     0.0125     6.677     2.383     2.227  0.9194 -0.2225 -0.3244
 
              Baa    -0.0067    -3.590    -1.281    -1.198 -0.2323  0.2652  0.9358
    16 H(1)   Bbb    -0.0058    -3.089    -1.102    -1.030  0.9350  0.3258  0.1398
              Bcc     0.0125     6.679     2.383     2.228 -0.2678  0.9075 -0.3236
 
              Baa    -0.0067    -3.589    -1.281    -1.197  0.3468  0.0690  0.9354
    17 H(1)   Bbb    -0.0058    -3.088    -1.102    -1.030  0.1858  0.9725 -0.1406
              Bcc     0.0125     6.677     2.382     2.227  0.9194 -0.2225 -0.3244
 
              Baa    -0.0072    -3.820    -1.363    -1.274 -0.2102 -0.6540  0.7267
    18 H(1)   Bbb    -0.0062    -3.327    -1.187    -1.110  0.9457 -0.3245 -0.0184
              Bcc     0.0134     7.147     2.550     2.384  0.2479  0.6834  0.6867
 
              Baa    -0.0072    -3.821    -1.363    -1.275 -0.4612  0.5098  0.7262
    19 H(1)   Bbb    -0.0062    -3.328    -1.187    -1.110  0.7533  0.6574  0.0169
              Bcc     0.0134     7.149     2.551     2.385  0.4688 -0.5549  0.6873
 

 ---------------------------------------------------------------------------------

 No NMR shielding tensors so no spin-rotation constants.
 Leave Link  601 at Thu May 23 17:35:16 2024, MaxMem= 26843545600 cpu:              29.0 elap:               0.3
 (Enter /gpfs/fs1/soft/improv/software/custom-built/gaussian/g16/l9999.exe)
 Unable to Open any file for archive entry.
 1\1\GINC-I300\SP\UBLYP\Gen\H12O6Ti1(3+,2)\HHARB\23-May-2024\0\\#p BLYP
  empiricaldispersion=gd3 scf=(maxcycles=500,xqc,maxconventional=50) sc
 rf=(cpcm,solvent=water) geom=allcheck guess=read chkbasis\\Title\\3,2\
 Ti,-0.7848192802,0.7129614424,0.0318024216\O,-1.3432675394,2.721788061
 6,-0.26663858\H,-1.6612217501,3.141663612,-1.1002156512\O,1.2277010625
 ,1.3346489471,0.0455196809\H,2.0107485483,0.834678403,0.3758082512\O,-
 0.9578694187,1.0327291425,2.1065611661\H,-1.7976483959,1.1457594207,2.
 6113576969\O,-0.2263535453,-1.2958667253,0.3302338111\H,-0.2695953367,
 -2.0189740564,-0.3391422598\O,-2.7973379233,0.0912693788,0.0180638793\
 H,-3.5803860057,0.5912220409,-0.3122875992\O,-0.6117836565,0.393150915
 8,-2.0429591817\H,0.2279860755,0.2801984733,-2.5477825233\H,-1.3398826
 484,0.2874337601,-2.6994059819\H,1.5793620579,2.1813296126,-0.31819278
 97\H,-1.2999144919,3.4449279891,0.4027062719\H,-3.1489936305,-0.755423
 8132,0.3817613983\H,-0.2297785004,1.1383480191,2.7630373215\H,0.091536
 8088,-1.7157648539,1.163818078\\Version=ES64L-G16RevC.02\State=2-A\HF=
 -1307.6941895\S2=0.75204\S2-1=0.\S2A=0.750003\RMSD=8.397e-09\Dipole=0.
 0000124,0.0000036,-0.000045\Quadrupole=0.1854355,-0.3652984,0.1798629,
 -0.3059035,0.6973823,-0.312317\PG=C01 [X(H12O6Ti1)]\\@
 The archive entry for this job was punched.


 Children are likely to live up to what you believe of them.
 -- Lady Bird Johnson
 Job cpu time:       0 days  1 hours 23 minutes 58.5 seconds.
 Elapsed time:       0 days  0 hours  0 minutes 42.8 seconds.
 File lengths (MBytes):  RWF=    122 Int=      0 D2E=      0 Chk=     32 Scr=      1
 Normal termination of Gaussian 16 at Thu May 23 17:35:16 2024.
