37
catecholate_ox_low_spin.log	Energy: -1493117.2486292
C          1.76216        4.79541       -0.57799
C          0.99663        5.01108        0.57459
C          0.26540        3.94433        1.17750
C          0.30307        2.63922        0.61286
C          1.11799        2.40955       -0.61508
C          1.83167        3.50354       -1.17943
O          1.09073        1.14673       -1.07495
O         -0.33395        1.54783        1.07264
H          2.31965        5.63004       -1.02790
H          0.95646        6.01394        1.02447
H         -0.32851        4.12964        2.08175
H          2.44068        3.35029       -2.07961
Fe         0.00047        0.01375       -0.00215
C         -5.06837       -0.93349       -0.53888
C         -4.83695       -1.64969        0.64204
C         -3.53312       -1.70349        1.21861
C         -2.44060       -1.02899        0.60353
C         -2.68336       -0.25973       -0.66081
C         -4.00603       -0.23946       -1.19298
O         -1.61242        0.35384       -1.18331
O         -1.17550       -1.00681        1.05427
H         -6.07963       -0.90324       -0.97118
H         -5.66639       -2.17978        1.13308
H         -3.36691       -2.27195        2.14293
H         -4.20762        0.31748       -2.11748
C          3.27345       -3.91765       -0.62044
C          3.85188       -3.40591        0.54858
C          3.30913       -2.25020        1.18595
C          2.16501       -1.58895        0.65192
C          1.54763       -2.14198       -0.60029
C          2.12780       -3.29583       -1.19868
O          0.47111       -1.47897       -1.05467
O          1.57472       -0.49912        1.16298
H          3.70377       -4.80906       -1.10026
H          4.73492       -3.89760        0.98303
H          3.77879       -1.86163        2.09928
H          1.68469       -3.71026       -2.11373
