 Entering Gaussian System, Link 0=g16
 Input=catecholate_ox_low_spin.com
 Output=catecholate_ox_low_spin.log
 Initial command:
 /gpfs/fs1/soft/improv/software/custom-built/gaussian/g16/l1.exe "/scratch/Gau-3379144.inp" -scrdir="/scratch/"
 Default CPUs for threads: 0-127
 Default linda workers: i624.lcrc.anl.gov
 Default is to use 128 SMP processors on each worker.
 Entering Link 1 = /gpfs/fs1/soft/improv/software/custom-built/gaussian/g16/l1.exe PID=   3379145.
  
 Copyright (c) 1988-2021, Gaussian, Inc.  All Rights Reserved.
  
 This is part of the Gaussian(R) 16 program.  It is based on
 the Gaussian(R) 09 system (copyright 2009, Gaussian, Inc.),
 the Gaussian(R) 03 system (copyright 2003, Gaussian, Inc.),
 the Gaussian(R) 98 system (copyright 1998, Gaussian, Inc.),
 the Gaussian(R) 94 system (copyright 1995, Gaussian, Inc.),
 the Gaussian 92(TM) system (copyright 1992, Gaussian, Inc.),
 the Gaussian 90(TM) system (copyright 1990, Gaussian, Inc.),
 the Gaussian 88(TM) system (copyright 1988, Gaussian, Inc.),
 the Gaussian 86(TM) system (copyright 1986, Carnegie Mellon
 University), and the Gaussian 82(TM) system (copyright 1983,
 Carnegie Mellon University). Gaussian is a federally registered
 trademark of Gaussian, Inc.
  
 This software contains proprietary and confidential information,
 including trade secrets, belonging to Gaussian, Inc.
  
 This software is provided under written license and may be
 used, copied, transmitted, or stored only in accord with that
 written license.
  
 The following legend is applicable only to US Government
 contracts under FAR:
  
                    RESTRICTED RIGHTS LEGEND
  
 Use, reproduction and disclosure by the US Government is
 subject to restrictions as set forth in subparagraphs (a)
 and (c) of the Commercial Computer Software - Restricted
 Rights clause in FAR 52.227-19.
  
 Gaussian, Inc.
 340 Quinnipiac St., Bldg. 40, Wallingford CT 06492
  
  
 ---------------------------------------------------------------
 Warning -- This program may not be used in any manner that
 competes with the business of Gaussian, Inc. or will provide
 assistance to any competitor of Gaussian, Inc.  The licensee
 of this program is prohibited from giving any competitor of
 Gaussian, Inc. access to this program.  By using this program,
 the user acknowledges that Gaussian, Inc. is engaged in the
 business of creating and licensing software in the field of
 computational chemistry and represents and warrants to the
 licensee that it is not a competitor of Gaussian, Inc. and that
 it will not use this program in any manner prohibited above.
 ---------------------------------------------------------------
  

 Cite this work as:
 Gaussian 16, Revision C.02,
 M. J. Frisch, G. W. Trucks, H. B. Schlegel, G. E. Scuseria, 
 M. A. Robb, J. R. Cheeseman, G. Scalmani, V. Barone, 
 G. A. Petersson, H. Nakatsuji, X. Li, M. Caricato, A. V. Marenich, 
 J. Bloino, B. G. Janesko, R. Gomperts, B. Mennucci, H. P. Hratchian, 
 J. V. Ortiz, A. F. Izmaylov, J. L. Sonnenberg, D. Williams-Young, 
 F. Ding, F. Lipparini, F. Egidi, J. Goings, B. Peng, A. Petrone, 
 T. Henderson, D. Ranasinghe, V. G. Zakrzewski, J. Gao, N. Rega, 
 G. Zheng, W. Liang, M. Hada, M. Ehara, K. Toyota, R. Fukuda, 
 J. Hasegawa, M. Ishida, T. Nakajima, Y. Honda, O. Kitao, H. Nakai, 
 T. Vreven, K. Throssell, J. A. Montgomery, Jr., J. E. Peralta, 
 F. Ogliaro, M. J. Bearpark, J. J. Heyd, E. N. Brothers, K. N. Kudin, 
 V. N. Staroverov, T. A. Keith, R. Kobayashi, J. Normand, 
 K. Raghavachari, A. P. Rendell, J. C. Burant, S. S. Iyengar, 
 J. Tomasi, M. Cossi, J. M. Millam, M. Klene, C. Adamo, R. Cammi, 
 J. W. Ochterski, R. L. Martin, K. Morokuma, O. Farkas, 
 J. B. Foresman, and D. J. Fox, Gaussian, Inc., Wallingford CT, 2019.
 
 ******************************************
 Gaussian 16:  ES64L-G16RevC.02  7-Dec-2021
                26-Sep-2024 
 ******************************************
 %chk=catecholate_ox_low_spin.chk
 SetSPE:  set environment variable "OMP_PROC_BIND" = "true"
 SetSPE:  set environment variable "OMP_PLACES" = "{0},{1},{2},{3},{4},{5},{6},{7},{8},{9},{10},{11},{12},{13},{14},{15},{16},{17},{18},{19},{20},{21},{22},{23},{24},{25},{26},{27},{28},{29},{30},{31},{32},{33},{34},{35},{36},{37},{38},{39},{40},{41},{42},{43},{44},{45},{46},{47},{48},{49},{50},{51},{52},{53},{54},{55},{56},{57},{58},{59},{60},{61},{62},{63},{64},{65},{66},{67},{68},{69},{70},{71},{72},{73},{74},{75},{76},{77},{78},{79},{80},{81},{82},{83},{84},{85},{86},{87},{88},{89},{90},{91},{92},{93},{94},{95},{96},{97},{98},{99},{100},{101},{102},{103},{104},{105},{106},{107},{108},{109},{110},{111},{112},{113},{114},{115},{116},{117},{118},{119},{120},{121},{122},{123},{124},{125},{126},{127}"
 SetLPE:    new flags="-opt 'Tsnet.Node.lindarsharg: ssh'  -nodelist 'i624.lcrc.anl.gov' -env GAUSS_MDEF=13421772800 -env GAUSS_EXEDIR="/gpfs/fs1/soft/improv/software/custom-built/gaussian/g16/bsd:/gpfs/fs1/soft/improv/software/custom-built/gaussian/g16" -env "OMP_PROC_BIND=true" -env "OMP_PLACES={0},{1},{2},{3},{4},{5},{6},{7},{8},{9},{10},{11},{12},{13},{14},{15},{16},{17},{18},{19},{20},{21},{22},{23},{24},{25},{26},{27},{28},{29},{30},{31},{32},{33},{34},{35},{36},{37},{38},{39},{40},{41},{42},{43},{44},{45},{46},{47},{48},{49},{50},{51},{52},{53},{54},{55},{56},{57},{58},{59},{60},{61},{62},{63},{64},{65},{66},{67},{68},{69},{70},{71},{72},{73},{74},{75},{76},{77},{78},{79},{80},{81},{82},{83},{84},{85},{86},{87},{88},{89},{90},{91},{92},{93},{94},{95},{96},{97},{98},{99},{100},{101},{102},{103},{104},{105},{106},{107},{108},{109},{110},{111},{112},{113},{114},{115},{116},{117},{118},{119},{120},{121},{122},{123},{124},{125},{126},{127}" -env GAUSS_ADEF="0,1,2,3,4,5,6,7,8,9,10,11,12,13,14,15,16,17,18,19,20,21,22,23,24,25,26,27,28,29,30,31,32,33,34,35,36,37,38,39,40,41,42,43,44,45,46,47,48,49,50,51,52,53,54,55,56,57,58,59,60,61,62,63,64,65,66,67,68,69,70,71,72,73,74,75,76,77,78,79,80,81,82,83,84,85,86,87,88,89,90,91,92,93,94,95,96,97,98,99,100,101,102,103,104,105,106,107,108,109,110,111,112,113,114,115,116,117,118,119,120,121,122,123,124,125,126,127""
 Will use up to    1 processors via Linda.
 ----------------------------------------------------------------------
 #p B3LYP empiricaldispersion=gd3 opt=(cartesian,calcall,maxcycles=500)
  freq scf=(maxcycles=500,xqc,maxconventional=50)
 ----------------------------------------------------------------------
 1/6=500,10=4,18=10,26=3,38=1/1,3;
 2/12=2,17=6,18=5,29=2,40=1/2;
 3/11=2,25=1,30=1,71=2,74=-5,124=31,140=1/1,2,3;
 4//1;
 5/5=2,7=500,8=3,13=1,38=5,85=50/2,8;
 8/6=4,10=90,11=11/1;
 11/6=1,8=1,9=11,15=111,16=1/1,2,10;
 10/6=1/2;
 6/7=2,8=2,9=2,10=2,18=1,28=1/1;
 7/7=1,10=1,25=1/1,2,3,16;
 1/6=500,10=4,18=10,26=3/3(3);
 2/29=1/2;
 7/7=1,8=1,9=1,25=1,44=-1/16;
 99/12=1/99;
 2/29=1/2;
 3/11=2,25=1,30=1,71=2,74=-5,124=31,140=1/1,2,3;
 4/5=5,16=3,69=1/1;
 5/5=2,7=500,8=3,13=1,38=5,85=50/2,8;
 8/6=4,10=90,11=11/1;
 11/6=1,8=1,9=11,15=111,16=1/1,2,10;
 10/6=1/2;
 7/7=1,10=1,25=1/1,2,3,16;
 1/6=500,10=4,18=10,26=3/3(-8);
 2/29=1/2;
 6/7=2,8=2,9=2,10=2,18=1,19=2,28=1/1;
 7/7=1,8=1,9=1,25=1,44=-1/16;
 99/12=1/99;
 Leave Link    1 at Thu Sep 26 10:45:30 2024, MaxMem=           0 cpu:               7.2 elap:               0.1
 (Enter /gpfs/fs1/soft/improv/software/custom-built/gaussian/g16/l101.exe)
 ----------------------------
 catecholate ox low_spin spin
 ----------------------------
 Symbolic Z-matrix:
 Charge = -3 Multiplicity = 2
 C                    -2.2649   -0.82114   0.05667 
 C                    -2.82312   0.37431   0.45428 
 C                    -2.00012   1.4621    0.85333 
 C                    -0.62106   1.29752   0.74868 
 C                    -0.02826  -0.00076   0.31295 
 C                    -0.87916  -1.05167  -0.03425 
 O                     1.25655  -0.00198   0.32674 
 O                     0.27553   2.21108   1.0166 
 H                    -2.91714  -1.62375  -0.21742 
 H                    -3.91046   0.46528   0.46144 
 H                    -2.41181   2.37265   1.19775 
 H                    -0.5016   -1.99622  -0.33766 
 Fe                    1.96138   1.69829   0.51044 
 C                     3.43475   2.72259   5.20074 
 C                     3.53826   4.00661   4.65942 
 C                     3.29348   4.26507   3.29907 
 C                     2.9702    3.20067   2.45911 
 C                     2.85927   1.83749   3.02753 
 C                     3.11906   1.59871   4.37524 
 O                     2.53078   0.98033   2.11522 
 O                     2.71532   3.26026   1.16913 
 H                     3.60917   2.60585   6.24455 
 H                     3.80756   4.84682   5.29094 
 H                     3.34006   5.27458   2.9089 
 H                     3.09491   0.60787   4.7732 
 C                     3.96974   1.3869   -4.01767 
 C                     2.87307   2.21383  -4.3311 
 C                     1.90634   2.60087  -3.34364 
 C                     2.08336   2.19061  -2.04824 
 C                     3.32805   1.36351  -1.70283 
 C                     4.22855   0.95787  -2.70132 
 O                     3.39949   1.08294  -0.4656 
 O                     1.2839    2.47112  -1.03588 
 H                     4.64898   1.0608   -4.79565 
 H                     2.73625   2.54441  -5.3338 
 H                     1.07805   3.21669  -3.61368 
 H                     5.08351   0.31536  -2.47749 
 
 ITRead=  0  0  0  0  0  0  0  0  0  0  0  0  0  0  0  0  0  0  0  0
 ITRead=  0  0  0  0  0  0  0  0  0  0  0  0  0  0  0  0  0
 MicOpt= -1 -1 -1 -1 -1 -1 -1 -1 -1 -1 -1 -1 -1 -1 -1 -1 -1 -1 -1 -1
 MicOpt= -1 -1 -1 -1 -1 -1 -1 -1 -1 -1 -1 -1 -1 -1 -1 -1 -1
 NAtoms=     37 NQM=       37 NQMF=       0 NMMI=      0 NMMIF=      0
                NMic=       0 NMicF=      0.
                    Isotopes and Nuclear Properties:
 (Nuclear quadrupole moments (NQMom) in fm**2, nuclear magnetic moments (NMagM)
  in nuclear magnetons)

  Atom         1           2           3           4           5           6           7           8           9          10
 IAtWgt=          12          12          12          12          12          12          16          16           1           1
 AtmWgt=  12.0000000  12.0000000  12.0000000  12.0000000  12.0000000  12.0000000  15.9949146  15.9949146   1.0078250   1.0078250
 NucSpn=           0           0           0           0           0           0           0           0           1           1
 AtZEff=  -0.0000000  -0.0000000  -0.0000000  -0.0000000  -0.0000000  -0.0000000  -0.0000000  -0.0000000  -0.0000000  -0.0000000
 NQMom=    0.0000000   0.0000000   0.0000000   0.0000000   0.0000000   0.0000000   0.0000000   0.0000000   0.0000000   0.0000000
 NMagM=    0.0000000   0.0000000   0.0000000   0.0000000   0.0000000   0.0000000   0.0000000   0.0000000   2.7928460   2.7928460
 AtZNuc=   6.0000000   6.0000000   6.0000000   6.0000000   6.0000000   6.0000000   8.0000000   8.0000000   1.0000000   1.0000000

  Atom        11          12          13          14          15          16          17          18          19          20
 IAtWgt=           1           1          56          12          12          12          12          12          12          16
 AtmWgt=   1.0078250   1.0078250  55.9349393  12.0000000  12.0000000  12.0000000  12.0000000  12.0000000  12.0000000  15.9949146
 NucSpn=           1           1           0           0           0           0           0           0           0           0
 AtZEff=  -0.0000000  -0.0000000  -0.0000000  -0.0000000  -0.0000000  -0.0000000  -0.0000000  -0.0000000  -0.0000000  -0.0000000
 NQMom=    0.0000000   0.0000000   0.0000000   0.0000000   0.0000000   0.0000000   0.0000000   0.0000000   0.0000000   0.0000000
 NMagM=    2.7928460   2.7928460   0.0000000   0.0000000   0.0000000   0.0000000   0.0000000   0.0000000   0.0000000   0.0000000
 AtZNuc=   1.0000000   1.0000000  26.0000000   6.0000000   6.0000000   6.0000000   6.0000000   6.0000000   6.0000000   8.0000000

  Atom        21          22          23          24          25          26          27          28          29          30
 IAtWgt=          16           1           1           1           1          12          12          12          12          12
 AtmWgt=  15.9949146   1.0078250   1.0078250   1.0078250   1.0078250  12.0000000  12.0000000  12.0000000  12.0000000  12.0000000
 NucSpn=           0           1           1           1           1           0           0           0           0           0
 AtZEff=  -0.0000000  -0.0000000  -0.0000000  -0.0000000  -0.0000000  -0.0000000  -0.0000000  -0.0000000  -0.0000000  -0.0000000
 NQMom=    0.0000000   0.0000000   0.0000000   0.0000000   0.0000000   0.0000000   0.0000000   0.0000000   0.0000000   0.0000000
 NMagM=    0.0000000   2.7928460   2.7928460   2.7928460   2.7928460   0.0000000   0.0000000   0.0000000   0.0000000   0.0000000
 AtZNuc=   8.0000000   1.0000000   1.0000000   1.0000000   1.0000000   6.0000000   6.0000000   6.0000000   6.0000000   6.0000000

  Atom        31          32          33          34          35          36          37
 IAtWgt=          12          16          16           1           1           1           1
 AtmWgt=  12.0000000  15.9949146  15.9949146   1.0078250   1.0078250   1.0078250   1.0078250
 NucSpn=           0           0           0           1           1           1           1
 AtZEff=  -0.0000000  -0.0000000  -0.0000000  -0.0000000  -0.0000000  -0.0000000  -0.0000000
 NQMom=    0.0000000   0.0000000   0.0000000   0.0000000   0.0000000   0.0000000   0.0000000
 NMagM=    0.0000000   0.0000000   0.0000000   2.7928460   2.7928460   2.7928460   2.7928460
 AtZNuc=   6.0000000   8.0000000   8.0000000   1.0000000   1.0000000   1.0000000   1.0000000
 Leave Link  101 at Thu Sep 26 10:45:30 2024, MaxMem= 13421772800 cpu:               0.4 elap:               0.1
 (Enter /gpfs/fs1/soft/improv/software/custom-built/gaussian/g16/l103.exe)

 GradGradGradGradGradGradGradGradGradGradGradGradGradGradGradGradGradGrad
 Berny optimization.
 Initialization pass.
 No Z-matrix variables, so optimization will use Cartesian coordinates.
 Trust Radius=3.00D-01 FncErr=1.00D-07 GrdErr=1.00D-06 EigMax=2.50D+02 EigMin=1.00D-04
 Number of steps in this run=    222 maximum allowed number of steps=    222.
 GradGradGradGradGradGradGradGradGradGradGradGradGradGradGradGradGradGrad

 Leave Link  103 at Thu Sep 26 10:45:31 2024, MaxMem= 13421772800 cpu:               0.4 elap:               0.1
 (Enter /gpfs/fs1/soft/improv/software/custom-built/gaussian/g16/l202.exe)
 ---------------------------------------------------------------------------------------------------
                            Z-MATRIX (ANGSTROMS AND DEGREES)
   CD    Cent   Atom    N1       Length/X        N2       Alpha/Y        N3        Beta/Z          J
 ---------------------------------------------------------------------------------------------------
      1      1  C        0  -2.264897         -0.821135          0.056674
      2      2  C        0  -2.823116          0.374313          0.454279
      3      3  C        0  -2.000122          1.462103          0.853326
      4      4  C        0  -0.621064          1.297525          0.748680
      5      5  C        0  -0.028259         -0.000762          0.312952
      6      6  C        0  -0.879160         -1.051673         -0.034249
      7      7  O        0   1.256547         -0.001978          0.326743
      8      8  O        0   0.275531          2.211085          1.016599
      9      9  H        0  -2.917144         -1.623754         -0.217423
     10     10  H        0  -3.910460          0.465276          0.461436
     11     11  H        0  -2.411805          2.372655          1.197750
     12     12  H        0  -0.501602         -1.996221         -0.337664
     13     13  Fe       0   1.961380          1.698294          0.510436
     14     14  C        0   3.434752          2.722587          5.200742
     15     15  C        0   3.538256          4.006612          4.659416
     16     16  C        0   3.293475          4.265068          3.299074
     17     17  C        0   2.970198          3.200668          2.459113
     18     18  C        0   2.859269          1.837486          3.027526
     19     19  C        0   3.119060          1.598711          4.375238
     20     20  O        0   2.530784          0.980335          2.115219
     21     21  O        0   2.715319          3.260261          1.169129
     22     22  H        0   3.609166          2.605849          6.244550
     23     23  H        0   3.807559          4.846817          5.290944
     24     24  H        0   3.340062          5.274577          2.908895
     25     25  H        0   3.094911          0.607872          4.773205
     26     26  C        0   3.969742          1.386903         -4.017670
     27     27  C        0   2.873075          2.213830         -4.331097
     28     28  C        0   1.906337          2.600869         -3.343639
     29     29  C        0   2.083357          2.190612         -2.048240
     30     30  C        0   3.328049          1.363508         -1.702827
     31     31  C        0   4.228553          0.957865         -2.701321
     32     32  O        0   3.399491          1.082936         -0.465603
     33     33  O        0   1.283904          2.471119         -1.035879
     34     34  H        0   4.648983          1.060797         -4.795645
     35     35  H        0   2.736251          2.544413         -5.333798
     36     36  H        0   1.078048          3.216687         -3.613683
     37     37  H        0   5.083510          0.315359         -2.477491
 ---------------------------------------------------------------------------------------------------
                         Z-Matrix orientation:                         
 ---------------------------------------------------------------------
 Center     Atomic      Atomic             Coordinates (Angstroms)
 Number     Number       Type             X           Y           Z
 ---------------------------------------------------------------------
      1          6           0       -2.264897   -0.821135    0.056674
      2          6           0       -2.823116    0.374313    0.454279
      3          6           0       -2.000122    1.462103    0.853326
      4          6           0       -0.621064    1.297525    0.748680
      5          6           0       -0.028259   -0.000762    0.312952
      6          6           0       -0.879160   -1.051673   -0.034249
      7          8           0        1.256547   -0.001978    0.326743
      8          8           0        0.275531    2.211085    1.016599
      9          1           0       -2.917144   -1.623754   -0.217423
     10          1           0       -3.910460    0.465276    0.461436
     11          1           0       -2.411805    2.372655    1.197750
     12          1           0       -0.501602   -1.996221   -0.337664
     13         26           0        1.961380    1.698294    0.510436
     14          6           0        3.434752    2.722587    5.200742
     15          6           0        3.538256    4.006612    4.659416
     16          6           0        3.293475    4.265068    3.299074
     17          6           0        2.970198    3.200668    2.459113
     18          6           0        2.859269    1.837486    3.027526
     19          6           0        3.119060    1.598711    4.375238
     20          8           0        2.530784    0.980335    2.115219
     21          8           0        2.715319    3.260261    1.169129
     22          1           0        3.609166    2.605849    6.244550
     23          1           0        3.807559    4.846817    5.290944
     24          1           0        3.340062    5.274577    2.908895
     25          1           0        3.094911    0.607872    4.773205
     26          6           0        3.969742    1.386903   -4.017670
     27          6           0        2.873075    2.213830   -4.331097
     28          6           0        1.906337    2.600869   -3.343639
     29          6           0        2.083357    2.190612   -2.048240
     30          6           0        3.328049    1.363508   -1.702827
     31          6           0        4.228553    0.957865   -2.701321
     32          8           0        3.399491    1.082936   -0.465603
     33          8           0        1.283904    2.471119   -1.035879
     34          1           0        4.648983    1.060797   -4.795645
     35          1           0        2.736251    2.544413   -5.333798
     36          1           0        1.078048    3.216687   -3.613683
     37          1           0        5.083510    0.315359   -2.477491
 ---------------------------------------------------------------------
                    Distance matrix (angstroms):
                    1          2          3          4          5
     1  C    0.000000
     2  C    1.377968   0.000000
     3  C    2.432681   1.421213   0.000000
     4  C    2.769437   2.405832   1.392781   0.000000
     5  C    2.396089   2.823452   2.514005   1.492255   0.000000
     6  C    1.407722   2.459891   2.891958   2.489643   1.396064
     7  O    3.625537   4.098965   3.609254   2.322102   1.284880
     8  O    4.070576   3.645758   2.401297   1.307767   2.340870
     9  H    1.069931   2.110047   3.392632   3.839168   3.355750
    10  H    2.127572   1.091165   2.190121   3.405183   3.912892
    11  H    3.394691   2.171473   1.056983   2.136427   3.478112
    12  H    2.155351   3.411163   3.952724   3.470328   2.151561
    13  Fe   4.941138   4.964624   3.983323   2.624194   2.623824
    14  C    8.456086   8.197818   7.072955   6.188805   6.580240
    15  C    8.841321   8.446528   7.185714   6.319253   6.904406
    16  C    8.202324   7.787395   6.469967   5.534839   6.176418
    17  C    7.025157   6.750566   5.505020   4.409615   4.883227
    18  C    6.492404   6.407182   5.336829   4.194928   4.368740
    19  C    7.313866   7.223748   6.215187   5.218349   5.382016
    20  O    5.521002   5.638283   4.727958   3.449955   3.280155
    21  O    6.534363   6.286014   5.056529   3.893656   4.346783
    22  H    9.194490   8.937631   7.863687   7.057702   7.430285
    23  H    9.818248   9.346790   8.054682   7.269274   7.936808
    24  H    8.758336   8.247576   6.875892   6.014482   6.775965
    25  H    7.281158   7.330124   6.484946   5.520950   5.478912
    26  C    7.768297   8.195523   7.705293   6.618276   6.055073
    27  C    7.406909   7.663566   7.154816   6.233197   5.906720
    28  C    6.377416   6.461382   5.845659   4.983325   4.886901
    29  C    5.692855   5.799572   5.062077   3.991774   3.851788
    30  C    6.256960   6.593060   5.910418   4.648626   4.146010
    31  C    7.275731   7.747540   7.189309   5.961263   5.303325
    32  O    5.998628   6.330021   5.571280   4.205400   3.678317
    33  O    4.962520   4.846110   3.920719   2.861971   3.106656
    34  H    8.653808   9.157796   8.733987   7.653036   7.007229
    35  H    8.086754   8.313708   7.866711   7.058529   6.782788
    36  H    6.399282   6.312407   5.701567   5.059681   5.195609
    37  H    7.855743   8.432882   7.911208   6.626839   5.832383
                    6          7          8          9         10
     6  C    0.000000
     7  O    2.406952   0.000000
     8  O    3.617068   2.517129   0.000000
     9  H    2.124667   4.510650   5.140231   0.000000
    10  H    3.425729   5.189839   4.569307   2.410721   0.000000
    11  H    3.948778   4.455821   2.698277   4.269586   2.534998
    12  H    1.061499   2.740352   4.487693   2.447046   4.279935
    13  Fe   3.990948   1.849718   1.833370   5.946913   6.000103
    14  C    7.762732   5.993638   5.267766   9.412426   9.028211
    15  C    8.193308   6.328273   5.209550   9.856813   9.254591
    16  C    7.535892   5.584936   4.305407   9.252879   8.624806
    17  C    6.254344   4.211952   3.212686   8.068438   7.669194
    18  C    5.630059   3.639585   3.295316   7.475081   7.368650
    19  C    6.515664   4.735131   4.443097   8.240908   8.125064
    20  O    4.514088   2.405673   2.794258   6.473208   6.670076
    21  O    5.741182   3.671489   2.660188   7.582926   7.225905
    22  H    8.540835   6.881571   6.212925  10.111348   9.724774
    23  H    9.225790   7.393360   6.139408  10.836606  10.103953
    24  H    8.153856   6.233023   4.728332   9.824127   9.038224
    25  H    6.454374   4.850002   4.962991   8.125966   8.227205
    26  C    6.732469   5.307009   6.298439   8.422299   9.110948
    27  C    6.573102   5.405409   5.945174   8.073165   8.487765
    28  C    5.661458   4.546289   4.671524   7.133487   7.271484
    29  C    4.831675   3.336407   3.558356   6.550289   6.723176
    30  C    5.130093   3.205437   4.175108   7.080437   7.608341
    31  C    6.102478   4.350091   5.569548   7.993465   8.745810
    32  O    4.800986   2.529241   3.637137   6.876600   7.394341
    33  O    4.253490   2.823773   2.301543   5.923400   5.766002
    34  H    7.595642   6.235140   7.364267   9.241926  10.062584
    35  H    7.354471   6.380859   6.818636   8.689752   9.060150
    36  H    5.904397   5.091034   4.805703   7.136246   7.004431
    37  H    6.587233   4.755006   6.238518   8.536892   9.463153
                   11         12         13         14         15
    11  H    0.000000
    12  H    5.009336   0.000000
    13  Fe   4.477937   4.520508   0.000000
    14  C    7.094267   8.272603   5.021849   0.000000
    15  C    7.075039   8.793478   5.002890   1.397307   0.000000
    16  C    6.367654   8.175097   4.017376   2.452661   1.406146
    17  C    5.589509   6.847117   2.659358   2.821506   2.411134
    18  C    5.605240   6.108786   2.676065   2.416081   2.798069
    19  C    6.425410   6.945802   4.035695   1.429761   2.460583
    20  O    5.216272   4.906310   1.847976   3.656918   4.079987
    21  O    5.203467   6.344257   1.855274   4.130445   3.662836
    22  H    7.859814   9.022361   6.034809   1.064699   2.116558
    23  H    7.845777   9.852779   6.014552   2.158582   1.085033
    24  H    6.665820   8.840986   4.521413   3.431353   2.170562
    25  H    6.798695   6.770316   4.543689   2.184102   3.429423
    26  C    8.300389   6.706779   4.963287   9.330026   9.074187
    27  C    7.650054   6.712710   4.953524   9.561918   9.191619
    28  C    6.270777   5.997274   3.958732   8.680858   8.287831
    29  C    5.547619   5.209382   2.608463   7.393038   7.099805
    30  C    6.509811   5.274246   2.622669   7.036884   6.892627
    31  C    7.829351   6.057051   4.000461   8.135537   7.996987
    32  O    6.180718   4.971529   1.843767   5.898911   5.901944
    33  O    4.319382   4.861344   1.856696   6.601880   6.314762
    34  H    9.353955   7.466423   5.981981  10.206060   9.965426
    35  H    8.318239   7.487484   5.955788  10.559175  10.131414
    36  H    6.003444   6.356257   4.482649   9.137410   8.667223
    37  H    8.597651   6.412155   4.537390   8.213916   8.182212
                   16         17         18         19         20
    16  C    0.000000
    17  C    1.393912   0.000000
    18  C    2.481012   1.481102   0.000000
    19  C    2.880626   2.501991   1.393137   0.000000
    20  O    3.573889   2.289372   1.294186   2.415811   0.000000
    21  O    2.424988   1.316273   2.344919   3.633578   2.475318
    22  H    3.395364   3.884794   3.391455   2.179188   4.566901
    23  H    2.137817   3.380865   3.883090   3.444233   5.163823
    24  H    1.083291   2.154113   3.472582   3.963710   4.441325
    25  H    3.948110   3.477523   2.148225   1.068046   2.742600
    26  C    7.891509   6.799820   7.146395   8.438567   6.312545
    27  C    7.912258   6.862233   7.368254   8.731503   6.572188
    28  C    6.987084   5.929881   6.487108   7.877568   5.728454
    29  C    5.861870   4.703503   5.146858   6.533307   4.358825
    30  C    5.782668   4.563437   4.777096   6.086203   3.919174
    31  C    6.914962   5.765735   5.955532   7.191616   5.107052
    32  O    4.930516   3.636350   3.614296   4.876310   2.725035
    33  O    5.103767   3.948518   4.403921   5.780058   3.702238
    34  H    8.810745   7.747831   8.062774   9.313168   7.228643
    35  H    8.820297   7.823993   8.392057   9.762493   7.614224
    36  H    7.334400   6.360766   7.012888   8.402763   6.319179
    37  H    7.223097   6.095995   6.129383   7.243338   5.296375
                   21         22         23         24         25
    21  O    0.000000
    22  H    5.194912   0.000000
    23  H    4.549671   2.443494   0.000000
    24  H    2.733964   4.280318   2.464892   0.000000
    25  H    4.490948   2.534014   4.329501   5.031291   0.000000
    26  C    5.655611  10.340648   9.932150   7.967924   8.868579
    27  C    5.601107  10.608479  10.019459   7.874245   9.247520
    28  C    4.631881   9.738224   9.122223   6.949709   8.442031
    29  C    3.448912   8.442209   7.993243   5.971879   7.075339
    30  C    3.495889   8.048803   7.827912   6.046865   6.524134
    31  C    4.750925   9.117461   8.898173   7.134279   7.568102
    32  O    2.807344   6.883994   6.889931   5.381507   5.269113
    33  O    2.744768   7.643928   7.213977   5.258175   6.363716
    34  H    6.644940  11.196174  10.806536   8.878578   9.704801
    35  H    6.542243  11.611370  10.924006   8.704043  10.297103
    36  H    5.055477  10.196295   9.455154   7.203863   9.011855
    37  H    5.251535   9.137507   9.083543   7.526394   7.524140
                   26         27         28         29         30
    26  C    0.000000
    27  C    1.408803   0.000000
    28  C    2.487102   1.435080   0.000000
    29  C    2.843071   2.415704   1.370293   0.000000
    30  C    2.402252   2.799617   2.498917   1.533841   0.000000
    31  C    1.408485   2.463927   2.916285   2.558914   1.404438
    32  O    3.610369   4.061783   3.580045   2.337498   1.270649
    33  O    4.156962   3.667441   2.393745   1.320108   2.418708
    34  H    1.083032   2.167750   3.464426   3.925194   3.376689
    35  H    2.143251   1.064620   2.157007   3.368432   3.863769
    36  H    3.445753   2.177735   1.066874   2.124638   3.485419
    37  H    2.181933   3.453414   4.008515   3.563951   2.186405
                   31         32         33         34         35
    31  C    0.000000
    32  O    2.387766   0.000000
    33  O    3.706021   2.593834   0.000000
    34  H    2.138586   4.506771   5.239142   0.000000
    35  H    3.416728   5.125927   4.537267   2.479772   0.000000
    36  H    3.982507   4.455603   2.691342   4.335490   2.482013
    37  H    1.092642   2.733641   4.600277   2.473525   4.317035
                   36         37
    36  H    0.000000
    37  H    5.074679   0.000000
 Stoichiometry    C18H12FeO6(3-,2)
 Framework group  C1[X(C18H12FeO6)]
 Deg. of freedom   105
 Full point group                 C1      NOp   1
 Largest Abelian subgroup         C1      NOp   1
 Largest concise Abelian subgroup C1      NOp   1
                         Standard orientation:                         
 ---------------------------------------------------------------------
 Center     Atomic      Atomic             Coordinates (Angstroms)
 Number     Number       Type             X           Y           Z
 ---------------------------------------------------------------------
      1          6           0        1.777109    4.331225   -0.527164
      2          6           0        1.214170    4.508196    0.718058
      3          6           0        0.401490    3.496306    1.297260
      4          6           0        0.266891    2.300033    0.596794
      5          6           0        0.884647    2.118681   -0.749428
      6          6           0        1.644573    3.156673   -1.291720
      7          8           0        0.615937    0.980615   -1.281893
      8          8           0       -0.392834    1.248647    1.008627
      9          1           0        2.366428    5.123583   -0.939018
     10          1           0        1.401372    5.444205    1.246719
     11          1           0       -0.069388    3.630799    2.233956
     12          1           0        2.091830    3.076332   -2.251036
     13         26           0       -0.121370   -0.207809   -0.071321
     14          6           0       -5.115445   -0.567066   -0.457489
     15          6           0       -4.942227   -1.274738    0.734846
     16          6           0       -3.668283   -1.533279    1.271007
     17          6           0       -2.543029   -1.098271    0.572752
     18          6           0       -2.720760   -0.347814   -0.691720
     19          6           0       -3.990616   -0.113275   -1.214490
     20          8           0       -1.577425   -0.003314   -1.190740
     21          8           0       -1.284316   -1.256281    0.923819
     22          1           0       -6.110573   -0.386193   -0.790039
     23          1           0       -5.803412   -1.639543    1.284913
     24          1           0       -3.558738   -2.048754    2.217477
     25          1           0       -4.116655    0.377706   -2.154583
     26          6           0        3.848111   -3.155884   -0.502938
     27          6           0        4.158047   -2.567353    0.738955
     28          6           0        3.318388   -1.569440    1.337786
     29          6           0        2.157247   -1.214164    0.702779
     30          6           0        1.787550   -1.925242   -0.605028
     31          6           0        2.655489   -2.860658   -1.191649
     32          8           0        0.670336   -1.539255   -1.071286
     33          8           0        1.287149   -0.319547    1.133216
     34          1           0        4.531323   -3.861181   -0.959813
     35          1           0        5.053547   -2.847230    1.242107
     36          1           0        3.586232   -1.131162    2.272875
     37          1           0        2.432775   -3.326029   -2.154817
 ---------------------------------------------------------------------
 Rotational constants (GHZ):           0.2705197           0.1989383           0.1348107
 Leave Link  202 at Thu Sep 26 10:45:31 2024, MaxMem= 13421772800 cpu:               0.5 elap:               0.1
 (Enter /gpfs/fs1/soft/improv/software/custom-built/gaussian/g16/l301.exe)
 Standard basis: STO-3G (5D, 7F)
 Ernie: Thresh=  0.10000D-02 Tol=  0.10000D-05 Strict=F.
 There are   151 symmetry adapted cartesian basis functions of A   symmetry.
 There are   150 symmetry adapted basis functions of A   symmetry.
   150 basis functions,   453 primitive gaussians,   151 cartesian basis functions
    99 alpha electrons       98 beta electrons
       nuclear repulsion energy      2745.6823977925 Hartrees.
 IExCor=  402 DFT=T Ex+Corr=B3LYP ExCW=0 ScaHFX=  0.200000
 ScaDFX=  0.800000  0.720000  1.000000  0.810000 ScalE2=  1.000000  1.000000
 IRadAn=      5 IRanWt=     -1 IRanGd=            0 ICorTp=0 IEmpDi=131
 NAtoms=   37 NActive=   37 NUniq=   37 SFac= 1.00D+00 NAtFMM=   60 NAOKFM=F Big=F
 Integral buffers will be    131072 words long.
 Raffenetti 2 integral format.
 Two-electron integral symmetry is turned on.
 R6Disp:  Grimme-D3 Dispersion energy=       -0.0350403915 Hartrees.
 Nuclear repulsion after empirical dispersion term =     2745.6473574010 Hartrees.
 Leave Link  301 at Thu Sep 26 10:45:31 2024, MaxMem= 13421772800 cpu:               0.4 elap:               0.1
 (Enter /gpfs/fs1/soft/improv/software/custom-built/gaussian/g16/l302.exe)
 NPDir=0 NMtPBC=     1 NCelOv=     1 NCel=       1 NClECP=     1 NCelD=      1
         NCelK=      1 NCelE2=     1 NClLst=     1 CellRange=     0.0.
 One-electron integrals computed using PRISM.
 One-electron integral symmetry used in STVInt
 NBasis=   150 RedAO= T EigKep=  1.78D-01  NBF=   150
 NBsUse=   150 1.00D-06 EigRej= -1.00D+00 NBFU=   150
 Precomputing XC quadrature grid using
 IXCGrd= 4 IRadAn=           5 IRanWt=          -1 IRanGd=           0 AccXCQ= 0.00D+00.
 Generated NRdTot=       0 NPtTot=           0 NUsed=           0 NTot=          32
 NSgBfM=   146   146   146   146   146 MxSgAt=    37 MxSgA2=    37.
 Leave Link  302 at Thu Sep 26 10:45:32 2024, MaxMem= 13421772800 cpu:              12.8 elap:               0.2
 (Enter /gpfs/fs1/soft/improv/software/custom-built/gaussian/g16/l303.exe)
 DipDrv:  MaxL=1.
 Leave Link  303 at Thu Sep 26 10:45:32 2024, MaxMem= 13421772800 cpu:               0.6 elap:               0.0
 (Enter /gpfs/fs1/soft/improv/software/custom-built/gaussian/g16/l401.exe)
 ExpMin= 9.65D-02 ExpMax= 1.45D+03 ExpMxC= 1.45D+03 IAcc=3 IRadAn=         5 AccDes= 0.00D+00
 Harris functional with IExCor=  402 and IRadAn=       5 diagonalized for initial guess.
 HarFok:  IExCor=  402 AccDes= 0.00D+00 IRadAn=         5 IDoV= 1 UseB2=F ITyADJ=14
 ICtDFT=  3500011 ScaDFX=  1.000000  1.000000  1.000000  1.000000
 FoFCou: FMM=F IPFlag=           0 FMFlag=      100000 FMFlg1=           0
         NFxFlg=           0 DoJE=T BraDBF=F KetDBF=T FulRan=T
         wScrn=  0.000000 ICntrl=       500 IOpCl=  0 I1Cent=   200000004 NGrid=           0
         NMat0=    1 NMatS0=      1 NMatT0=    0 NMatD0=    1 NMtDS0=    0 NMtDT0=    0
 Petite list used in FoFCou.
 Harris En= -2380.94351248210    
 JPrj=0 DoOrth=F DoCkMO=F.
 Initial guess <Sx>= 0.0000 <Sy>= 0.0000 <Sz>= 0.5000 <S**2>= 0.7500 S= 0.5000
 Leave Link  401 at Thu Sep 26 10:45:33 2024, MaxMem= 13421772800 cpu:              18.3 elap:               0.3
 (Enter /gpfs/fs1/soft/improv/software/custom-built/gaussian/g16/l502.exe)
 Integral symmetry usage will be decided dynamically.
 UHF open shell SCF:
 Using DIIS extrapolation, IDIIS=  1040.
 NGot= 13421772800 LenX= 13421704437 LenY= 13421681195
 Requested convergence on RMS density matrix=1.00D-08 within  50 cycles.
 Requested convergence on MAX density matrix=1.00D-06.
 Requested convergence on             energy=1.00D-06.
 No special actions if energy rises.
 Fock matrices will be formed incrementally for  20 cycles.
 Integral accuracy reduced to 1.0D-05 until final iterations.

 Cycle   1  Pass 0  IDiag  1:
 FoFJK:  IHMeth= 1 ICntrl=       0 DoSepK=F KAlg= 0 I1Cent=           0 FoldK=F
 IRaf= 800000000 NMat=       1 IRICut=       1 DoRegI=T DoRafI=F ISym2E= 0 IDoP0=0 IntGTp=1.
 FoFCou: FMM=F IPFlag=           0 FMFlag=      100000 FMFlg1=           0
         NFxFlg=           0 DoJE=F BraDBF=F KetDBF=F FulRan=T
         wScrn=  0.000000 ICntrl=         0 IOpCl=  1 I1Cent=           0 NGrid=           0
         NMat0=    1 NMatS0=      1 NMatT0=    0 NMatD0=    1 NMtDS0=    0 NMtDT0=    0
 Symmetry not used in FoFCou.
 E= -2369.55929458613    
 DIIS: error= 1.93D-01 at cycle   1 NSaved=   1.
 NSaved= 1 IEnMin= 1 EnMin= -2369.55929458613     IErMin= 1 ErrMin= 1.93D-01
 ErrMax= 1.93D-01  0.00D+00 EMaxC= 1.00D-01 BMatC= 1.61D+01 BMatP= 1.61D+01
 IDIUse=3 WtCom= 0.00D+00 WtEn= 1.00D+00
 Coeff-Com:  0.100D+01
 Coeff-En:   0.100D+01
 Coeff:      0.100D+01
 Gap=     0.090 Goal=   None    Shift=    0.000
 Gap=    -0.012 Goal=   None    Shift=    0.000
 GapD=   -0.012 DampG=0.250 DampE=0.125 DampFc=0.1250 IDamp=-1.
 Damping current iteration by 1.25D-01
 RMSDP=5.50D-02 MaxDP=2.25D+00              OVMax= 0.00D+00

 Cycle   2  Pass 0  IDiag  1:
 RMSU=  6.84D-03    CP:  9.90D-01
 E= -2373.32148808100     Delta-E=       -3.762193494867 Rises=F Damp=T
 DIIS: error= 1.27D-01 at cycle   2 NSaved=   2.
 NSaved= 2 IEnMin= 2 EnMin= -2373.32148808100     IErMin= 2 ErrMin= 1.27D-01
 ErrMax= 1.27D-01  0.00D+00 EMaxC= 1.00D-01 BMatC= 6.37D+00 BMatP= 1.61D+01
 IDIUse=3 WtCom= 0.00D+00 WtEn= 1.00D+00
 Coeff-Com: -0.109D+01 0.209D+01
 Coeff-En:   0.000D+00 0.100D+01
 Coeff:      0.000D+00 0.100D+01
 Gap=    -0.222 Goal=   None    Shift=    0.000
 Gap=    -0.083 Goal=   None    Shift=    0.000
 RMSDP=2.53D-02 MaxDP=8.66D-01 DE=-3.76D+00 OVMax= 0.00D+00

 Cycle   3  Pass 0  IDiag  1:
 RMSU=  2.35D-02    CP:  9.17D-01  2.23D+00
 E= -2364.55758691794     Delta-E=        8.763901163057 Rises=F Damp=F
 DIIS: error= 1.31D-01 at cycle   3 NSaved=   3.
 NSaved= 3 IEnMin= 2 EnMin= -2373.32148808100     IErMin= 2 ErrMin= 1.27D-01
 ErrMax= 1.31D-01  0.00D+00 EMaxC= 1.00D-01 BMatC= 1.31D+01 BMatP= 6.37D+00
 IDIUse=2 WtCom= 0.00D+00 WtEn= 1.00D+00
 EnCoef did   100 forward-backward iterations
 Coeff-En:   0.558D+00 0.153D-02 0.440D+00
 Coeff:      0.558D+00 0.153D-02 0.440D+00
 Gap=    -0.203 Goal=   None    Shift=    0.000
 Gap=    -0.053 Goal=   None    Shift=    0.000
 RMSDP=2.59D-02 MaxDP=6.30D-01 DE= 8.76D+00 OVMax= 0.00D+00

 Cycle   4  Pass 0  IDiag  1:
 RMSU=  2.14D-02    CP:  9.17D-01  9.40D-01  5.05D-01
 E= -2368.04213011583     Delta-E=       -3.484543197891 Rises=F Damp=F
 DIIS: error= 2.54D-01 at cycle   4 NSaved=   4.
 NSaved= 4 IEnMin= 2 EnMin= -2373.32148808100     IErMin= 2 ErrMin= 1.27D-01
 ErrMax= 2.54D-01  0.00D+00 EMaxC= 1.00D-01 BMatC= 2.69D+01 BMatP= 6.37D+00
 IDIUse=2 WtCom= 0.00D+00 WtEn= 1.00D+00
 EnCoef did   100 forward-backward iterations
 Coeff-En:   0.514D+00 0.139D-02 0.335D+00 0.149D+00
 Coeff:      0.514D+00 0.139D-02 0.335D+00 0.149D+00
 Gap=    -0.073 Goal=   None    Shift=    0.000
 Gap=     0.095 Goal=   None    Shift=    0.000
 RMSDP=1.94D-02 MaxDP=4.93D-01 DE=-3.48D+00 OVMax= 0.00D+00

 Cycle   5  Pass 0  IDiag  1:
 RMSU=  1.23D-02    CP:  9.37D-01  8.56D-01  5.49D-01  3.03D-01
 E= -2377.70418954362     Delta-E=       -9.662059427785 Rises=F Damp=F
 DIIS: error= 1.61D-01 at cycle   5 NSaved=   5.
 NSaved= 5 IEnMin= 5 EnMin= -2377.70418954362     IErMin= 2 ErrMin= 1.27D-01
 ErrMax= 1.61D-01  0.00D+00 EMaxC= 1.00D-01 BMatC= 5.59D+00 BMatP= 6.37D+00
 IDIUse=3 WtCom= 0.00D+00 WtEn= 1.00D+00
 EnCoef did   100 forward-backward iterations
 Coeff-Com:  0.349D-02 0.469D+00 0.970D-01 0.651D-01 0.366D+00
 Coeff-En:   0.258D+00 0.632D-02 0.000D+00 0.000D+00 0.736D+00
 Coeff:      0.258D+00 0.632D-02 0.000D+00 0.000D+00 0.736D+00
 Gap=     0.255 Goal=   None    Shift=    0.000
 Gap=    -0.085 Goal=   None    Shift=    0.000
 RMSDP=1.81D-02 MaxDP=8.82D-01 DE=-9.66D+00 OVMax= 0.00D+00

 Cycle   6  Pass 0  IDiag  1:
 RMSU=  1.45D-02    CP:  9.60D-01  4.99D-01  2.77D-01  1.05D-01  4.21D-01
 E= -2374.04709074402     Delta-E=        3.657098799597 Rises=F Damp=F
 DIIS: error= 2.73D-01 at cycle   6 NSaved=   6.
 NSaved= 6 IEnMin= 5 EnMin= -2377.70418954362     IErMin= 2 ErrMin= 1.27D-01
 ErrMax= 2.73D-01  0.00D+00 EMaxC= 1.00D-01 BMatC= 1.23D+01 BMatP= 5.59D+00
 IDIUse=2 WtCom= 0.00D+00 WtEn= 1.00D+00
 EnCoef did    35 forward-backward iterations
 Coeff-En:   0.862D-01 0.000D+00 0.000D+00 0.000D+00 0.679D+00 0.235D+00
 Coeff:      0.862D-01 0.000D+00 0.000D+00 0.000D+00 0.679D+00 0.235D+00
 Gap=     0.029 Goal=   None    Shift=    0.000
 Gap=    -0.072 Goal=   None    Shift=    0.000
 RMSDP=1.74D-02 MaxDP=2.89D-01 DE= 3.66D+00 OVMax= 0.00D+00

 Cycle   7  Pass 0  IDiag  1:
 RMSU=  1.15D-02    CP:  9.64D-01  4.44D-01  2.95D-01  1.13D-01  5.37D-01
                    CP:  1.09D-01
 E= -2376.41998359285     Delta-E=       -2.372892848824 Rises=F Damp=F
 DIIS: error= 2.81D-01 at cycle   7 NSaved=   7.
 NSaved= 7 IEnMin= 5 EnMin= -2377.70418954362     IErMin= 2 ErrMin= 1.27D-01
 ErrMax= 2.81D-01  0.00D+00 EMaxC= 1.00D-01 BMatC= 1.11D+01 BMatP= 5.59D+00
 IDIUse=2 WtCom= 0.00D+00 WtEn= 1.00D+00
 EnCoef did   100 forward-backward iterations
 Coeff-En:   0.688D-02 0.000D+00 0.000D+00 0.000D+00 0.606D+00 0.181D+00
 Coeff-En:   0.207D+00
 Coeff:      0.688D-02 0.000D+00 0.000D+00 0.000D+00 0.606D+00 0.181D+00
 Coeff:      0.207D+00
 Gap=     0.005 Goal=   None    Shift=    0.000
 Gap=    -0.023 Goal=   None    Shift=    0.000
 RMSDP=1.24D-02 MaxDP=7.65D-01 DE=-2.37D+00 OVMax= 0.00D+00

 Cycle   8  Pass 0  IDiag  1:
 RMSU=  6.30D-03    CP:  9.48D-01  7.28D-01  4.49D-01  2.41D-01  8.16D-01
                    CP:  1.72D-01  2.38D-01
 E= -2379.28806994492     Delta-E=       -2.868086352079 Rises=F Damp=F
 DIIS: error= 1.32D-02 at cycle   8 NSaved=   8.
 NSaved= 8 IEnMin= 8 EnMin= -2379.28806994492     IErMin= 8 ErrMin= 1.32D-02
 ErrMax= 1.32D-02  0.00D+00 EMaxC= 1.00D-01 BMatC= 1.70D-01 BMatP= 5.59D+00
 IDIUse=3 WtCom= 8.68D-01 WtEn= 1.32D-01
 Coeff-Com:  0.128D+00-0.165D+00 0.742D-02-0.559D-02 0.102D+00 0.347D-01
 Coeff-Com:  0.363D-01 0.861D+00
 Coeff-En:   0.000D+00 0.000D+00 0.000D+00 0.000D+00 0.000D+00 0.000D+00
 Coeff-En:   0.197D-01 0.980D+00
 Coeff:      0.111D+00-0.143D+00 0.644D-02-0.485D-02 0.890D-01 0.301D-01
 Coeff:      0.341D-01 0.877D+00
 Gap=     0.082 Goal=   None    Shift=    0.000
 Gap=     0.062 Goal=   None    Shift=    0.000
 RMSDP=4.44D-03 MaxDP=1.21D-01 DE=-2.87D+00 OVMax= 0.00D+00

 Cycle   9  Pass 0  IDiag  1:
 RMSU=  4.21D-03    CP:  9.50D-01  6.56D-01  4.50D-01  2.32D-01  8.22D-01
                    CP:  1.55D-01  2.94D-01  8.28D-01
 E= -2379.27501053138     Delta-E=        0.013059413546 Rises=F Damp=F
 DIIS: error= 1.97D-02 at cycle   9 NSaved=   9.
 NSaved= 9 IEnMin= 8 EnMin= -2379.28806994492     IErMin= 8 ErrMin= 1.32D-02
 ErrMax= 1.97D-02  0.00D+00 EMaxC= 1.00D-01 BMatC= 2.80D-01 BMatP= 1.70D-01
 IDIUse=2 WtCom= 0.00D+00 WtEn= 1.00D+00
 Coeff-En:   0.000D+00 0.000D+00 0.000D+00 0.000D+00 0.000D+00 0.000D+00
 Coeff-En:   0.000D+00 0.538D+00 0.462D+00
 Coeff:      0.000D+00 0.000D+00 0.000D+00 0.000D+00 0.000D+00 0.000D+00
 Coeff:      0.000D+00 0.538D+00 0.462D+00
 Gap=     0.124 Goal=   None    Shift=    0.000
 Gap=     0.079 Goal=   None    Shift=    0.000
 RMSDP=3.42D-03 MaxDP=1.02D-01 DE= 1.31D-02 OVMax= 0.00D+00

 Cycle  10  Pass 0  IDiag  1:
 RMSU=  2.56D-03    CP:  9.47D-01  6.95D-01  4.65D-01  2.32D-01  8.22D-01
                    CP:  1.62D-01  2.73D-01  8.45D-01  4.77D-01
 E= -2379.33926801576     Delta-E=       -0.064257484381 Rises=F Damp=F
 DIIS: error= 1.25D-02 at cycle  10 NSaved=  10.
 NSaved=10 IEnMin=10 EnMin= -2379.33926801576     IErMin=10 ErrMin= 1.25D-02
 ErrMax= 1.25D-02  0.00D+00 EMaxC= 1.00D-01 BMatC= 6.44D-02 BMatP= 1.70D-01
 IDIUse=3 WtCom= 8.75D-01 WtEn= 1.25D-01
 Coeff-Com: -0.400D-02 0.161D-01 0.143D-02-0.490D-02-0.113D-01-0.270D-02
 Coeff-Com: -0.282D-02 0.289D+00 0.301D+00 0.417D+00
 Coeff-En:   0.000D+00 0.000D+00 0.000D+00 0.000D+00 0.000D+00 0.000D+00
 Coeff-En:   0.000D+00 0.000D+00 0.225D+00 0.775D+00
 Coeff:     -0.350D-02 0.141D-01 0.125D-02-0.429D-02-0.986D-02-0.236D-02
 Coeff:     -0.247D-02 0.253D+00 0.292D+00 0.462D+00
 Gap=     0.115 Goal=   None    Shift=    0.000
 Gap=     0.076 Goal=   None    Shift=    0.000
 RMSDP=1.28D-03 MaxDP=2.49D-02 DE=-6.43D-02 OVMax= 0.00D+00

 Cycle  11  Pass 0  IDiag  1:
 RMSU=  8.01D-04    CP:  9.48D-01  6.98D-01  4.59D-01  2.30D-01  8.23D-01
                    CP:  1.55D-01  2.62D-01  8.86D-01  5.57D-01  6.56D-01
 E= -2379.36046611569     Delta-E=       -0.021198099933 Rises=F Damp=F
 DIIS: error= 2.75D-03 at cycle  11 NSaved=  11.
 NSaved=11 IEnMin=11 EnMin= -2379.36046611569     IErMin=11 ErrMin= 2.75D-03
 ErrMax= 2.75D-03  0.00D+00 EMaxC= 1.00D-01 BMatC= 5.05D-03 BMatP= 6.44D-02
 IDIUse=3 WtCom= 9.72D-01 WtEn= 2.75D-02
 Coeff-Com: -0.422D-02 0.115D-01-0.331D-04-0.848D-03-0.129D-01 0.124D-02
 Coeff-Com:  0.201D-02 0.645D-01 0.120D+00 0.209D+00 0.609D+00
 Coeff-En:   0.000D+00 0.000D+00 0.000D+00 0.000D+00 0.000D+00 0.000D+00
 Coeff-En:   0.000D+00 0.000D+00 0.000D+00 0.000D+00 0.100D+01
 Coeff:     -0.411D-02 0.112D-01-0.322D-04-0.825D-03-0.126D-01 0.120D-02
 Coeff:      0.195D-02 0.627D-01 0.117D+00 0.203D+00 0.620D+00
 Gap=     0.115 Goal=   None    Shift=    0.000
 Gap=     0.076 Goal=   None    Shift=    0.000
 RMSDP=4.82D-04 MaxDP=1.62D-02 DE=-2.12D-02 OVMax= 0.00D+00

 Cycle  12  Pass 0  IDiag  1:
 RMSU=  3.26D-04    CP:  9.48D-01  6.98D-01  4.61D-01  2.30D-01  8.20D-01
                    CP:  1.57D-01  2.63D-01  8.74D-01  5.65D-01  7.87D-01
                    CP:  9.43D-01
 E= -2379.36069161654     Delta-E=       -0.000225500849 Rises=F Damp=F
 DIIS: error= 3.59D-03 at cycle  12 NSaved=  12.
 NSaved=12 IEnMin=12 EnMin= -2379.36069161654     IErMin=11 ErrMin= 2.75D-03
 ErrMax= 3.59D-03  0.00D+00 EMaxC= 1.00D-01 BMatC= 5.39D-03 BMatP= 5.05D-03
 IDIUse=3 WtCom= 9.72D-01 WtEn= 2.75D-02
 Coeff-Com:  0.159D-02 0.391D-03-0.620D-03-0.309D-04-0.112D-01 0.188D-02
 Coeff-Com:  0.394D-02 0.165D-01 0.583D-01 0.392D-01 0.420D+00 0.470D+00
 Coeff-En:   0.000D+00 0.000D+00 0.000D+00 0.000D+00 0.000D+00 0.000D+00
 Coeff-En:   0.000D+00 0.000D+00 0.000D+00 0.000D+00 0.389D+00 0.611D+00
 Coeff:      0.154D-02 0.380D-03-0.602D-03-0.300D-04-0.109D-01 0.183D-02
 Coeff:      0.384D-02 0.160D-01 0.567D-01 0.381D-01 0.419D+00 0.474D+00
 Gap=     0.111 Goal=   None    Shift=    0.000
 Gap=     0.072 Goal=   None    Shift=    0.000
 RMSDP=2.42D-04 MaxDP=9.08D-03 DE=-2.26D-04 OVMax= 0.00D+00

 Cycle  13  Pass 0  IDiag  1:
 RMSU=  1.69D-04    CP:  9.48D-01  6.96D-01  4.60D-01  2.29D-01  8.18D-01
                    CP:  1.57D-01  2.67D-01  8.77D-01  5.84D-01  7.73D-01
                    CP:  1.11D+00  9.26D-01
 E= -2379.36232802055     Delta-E=       -0.001636404008 Rises=F Damp=F
 DIIS: error= 1.99D-03 at cycle  13 NSaved=  13.
 NSaved=13 IEnMin=13 EnMin= -2379.36232802055     IErMin=13 ErrMin= 1.99D-03
 ErrMax= 1.99D-03  0.00D+00 EMaxC= 1.00D-01 BMatC= 1.55D-03 BMatP= 5.05D-03
 IDIUse=3 WtCom= 9.80D-01 WtEn= 1.99D-02
 Coeff-Com:  0.352D-02-0.569D-02-0.194D-03-0.511D-03-0.335D-02 0.104D-02
 Coeff-Com:  0.140D-02 0.200D-01 0.327D-01-0.276D-01-0.936D-01-0.234D+00
 Coeff-Com:  0.131D+01
 Coeff-En:   0.000D+00 0.000D+00 0.000D+00 0.000D+00 0.000D+00 0.000D+00
 Coeff-En:   0.000D+00 0.000D+00 0.000D+00 0.000D+00 0.000D+00 0.000D+00
 Coeff-En:   0.100D+01
 Coeff:      0.345D-02-0.558D-02-0.190D-03-0.501D-03-0.329D-02 0.102D-02
 Coeff:      0.137D-02 0.196D-01 0.320D-01-0.270D-01-0.918D-01-0.229D+00
 Coeff:      0.130D+01
 Gap=     0.107 Goal=   None    Shift=    0.000
 Gap=     0.066 Goal=   None    Shift=    0.000
 RMSDP=3.97D-04 MaxDP=1.80D-02 DE=-1.64D-03 OVMax= 0.00D+00

 Cycle  14  Pass 0  IDiag  1:
 RMSU=  1.74D-04    CP:  9.48D-01  6.92D-01  4.58D-01  2.27D-01  8.13D-01
                    CP:  1.61D-01  2.73D-01  8.81D-01  6.21D-01  7.49D-01
                    CP:  1.26D+00  1.30D+00  2.40D+00
 E= -2379.36335699800     Delta-E=       -0.001028977445 Rises=F Damp=F
 DIIS: error= 6.83D-04 at cycle  14 NSaved=  14.
 NSaved=14 IEnMin=14 EnMin= -2379.36335699800     IErMin=14 ErrMin= 6.83D-04
 ErrMax= 6.83D-04  0.00D+00 EMaxC= 1.00D-01 BMatC= 2.98D-04 BMatP= 1.55D-03
 IDIUse=3 WtCom= 9.93D-01 WtEn= 6.83D-03
 Coeff-Com:  0.185D-03-0.837D-03-0.604D-04-0.879D-05-0.126D-03 0.390D-03
 Coeff-Com:  0.127D-04 0.626D-02 0.126D-01-0.476D-02-0.101D+00-0.257D+00
 Coeff-Com:  0.834D+00 0.511D+00
 Coeff-En:   0.000D+00 0.000D+00 0.000D+00 0.000D+00 0.000D+00 0.000D+00
 Coeff-En:   0.000D+00 0.000D+00 0.000D+00 0.000D+00 0.000D+00 0.000D+00
 Coeff-En:   0.000D+00 0.100D+01
 Coeff:      0.184D-03-0.831D-03-0.600D-04-0.873D-05-0.125D-03 0.388D-03
 Coeff:      0.126D-04 0.621D-02 0.125D-01-0.472D-02-0.100D+00-0.255D+00
 Coeff:      0.828D+00 0.514D+00
 Gap=     0.109 Goal=   None    Shift=    0.000
 Gap=     0.067 Goal=   None    Shift=    0.000
 RMSDP=1.83D-04 MaxDP=8.81D-03 DE=-1.03D-03 OVMax= 0.00D+00

 Cycle  15  Pass 0  IDiag  1:
 RMSU=  9.13D-05    CP:  9.48D-01  6.92D-01  4.58D-01  2.27D-01  8.12D-01
                    CP:  1.61D-01  2.72D-01  8.77D-01  6.23D-01  7.65D-01
                    CP:  1.32D+00  1.50D+00  3.00D+00  1.02D+00
 E= -2379.36373398239     Delta-E=       -0.000376984396 Rises=F Damp=F
 DIIS: error= 6.99D-04 at cycle  15 NSaved=  15.
 NSaved=15 IEnMin=15 EnMin= -2379.36373398239     IErMin=14 ErrMin= 6.83D-04
 ErrMax= 6.99D-04  0.00D+00 EMaxC= 1.00D-01 BMatC= 1.51D-04 BMatP= 2.98D-04
 IDIUse=3 WtCom= 9.93D-01 WtEn= 6.83D-03
 Coeff-Com:  0.322D-04-0.223D-03-0.755D-05 0.399D-04-0.193D-03 0.232D-03
 Coeff-Com: -0.612D-04 0.362D-02 0.787D-02 0.698D-03-0.246D-01-0.104D+00
 Coeff-Com:  0.409D+00 0.271D+00 0.436D+00
 Coeff-En:   0.000D+00 0.000D+00 0.000D+00 0.000D+00 0.000D+00 0.000D+00
 Coeff-En:   0.000D+00 0.000D+00 0.000D+00 0.000D+00 0.000D+00 0.000D+00
 Coeff-En:   0.000D+00 0.000D+00 0.100D+01
 Coeff:      0.320D-04-0.221D-03-0.749D-05 0.396D-04-0.192D-03 0.230D-03
 Coeff:     -0.608D-04 0.359D-02 0.781D-02 0.693D-03-0.245D-01-0.103D+00
 Coeff:      0.407D+00 0.270D+00 0.439D+00
 Gap=     0.110 Goal=   None    Shift=    0.000
 Gap=     0.067 Goal=   None    Shift=    0.000
 RMSDP=9.36D-05 MaxDP=4.40D-03 DE=-3.77D-04 OVMax= 0.00D+00

 Failed to achieve initial convergence to 1.0D-08 in 16 cycles.
 Switch to full accuracy anyway.
 Cycle  16  Pass 1  IDiag  1:
 E= -2379.36395714474     Delta-E=       -0.000223162344 Rises=F Damp=F
 DIIS: error= 7.12D-04 at cycle   1 NSaved=   1.
 NSaved= 1 IEnMin= 1 EnMin= -2379.36395714474     IErMin= 1 ErrMin= 7.12D-04
 ErrMax= 7.12D-04  0.00D+00 EMaxC= 1.00D-01 BMatC= 1.18D-04 BMatP= 1.18D-04
 IDIUse=3 WtCom= 9.93D-01 WtEn= 7.12D-03
 Coeff-Com:  0.100D+01
 Coeff-En:   0.100D+01
 Coeff:      0.100D+01
 Gap=     0.113 Goal=   None    Shift=    0.000
 Gap=     0.069 Goal=   None    Shift=    0.000
 RMSDP=9.36D-05 MaxDP=4.40D-03 DE=-2.23D-04 OVMax= 0.00D+00

 Cycle  17  Pass 1  IDiag  1:
 RMSU=  2.68D-04    CP:  1.00D+00
 E= -2379.36442756731     Delta-E=       -0.000470422578 Rises=F Damp=F
 DIIS: error= 8.50D-04 at cycle   2 NSaved=   2.
 NSaved= 2 IEnMin= 2 EnMin= -2379.36442756731     IErMin= 1 ErrMin= 7.12D-04
 ErrMax= 8.50D-04  0.00D+00 EMaxC= 1.00D-01 BMatC= 2.26D-04 BMatP= 1.18D-04
 IDIUse=3 WtCom= 2.55D-01 WtEn= 7.45D-01
 Coeff-Com:  0.819D+00 0.181D+00
 Coeff-En:   0.000D+00 0.100D+01
 Coeff:      0.209D+00 0.791D+00
 Gap=     0.108 Goal=   None    Shift=    0.000
 Gap=     0.064 Goal=   None    Shift=    0.000
 RMSDP=3.47D-04 MaxDP=1.43D-02 DE=-4.70D-04 OVMax= 0.00D+00

 Cycle  18  Pass 1  IDiag  1:
 RMSU=  3.26D-04    CP:  1.00D+00  1.44D+00
 E= -2379.36430587339     Delta-E=        0.000121693925 Rises=F Damp=F
 DIIS: error= 2.15D-03 at cycle   3 NSaved=   3.
 NSaved= 3 IEnMin= 2 EnMin= -2379.36442756731     IErMin= 1 ErrMin= 7.12D-04
 ErrMax= 2.15D-03  0.00D+00 EMaxC= 1.00D-01 BMatC= 1.65D-03 BMatP= 1.18D-04
 IDIUse=3 WtCom= 1.77D-01 WtEn= 8.23D-01
 Coeff-Com:  0.705D+00 0.265D+00 0.300D-01
 Coeff-En:   0.000D+00 0.602D+00 0.398D+00
 Coeff:      0.125D+00 0.542D+00 0.333D+00
 Gap=     0.118 Goal=   None    Shift=    0.000
 Gap=     0.072 Goal=   None    Shift=    0.000
 RMSDP=4.33D-04 MaxDP=1.95D-02 DE= 1.22D-04 OVMax= 0.00D+00

 Cycle  19  Pass 1  IDiag  1:
 RMSU=  4.68D-05    CP:  1.00D+00  2.17D+00 -1.74D-01
 E= -2379.36458665587     Delta-E=       -0.000280782486 Rises=F Damp=F
 DIIS: error= 1.80D-03 at cycle   4 NSaved=   4.
 NSaved= 4 IEnMin= 4 EnMin= -2379.36458665587     IErMin= 1 ErrMin= 7.12D-04
 ErrMax= 1.80D-03  0.00D+00 EMaxC= 1.00D-01 BMatC= 1.33D-03 BMatP= 1.18D-04
 IDIUse=3 WtCom= 1.91D-01 WtEn= 8.09D-01
 Coeff-Com:  0.387D+00 0.240D+00 0.198D+00 0.176D+00
 Coeff-En:   0.000D+00 0.000D+00 0.415D+00 0.585D+00
 Coeff:      0.738D-01 0.457D-01 0.373D+00 0.507D+00
 Gap=     0.112 Goal=   None    Shift=    0.000
 Gap=     0.066 Goal=   None    Shift=    0.000
 RMSDP=3.34D-04 MaxDP=1.39D-02 DE=-2.81D-04 OVMax= 0.00D+00

 Cycle  20  Pass 1  IDiag  1:
 RMSU=  3.61D-05    CP:  1.00D+00  2.47D+00  8.12D-01  6.12D-01
 E= -2379.36524782200     Delta-E=       -0.000661166129 Rises=F Damp=F
 DIIS: error= 8.64D-04 at cycle   5 NSaved=   5.
 NSaved= 5 IEnMin= 5 EnMin= -2379.36524782200     IErMin= 1 ErrMin= 7.12D-04
 ErrMax= 8.64D-04  0.00D+00 EMaxC= 1.00D-01 BMatC= 3.85D-04 BMatP= 1.18D-04
 IDIUse=3 WtCom= 2.54D-01 WtEn= 7.46D-01
 Coeff-Com:  0.306D+01-0.714D+01-0.182D+01 0.243D+01 0.447D+01
 Coeff-En:   0.000D+00 0.000D+00 0.000D+00 0.378D-01 0.962D+00
 Coeff:      0.777D+00-0.181D+01-0.461D+00 0.645D+00 0.185D+01
 Gap=     0.122 Goal=   None    Shift=    0.000
 Gap=     0.074 Goal=   None    Shift=    0.000
 RMSDP=6.36D-04 MaxDP=3.36D-02 DE=-6.61D-04 OVMax= 0.00D+00

 Cycle  21  Pass 1  IDiag  1:
 RMSU=  4.25D-04    CP:  1.00D+00  3.00D+00  6.80D-02  3.00D+00  1.79D+00
 E= -2379.36529499078     Delta-E=       -0.000047168775 Rises=F Damp=F
 DIIS: error= 2.59D-03 at cycle   6 NSaved=   6.
 NSaved= 6 IEnMin= 6 EnMin= -2379.36529499078     IErMin= 1 ErrMin= 7.12D-04
 ErrMax= 2.59D-03  0.00D+00 EMaxC= 1.00D-01 BMatC= 2.55D-03 BMatP= 1.18D-04
 IDIUse=3 WtCom= 2.54D-01 WtEn= 7.46D-01
 Coeff-Com:  0.521D+01-0.733D+01-0.387D+01-0.108D+01 0.641D+01 0.166D+01
 Coeff-En:   0.000D+00 0.000D+00 0.000D+00 0.000D+00 0.447D+00 0.553D+00
 Coeff:      0.132D+01-0.186D+01-0.981D+00-0.274D+00 0.196D+01 0.833D+00
 Gap=     0.107 Goal=   None    Shift=    0.000
 Gap=     0.062 Goal=   None    Shift=    0.000
 RMSDP=7.55D-04 MaxDP=3.55D-02 DE=-4.72D-05 OVMax= 0.00D+00

 Cycle  22  Pass 1  IDiag  1:
 RMSU=  1.21D-04    CP:  1.00D+00  3.00D+00  2.31D+00  3.00D+00  3.00D+00
                    CP:  1.20D+00
 E= -2379.36461924229     Delta-E=        0.000675748490 Rises=F Damp=F
 DIIS: error= 4.33D-03 at cycle   7 NSaved=   7.
 NSaved= 7 IEnMin= 6 EnMin= -2379.36529499078     IErMin= 1 ErrMin= 7.12D-04
 ErrMax= 4.33D-03  0.00D+00 EMaxC= 1.00D-01 BMatC= 5.56D-03 BMatP= 1.18D-04
 IDIUse=3 WtCom= 2.54D-01 WtEn= 7.46D-01
 Coeff-Com:  0.493D+01-0.407D+01-0.388D+01-0.210D+01 0.330D+01 0.194D+01
 Coeff-Com:  0.884D+00
 Coeff-En:   0.000D+00 0.000D+00 0.000D+00 0.000D+00 0.000D+00 0.578D+00
 Coeff-En:   0.422D+00
 Coeff:      0.125D+01-0.103D+01-0.986D+00-0.534D+00 0.838D+00 0.924D+00
 Coeff:      0.539D+00
 Gap=     0.116 Goal=   None    Shift=    0.000
 Gap=     0.070 Goal=   None    Shift=    0.000
 RMSDP=5.06D-04 MaxDP=2.32D-02 DE= 6.76D-04 OVMax= 0.00D+00

 Cycle  23  Pass 1  IDiag  1:
 RMSU=  9.12D-05    CP:  1.00D+00  3.00D+00  1.04D+00  3.00D+00  3.00D+00
                    CP:  1.84D+00  9.78D-01
 E= -2379.36679187448     Delta-E=       -0.002172632187 Rises=F Damp=F
 DIIS: error= 5.48D-04 at cycle   8 NSaved=   8.
 NSaved= 8 IEnMin= 8 EnMin= -2379.36679187448     IErMin= 8 ErrMin= 5.48D-04
 ErrMax= 5.48D-04  0.00D+00 EMaxC= 1.00D-01 BMatC= 1.08D-04 BMatP= 1.18D-04
 IDIUse=3 WtCom= 9.95D-01 WtEn= 5.48D-03
 Coeff-Com:  0.137D+01 0.114D+01-0.735D+00-0.218D+01-0.141D+01 0.956D+00
 Coeff-Com:  0.571D+00 0.129D+01
 Coeff-En:   0.000D+00 0.000D+00 0.000D+00 0.000D+00 0.000D+00 0.000D+00
 Coeff-En:   0.000D+00 0.100D+01
 Coeff:      0.136D+01 0.113D+01-0.731D+00-0.217D+01-0.140D+01 0.951D+00
 Coeff:      0.568D+00 0.129D+01
 Gap=     0.114 Goal=   None    Shift=    0.000
 Gap=     0.069 Goal=   None    Shift=    0.000
 RMSDP=3.83D-04 MaxDP=2.10D-02 DE=-2.17D-03 OVMax= 0.00D+00

 Cycle  24  Pass 1  IDiag  1:
 RMSU=  8.35D-05    CP:  1.00D+00  3.00D+00  1.43D+00  3.00D+00  3.00D+00
                    CP:  2.50D+00  2.08D+00  2.86D+00
 E= -2379.36709622757     Delta-E=       -0.000304353092 Rises=F Damp=F
 DIIS: error= 2.51D-04 at cycle   9 NSaved=   9.
 NSaved= 9 IEnMin= 9 EnMin= -2379.36709622757     IErMin= 9 ErrMin= 2.51D-04
 ErrMax= 2.51D-04  0.00D+00 EMaxC= 1.00D-01 BMatC= 3.12D-05 BMatP= 1.08D-04
 IDIUse=3 WtCom= 9.97D-01 WtEn= 2.51D-03
 Coeff-Com:  0.939D+00 0.864D+00-0.551D+00-0.171D+01-0.102D+01 0.767D+00
 Coeff-Com:  0.413D+00 0.101D+01 0.287D+00
 Coeff-En:   0.000D+00 0.000D+00 0.000D+00 0.000D+00 0.000D+00 0.000D+00
 Coeff-En:   0.000D+00 0.000D+00 0.100D+01
 Coeff:      0.936D+00 0.862D+00-0.550D+00-0.171D+01-0.101D+01 0.765D+00
 Coeff:      0.412D+00 0.101D+01 0.289D+00
 Gap=     0.114 Goal=   None    Shift=    0.000
 Gap=     0.069 Goal=   None    Shift=    0.000
 RMSDP=1.60D-04 MaxDP=9.07D-03 DE=-3.04D-04 OVMax= 0.00D+00

 Cycle  25  Pass 1  IDiag  1:
 RMSU=  4.07D-05    CP:  1.00D+00  3.00D+00  1.51D+00  3.00D+00  3.00D+00
                    CP:  2.84D+00  2.33D+00  3.00D+00  1.02D+00
 E= -2379.36716890853     Delta-E=       -0.000072680960 Rises=F Damp=F
 DIIS: error= 2.49D-04 at cycle  10 NSaved=  10.
 NSaved=10 IEnMin=10 EnMin= -2379.36716890853     IErMin=10 ErrMin= 2.49D-04
 ErrMax= 2.49D-04  0.00D+00 EMaxC= 1.00D-01 BMatC= 1.61D-05 BMatP= 3.12D-05
 IDIUse=3 WtCom= 9.98D-01 WtEn= 2.49D-03
 Coeff-Com: -0.379D+00 0.115D+01 0.311D+00-0.439D+00-0.927D+00 0.274D-01
 Coeff-Com:  0.442D-01 0.393D+00-0.511D+00 0.133D+01
 Coeff-En:   0.000D+00 0.000D+00 0.000D+00 0.000D+00 0.000D+00 0.000D+00
 Coeff-En:   0.000D+00 0.000D+00 0.000D+00 0.100D+01
 Coeff:     -0.378D+00 0.115D+01 0.310D+00-0.438D+00-0.925D+00 0.273D-01
 Coeff:      0.441D-01 0.392D+00-0.510D+00 0.133D+01
 Gap=     0.115 Goal=   None    Shift=    0.000
 Gap=     0.069 Goal=   None    Shift=    0.000
 RMSDP=5.46D-05 MaxDP=2.75D-03 DE=-7.27D-05 OVMax= 0.00D+00

 Cycle  26  Pass 1  IDiag  1:
 RMSU=  4.54D-05    CP:  1.00D+00  3.00D+00  1.50D+00  3.00D+00  3.00D+00
                    CP:  2.87D+00  2.38D+00  3.00D+00  1.28D+00  1.42D+00
 E= -2379.36719271904     Delta-E=       -0.000023810516 Rises=F Damp=F
 DIIS: error= 2.27D-04 at cycle  11 NSaved=  11.
 NSaved=11 IEnMin=11 EnMin= -2379.36719271904     IErMin=11 ErrMin= 2.27D-04
 ErrMax= 2.27D-04  0.00D+00 EMaxC= 1.00D-01 BMatC= 7.77D-06 BMatP= 1.61D-05
 IDIUse=3 WtCom= 9.98D-01 WtEn= 2.27D-03
 Coeff-Com: -0.333D+00 0.827D+00 0.296D+00-0.154D+00-0.624D+00-0.895D-01
 Coeff-Com: -0.189D-01 0.144D+00-0.739D+00 0.103D+01 0.663D+00
 Coeff-En:   0.000D+00 0.000D+00 0.000D+00 0.000D+00 0.000D+00 0.000D+00
 Coeff-En:   0.000D+00 0.000D+00 0.000D+00 0.000D+00 0.100D+01
 Coeff:     -0.332D+00 0.826D+00 0.296D+00-0.153D+00-0.623D+00-0.893D-01
 Coeff:     -0.189D-01 0.144D+00-0.738D+00 0.103D+01 0.663D+00
 Gap=     0.115 Goal=   None    Shift=    0.000
 Gap=     0.069 Goal=   None    Shift=    0.000
 RMSDP=5.44D-05 MaxDP=2.98D-03 DE=-2.38D-05 OVMax= 0.00D+00

 Cycle  27  Pass 1  IDiag  1:
 RMSU=  1.24D-05    CP:  1.00D+00  3.00D+00  1.49D+00  3.00D+00  3.00D+00
                    CP:  2.80D+00  2.38D+00  3.00D+00  1.55D+00  1.55D+00
                    CP:  1.86D+00
 E= -2379.36720060484     Delta-E=       -0.000007885795 Rises=F Damp=F
 DIIS: error= 2.16D-04 at cycle  12 NSaved=  12.
 NSaved=12 IEnMin=12 EnMin= -2379.36720060484     IErMin=12 ErrMin= 2.16D-04
 ErrMax= 2.16D-04  0.00D+00 EMaxC= 1.00D-01 BMatC= 7.39D-06 BMatP= 7.77D-06
 IDIUse=3 WtCom= 9.98D-01 WtEn= 2.16D-03
 Coeff-Com:  0.968D-01 0.384D+00 0.418D-01-0.149D+00-0.370D+00-0.270D-01
 Coeff-Com:  0.345D-01-0.202D-01-0.871D+00 0.482D+00 0.435D+00 0.963D+00
 Coeff-En:   0.000D+00 0.000D+00 0.000D+00 0.000D+00 0.000D+00 0.000D+00
 Coeff-En:   0.000D+00 0.000D+00 0.000D+00 0.000D+00 0.000D+00 0.100D+01
 Coeff:      0.966D-01 0.383D+00 0.417D-01-0.149D+00-0.369D+00-0.269D-01
 Coeff:      0.344D-01-0.201D-01-0.869D+00 0.481D+00 0.434D+00 0.963D+00
 Gap=     0.116 Goal=   None    Shift=    0.000
 Gap=     0.069 Goal=   None    Shift=    0.000
 RMSDP=9.29D-05 MaxDP=5.08D-03 DE=-7.89D-06 OVMax= 0.00D+00

 Cycle  28  Pass 1  IDiag  1:
 RMSU=  2.29D-05    CP:  1.00D+00  3.00D+00  1.49D+00  3.00D+00  3.00D+00
                    CP:  2.73D+00  2.46D+00  3.00D+00  2.06D+00  2.01D+00
                    CP:  3.00D+00  2.65D+00
 E= -2379.36721754413     Delta-E=       -0.000016939292 Rises=F Damp=F
 DIIS: error= 1.88D-04 at cycle  13 NSaved=  13.
 NSaved=13 IEnMin=13 EnMin= -2379.36721754413     IErMin=13 ErrMin= 1.88D-04
 ErrMax= 1.88D-04  0.00D+00 EMaxC= 1.00D-01 BMatC= 9.95D-06 BMatP= 7.39D-06
 IDIUse=3 WtCom= 9.98D-01 WtEn= 2.16D-03
 Coeff-Com:  0.804D-01 0.404D+00 0.570D-01-0.144D+00-0.390D+00-0.333D-01
 Coeff-Com:  0.329D-01-0.142D-01-0.855D+00 0.457D+00 0.444D+00 0.102D+01
 Coeff-Com: -0.622D-01
 Coeff-En:   0.000D+00 0.000D+00 0.000D+00 0.000D+00 0.000D+00 0.000D+00
 Coeff-En:   0.000D+00 0.000D+00 0.000D+00 0.000D+00 0.000D+00 0.000D+00
 Coeff-En:   0.100D+01
 Coeff:      0.802D-01 0.403D+00 0.569D-01-0.144D+00-0.390D+00-0.332D-01
 Coeff:      0.328D-01-0.141D-01-0.853D+00 0.456D+00 0.443D+00 0.102D+01
 Coeff:     -0.599D-01
 Gap=     0.116 Goal=   None    Shift=    0.000
 Gap=     0.069 Goal=   None    Shift=    0.000
 RMSDP=5.50D-06 MaxDP=2.69D-04 DE=-1.69D-05 OVMax= 0.00D+00

 Cycle  29  Pass 1  IDiag  1:
 RMSU=  1.52D-06    CP:  1.00D+00  3.00D+00  1.49D+00  3.00D+00  3.00D+00
                    CP:  2.72D+00  2.45D+00  3.00D+00  2.04D+00  1.95D+00
                    CP:  3.00D+00  2.54D+00  8.52D-01
 E= -2379.36721504659     Delta-E=        0.000002497542 Rises=F Damp=F
 DIIS: error= 1.89D-04 at cycle  14 NSaved=  14.
 NSaved=14 IEnMin=13 EnMin= -2379.36721754413     IErMin=13 ErrMin= 1.88D-04
 ErrMax= 1.89D-04  0.00D+00 EMaxC= 1.00D-01 BMatC= 1.00D-05 BMatP= 7.39D-06
 IDIUse=3 WtCom= 9.98D-01 WtEn= 2.16D-03
 Large coefficients: NSaved= 14 BigCof=   11.55 CofMax=   10.00 Det=-2.48D-10
 Inversion failed.  Reducing to 13 matrices.
 Large coefficients: NSaved= 13 BigCof=   11.27 CofMax=   10.00 Det=-2.50D-10
 Inversion failed.  Reducing to 12 matrices.
 Rare condition: small coef for last iteration:  0.000D+00
 Coeff-Com:  0.225D+00-0.458D-01-0.115D+00-0.217D-01 0.153D-01-0.116D+00
 Coeff-Com: -0.850D+00 0.597D+00 0.442D+00 0.853D+00-0.356D+01 0.358D+01
 Coeff-En:   0.000D+00 0.000D+00 0.000D+00 0.000D+00 0.000D+00 0.000D+00
 Coeff-En:   0.000D+00 0.000D+00 0.000D+00 0.000D+00 0.000D+00 0.100D+01
 Coeff:      0.225D+00-0.458D-01-0.115D+00-0.217D-01 0.153D-01-0.116D+00
 Coeff:     -0.850D+00 0.597D+00 0.442D+00 0.853D+00-0.356D+01 0.358D+01
 Gap=     0.116 Goal=   None    Shift=    0.000
 Gap=     0.069 Goal=   None    Shift=    0.000
 RMSDP=7.94D-05 MaxDP=4.36D-03 DE= 2.50D-06 OVMax= 0.00D+00

 Cycle  30  Pass 1  IDiag  1:
 RMSU=  4.18D-06    CP:  9.99D-01  3.00D+00  1.53D+00  3.00D+00  3.00D+00
                    CP:  2.89D+00  2.52D+00  3.00D+00  1.87D+00  2.33D+00
                    CP:  2.83D+00  1.94D+00  3.18D-01  3.00D+00
 E= -2379.36723490818     Delta-E=       -0.000019861591 Rises=F Damp=F
 DIIS: error= 2.08D-04 at cycle  15 NSaved=  13.
 NSaved=13 IEnMin=13 EnMin= -2379.36723490818     IErMin=11 ErrMin= 1.88D-04
 ErrMax= 2.08D-04  0.00D+00 EMaxC= 1.00D-01 BMatC= 6.10D-06 BMatP= 7.39D-06
 IDIUse=3 WtCom= 9.98D-01 WtEn= 2.08D-03
 Large coefficients: NSaved= 13 BigCof=   32.36 CofMax=   10.00 Det=-1.37D-10
 Inversion failed.  Reducing to 12 matrices.
 Large coefficients: NSaved= 12 BigCof=   20.09 CofMax=   10.00 Det=-1.58D-10
 Inversion failed.  Reducing to 11 matrices.
 Large coefficients: NSaved= 11 BigCof=   11.50 CofMax=   10.00 Det=-1.78D-10
 Inversion failed.  Reducing to 10 matrices.
 Large coefficients: NSaved= 10 BigCof=   11.85 CofMax=   10.00 Det=-1.78D-10
 Inversion failed.  Reducing to  9 matrices.
 Large coefficients: NSaved=  9 BigCof=   12.04 CofMax=   10.00 Det=-1.78D-10
 Inversion failed.  Reducing to  8 matrices.
 Large coefficients: NSaved=  8 BigCof=   11.11 CofMax=   10.00 Det=-2.20D-10
 Inversion failed.  Reducing to  7 matrices.
 Coeff-Com: -0.442D+00 0.234D+00 0.337D+00 0.854D+00-0.928D+01 0.860D+01
 Coeff-Com:  0.699D+00
 Coeff-En:   0.000D+00 0.000D+00 0.000D+00 0.000D+00 0.000D+00 0.000D+00
 Coeff-En:   0.100D+01
 Coeff:     -0.441D+00 0.234D+00 0.336D+00 0.852D+00-0.926D+01 0.858D+01
 Coeff:      0.700D+00
 Gap=     0.116 Goal=   None    Shift=    0.000
 Gap=     0.069 Goal=   None    Shift=    0.000
 RMSDP=9.78D-05 MaxDP=5.65D-03 DE=-1.99D-05 OVMax= 0.00D+00

 Cycle  31  Pass 1  IDiag  1:
 RMSU=  2.58D-05    CP:  9.99D-01  3.00D+00  1.57D+00  3.00D+00  3.00D+00
                    CP:  3.00D+00  2.53D+00  3.00D+00  1.48D+00  2.39D+00
                    CP:  1.71D+00  3.73D-01 -1.77D-01 -2.44D+00  6.28D-01
 E= -2379.36722488045     Delta-E=        0.000010027732 Rises=F Damp=F
 DIIS: error= 2.35D-04 at cycle  16 NSaved=   8.
 NSaved= 8 IEnMin= 7 EnMin= -2379.36723490818     IErMin= 5 ErrMin= 1.88D-04
 ErrMax= 2.35D-04  0.00D+00 EMaxC= 1.00D-01 BMatC= 5.06D-06 BMatP= 6.10D-06
 IDIUse=3 WtCom= 9.98D-01 WtEn= 2.08D-03
 Large coefficients: NSaved=  8 BigCof=   10.64 CofMax=   10.00 Det=-2.73D-10
 Inversion failed.  Reducing to  7 matrices.
 Large coefficients: NSaved=  7 BigCof=   11.15 CofMax=   10.00 Det=-3.72D-10
 Inversion failed.  Reducing to  6 matrices.
 Rare condition: small coef for last iteration:  0.000D+00
 Coeff-Com: -0.331D+00-0.898D+00 0.496D+01-0.466D+01 0.104D+01 0.885D+00
 Coeff-En:   0.000D+00 0.000D+00 0.000D+00 0.000D+00 0.000D+00 0.100D+01
 Coeff:     -0.331D+00-0.898D+00 0.496D+01-0.466D+01 0.104D+01 0.885D+00
 Gap=     0.116 Goal=   None    Shift=    0.000
 Gap=     0.069 Goal=   None    Shift=    0.000
 RMSDP=1.78D-04 MaxDP=9.16D-03 DE= 1.00D-05 OVMax= 0.00D+00

 Cycle  32  Pass 1  IDiag  1:
 RMSU=  4.67D-05    CP:  9.99D-01  3.00D+00  1.58D+00  3.00D+00  3.00D+00
                    CP:  3.00D+00  2.77D+00  3.00D+00  2.40D+00  3.00D+00
                    CP:  3.00D+00  3.00D+00  3.00D+00 -3.00D+00 -2.90D+00
                    CP:  2.03D+00
 E= -2379.36729519131     Delta-E=       -0.000070310865 Rises=F Damp=F
 DIIS: error= 1.98D-04 at cycle  17 NSaved=   7.
 NSaved= 7 IEnMin= 7 EnMin= -2379.36729519131     IErMin= 3 ErrMin= 1.88D-04
 ErrMax= 1.98D-04  0.00D+00 EMaxC= 1.00D-01 BMatC= 6.46D-06 BMatP= 5.06D-06
 IDIUse=3 WtCom= 9.98D-01 WtEn= 2.08D-03
 Coeff-Com: -0.677D-02 0.181D+00-0.532D+01 0.487D+01 0.562D+00 0.350D+00
 Coeff-Com:  0.364D+00
 Coeff-En:   0.000D+00 0.000D+00 0.000D+00 0.000D+00 0.000D+00 0.000D+00
 Coeff-En:   0.100D+01
 Coeff:     -0.676D-02 0.180D+00-0.531D+01 0.486D+01 0.561D+00 0.350D+00
 Coeff:      0.365D+00
 Gap=     0.116 Goal=   None    Shift=    0.000
 Gap=     0.069 Goal=   None    Shift=    0.000
 RMSDP=9.49D-05 MaxDP=4.88D-03 DE=-7.03D-05 OVMax= 0.00D+00

 Cycle  33  Pass 1  IDiag  1:
 RMSU=  9.58D-06    CP:  9.99D-01  3.00D+00  1.58D+00  3.00D+00  3.00D+00
                    CP:  3.00D+00  2.64D+00  3.00D+00  1.89D+00  3.00D+00
                    CP:  3.00D+00  2.11D+00  4.49D-01  2.91D+00  1.35D+00
                    CP:  1.41D+00  1.62D-01
 E= -2379.36725852450     Delta-E=        0.000036666808 Rises=F Damp=F
 DIIS: error= 2.22D-04 at cycle  18 NSaved=   8.
 NSaved= 8 IEnMin= 7 EnMin= -2379.36729519131     IErMin= 3 ErrMin= 1.88D-04
 ErrMax= 2.22D-04  0.00D+00 EMaxC= 1.00D-01 BMatC= 4.58D-06 BMatP= 5.06D-06
 IDIUse=3 WtCom= 9.98D-01 WtEn= 2.08D-03
 Rare condition: small coef for last iteration:  0.000D+00
 Coeff-Com:  0.977D-02 0.276D+00-0.638D+01 0.591D+01 0.437D+00 0.184D+00
 Coeff-Com:  0.345D+00 0.221D+00
 Coeff-En:   0.000D+00 0.000D+00 0.000D+00 0.000D+00 0.000D+00 0.000D+00
 Coeff-En:   0.000D+00 0.100D+01
 Coeff:      0.977D-02 0.276D+00-0.638D+01 0.591D+01 0.437D+00 0.184D+00
 Coeff:      0.345D+00 0.221D+00
 Gap=     0.116 Goal=   None    Shift=    0.000
 Gap=     0.069 Goal=   None    Shift=    0.000
 RMSDP=2.12D-06 MaxDP=1.25D-04 DE= 3.67D-05 OVMax= 0.00D+00

 Cycle  34  Pass 1  IDiag  1:
 RMSU=  1.00D-06    CP:  9.99D-01  3.00D+00  1.58D+00  3.00D+00  3.00D+00
                    CP:  3.00D+00  2.63D+00  3.00D+00  1.88D+00  3.00D+00
                    CP:  3.00D+00  2.10D+00  4.22D-01  2.98D+00  1.43D+00
                    CP:  1.43D+00  1.66D-01  1.12D+00
 E= -2379.36725825790     Delta-E=        0.000000266602 Rises=F Damp=F
 DIIS: error= 2.23D-04 at cycle  19 NSaved=   9.
 NSaved= 9 IEnMin= 7 EnMin= -2379.36729519131     IErMin= 3 ErrMin= 1.88D-04
 ErrMax= 2.23D-04  0.00D+00 EMaxC= 1.00D-01 BMatC= 4.54D-06 BMatP= 4.58D-06
 IDIUse=3 WtCom= 9.98D-01 WtEn= 2.08D-03
 Rare condition: small coef for last iteration:  0.000D+00
 Coeff-Com: -0.311D-01-0.169D+00-0.779D+00 0.693D-01 0.156D+01 0.152D+01
 Coeff-Com:  0.654D+00 0.337D+01-0.520D+01
 Coeff-En:   0.000D+00 0.000D+00 0.000D+00 0.000D+00 0.000D+00 0.000D+00
 Coeff-En:   0.000D+00 0.000D+00 0.100D+01
 Coeff:     -0.311D-01-0.169D+00-0.779D+00 0.693D-01 0.156D+01 0.152D+01
 Coeff:      0.654D+00 0.337D+01-0.520D+01
 Gap=     0.116 Goal=   None    Shift=    0.000
 Gap=     0.069 Goal=   None    Shift=    0.000
 RMSDP=3.81D-05 MaxDP=1.66D-03 DE= 2.67D-07 OVMax= 0.00D+00

 Cycle  35  Pass 1  IDiag  1:
 RMSU=  8.45D-06    CP:  9.99D-01  3.00D+00  1.58D+00  3.00D+00  3.00D+00
                    CP:  3.00D+00  2.64D+00  3.00D+00  1.81D+00  2.89D+00
                    CP:  2.49D+00  1.33D+00  1.83D-01  3.00D+00  5.97D-01
                    CP:  1.29D+00 -4.34D-02 -6.58D-01 -3.00D+00
 E= -2379.36724548058     Delta-E=        0.000012777323 Rises=F Damp=F
 DIIS: error= 2.23D-04 at cycle  20 NSaved=  10.
 NSaved=10 IEnMin= 7 EnMin= -2379.36729519131     IErMin= 3 ErrMin= 1.88D-04
 ErrMax= 2.23D-04  0.00D+00 EMaxC= 1.00D-01 BMatC= 4.52D-06 BMatP= 4.54D-06
 IDIUse=3 WtCom= 9.98D-01 WtEn= 2.08D-03
 Rare condition: small coef for last iteration:  0.000D+00
 Coeff-Com:  0.616D-01 0.414D+00-0.743D+01 0.658D+01 0.891D+00 0.667D+00
 Coeff-Com:  0.651D+00 0.437D+01-0.707D+01 0.186D+01
 Coeff-En:   0.000D+00 0.000D+00 0.000D+00 0.000D+00 0.000D+00 0.000D+00
 Coeff-En:   0.000D+00 0.000D+00 0.000D+00 0.100D+01
 Coeff:      0.616D-01 0.414D+00-0.743D+01 0.658D+01 0.891D+00 0.667D+00
 Coeff:      0.651D+00 0.437D+01-0.707D+01 0.186D+01
 Gap=     0.116 Goal=   None    Shift=    0.000
 Gap=     0.069 Goal=   None    Shift=    0.000
 RMSDP=7.49D-05 MaxDP=3.29D-03 DE= 1.28D-05 OVMax= 0.00D+00

 Cycle  36  Pass 1  IDiag  1:
 Restarting incremental Fock formation.
 E= -2379.36721832160     Delta-E=        0.000027158981 Rises=F Damp=F
 DIIS: error= 2.27D-04 at cycle  21 NSaved=  11.
 NSaved=11 IEnMin= 7 EnMin= -2379.36729519131     IErMin= 3 ErrMin= 1.88D-04
 ErrMax= 2.27D-04  0.00D+00 EMaxC= 1.00D-01 BMatC= 4.57D-06 BMatP= 4.52D-06
 IDIUse=3 WtCom= 9.98D-01 WtEn= 2.08D-03
 Large coefficients: NSaved= 11 BigCof=   19.71 CofMax=   10.00 Det=-2.19D-10
 Inversion failed.  Reducing to 10 matrices.
 Large coefficients: NSaved= 10 BigCof=   18.66 CofMax=   10.00 Det=-2.31D-10
 Inversion failed.  Reducing to  9 matrices.
 Rare condition: small coef for last iteration:  0.000D+00
 Coeff-Com: -0.531D+01 0.571D+01-0.826D+00-0.693D+00 0.272D+00 0.168D+01
 Coeff-Com: -0.335D+01 0.225D+01 0.127D+01
 Coeff-En:   0.000D+00 0.000D+00 0.000D+00 0.000D+00 0.000D+00 0.000D+00
 Coeff-En:   0.000D+00 0.000D+00 0.100D+01
 Coeff:     -0.531D+01 0.571D+01-0.826D+00-0.693D+00 0.272D+00 0.168D+01
 Coeff:     -0.335D+01 0.225D+01 0.127D+01
 Gap=     0.116 Goal=   None    Shift=    0.000
 Gap=     0.069 Goal=   None    Shift=    0.000
 RMSDP=6.11D-05 MaxDP=4.21D-03 DE= 2.72D-05 OVMax= 0.00D+00

 Cycle  37  Pass 1  IDiag  1:
 RMSU=  6.11D-05    CP:  1.00D+00
 E= -2379.36722666006     Delta-E=       -0.000008338458 Rises=F Damp=F
 DIIS: error= 2.12D-04 at cycle  22 NSaved=  10.
 NSaved=10 IEnMin= 5 EnMin= -2379.36729519131     IErMin= 1 ErrMin= 1.88D-04
 ErrMax= 2.12D-04  0.00D+00 EMaxC= 1.00D-01 BMatC= 4.11D-06 BMatP= 4.52D-06
 IDIUse=3 WtCom= 9.98D-01 WtEn= 2.08D-03
 Large coefficients: NSaved= 10 BigCof=   12.71 CofMax=   10.00 Det=-4.71D-10
 Inversion failed.  Reducing to  9 matrices.
 Coeff-Com:  0.640D+00-0.120D+01-0.631D+00-0.752D-01-0.122D+01 0.105D+01
 Coeff-Com:  0.431D+00 0.101D+01 0.991D+00
 Coeff-En:   0.000D+00 0.000D+00 0.000D+00 0.000D+00 0.000D+00 0.000D+00
 Coeff-En:   0.000D+00 0.000D+00 0.100D+01
 Coeff:      0.639D+00-0.120D+01-0.630D+00-0.750D-01-0.122D+01 0.105D+01
 Coeff:      0.430D+00 0.101D+01 0.991D+00
 Gap=     0.116 Goal=   None    Shift=    0.000
 Gap=     0.069 Goal=   None    Shift=    0.000
 RMSDP=4.96D-05 MaxDP=3.25D-03 DE=-8.34D-06 OVMax= 0.00D+00

 Cycle  38  Pass 1  IDiag  1:
 RMSU=  1.93D-05    CP:  1.00D+00  1.75D+00
 E= -2379.36722806945     Delta-E=       -0.000001409398 Rises=F Damp=F
 DIIS: error= 2.01D-04 at cycle  23 NSaved=  10.
 NSaved=10 IEnMin= 4 EnMin= -2379.36729519131     IErMin= 1 ErrMin= 1.88D-04
 ErrMax= 2.01D-04  0.00D+00 EMaxC= 1.00D-01 BMatC= 4.05D-06 BMatP= 4.11D-06
 IDIUse=3 WtCom= 9.98D-01 WtEn= 2.01D-03
 Large coefficients: NSaved= 10 BigCof=   11.03 CofMax=   10.00 Det=-7.82D-10
 Inversion failed.  Reducing to  9 matrices.
 Coeff-Com: -0.257D-01 0.785D+00-0.650D+00-0.614D+01 0.922D+01-0.436D+01
 Coeff-Com: -0.102D+01 0.167D+01 0.152D+01
 Coeff-En:   0.000D+00 0.000D+00 0.000D+00 0.000D+00 0.000D+00 0.000D+00
 Coeff-En:   0.000D+00 0.000D+00 0.100D+01
 Coeff:     -0.257D-01 0.783D+00-0.649D+00-0.613D+01 0.920D+01-0.435D+01
 Coeff:     -0.101D+01 0.166D+01 0.152D+01
 Gap=     0.116 Goal=   None    Shift=    0.000
 Gap=     0.069 Goal=   None    Shift=    0.000
 RMSDP=1.13D-04 MaxDP=7.23D-03 DE=-1.41D-06 OVMax= 0.00D+00

 Cycle  39  Pass 1  IDiag  1:
 RMSU=  3.94D-05    CP:  1.00D+00  3.00D+00  3.00D+00
 E= -2379.36722488132     Delta-E=        0.000003188132 Rises=F Damp=F
 DIIS: error= 1.91D-04 at cycle  24 NSaved=  10.
 NSaved=10 IEnMin= 3 EnMin= -2379.36729519131     IErMin=10 ErrMin= 1.91D-04
 ErrMax= 1.91D-04  0.00D+00 EMaxC= 1.00D-01 BMatC= 4.13D-06 BMatP= 4.05D-06
 IDIUse=3 WtCom= 9.98D-01 WtEn= 1.91D-03
 Large coefficients: NSaved= 10 BigCof=   16.76 CofMax=   10.00 Det=-9.93D-10
 Inversion failed.  Reducing to  9 matrices.
 Rare condition: small coef for last iteration:  0.000D+00
 Coeff-Com:  0.157D-01 0.434D+00-0.562D+00-0.430D+01 0.602D+01-0.301D+01
 Coeff-Com:  0.794D+00 0.932D+00 0.679D+00
 Coeff-En:   0.000D+00 0.000D+00 0.000D+00 0.000D+00 0.000D+00 0.000D+00
 Coeff-En:   0.000D+00 0.000D+00 0.100D+01
 Coeff:      0.157D-01 0.434D+00-0.562D+00-0.430D+01 0.602D+01-0.301D+01
 Coeff:      0.794D+00 0.932D+00 0.679D+00
 Gap=     0.116 Goal=   None    Shift=    0.000
 Gap=     0.069 Goal=   None    Shift=    0.000
 RMSDP=1.01D-04 MaxDP=4.76D-03 DE= 3.19D-06 OVMax= 0.00D+00

 Cycle  40  Pass 1  IDiag  1:
 RMSU=  5.54D-05    CP:  1.00D+00  3.00D+00  3.00D+00  3.00D+00
 E= -2379.36720969807     Delta-E=        0.000015183256 Rises=F Damp=F
 DIIS: error= 1.90D-04 at cycle  25 NSaved=  10.
 NSaved=10 IEnMin= 3 EnMin= -2379.36729519131     IErMin=10 ErrMin= 1.90D-04
 ErrMax= 1.90D-04  0.00D+00 EMaxC= 1.00D-01 BMatC= 3.82D-06 BMatP= 4.05D-06
 IDIUse=3 WtCom= 9.98D-01 WtEn= 1.90D-03
 Rare condition: small coef for last iteration:  0.000D+00
 Coeff-Com: -0.467D-02 0.239D+00-0.757D+00-0.537D+01 0.928D+01-0.395D+01
 Coeff-Com: -0.616D+00 0.227D+00 0.813D+00 0.113D+01
 Coeff-En:   0.000D+00 0.000D+00 0.000D+00 0.000D+00 0.000D+00 0.000D+00
 Coeff-En:   0.000D+00 0.000D+00 0.000D+00 0.100D+01
 Coeff:     -0.467D-02 0.239D+00-0.757D+00-0.537D+01 0.928D+01-0.395D+01
 Coeff:     -0.616D+00 0.227D+00 0.813D+00 0.113D+01
 Gap=     0.116 Goal=   None    Shift=    0.000
 Gap=     0.069 Goal=   None    Shift=    0.000
 RMSDP=1.65D-04 MaxDP=1.12D-02 DE= 1.52D-05 OVMax= 0.00D+00

 Cycle  41  Pass 1  IDiag  1:
 RMSU=  1.56D-04    CP:  1.00D+00  3.00D+00  3.00D+00  3.00D+00  1.96D+00
 E= -2379.36722686703     Delta-E=       -0.000017168964 Rises=F Damp=F
 DIIS: error= 1.85D-04 at cycle  26 NSaved=  11.
 NSaved=11 IEnMin= 3 EnMin= -2379.36729519131     IErMin=11 ErrMin= 1.85D-04
 ErrMax= 1.85D-04  0.00D+00 EMaxC= 1.00D-01 BMatC= 3.14D-06 BMatP= 3.82D-06
 IDIUse=3 WtCom= 9.98D-01 WtEn= 1.85D-03
 Coeff-Com:  0.258D-01 0.350D+00-0.857D-01 0.106D+01-0.751D+00 0.388D-01
 Coeff-Com: -0.855D+00-0.321D+00 0.997D-01 0.474D+00 0.964D+00
 Coeff-En:   0.000D+00 0.000D+00 0.000D+00 0.000D+00 0.000D+00 0.000D+00
 Coeff-En:   0.000D+00 0.000D+00 0.000D+00 0.000D+00 0.100D+01
 Coeff:      0.257D-01 0.349D+00-0.856D-01 0.106D+01-0.750D+00 0.387D-01
 Coeff:     -0.854D+00-0.321D+00 0.995D-01 0.474D+00 0.964D+00
 Gap=     0.116 Goal=   None    Shift=    0.000
 Gap=     0.069 Goal=   None    Shift=    0.000
 RMSDP=6.36D-05 MaxDP=4.27D-03 DE=-1.72D-05 OVMax= 0.00D+00

 Cycle  42  Pass 1  IDiag  1:
 RMSU=  1.75D-05    CP:  1.00D+00  3.00D+00  3.00D+00  3.00D+00  2.12D+00
                    CP:  1.39D+00
 E= -2379.36723807168     Delta-E=       -0.000011204651 Rises=F Damp=F
 DIIS: error= 1.89D-04 at cycle  27 NSaved=  12.
 NSaved=12 IEnMin= 3 EnMin= -2379.36729519131     IErMin=11 ErrMin= 1.85D-04
 ErrMax= 1.89D-04  0.00D+00 EMaxC= 1.00D-01 BMatC= 2.90D-06 BMatP= 3.14D-06
 IDIUse=3 WtCom= 9.98D-01 WtEn= 1.85D-03
 Large coefficients: NSaved= 12 BigCof=   11.00 CofMax=   10.00 Det=-6.48D-10
 Inversion failed.  Reducing to 11 matrices.
 Coeff-Com: -0.323D-01-0.274D+00 0.339D+00 0.328D+01-0.455D+01 0.210D+01
 Coeff-Com: -0.576D+00-0.448D+00-0.249D+00 0.531D+00 0.887D+00
 Coeff-En:   0.000D+00 0.000D+00 0.000D+00 0.000D+00 0.000D+00 0.000D+00
[...]
 869,0.00800766,-0.00014223,-0.00007106,-0.00006565,-0.00018854,-0.0000
 5230,0.00002695,-0.00004878,-0.00000421,0.00000292,-0.00003384,-0.0001
 2900,-0.00003139,-0.02102930,0.00237011,-0.00979069,0.00011102,-0.0001
 4172,0.00042038,-0.00011560,0.00035044,-0.00039924,0.00028046,0.000199
 62,0.00051361,0.00033599,0.00000847,-0.00067347,0.00015179,-0.00064477
 ,0.00085766,-0.00016027,-0.00005261,-0.00040012,0.00186610,-0.00003292
 ,-0.00079548,0.00102655,-0.00087415,-0.00226408,0.00000071,0.00000934,
 0.00002058,0.00002570,0.00003810,0.00003221,0.00001645,0.00003407,-0.0
 0000466,0.00003954,-0.00004687,0.00001858,0.00135088,-0.00567283,0.013
 71689,-0.00270714,0.00701848,-0.00844505,0.00253732,-0.00787447,0.0266
 4561,-0.28973289,0.06090048,0.16007376,-0.06441505,0.02625157,0.033649
 84,0.01030319,0.00392036,-0.01982710,0.00060964,0.00011322,0.00126036,
 0.36048382,0.00125077,0.00004424,-0.00042116,-0.00136551,-0.00076123,0
 .00011796,0.00253371,0.00083782,0.00001182,-0.00311074,-0.00048532,-0.
 00073419,0.00671071,0.00008191,-0.00068825,-0.00261411,-0.00136172,-0.
 00023134,-0.00559378,-0.00746723,0.00694738,0.00057465,0.00320574,0.00
 102999,-0.00012763,-0.00012782,0.00006604,0.00000560,0.00005772,-0.000
 09184,-0.00010880,0.00010705,0.00006265,-0.00003730,0.00006005,-0.0000
 3037,0.00360932,-0.01937815,0.00425658,0.00018548,0.00079024,-0.000224
 68,0.00018988,-0.00062578,0.00063746,0.00000439,0.00057982,-0.00082532
 ,-0.00041694,-0.00173943,0.00154503,-0.00008693,0.00132471,-0.00111585
 ,0.00019290,-0.00052453,0.00042398,-0.00084994,0.00184782,-0.00020004,
 -0.00313700,-0.00091054,-0.00639442,0.00000832,0.00002748,0.00000312,-
 0.00007328,0.00001891,-0.00003114,-0.00002582,0.00002846,0.00004679,-0
 .00009683,0.00011260,-0.00006185,-0.00181161,0.00161282,-0.00232991,0.
 00673709,0.00130263,0.00358142,-0.01493422,0.01181656,0.00697748,0.055
 67507,-0.06770172,-0.02045080,0.02801952,0.00122005,-0.00807835,0.0024
 8742,0.00124371,0.00608393,0.00471440,0.00145121,-0.00524994,-0.076695
 44,0.07733973,0.00277106,-0.00111817,-0.00106426,0.00023854,0.00222434
 ,0.00114225,0.00199261,-0.00169067,-0.00073639,-0.00419050,-0.00171118
 ,-0.00072537,-0.00158690,-0.00055576,-0.00013541,-0.00121977,0.0014037
 0,0.00099506,0.00291616,0.00665421,-0.00536820,0.00472348,0.00612727,-
 0.00529228,0.00026315,0.00012331,0.00010215,0.00028896,0.00011431,-0.0
 0011885,-0.00000212,0.00012652,0.00003277,0.00006268,0.00006493,-0.000
 07528,-0.01034569,-0.00086186,-0.00912618,-0.00047046,-0.00017912,-0.0
 0103401,0.00031150,-0.00081589,0.00071068,-0.00071060,-0.00076314,-0.0
 0203077,0.00054212,-0.00114133,0.00257769,-0.00068376,-0.00093762,-0.0
 0087813,0.00098742,0.00111027,0.00096223,0.00110508,0.00197157,0.00431
 534,-0.00688074,-0.00052039,-0.00989364,-0.00008703,0.00006133,0.00000
 502,-0.00018707,-0.00010498,-0.00017679,-0.00016732,-0.00006513,0.0000
 5366,-0.00010413,0.00011459,-0.00009098,0.00077344,0.00533175,-0.01536
 913,-0.00395808,0.00114198,0.00818859,0.04668244,-0.00155390,-0.051083
 70,0.17435662,-0.02970718,-0.20679602,0.02380756,-0.00298175,-0.011529
 82,-0.01299468,0.00266312,0.01622662,-0.00974111,0.00039329,0.00873511
 ,-0.20885428,0.01879895,0.27521837,-0.00002582,0.00000062,0.00000879,-
 0.00003652,-0.00003921,-0.00000520,-0.00000527,0.00002986,0.00002353,0
 .00005031,0.00011545,0.00002669,0.00020440,-0.00000765,-0.00004023,-0.
 00003031,-0.00005855,-0.00001389,-0.00018615,-0.00009815,0.00000020,-0
 .00015713,-0.00004591,0.00005045,-0.00001270,-0.00001034,0.00000034,-0
 .00001297,-0.00000197,-0.00000010,-0.00000644,0.00000247,-0.00000056,-
 0.00000405,-0.00000309,-0.00000631,0.00028563,0.00006549,-0.00029453,0
 .00004491,0.00007684,0.00005114,0.00000506,-0.00001829,0.00002458,0.00
 003825,0.00008554,0.00004174,-0.00008367,-0.00001065,-0.00019712,-0.00
 004832,-0.00011475,-0.00005662,-0.00002103,-0.00007002,-0.00000982,0.0
 0001310,0.00006070,0.00017618,0.00004304,-0.00000815,0.00019072,0.0000
 0707,0.00000239,0.00001408,0.00000813,0.00001197,0.00001394,0.00000338
 ,0.00000383,0.00000257,0.00000082,-0.00000275,0.00000743,-0.26315321,0
 .06526129,0.14267722,-0.01722511,0.00026679,0.02246541,0.00139183,0.00
 442955,-0.00556601,0.00054378,-0.00082676,0.00009684,0.00264075,0.0016
 7943,-0.00123366,0.00091371,0.00133180,-0.00491014,0.00001170,-0.00002
 271,0.00112477,0.00009158,-0.00022902,-0.00014724,0.27493614,0.0000310
 2,-0.00001361,-0.00001416,-0.00000904,0.00001836,0.00000997,0.00002873
 ,-0.00000973,-0.00000416,-0.00003409,0.00000688,-0.00001035,0.00003484
 ,-0.00000748,0.00000919,-0.00002253,0.00000357,-0.00000123,-0.00000819
 ,0.00002984,-0.00006182,-0.00000474,0.00004480,0.00007405,0.00000305,-
 0.00000063,0.00000336,0.00000238,0.00000249,-0.00000497,0.00000094,0.0
 0000006,0.00000270,-0.00000025,-0.00000031,-0.00000220,0.00016256,-0.0
 0002953,-0.00004241,0.00000268,0.00003010,-0.00001530,0.00000886,-0.00
 003222,0.00002463,0.00000114,0.00000528,-0.00002573,-0.00001369,-0.000
 03560,0.00006119,0.00000084,0.00004284,-0.00002976,0.00000805,-0.00001
 236,0.00000781,-0.00006106,0.00002481,0.00001484,-0.00007467,-0.000069
 19,-0.00001008,-0.00000109,0.00000047,0.00000020,-0.00000249,-0.000000
 92,-0.00000050,-0.00000399,-0.00000201,0.00000224,-0.00000329,0.000002
 96,-0.00000031,0.06452605,-0.05026593,-0.02095571,0.01377868,-0.001789
 26,-0.01471664,0.00287493,0.00321437,0.00491211,-0.00047348,-0.0007484
 3,-0.00006326,0.00235910,0.00282600,0.00332089,-0.01106210,0.00322557,
 0.00623461,-0.00039455,0.00089498,0.00025164,-0.00025501,-0.00033720,-
 0.00015912,-0.06851727,0.04778715,0.00004837,-0.00001767,-0.00001965,0
 .00003168,0.00006032,0.00001857,0.00001802,-0.00004835,-0.00001877,-0.
 00005615,-0.00008187,-0.00003931,-0.00016372,-0.00000464,0.00004705,0.
 00002293,0.00006136,0.00001737,0.00024075,0.00011747,-0.00005908,0.000
 10410,0.00006570,0.00006427,0.00001475,0.00000848,0.00000241,0.0000123
 9,0.00000419,-0.00000537,0.00000718,-0.00000201,0.00000161,0.00000299,
 0.00000199,0.00000145,-0.00082821,0.00018454,0.00037690,-0.00003514,-0
 .00003760,-0.00005234,-0.00000286,-0.00001424,-0.00001608,-0.00001974,
 -0.00006282,-0.00003964,0.00006307,-0.00003748,0.00023569,0.00007964,0
 .00020076,0.00006816,0.00001778,0.00004224,-0.00000593,-0.00002151,-0.
 00007876,-0.00024580,-0.00003544,-0.00010600,-0.00019267,-0.00000913,-
 0.00000226,-0.00001391,-0.00001019,-0.00001179,-0.00001270,-0.00000843
 ,-0.00000805,-0.00000024,-0.00000375,0.00000448,-0.00000666,0.14455525
 ,-0.02184237,-0.16322273,-0.01532142,0.00377909,0.01018328,-0.00116370
 ,0.00281444,0.00008077,-0.00071022,0.00026259,-0.00073823,-0.00330681,
 0.00438861,-0.00265727,0.02986879,-0.01082357,-0.01063542,0.00230807,-
 0.00030985,-0.00150177,0.00007842,-0.00033615,0.00022378,-0.15399399,0
 .02456040,0.16544701,-0.00003033,0.00000671,0.00000917,-0.00001301,-0.
 00002473,-0.00001192,-0.00001999,0.00001374,0.00000956,0.00006580,0.00
 007267,0.00002918,0.00007808,0.00000024,-0.00001770,0.00000790,-0.0000
 2078,-0.00001252,-0.00006249,-0.00006111,0.00006396,-0.00010203,-0.000
 12443,0.00005380,-0.00000585,-0.00000441,-0.00000123,-0.00000737,-0.00
 000200,0.00000005,-0.00000148,-0.00000092,0.00000106,-0.00000192,-0.00
 000436,-0.00000095,-0.00027105,0.00026488,-0.00042989,0.00002055,0.000
 02574,0.00003243,-0.00000470,0.00000336,-0.00001022,0.00002689,0.00003
 588,0.00004512,-0.00001706,0.00000713,-0.00008611,0.00000125,-0.000022
 68,0.00003040,-0.00001664,-0.00003090,-0.00002805,0.00003661,0.0000000
 4,0.00000626,0.00009733,-0.00001619,0.00011208,0.00000100,0.00000082,0
 .00000402,0.00000373,0.00000437,0.00000593,0.00000135,0.00000137,0.000
 00079,0.00000166,-0.00000277,0.00000337,0.00602301,0.00760394,-0.02994
 878,-0.06468514,0.01175139,0.02055254,0.00413467,-0.01186590,0.0276942
 9,-0.00385974,0.00406740,0.00084390,-0.00064326,-0.00017450,0.00012269
 ,-0.00321630,0.00406749,0.00162436,0.00027733,-0.00031431,-0.00009437,
 0.00046465,-0.00053839,0.00176551,0.00032042,-0.00267056,-0.00049596,0
 .06021603,0.00001609,-0.00000720,-0.00000720,-0.00001840,0.00000168,0.
 00000149,0.00002005,-0.00000293,-0.00000448,-0.00002393,0.00003027,0.0
 0002090,0.00006042,-0.00000372,-0.00001658,-0.00002473,-0.00000885,-0.
 00000523,-0.00007745,0.00003213,-0.00000502,-0.00008797,-0.00005891,-0
 .00001301,-0.00000247,-0.00000378,0.00000145,-0.00000310,-0.00000026,-
 0.00000200,-0.00000098,0.00000015,0.00000376,-0.00000047,-0.00000289,-
 0.00000048,-0.00006278,0.00000241,-0.00007467,0.00001481,0.00003031,0.
 00002085,-0.00000266,-0.00000913,0.00000042,0.00001701,0.00003125,0.00
 002878,-0.00000678,-0.00000226,-0.00006302,-0.00000115,-0.00001583,0.0
 0002305,-0.00001143,-0.00002198,-0.00001918,0.00003310,0.00002104,0.00
 007632,0.00005542,-0.00001648,0.00008784,-0.00000017,0.00000139,0.0000
 0502,0.00000223,0.00000402,0.00000511,0.00000008,0.00000011,0.00000115
 ,0.00000150,-0.00000158,0.00000173,-0.00591062,-0.00397299,0.01839888,
 0.01246175,-0.06884920,0.10312029,0.00054021,0.00300728,-0.00886940,0.
 00339828,0.00333975,0.00041526,-0.00040576,-0.00053553,-0.00053725,0.0
 0558734,0.00353057,0.00000958,-0.00016087,-0.00027900,-0.00022213,-0.0
 0022955,0.00070078,-0.00002175,-0.00243595,-0.00357494,-0.00200525,-0.
 01145270,0.06790553,0.00008379,-0.00002948,-0.00002958,0.00002913,0.00
 007679,0.00003100,0.00004846,-0.00005829,-0.00002961,-0.00015252,-0.00
 014131,-0.00004542,-0.00021164,-0.00000503,0.00005497,-0.00000891,0.00
 006505,0.00002441,0.00019644,0.00018657,-0.00022198,0.00009031,0.00017
 267,-0.00008202,0.00001803,0.00001042,0.00000465,0.00001830,0.00000475
 ,-0.00000616,0.00000670,-0.00000041,0.00000104,0.00000287,0.00000236,-
 0.00000030,-0.00016030,-0.00049241,0.00141630,-0.00002491,-0.00001814,
 -0.00005475,0.00000680,-0.00002663,0.00001504,-0.00002609,-0.00005027,
 -0.00007106,0.00005380,-0.00004433,0.00018463,0.00001665,0.00011021,-0
 .00001044,0.00003277,0.00003730,0.00002178,-0.00001579,-0.00000495,-0.
 00002118,-0.00006609,-0.00001377,-0.00021784,-0.00000686,-0.00000006,-
 0.00000974,-0.00001070,-0.00001013,-0.00001191,-0.00000640,-0.00000452
 ,0.00000120,-0.00000497,0.00000604,-0.00000630,0.00779538,-0.00001778,
 -0.01092638,0.01846148,0.10403339,-0.34235413,-0.00685951,0.00820619,-
 0.01338981,0.00257752,-0.00052289,0.00317180,0.00081829,-0.00100041,0.
 00063200,-0.00263712,0.00209033,0.00413832,0.00011460,-0.00010999,-0.0
 0028763,0.00093567,0.00056724,-0.00247148,-0.00115306,-0.00168272,0.00
 079330,-0.01955947,-0.11071942,0.35933623,0.00000751,-0.00000715,-0.00
 000153,0.00001759,0.00001453,0.00000608,0.00000384,-0.00001701,0.00000
 428,-0.00000715,-0.00002451,-0.00002367,-0.00003740,0.00000784,0.00000
 500,0.00001536,0.00001861,0.00000942,0.00011483,-0.00001479,-0.0000162
 6,0.00007845,-0.00000556,0.00003032,0.00000376,0.00000167,0.,0.0000039
 0,0.00000122,-0.00000205,0.00000392,-0.00000122,-0.00000351,0.00000003
 ,-0.00000214,-0.00000214,-0.00000366,0.00023565,-0.00022334,-0.0000077
 4,-0.00001411,-0.00001700,0.00000151,-0.00001039,-0.00000690,0.0000037
 5,-0.00002228,-0.00001358,0.00000448,-0.00000764,0.00007106,0.00002366
 ,0.00005928,0.00003388,0.00001078,0.00001457,-0.00000422,-0.00001256,-
 0.00002183,-0.00006794,-0.00003878,-0.00007538,-0.00001978,-0.00000213
 ,-0.00000145,-0.00000326,-0.00000346,-0.00000403,-0.00000328,-0.000005
 96,-0.00000716,-0.00000010,-0.00000206,0.00000018,0.00000047,0.0005049
 5,-0.00034198,0.00688323,-0.01653478,0.01361759,-0.01857240,-0.2405293
 5,0.13666213,-0.09136351,0.00614581,-0.00386560,0.00504452,0.00094721,
 0.00325055,0.00276312,0.00104503,-0.00065639,-0.00111777,-0.00011819,-
 0.00078380,-0.00054118,-0.00108521,-0.00113501,-0.00071431,-0.00090449
 ,0.00151258,-0.00032925,0.00065911,-0.00192420,-0.00058744,0.24986776,
 0.00003555,-0.00002800,-0.00002859,-0.00004160,0.00001648,0.00001406,0
 .00004278,0.,-0.00000374,-0.00003194,0.00011429,0.00000237,0.00019926,
 -0.00003739,-0.00001483,-0.00006560,-0.00001836,-0.00002830,-0.0001270
 0,0.00003020,-0.00018660,-0.00010579,0.00001999,0.00015292,-0.00000022
 ,-0.00000672,0.00000941,-0.00000218,0.00000361,-0.00001031,-0.00000151
 ,0.00000042,0.00000663,-0.00000164,-0.00000290,-0.00000447,0.00083925,
 0.00018665,0.00007460,0.00002219,0.00008130,-0.00000729,0.00001793,-0.
 00006806,0.00004939,0.00002033,0.00004567,-0.00003716,-0.00007428,-0.0
 0008591,0.00006668,0.00000259,0.00004115,-0.00005836,0.00000558,-0.000
 04494,0.00001321,-0.00010159,0.00012489,0.00008726,-0.00026164,-0.0001
 4391,0.00006267,0.00000285,0.00000154,0.00000613,-0.00000267,0.0000040
 5,0.00000477,-0.00000719,-0.00000390,0.00000466,-0.00000789,0.00000495
 ,0.00000318,0.00084400,0.00489918,-0.00109535,0.00130460,-0.00435429,0
 .00453000,0.13666431,-0.12004339,0.07738315,0.00809540,-0.00208557,0.0
 0010843,0.00246427,0.00714484,0.00336467,-0.00097212,-0.00082992,0.000
 61062,-0.00061438,-0.00186913,0.00010814,-0.00095916,-0.00273389,-0.00
 260829,0.00101371,0.00122713,0.00059474,-0.00174531,-0.00240051,-0.001
 42174,-0.14624644,0.12146222,0.00002146,-0.00001712,-0.00000548,0.0000
 3949,0.00004261,0.00001842,-0.00000154,-0.00004684,0.00000634,-0.00001
 984,-0.00005661,-0.00004121,-0.00014134,0.00000527,0.00002282,0.000038
 54,0.00004609,0.00002565,0.00023665,0.00003030,-0.00005638,0.00010916,
 0.00001863,0.00002705,0.00000860,0.00000416,-0.00000004,0.00000692,0.0
 0000232,-0.00000299,0.00000653,-0.00000120,-0.00000612,0.00000116,-0.0
 0000191,-0.00000323,-0.00088332,0.00023617,0.00073768,-0.00001654,-0.0
 0002604,-0.00003070,-0.00000185,-0.00001318,-0.00001308,-0.00000180,-0
 .00003878,-0.00002395,0.00002924,-0.00002220,0.00012883,0.00004270,0.0
 0011847,0.00005515,0.00001532,0.00002699,-0.00000673,0.00000873,-0.000
 05703,-0.00013270,-0.00000695,-0.00009255,-0.00009063,-0.00000437,-0.0
 0000220,-0.00000731,-0.00000647,-0.00000727,-0.00000700,-0.00000780,-0
 .00001005,-0.00000044,-0.00000326,0.00000139,-0.00000151,0.00345627,0.
 00062144,-0.00158788,0.01669029,-0.01262661,0.01053949,-0.09220047,0.0
 7768565,-0.11877323,-0.02829567,0.01643563,-0.00572265,0.00466210,0.00
 244487,-0.00369704,0.00009737,0.00003317,-0.00128339,-0.00159110,0.000
 61055,-0.00163845,-0.00100505,-0.00237266,0.00408979,0.00107801,-0.000
 11053,0.00072449,-0.00110564,-0.00113085,0.00097258,0.09908134,-0.0815
 4717,0.11561925,-0.00002101,-0.00002021,0.00000203,-0.00001749,-0.0000
 0635,0.00000594,-0.00001745,-0.00000478,0.00002714,0.00009946,0.000161
 83,0.00000301,0.00013232,-0.00003325,-0.00002873,0.00000897,-0.0000220
 6,-0.00000378,-0.00003470,-0.00001081,-0.00002910,-0.00017318,-0.00007
 834,0.00019617,-0.00000495,-0.00000857,0.00000368,-0.00000986,0.000000
 47,-0.00000739,-0.00000096,-0.00000050,0.00000047,-0.00000600,-0.00000
 901,-0.00001238,-0.00015183,0.00035105,-0.00071764,0.00006749,0.000107
 18,0.00006260,0.00000376,-0.00004746,0.00000026,0.00008677,0.00010352,
 0.00006268,-0.00011083,-0.00005025,-0.00010929,0.00000635,-0.00000249,
 0.00004011,-0.00001543,-0.00009831,-0.00006586,0.00005472,0.00002597,0
 .00011222,0.00006882,-0.00013739,0.00022908,0.00000289,0.00000222,0.00
 000772,0.00000230,0.00000748,0.00001145,-0.00000774,-0.00000450,0.0000
 0646,-0.00000899,-0.00000169,0.00001285,0.00242664,-0.00377231,0.00464
 498,0.00356314,0.00005610,0.00170692,-0.00100930,-0.00045050,0.0011775
 0,0.00051972,0.00258679,0.00530067,-0.01390250,0.01330475,-0.01579870,
 -0.25055657,0.14003495,-0.08622756,0.00237417,-0.00187981,-0.00320825,
 -0.00209580,0.00008907,-0.00054249,0.00035919,-0.00172433,-0.00095857,
 0.00052100,0.00063585,0.00018479,-0.00017033,-0.00020442,-0.00033684,0
 .25801720,0.00002758,-0.00002089,-0.00001306,-0.00000013,0.00002959,0.
 00001013,0.00001550,-0.00001873,-0.00000584,-0.00001504,0.00000598,-0.
 00000804,-0.00002092,-0.00002116,0.00000470,-0.00000988,0.00001833,-0.
 00000295,0.00003289,0.00017260,-0.00018917,-0.00006414,0.00009362,0.00
 006684,0.00000549,-0.00000035,0.00000585,0.00000358,0.00000278,-0.0000
 0625,0.00000292,-0.00000152,0.00000353,-0.00000065,-0.00000269,-0.0000
 0351,0.00016932,-0.00037019,0.00032941,-0.00000784,0.00002772,-0.00002
 894,-0.00000090,-0.00004178,0.00003380,-0.00002502,-0.00000393,-0.0000
 3239,0.00001406,-0.00003420,0.00008932,0.00002160,0.00007318,-0.000002
 61,0.00000189,0.00000592,0.00001913,-0.00004005,0.00004699,0.00004356,
 -0.00005752,-0.00001839,0.00001851,0.00000046,-0.00000015,0.00000135,-
 0.00000353,-0.00000069,-0.00000015,-0.00000020,-0.00000549,0.00000006,
 -0.00000259,0.00000229,-0.00000063,0.00865856,-0.00594777,-0.00059145,
 -0.00110593,0.00457416,0.00245795,-0.00011820,-0.00062871,-0.00123587,
 0.00336993,0.00724614,0.00199910,0.00146285,-0.00018914,0.00409160,0.1
 3968335,-0.12014245,0.07155473,-0.00192741,-0.00275442,-0.00022483,-0.
 00019705,-0.00165751,-0.00092820,-0.00191657,-0.00245832,-0.00132067,0
 .00114976,0.00112930,0.00080539,-0.00020632,-0.00065176,-0.00018295,-0
 .14889987,0.12154164,0.00002695,-0.00001691,-0.00001137,0.00000411,0.0
 0002881,0.00001222,0.00001523,-0.00002212,-0.00000512,-0.00002281,-0.0
 0000091,-0.00001148,-0.00003205,-0.00001523,0.00000566,-0.00000315,0.0
 0002069,0.00000682,0.00003761,0.00009106,-0.00008634,-0.00000674,0.000
 04943,0.00004880,0.00000474,0.00000064,0.00000337,0.00000310,0.0000024
 8,-0.00000460,0.00000226,-0.00000052,0.00000214,0.00000008,-0.00000055
 ,-0.00000249,-0.00015902,-0.00015538,0.00049825,-0.00000488,0.00001121
 ,-0.00001821,0.00000363,-0.00002340,0.00001450,-0.00000677,-0.00000624
 ,-0.00002449,0.00000554,-0.00002164,0.00008059,0.00001228,0.00004804,-
 0.00000017,0.00000613,0.00000515,0.00001016,-0.00002343,0.00002586,0.0
 0001425,-0.00004937,-0.00003376,-0.00001171,-0.00000073,-0.00000003,0.
 00000008,-0.00000326,-0.00000095,-0.00000105,-0.00000361,-0.00000332,0
 .00000089,-0.00000295,0.00000224,-0.00000064,-0.03029306,0.01645286,-0
 .00656710,0.00499983,0.00083155,-0.00431716,0.00019728,-0.00073336,0.0
 0067534,0.00313316,0.00304125,-0.00322288,0.01745333,-0.01228230,0.012
 49921,-0.08545554,0.07135800,-0.10993860,-0.00286152,-0.00031629,0.001
 04532,0.00072794,-0.00128956,0.00041757,-0.00044614,-0.00157886,0.0011
 9750,-0.00120768,0.00149505,-0.00055149,-0.00029831,-0.00020551,0.0001
 6458,0.09424785,-0.07675746,0.10807766\\-0.00000044,-0.00000002,0.0000
 0099,0.00000033,0.00000114,0.00000024,-0.00000004,-0.00000063,-0.00000
 034,-0.00000078,-0.00000125,0.00000102,0.00000247,0.00000011,-0.000002
 27,0.00000103,-0.00000097,-0.00000010,-0.00000229,0.00000034,0.0000022
 3,-0.00000062,0.00000125,0.00000374,0.00000004,-0.00000015,-0.00000019
 ,-0.00000012,-0.00000013,0.00000004,-0.00000007,0.00000009,0.00000014,
 0.00000015,-0.00000040,-0.00000018,-0.00000456,-0.00000421,0.00000369,
 -0.00000119,0.00000207,0.00000022,0.00000075,-0.00000133,0.00000066,0.
 00000066,0.00000139,-0.00000067,-0.00000106,0.00000014,-0.00000020,0.0
 0000151,-0.00000004,0.00000100,-0.00000081,0.00000060,0.00000054,0.000
 00216,0.00000009,-0.00000734,-0.00000184,-0.00000072,-0.00000306,0.000
 00031,0.00000052,0.,0.00000011,0.00000053,0.00000018,-0.00000018,0.000
 00038,-0.00000008,-0.00000011,0.00000007,-0.00000018,0.00000503,-0.000
 00145,0.00000193,0.00000043,0.00000074,-0.00000316,-0.00000291,-0.0000
 0078,0.00000070,0.00000482,-0.00000330,0.00000135,-0.00000593,0.000003
 85,-0.00000520,-0.00000199,-0.00000034,0.00000436,0.00000252,0.0000007
 0,0.00000241,0.00000162,0.00000183,-0.00000085,0.00000077,-0.00000013,
 -0.00000072,0.00000004,0.00000003,-0.00000063,0.00000021,-0.00000020,0
 .00000004,0.,0.00000020,-0.00000034\\\@
 The archive entry for this job was punched.


 We're simply so accustomed to the marvels of everyday thought
 that we never wonder about it.
 -- Marvin Minsky in "Why people think computers are smart"
 Job cpu time:       0 days  0 hours 29 minutes 30.3 seconds.
 Elapsed time:       0 days  0 hours  0 minutes 16.7 seconds.
 File lengths (MBytes):  RWF=    244 Int=      0 D2E=      0 Chk=     32 Scr=      1
 Normal termination of Gaussian 16 at Thu Sep 26 10:52:36 2024.
