 Entering Gaussian System, Link 0=g16
 Input=deferipronate_red_low_spin.com
 Output=deferipronate_red_low_spin.log
 Initial command:
 /gpfs/fs1/soft/improv/software/custom-built/gaussian/g16/l1.exe "/scratch/Gau-1240565.inp" -scrdir="/scratch/"
 Default CPUs for threads: 0-127
 Default linda workers: i368.lcrc.anl.gov
 Default is to use 128 SMP processors on each worker.
 Entering Link 1 = /gpfs/fs1/soft/improv/software/custom-built/gaussian/g16/l1.exe PID=   1240566.
  
 Copyright (c) 1988-2021, Gaussian, Inc.  All Rights Reserved.
  
 This is part of the Gaussian(R) 16 program.  It is based on
 the Gaussian(R) 09 system (copyright 2009, Gaussian, Inc.),
 the Gaussian(R) 03 system (copyright 2003, Gaussian, Inc.),
 the Gaussian(R) 98 system (copyright 1998, Gaussian, Inc.),
 the Gaussian(R) 94 system (copyright 1995, Gaussian, Inc.),
 the Gaussian 92(TM) system (copyright 1992, Gaussian, Inc.),
 the Gaussian 90(TM) system (copyright 1990, Gaussian, Inc.),
 the Gaussian 88(TM) system (copyright 1988, Gaussian, Inc.),
 the Gaussian 86(TM) system (copyright 1986, Carnegie Mellon
 University), and the Gaussian 82(TM) system (copyright 1983,
 Carnegie Mellon University). Gaussian is a federally registered
 trademark of Gaussian, Inc.
  
 This software contains proprietary and confidential information,
 including trade secrets, belonging to Gaussian, Inc.
  
 This software is provided under written license and may be
 used, copied, transmitted, or stored only in accord with that
 written license.
  
 The following legend is applicable only to US Government
 contracts under FAR:
  
                    RESTRICTED RIGHTS LEGEND
  
 Use, reproduction and disclosure by the US Government is
 subject to restrictions as set forth in subparagraphs (a)
 and (c) of the Commercial Computer Software - Restricted
 Rights clause in FAR 52.227-19.
  
 Gaussian, Inc.
 340 Quinnipiac St., Bldg. 40, Wallingford CT 06492
  
  
 ---------------------------------------------------------------
 Warning -- This program may not be used in any manner that
 competes with the business of Gaussian, Inc. or will provide
 assistance to any competitor of Gaussian, Inc.  The licensee
 of this program is prohibited from giving any competitor of
 Gaussian, Inc. access to this program.  By using this program,
 the user acknowledges that Gaussian, Inc. is engaged in the
 business of creating and licensing software in the field of
 computational chemistry and represents and warrants to the
 licensee that it is not a competitor of Gaussian, Inc. and that
 it will not use this program in any manner prohibited above.
 ---------------------------------------------------------------
  

 Cite this work as:
 Gaussian 16, Revision C.02,
 M. J. Frisch, G. W. Trucks, H. B. Schlegel, G. E. Scuseria, 
 M. A. Robb, J. R. Cheeseman, G. Scalmani, V. Barone, 
 G. A. Petersson, H. Nakatsuji, X. Li, M. Caricato, A. V. Marenich, 
 J. Bloino, B. G. Janesko, R. Gomperts, B. Mennucci, H. P. Hratchian, 
 J. V. Ortiz, A. F. Izmaylov, J. L. Sonnenberg, D. Williams-Young, 
 F. Ding, F. Lipparini, F. Egidi, J. Goings, B. Peng, A. Petrone, 
 T. Henderson, D. Ranasinghe, V. G. Zakrzewski, J. Gao, N. Rega, 
 G. Zheng, W. Liang, M. Hada, M. Ehara, K. Toyota, R. Fukuda, 
 J. Hasegawa, M. Ishida, T. Nakajima, Y. Honda, O. Kitao, H. Nakai, 
 T. Vreven, K. Throssell, J. A. Montgomery, Jr., J. E. Peralta, 
 F. Ogliaro, M. J. Bearpark, J. J. Heyd, E. N. Brothers, K. N. Kudin, 
 V. N. Staroverov, T. A. Keith, R. Kobayashi, J. Normand, 
 K. Raghavachari, A. P. Rendell, J. C. Burant, S. S. Iyengar, 
 J. Tomasi, M. Cossi, J. M. Millam, M. Klene, C. Adamo, R. Cammi, 
 J. W. Ochterski, R. L. Martin, K. Morokuma, O. Farkas, 
 J. B. Foresman, and D. J. Fox, Gaussian, Inc., Wallingford CT, 2019.
 
 ******************************************
 Gaussian 16:  ES64L-G16RevC.02  7-Dec-2021
                26-Sep-2024 
 ******************************************
 %chk=deferipronate_red_low_spin.chk
 SetSPE:  set environment variable "OMP_PROC_BIND" = "true"
 SetSPE:  set environment variable "OMP_PLACES" = "{0},{1},{2},{3},{4},{5},{6},{7},{8},{9},{10},{11},{12},{13},{14},{15},{16},{17},{18},{19},{20},{21},{22},{23},{24},{25},{26},{27},{28},{29},{30},{31},{32},{33},{34},{35},{36},{37},{38},{39},{40},{41},{42},{43},{44},{45},{46},{47},{48},{49},{50},{51},{52},{53},{54},{55},{56},{57},{58},{59},{60},{61},{62},{63},{64},{65},{66},{67},{68},{69},{70},{71},{72},{73},{74},{75},{76},{77},{78},{79},{80},{81},{82},{83},{84},{85},{86},{87},{88},{89},{90},{91},{92},{93},{94},{95},{96},{97},{98},{99},{100},{101},{102},{103},{104},{105},{106},{107},{108},{109},{110},{111},{112},{113},{114},{115},{116},{117},{118},{119},{120},{121},{122},{123},{124},{125},{126},{127}"
 SetLPE:    new flags="-opt 'Tsnet.Node.lindarsharg: ssh'  -nodelist 'i368.lcrc.anl.gov' -env GAUSS_MDEF=13421772800 -env GAUSS_EXEDIR="/gpfs/fs1/soft/improv/software/custom-built/gaussian/g16/bsd:/gpfs/fs1/soft/improv/software/custom-built/gaussian/g16" -env "OMP_PROC_BIND=true" -env "OMP_PLACES={0},{1},{2},{3},{4},{5},{6},{7},{8},{9},{10},{11},{12},{13},{14},{15},{16},{17},{18},{19},{20},{21},{22},{23},{24},{25},{26},{27},{28},{29},{30},{31},{32},{33},{34},{35},{36},{37},{38},{39},{40},{41},{42},{43},{44},{45},{46},{47},{48},{49},{50},{51},{52},{53},{54},{55},{56},{57},{58},{59},{60},{61},{62},{63},{64},{65},{66},{67},{68},{69},{70},{71},{72},{73},{74},{75},{76},{77},{78},{79},{80},{81},{82},{83},{84},{85},{86},{87},{88},{89},{90},{91},{92},{93},{94},{95},{96},{97},{98},{99},{100},{101},{102},{103},{104},{105},{106},{107},{108},{109},{110},{111},{112},{113},{114},{115},{116},{117},{118},{119},{120},{121},{122},{123},{124},{125},{126},{127}" -env GAUSS_ADEF="0,1,2,3,4,5,6,7,8,9,10,11,12,13,14,15,16,17,18,19,20,21,22,23,24,25,26,27,28,29,30,31,32,33,34,35,36,37,38,39,40,41,42,43,44,45,46,47,48,49,50,51,52,53,54,55,56,57,58,59,60,61,62,63,64,65,66,67,68,69,70,71,72,73,74,75,76,77,78,79,80,81,82,83,84,85,86,87,88,89,90,91,92,93,94,95,96,97,98,99,100,101,102,103,104,105,106,107,108,109,110,111,112,113,114,115,116,117,118,119,120,121,122,123,124,125,126,127""
 Will use up to    1 processors via Linda.
 ----------------------------------------------------------------------
 #p B3LYP empiricaldispersion=gd3 opt=(cartesian,calcall,maxcycles=500)
  freq scf=(maxcycles=500,xqc,maxconventional=50)
 ----------------------------------------------------------------------
 1/6=500,10=4,18=10,26=3,38=1/1,3;
 2/12=2,17=6,18=5,29=2,40=1/2;
 3/11=2,25=1,30=1,71=2,74=-5,124=31,140=1/1,2,3;
 4//1;
 5/5=2,7=500,8=3,13=1,38=5,85=50/2,8;
 8/6=4,10=90,11=11/1;
 11/6=1,8=1,9=11,15=111,16=1/1,2,10;
 10/6=1/2;
 6/7=2,8=2,9=2,10=2,18=1,28=1/1;
 7/7=1,10=1,25=1/1,2,3,16;
 1/6=500,10=4,18=10,26=3/3(3);
 2/29=1/2;
 7/7=1,8=1,9=1,25=1,44=-1/16;
 99/12=1/99;
 2/29=1/2;
 3/11=2,25=1,30=1,71=2,74=-5,124=31,140=1/1,2,3;
 4/5=5,16=3,69=1/1;
 5/5=2,7=500,8=3,13=1,38=5,85=50/2,8;
 8/6=4,10=90,11=11/1;
 11/6=1,8=1,9=11,15=111,16=1/1,2,10;
 10/6=1/2;
 7/7=1,10=1,25=1/1,2,3,16;
 1/6=500,10=4,18=10,26=3/3(-8);
 2/29=1/2;
 6/7=2,8=2,9=2,10=2,18=1,19=2,28=1/1;
 7/7=1,8=1,9=1,25=1,44=-1/16;
 99/12=1/99;
 Leave Link    1 at Thu Sep 26 10:45:32 2024, MaxMem=           0 cpu:               1.8 elap:               0.0
 (Enter /gpfs/fs1/soft/improv/software/custom-built/gaussian/g16/l101.exe)
 -------------------------------
 deferipronate red low_spin spin
 -------------------------------
 Symbolic Z-matrix:
 Charge = -1 Multiplicity = 1
 C                    -0.39327   0.42673  -0.42365 
 C                     0.82883   1.02258  -0.45076 
 C                     2.13035   0.30432  -0.26602 
 O                     3.14939   1.02194  -0.38204 
 C                     2.10132  -1.15948   0.05099 
 C                     0.88082  -1.70983   0.19488 
 N                    -0.27167  -1.01192  -0.01721 
 C                    -1.53058  -1.74262   0.15769 
 O                     0.97347   2.24176  -0.63902 
 H                    -1.05588   1.21662  -0.71036 
 H                    -0.55592   0.0065   -1.39257 
 H                    -0.78529   0.61746   0.55572 
 H                     2.99875  -1.73277   0.16471 
 H                     0.81167  -2.73403   0.48156 
 H                    -1.82145  -2.18573  -0.77223 
 H                    -1.39505  -2.50738   0.89101 
 H                    -2.29363  -1.0654    0.48228 
 Fe                    2.70465   2.7955   -0.44541 
 C                     3.70333   2.97111   3.33848 
 C                     3.54582   2.94489   1.99687 
 C                     4.73194   3.07769   1.11781 
 O                     4.45258   3.25862  -0.08924 
 C                     6.10695   2.94922   1.76396 
 C                     6.10853   2.40678   3.01695 
 N                     4.92688   2.17999   3.65855 
 C                     4.85778   1.13948   4.69899 
 O                     2.47321   2.84191   1.37577 
 H                     2.90195   3.58651   3.69313 
 H                     3.16947   2.14023   3.75067 
 H                     4.30653   3.83662   3.524 
 H                     7.00708   3.22813   1.25935 
 H                     7.03466   2.13736   3.4853 
 H                     4.59363   0.20148   4.25301 
 H                     5.81121   1.04996   5.17562 
 H                     4.11868   1.41016   5.4228 
 C                     1.25899   5.80747  -2.49423 
 C                     1.85439   4.72912  -1.93093 
 C                     2.40166   3.67156  -2.82098 
 O                     3.051     2.7939   -2.2472 
 C                     2.08813   3.73232  -4.29772 
 C                     1.03304   4.51367  -4.62186 
 N                     0.47104   5.31493  -3.67467 
 C                    -0.94176   5.70321  -3.84034 
 O                     2.03372   4.49396  -0.71153 
 H                     1.59795   6.63783  -1.91047 
 H                     1.96942   6.15677  -3.21242 
 H                     0.30673   5.94413  -2.02394 
 H                     2.63256   3.16483  -5.02353 
 H                     0.6266    4.47603  -5.61048 
 H                    -1.00381   6.59727  -4.42597 
 H                    -1.47264   4.91527  -4.33882 
 H                    -1.37725   5.87304  -2.87897 
 
 ITRead=  0  0  0  0  0  0  0  0  0  0  0  0  0  0  0  0  0  0  0  0
 ITRead=  0  0  0  0  0  0  0  0  0  0  0  0  0  0  0  0  0  0  0  0
 ITRead=  0  0  0  0  0  0  0  0  0  0  0  0
 MicOpt= -1 -1 -1 -1 -1 -1 -1 -1 -1 -1 -1 -1 -1 -1 -1 -1 -1 -1 -1 -1
 MicOpt= -1 -1 -1 -1 -1 -1 -1 -1 -1 -1 -1 -1 -1 -1 -1 -1 -1 -1 -1 -1
 MicOpt= -1 -1 -1 -1 -1 -1 -1 -1 -1 -1 -1 -1
 NAtoms=     52 NQM=       52 NQMF=       0 NMMI=      0 NMMIF=      0
                NMic=       0 NMicF=      0.
                    Isotopes and Nuclear Properties:
 (Nuclear quadrupole moments (NQMom) in fm**2, nuclear magnetic moments (NMagM)
  in nuclear magnetons)

  Atom         1           2           3           4           5           6           7           8           9          10
 IAtWgt=          12          12          12          16          12          12          14          12          16           1
 AtmWgt=  12.0000000  12.0000000  12.0000000  15.9949146  12.0000000  12.0000000  14.0030740  12.0000000  15.9949146   1.0078250
 NucSpn=           0           0           0           0           0           0           2           0           0           1
 AtZEff=  -0.0000000  -0.0000000  -0.0000000  -0.0000000  -0.0000000  -0.0000000  -0.0000000  -0.0000000  -0.0000000  -0.0000000
 NQMom=    0.0000000   0.0000000   0.0000000   0.0000000   0.0000000   0.0000000   2.0440000   0.0000000   0.0000000   0.0000000
 NMagM=    0.0000000   0.0000000   0.0000000   0.0000000   0.0000000   0.0000000   0.4037610   0.0000000   0.0000000   2.7928460
 AtZNuc=   6.0000000   6.0000000   6.0000000   8.0000000   6.0000000   6.0000000   7.0000000   6.0000000   8.0000000   1.0000000

  Atom        11          12          13          14          15          16          17          18          19          20
 IAtWgt=           1           1           1           1           1           1           1          56          12          12
 AtmWgt=   1.0078250   1.0078250   1.0078250   1.0078250   1.0078250   1.0078250   1.0078250  55.9349393  12.0000000  12.0000000
 NucSpn=           1           1           1           1           1           1           1           0           0           0
 AtZEff=  -0.0000000  -0.0000000  -0.0000000  -0.0000000  -0.0000000  -0.0000000  -0.0000000  -0.0000000  -0.0000000  -0.0000000
 NQMom=    0.0000000   0.0000000   0.0000000   0.0000000   0.0000000   0.0000000   0.0000000   0.0000000   0.0000000   0.0000000
 NMagM=    2.7928460   2.7928460   2.7928460   2.7928460   2.7928460   2.7928460   2.7928460   0.0000000   0.0000000   0.0000000
 AtZNuc=   1.0000000   1.0000000   1.0000000   1.0000000   1.0000000   1.0000000   1.0000000  26.0000000   6.0000000   6.0000000

  Atom        21          22          23          24          25          26          27          28          29          30
 IAtWgt=          12          16          12          12          14          12          16           1           1           1
 AtmWgt=  12.0000000  15.9949146  12.0000000  12.0000000  14.0030740  12.0000000  15.9949146   1.0078250   1.0078250   1.0078250
 NucSpn=           0           0           0           0           2           0           0           1           1           1
 AtZEff=  -0.0000000  -0.0000000  -0.0000000  -0.0000000  -0.0000000  -0.0000000  -0.0000000  -0.0000000  -0.0000000  -0.0000000
 NQMom=    0.0000000   0.0000000   0.0000000   0.0000000   2.0440000   0.0000000   0.0000000   0.0000000   0.0000000   0.0000000
 NMagM=    0.0000000   0.0000000   0.0000000   0.0000000   0.4037610   0.0000000   0.0000000   2.7928460   2.7928460   2.7928460
 AtZNuc=   6.0000000   8.0000000   6.0000000   6.0000000   7.0000000   6.0000000   8.0000000   1.0000000   1.0000000   1.0000000

  Atom        31          32          33          34          35          36          37          38          39          40
 IAtWgt=           1           1           1           1           1          12          12          12          16          12
 AtmWgt=   1.0078250   1.0078250   1.0078250   1.0078250   1.0078250  12.0000000  12.0000000  12.0000000  15.9949146  12.0000000
 NucSpn=           1           1           1           1           1           0           0           0           0           0
 AtZEff=  -0.0000000  -0.0000000  -0.0000000  -0.0000000  -0.0000000  -0.0000000  -0.0000000  -0.0000000  -0.0000000  -0.0000000
 NQMom=    0.0000000   0.0000000   0.0000000   0.0000000   0.0000000   0.0000000   0.0000000   0.0000000   0.0000000   0.0000000
 NMagM=    2.7928460   2.7928460   2.7928460   2.7928460   2.7928460   0.0000000   0.0000000   0.0000000   0.0000000   0.0000000
 AtZNuc=   1.0000000   1.0000000   1.0000000   1.0000000   1.0000000   6.0000000   6.0000000   6.0000000   8.0000000   6.0000000

  Atom        41          42          43          44          45          46          47          48          49          50
 IAtWgt=          12          14          12          16           1           1           1           1           1           1
 AtmWgt=  12.0000000  14.0030740  12.0000000  15.9949146   1.0078250   1.0078250   1.0078250   1.0078250   1.0078250   1.0078250
 NucSpn=           0           2           0           0           1           1           1           1           1           1
 AtZEff=  -0.0000000  -0.0000000  -0.0000000  -0.0000000  -0.0000000  -0.0000000  -0.0000000  -0.0000000  -0.0000000  -0.0000000
 NQMom=    0.0000000   2.0440000   0.0000000   0.0000000   0.0000000   0.0000000   0.0000000   0.0000000   0.0000000   0.0000000
 NMagM=    0.0000000   0.4037610   0.0000000   0.0000000   2.7928460   2.7928460   2.7928460   2.7928460   2.7928460   2.7928460
 AtZNuc=   6.0000000   7.0000000   6.0000000   8.0000000   1.0000000   1.0000000   1.0000000   1.0000000   1.0000000   1.0000000

  Atom        51          52
 IAtWgt=           1           1
 AtmWgt=   1.0078250   1.0078250
 NucSpn=           1           1
 AtZEff=  -0.0000000  -0.0000000
 NQMom=    0.0000000   0.0000000
 NMagM=    2.7928460   2.7928460
 AtZNuc=   1.0000000   1.0000000
 Leave Link  101 at Thu Sep 26 10:45:32 2024, MaxMem= 13421772800 cpu:               0.4 elap:               0.1
 (Enter /gpfs/fs1/soft/improv/software/custom-built/gaussian/g16/l103.exe)

 GradGradGradGradGradGradGradGradGradGradGradGradGradGradGradGradGradGrad
 Berny optimization.
 Initialization pass.
 No Z-matrix variables, so optimization will use Cartesian coordinates.
 Trust Radius=3.00D-01 FncErr=1.00D-07 GrdErr=1.00D-06 EigMax=2.50D+02 EigMin=1.00D-04
 Number of steps in this run=    312 maximum allowed number of steps=    312.
 GradGradGradGradGradGradGradGradGradGradGradGradGradGradGradGradGradGrad

 Leave Link  103 at Thu Sep 26 10:45:32 2024, MaxMem= 13421772800 cpu:               0.4 elap:               0.0
 (Enter /gpfs/fs1/soft/improv/software/custom-built/gaussian/g16/l202.exe)
 Stoichiometry    C18H24FeN3O6(1-)
 Framework group  C1[X(C18H24FeN3O6)]
 Deg. of freedom   150
 Full point group                 C1      NOp   1
 Largest Abelian subgroup         C1      NOp   1
 Largest concise Abelian subgroup C1      NOp   1
                         Standard orientation:                         
 ---------------------------------------------------------------------
 Center     Atomic      Atomic             Coordinates (Angstroms)
 Number     Number       Type             X           Y           Z
 ---------------------------------------------------------------------
      1          6           0       -0.654594    3.202999   -0.677658
      2          6           0       -0.316589    1.991578   -0.160448
      3          6           0        0.715584    1.778485    0.904065
      4          8           0        0.841006    0.593295    1.286791
      5          6           0        1.497661    2.960322    1.389517
      6          6           0        1.236719    4.133040    0.781355
      7          7           0        0.261079    4.272931   -0.161435
      8          6           0        0.073526    5.612334   -0.727278
      9          8           0       -0.850278    0.933738   -0.533181
     10          1           0       -1.491150    2.975287   -1.304955
     11          1           0       -1.349157    3.648245    0.001456
     12          1           0       -0.130114    3.274933   -1.609842
     13          1           0        2.227411    2.875829    2.168812
     14          1           0        1.812492    4.988579    1.050605
     15          1           0       -0.642346    6.152611   -0.143036
     16          1           0        1.006706    6.132038   -0.719098
     17          1           0       -0.281183    5.527547   -1.733868
     18         26           0       -0.078658   -0.553455    0.197532
     19          6           0        3.349999   -1.341651   -1.525548
     20          6           0        2.214374   -1.209386   -0.805651
     21          6           0        2.027218   -2.019122    0.421767
     22          8           0        0.864234   -1.980427    0.884055
     23          6           0        3.243736   -2.752853    0.975298
     24          6           0        4.445487   -2.336261    0.478825
     25          7           0        4.480144   -1.451292   -0.557993
     26          6           0        5.663447   -0.592010   -0.735194
     27          8           0        1.247358   -0.473412   -1.070412
     28          1           0        3.024003   -1.354384   -2.545481
     29          1           0        3.733430   -0.361989   -1.721791
     30          1           0        3.463613   -2.398057   -1.661465
     31          1           0        3.165305   -3.511513    1.724250
     32          1           0        5.359145   -2.684902    0.918532
     33          1           0        5.529973    0.321202   -0.190440
     34          1           0        6.529956   -1.100772   -0.368400
     35          1           0        5.789448   -0.371669   -1.773949
     36          6           0       -3.517464   -2.061243   -0.925308
     37          6           0       -2.385157   -1.566223   -0.370818
     38          6           0       -2.443108   -1.040962    1.018739
     39          8           0       -1.351240   -0.738725    1.506214
     40          6           0       -3.792952   -0.882459    1.678695
     41          6           0       -4.842674   -0.866463    0.826288
     42          7           0       -4.651071   -1.178992   -0.485447
     43          6           0       -5.598507   -0.635749   -1.476131
     44          8           0       -1.239727   -1.501535   -0.878960
     45          1           0       -3.198591   -2.935294   -1.454004
     46          1           0       -3.882556   -2.759177   -0.202745
     47          1           0       -3.645319   -1.602420   -1.884367
     48          1           0       -3.902961   -0.748627    2.734746
     49          1           0       -5.810683   -0.579449    1.179225
     50          1           0       -6.426891   -1.304723   -1.587573
     51          1           0       -5.956255    0.319018   -1.142069
     52          1           0       -5.101287   -0.520738   -2.415418
 ---------------------------------------------------------------------
 Rotational constants (GHZ):           0.2178638           0.1390114           0.0973314
 Leave Link  202 at Thu Sep 26 10:45:32 2024, MaxMem= 13421772800 cpu:               0.5 elap:               0.0
 (Enter /gpfs/fs1/soft/improv/software/custom-built/gaussian/g16/l301.exe)
 Standard basis: STO-3G (5D, 7F)
 Ernie: Thresh=  0.10000D-02 Tol=  0.10000D-05 Strict=F.
 There are   178 symmetry adapted cartesian basis functions of A   symmetry.
 There are   177 symmetry adapted basis functions of A   symmetry.
   177 basis functions,   534 primitive gaussians,   178 cartesian basis functions
   114 alpha electrons      114 beta electrons
       nuclear repulsion energy      3538.7926724207 Hartrees.
 IExCor=  402 DFT=T Ex+Corr=B3LYP ExCW=0 ScaHFX=  0.200000
 ScaDFX=  0.800000  0.720000  1.000000  0.810000 ScalE2=  1.000000  1.000000
 IRadAn=      5 IRanWt=     -1 IRanGd=            0 ICorTp=0 IEmpDi=131
 NAtoms=   52 NActive=   52 NUniq=   52 SFac= 1.00D+00 NAtFMM=   60 NAOKFM=F Big=F
 Integral buffers will be    131072 words long.
 Raffenetti 2 integral format.
 Two-electron integral symmetry is turned on.
 R6Disp:  Grimme-D3 Dispersion energy=       -0.0551474134 Hartrees.
 Nuclear repulsion after empirical dispersion term =     3538.7375250073 Hartrees.
 Leave Link  301 at Thu Sep 26 10:45:32 2024, MaxMem= 13421772800 cpu:               0.4 elap:               0.0
 (Enter /gpfs/fs1/soft/improv/software/custom-built/gaussian/g16/l302.exe)
 NPDir=0 NMtPBC=     1 NCelOv=     1 NCel=       1 NClECP=     1 NCelD=      1
         NCelK=      1 NCelE2=     1 NClLst=     1 CellRange=     0.0.
 One-electron integrals computed using PRISM.
 One-electron integral symmetry used in STVInt
 NBasis=   177 RedAO= T EigKep=  1.65D-01  NBF=   177
 NBsUse=   177 1.00D-06 EigRej= -1.00D+00 NBFU=   177
 Precomputing XC quadrature grid using
 IXCGrd= 4 IRadAn=           5 IRanWt=          -1 IRanGd=           0 AccXCQ= 0.00D+00.
 Generated NRdTot=       0 NPtTot=           0 NUsed=           0 NTot=          32
 NSgBfM=   170   170   170   170   170 MxSgAt=    52 MxSgA2=    52.
 Leave Link  302 at Thu Sep 26 10:45:32 2024, MaxMem= 13421772800 cpu:              14.7 elap:               0.2
 (Enter /gpfs/fs1/soft/improv/software/custom-built/gaussian/g16/l303.exe)
 DipDrv:  MaxL=1.
 Leave Link  303 at Thu Sep 26 10:45:32 2024, MaxMem= 13421772800 cpu:               0.7 elap:               0.0
 (Enter /gpfs/fs1/soft/improv/software/custom-built/gaussian/g16/l401.exe)
 ExpMin= 9.65D-02 ExpMax= 1.45D+03 ExpMxC= 1.45D+03 IAcc=3 IRadAn=         5 AccDes= 0.00D+00
 Harris functional with IExCor=  402 and IRadAn=       5 diagonalized for initial guess.
 HarFok:  IExCor=  402 AccDes= 0.00D+00 IRadAn=         5 IDoV= 1 UseB2=F ITyADJ=14
 ICtDFT=  3500011 ScaDFX=  1.000000  1.000000  1.000000  1.000000
 FoFCou: FMM=F IPFlag=           0 FMFlag=      100000 FMFlg1=           0
         NFxFlg=           0 DoJE=T BraDBF=F KetDBF=T FulRan=T
         wScrn=  0.000000 ICntrl=       500 IOpCl=  0 I1Cent=   200000004 NGrid=           0
         NMat0=    1 NMatS0=      1 NMatT0=    0 NMatD0=    1 NMtDS0=    0 NMtDT0=    0
 Petite list used in FoFCou.
 Harris En= -2549.03875113217    
 JPrj=0 DoOrth=F DoCkMO=F.
 Leave Link  401 at Thu Sep 26 10:45:33 2024, MaxMem= 13421772800 cpu:              23.7 elap:               0.3
 (Enter /gpfs/fs1/soft/improv/software/custom-built/gaussian/g16/l502.exe)
 Integral symmetry usage will be decided dynamically.
 Closed shell SCF:
 Using DIIS extrapolation, IDIIS=  1040.
 NGot= 13421772800 LenX= 13421682138 LenY= 13421650013
 Requested convergence on RMS density matrix=1.00D-08 within  50 cycles.
 Requested convergence on MAX density matrix=1.00D-06.
 Requested convergence on             energy=1.00D-06.
 No special actions if energy rises.
 Fock matrices will be formed incrementally for  20 cycles.
 Integral accuracy reduced to 1.0D-05 until final iterations.

 Cycle   1  Pass 0  IDiag  1:
 FoFJK:  IHMeth= 1 ICntrl=       0 DoSepK=F KAlg= 0 I1Cent=           0 FoldK=F
 IRaf= 800000000 NMat=       1 IRICut=       1 DoRegI=T DoRafI=F ISym2E= 0 IDoP0=0 IntGTp=1.
 FoFCou: FMM=F IPFlag=           0 FMFlag=      100000 FMFlg1=           0
         NFxFlg=           0 DoJE=F BraDBF=F KetDBF=F FulRan=T
         wScrn=  0.000000 ICntrl=         0 IOpCl=  0 I1Cent=           0 NGrid=           0
         NMat0=    1 NMatS0=      1 NMatT0=    0 NMatD0=    1 NMtDS0=    0 NMtDT0=    0
 Symmetry not used in FoFCou.
 E= -2539.05991372380    
 DIIS: error= 1.99D-01 at cycle   1 NSaved=   1.
 NSaved= 1 IEnMin= 1 EnMin= -2539.05991372380     IErMin= 1 ErrMin= 1.99D-01
 ErrMax= 1.99D-01  0.00D+00 EMaxC= 1.00D-01 BMatC= 3.71D+00 BMatP= 3.71D+00
 IDIUse=3 WtCom= 0.00D+00 WtEn= 1.00D+00
 Coeff-Com:  0.100D+01
 Coeff-En:   0.100D+01
 Coeff:      0.100D+01
 Gap=    -0.008 Goal=   None    Shift=    0.000
 GapD=   -0.008 DampG=0.250 DampE=0.125 DampFc=0.1250 IDamp=-1.
 Damping current iteration by 1.25D-01
 RMSDP=4.91D-02 MaxDP=2.42D+00              OVMax= 0.00D+00

 Cycle   2  Pass 0  IDiag  1:
 RMSU=  6.07D-03    CP:  9.84D-01
 E= -2542.71525022651     Delta-E=       -3.655336502708 Rises=F Damp=T
 DIIS: error= 1.30D-01 at cycle   2 NSaved=   2.
 NSaved= 2 IEnMin= 2 EnMin= -2542.71525022651     IErMin= 2 ErrMin= 1.30D-01
 ErrMax= 1.30D-01  0.00D+00 EMaxC= 1.00D-01 BMatC= 1.54D+00 BMatP= 3.71D+00
 IDIUse=3 WtCom= 0.00D+00 WtEn= 1.00D+00
 Coeff-Com: -0.121D+01 0.221D+01
 Coeff-En:   0.000D+00 0.100D+01
 Coeff:      0.000D+00 0.100D+01
 Gap=    -0.038 Goal=   None    Shift=    0.000
 RMSDP=2.36D-02 MaxDP=8.66D-01 DE=-3.66D+00 OVMax= 0.00D+00

 Cycle   3  Pass 0  IDiag  1:
 RMSU=  2.12D-02    CP:  8.83D-01  2.42D+00
 E= -2534.28555653276     Delta-E=        8.429693693755 Rises=F Damp=F
 DIIS: error= 1.28D-01 at cycle   3 NSaved=   3.
 NSaved= 3 IEnMin= 2 EnMin= -2542.71525022651     IErMin= 3 ErrMin= 1.28D-01
 ErrMax= 1.28D-01  0.00D+00 EMaxC= 1.00D-01 BMatC= 2.86D+00 BMatP= 1.54D+00
 IDIUse=2 WtCom= 0.00D+00 WtEn= 1.00D+00
 EnCoef did   100 forward-backward iterations
 Coeff-En:   0.530D+00 0.353D-01 0.435D+00
 Coeff:      0.530D+00 0.353D-01 0.435D+00
 Gap=    -0.065 Goal=   None    Shift=    0.000
 RMSDP=2.39D-02 MaxDP=5.98D-01 DE= 8.43D+00 OVMax= 0.00D+00

 Cycle   4  Pass 0  IDiag  1:
 RMSU=  1.57D-02    CP:  9.44D-01  4.38D-01  3.92D-01
 E= -2543.45378786622     Delta-E=       -9.168231333460 Rises=F Damp=F
 DIIS: error= 2.05D-01 at cycle   4 NSaved=   4.
 NSaved= 4 IEnMin= 4 EnMin= -2543.45378786622     IErMin= 3 ErrMin= 1.28D-01
 ErrMax= 2.05D-01  0.00D+00 EMaxC= 1.00D-01 BMatC= 4.00D+00 BMatP= 1.54D+00
 IDIUse=2 WtCom= 0.00D+00 WtEn= 1.00D+00
 EnCoef did   100 forward-backward iterations
 Coeff-En:   0.452D+00 0.213D-01 0.270D+00 0.257D+00
 Coeff:      0.452D+00 0.213D-01 0.270D+00 0.257D+00
 Gap=    -0.004 Goal=   None    Shift=    0.000
 RMSDP=2.10D-02 MaxDP=4.19D-01 DE=-9.17D+00 OVMax= 0.00D+00

 Cycle   5  Pass 0  IDiag  1:
 RMSU=  1.29D-02    CP:  9.11D-01  1.20D+00  5.76D-01  2.97D-02
 E= -2545.45671783603     Delta-E=       -2.002929969811 Rises=F Damp=F
 DIIS: error= 9.98D-02 at cycle   5 NSaved=   5.
 NSaved= 5 IEnMin= 5 EnMin= -2545.45671783603     IErMin= 5 ErrMin= 9.98D-02
 ErrMax= 9.98D-02  0.00D+00 EMaxC= 1.00D-01 BMatC= 1.42D+00 BMatP= 1.54D+00
 IDIUse=3 WtCom= 2.22D-03 WtEn= 9.98D-01
 EnCoef did   100 forward-backward iterations
 Coeff-Com: -0.915D-01 0.613D+00 0.112D+00 0.225D+00 0.141D+00
 Coeff-En:   0.307D+00 0.628D-02 0.000D+00 0.218D+00 0.468D+00
 Coeff:      0.306D+00 0.763D-02 0.250D-03 0.218D+00 0.467D+00
 Gap=    -0.014 Goal=   None    Shift=    0.000
 RMSDP=1.95D-02 MaxDP=3.65D-01 DE=-2.00D+00 OVMax= 0.00D+00

 Cycle   6  Pass 0  IDiag  1:
 RMSU=  7.71D-03    CP:  9.64D-01  3.26D-01  3.04D-01  6.03D-01 -6.80D-03
 E= -2547.42490035350     Delta-E=       -1.968182517477 Rises=F Damp=F
 DIIS: error= 2.24D-02 at cycle   6 NSaved=   6.
 NSaved= 6 IEnMin= 6 EnMin= -2547.42490035350     IErMin= 6 ErrMin= 2.24D-02
 ErrMax= 2.24D-02  0.00D+00 EMaxC= 1.00D-01 BMatC= 2.62D-01 BMatP= 1.42D+00
 IDIUse=3 WtCom= 7.76D-01 WtEn= 2.24D-01
 EnCoef did   100 forward-backward iterations
 Coeff-Com: -0.169D+00 0.478D+00 0.534D-01 0.734D-01 0.126D+00 0.438D+00
 Coeff-En:   0.102D+00 0.327D-02 0.000D+00 0.000D+00 0.335D+00 0.560D+00
 Coeff:     -0.108D+00 0.372D+00 0.414D-01 0.570D-01 0.173D+00 0.465D+00
 Gap=     0.070 Goal=   None    Shift=    0.000
 RMSDP=1.40D-02 MaxDP=3.60D-01 DE=-1.97D+00 OVMax= 0.00D+00

 Cycle   7  Pass 0  IDiag  1:
 RMSU=  9.93D-03    CP:  9.44D-01  6.56D-01  3.67D-01  4.41D-01  4.90D-01
                    CP:  1.57D-01
 E= -2546.81590988005     Delta-E=        0.608990473449 Rises=F Damp=F
 DIIS: error= 6.98D-02 at cycle   7 NSaved=   7.
 NSaved= 7 IEnMin= 6 EnMin= -2547.42490035350     IErMin= 6 ErrMin= 2.24D-02
 ErrMax= 6.98D-02  0.00D+00 EMaxC= 1.00D-01 BMatC= 6.03D-01 BMatP= 2.62D-01
 IDIUse=2 WtCom= 0.00D+00 WtEn= 1.00D+00
 EnCoef did   100 forward-backward iterations
 Coeff-En:   0.924D-01 0.137D-02 0.000D+00 0.000D+00 0.243D+00 0.497D+00
 Coeff-En:   0.166D+00
 Coeff:      0.924D-01 0.137D-02 0.000D+00 0.000D+00 0.243D+00 0.497D+00
 Coeff:      0.166D+00
 Gap=     0.015 Goal=   None    Shift=    0.000
 RMSDP=1.58D-02 MaxDP=4.66D-01 DE= 6.09D-01 OVMax= 0.00D+00

 Cycle   8  Pass 0  IDiag  1:
 RMSU=  9.07D-03    CP:  9.60D-01  5.13D-01  2.78D-01  1.40D-01  4.11D-01
                    CP:  4.34D-01 -1.69D-01
 E= -2546.59763974178     Delta-E=        0.218270138274 Rises=F Damp=F
 DIIS: error= 1.28D-01 at cycle   8 NSaved=   8.
 NSaved= 8 IEnMin= 6 EnMin= -2547.42490035350     IErMin= 6 ErrMin= 2.24D-02
 ErrMax= 1.28D-01  0.00D+00 EMaxC= 1.00D-01 BMatC= 1.19D+00 BMatP= 2.62D-01
 IDIUse=2 WtCom= 0.00D+00 WtEn= 1.00D+00
 EnCoef did     8 forward-backward iterations
 Coeff-En:   0.000D+00 0.000D+00 0.000D+00 0.000D+00 0.142D+00 0.404D+00
 Coeff-En:   0.212D+00 0.242D+00
 Coeff:      0.000D+00 0.000D+00 0.000D+00 0.000D+00 0.142D+00 0.404D+00
 Coeff:      0.212D+00 0.242D+00
 Gap=    -0.052 Goal=   None    Shift=    0.000
 RMSDP=1.43D-02 MaxDP=3.27D-01 DE= 2.18D-01 OVMax= 0.00D+00

 Problem detected with inexpensive integrals.
 Switching to full accuracy and repeating last cycle.
 Cycle   9  Pass 1  IDiag  1:
 E= -2546.59762957325     Delta-E=        0.000010168527 Rises=F Damp=F
 DIIS: error= 1.28D-01 at cycle   1 NSaved=   1.
 NSaved= 1 IEnMin= 1 EnMin= -2546.59762957325     IErMin= 1 ErrMin= 1.28D-01
 ErrMax= 1.28D-01  0.00D+00 EMaxC= 1.00D-01 BMatC= 1.19D+00 BMatP= 1.19D+00
 IDIUse=3 WtCom= 0.00D+00 WtEn= 1.00D+00
 Coeff-Com:  0.100D+01
 Coeff-En:   0.100D+01
 Coeff:      0.100D+01
 Gap=    -0.110 Goal=   None    Shift=    0.000
 GapD=   -0.110 DampG=0.250 DampE=0.250 DampFc=0.2500 IDamp=-1.
 Damping current iteration by 2.50D-01
 RMSDP=2.37D-02 MaxDP=8.51D-01 DE= 1.02D-05 OVMax= 0.00D+00

 Cycle  10  Pass 1  IDiag  1:
 RMSU=  5.80D-03    CP:  9.77D-01
 E= -2547.38780867228     Delta-E=       -0.790179099032 Rises=F Damp=T
 DIIS: error= 1.56D-02 at cycle   2 NSaved=   2.
 NSaved= 2 IEnMin= 2 EnMin= -2547.38780867228     IErMin= 2 ErrMin= 1.56D-02
 ErrMax= 1.56D-02  0.00D+00 EMaxC= 1.00D-01 BMatC= 8.29D-02 BMatP= 1.19D+00
 IDIUse=3 WtCom= 8.44D-01 WtEn= 1.56D-01
 Coeff-Com:  0.696D-01 0.930D+00
 Coeff-En:   0.219D+00 0.781D+00
 Coeff:      0.930D-01 0.907D+00
 Gap=    -0.003 Goal=   None    Shift=    0.000
 RMSDP=1.38D-02 MaxDP=3.02D-01 DE=-7.90D-01 OVMax= 0.00D+00

 Cycle  11  Pass 1  IDiag  1:
 RMSU=  1.37D-02    CP:  9.75D-01  1.11D+00
 E= -2546.44401739510     Delta-E=        0.943791277189 Rises=F Damp=F
 DIIS: error= 6.24D-02 at cycle   3 NSaved=   3.
 NSaved= 3 IEnMin= 2 EnMin= -2547.38780867228     IErMin= 2 ErrMin= 1.56D-02
 ErrMax= 6.24D-02  0.00D+00 EMaxC= 1.00D-01 BMatC= 1.00D+00 BMatP= 8.29D-02
 IDIUse=2 WtCom= 0.00D+00 WtEn= 1.00D+00
 EnCoef did     3 forward-backward iterations
 Coeff-En:   0.167D+00 0.564D+00 0.268D+00
 Coeff:      0.167D+00 0.564D+00 0.268D+00
 Gap=     0.146 Goal=   None    Shift=    0.000
 RMSDP=1.80D-02 MaxDP=4.46D-01 DE= 9.44D-01 OVMax= 0.00D+00

 Cycle  12  Pass 1  IDiag  1:
 RMSU=  1.11D-02    CP:  9.40D-01  2.36D+00  1.25D-01
 E= -2545.62290642471     Delta-E=        0.821110970386 Rises=F Damp=F
 DIIS: error= 1.06D-01 at cycle   4 NSaved=   4.
 NSaved= 4 IEnMin= 2 EnMin= -2547.38780867228     IErMin= 2 ErrMin= 1.56D-02
 ErrMax= 1.06D-01  0.00D+00 EMaxC= 1.00D-01 BMatC= 1.35D+00 BMatP= 8.29D-02
 IDIUse=2 WtCom= 0.00D+00 WtEn= 1.00D+00
 EnCoef did   100 forward-backward iterations
 Coeff-En:   0.448D+00 0.105D-01 0.207D+00 0.335D+00
 Coeff:      0.448D+00 0.105D-01 0.207D+00 0.335D+00
 Gap=     0.013 Goal=   None    Shift=    0.000
 RMSDP=1.89D-02 MaxDP=3.75D-01 DE= 8.21D-01 OVMax= 0.00D+00

 Cycle  13  Pass 1  IDiag  1:
 RMSU=  8.89D-03    CP:  9.79D-01  5.62D-01  3.64D-01 -1.18D-01
 E= -2546.76313428750     Delta-E=       -1.140227862796 Rises=F Damp=F
 DIIS: error= 8.64D-02 at cycle   5 NSaved=   5.
 NSaved= 5 IEnMin= 2 EnMin= -2547.38780867228     IErMin= 2 ErrMin= 1.56D-02
 ErrMax= 8.64D-02  0.00D+00 EMaxC= 1.00D-01 BMatC= 7.24D-01 BMatP= 8.29D-02
 IDIUse=2 WtCom= 0.00D+00 WtEn= 1.00D+00
 EnCoef did   100 forward-backward iterations
 Coeff-En:   0.423D+00 0.577D-02 0.148D+00 0.298D+00 0.125D+00
 Coeff:      0.423D+00 0.577D-02 0.148D+00 0.298D+00 0.125D+00
 Gap=    -0.077 Goal=   None    Shift=    0.000
 RMSDP=1.33D-02 MaxDP=3.51D-01 DE=-1.14D+00 OVMax= 0.00D+00

 Cycle  14  Pass 1  IDiag  1:
 RMSU=  7.60D-03    CP:  9.77D-01  1.19D+00  5.87D-01  1.88D-01 -3.96D-02
 E= -2547.46418274520     Delta-E=       -0.701048457696 Rises=F Damp=F
 DIIS: error= 7.04D-02 at cycle   6 NSaved=   6.
 NSaved= 6 IEnMin= 6 EnMin= -2547.46418274520     IErMin= 2 ErrMin= 1.56D-02
 ErrMax= 7.04D-02  0.00D+00 EMaxC= 1.00D-01 BMatC= 4.17D-01 BMatP= 8.29D-02
 IDIUse=2 WtCom= 0.00D+00 WtEn= 1.00D+00
 EnCoef did    12 forward-backward iterations
 Coeff-En:   0.191D+00 0.000D+00 0.000D+00 0.200D+00 0.216D+00 0.393D+00
 Coeff:      0.191D+00 0.000D+00 0.000D+00 0.200D+00 0.216D+00 0.393D+00
 Gap=     0.019 Goal=   None    Shift=    0.000
 RMSDP=1.37D-02 MaxDP=2.94D-01 DE=-7.01D-01 OVMax= 0.00D+00

 Cycle  15  Pass 1  IDiag  1:
 RMSU=  8.60D-03    CP:  9.72D-01  1.09D+00  2.06D-01  4.21D-01  2.00D-01
                    CP: -1.42D-01
 E= -2547.48901868403     Delta-E=       -0.024835938832 Rises=F Damp=F
 DIIS: error= 4.33D-02 at cycle   7 NSaved=   7.
 NSaved= 7 IEnMin= 7 EnMin= -2547.48901868403     IErMin= 2 ErrMin= 1.56D-02
 ErrMax= 4.33D-02  0.00D+00 EMaxC= 1.00D-01 BMatC= 3.20D-01 BMatP= 8.29D-02
 IDIUse=2 WtCom= 0.00D+00 WtEn= 1.00D+00
 EnCoef did    23 forward-backward iterations
 Coeff-En:   0.771D-01 0.000D+00 0.000D+00 0.729D-01 0.117D+00 0.432D+00
 Coeff-En:   0.301D+00
 Coeff:      0.771D-01 0.000D+00 0.000D+00 0.729D-01 0.117D+00 0.432D+00
 Coeff:      0.301D+00
 Gap=     0.004 Goal=   None    Shift=    0.000
 RMSDP=1.51D-02 MaxDP=3.29D-01 DE=-2.48D-02 OVMax= 0.00D+00

 Cycle  16  Pass 1  IDiag  1:
 RMSU=  8.56D-03    CP:  9.65D-01  9.94D-01 -4.44D-03  4.58D-01  4.67D-01
                    CP:  1.38D-01 -3.60D-01
 E= -2546.73208395305     Delta-E=        0.756934730985 Rises=F Damp=F
 DIIS: error= 6.82D-02 at cycle   8 NSaved=   8.
 NSaved= 8 IEnMin= 7 EnMin= -2547.48901868403     IErMin= 2 ErrMin= 1.56D-02
 ErrMax= 6.82D-02  0.00D+00 EMaxC= 1.00D-01 BMatC= 5.93D-01 BMatP= 8.29D-02
 IDIUse=2 WtCom= 0.00D+00 WtEn= 1.00D+00
 EnCoef did     6 forward-backward iterations
 Coeff-En:   0.587D-02 0.000D+00 0.000D+00 0.000D+00 0.342D-01 0.464D+00
 Coeff-En:   0.351D+00 0.146D+00
 Coeff:      0.587D-02 0.000D+00 0.000D+00 0.000D+00 0.342D-01 0.464D+00
 Coeff:      0.351D+00 0.146D+00
 Gap=     0.017 Goal=   None    Shift=    0.000
 RMSDP=1.22D-02 MaxDP=3.25D-01 DE= 7.57D-01 OVMax= 0.00D+00

 Cycle  17  Pass 1  IDiag  1:
 RMSU=  3.46D-03    CP:  9.92D-01  3.14D-01  1.57D-01 -1.27D-02  5.00D-01
                    CP:  6.05D-02  9.49D-02  8.28D-03
 E= -2547.62442797840     Delta-E=       -0.892344025347 Rises=F Damp=F
 DIIS: error= 2.76D-02 at cycle   9 NSaved=   9.
 NSaved= 9 IEnMin= 9 EnMin= -2547.62442797840     IErMin= 2 ErrMin= 1.56D-02
 ErrMax= 2.76D-02  0.00D+00 EMaxC= 1.00D-01 BMatC= 1.28D-01 BMatP= 8.29D-02
 IDIUse=2 WtCom= 0.00D+00 WtEn= 1.00D+00
 EnCoef did   100 forward-backward iterations
 Coeff-En:   0.000D+00 0.000D+00 0.000D+00 0.210D-02 0.000D+00 0.414D+00
 Coeff-En:   0.312D+00 0.126D+00 0.147D+00
 Coeff:      0.000D+00 0.000D+00 0.000D+00 0.210D-02 0.000D+00 0.414D+00
 Coeff:      0.312D+00 0.126D+00 0.147D+00
 Gap=    -0.018 Goal=   None    Shift=    0.000
 RMSDP=1.33D-02 MaxDP=3.30D-01 DE=-8.92D-01 OVMax= 0.00D+00

 Cycle  18  Pass 1  IDiag  1:
 RMSU=  4.89D-03    CP:  9.62D-01  1.67D+00  3.56D-01  5.85D-01  1.67D-01
                    CP:  6.71D-01 -1.25D-01  2.22D-01  6.81D-01
 E= -2547.58457003638     Delta-E=        0.039857942021 Rises=F Damp=F
 DIIS: error= 3.83D-02 at cycle  10 NSaved=  10.
 NSaved=10 IEnMin= 9 EnMin= -2547.62442797840     IErMin= 2 ErrMin= 1.56D-02
 ErrMax= 3.83D-02  0.00D+00 EMaxC= 1.00D-01 BMatC= 1.88D-01 BMatP= 8.29D-02
 IDIUse=2 WtCom= 0.00D+00 WtEn= 1.00D+00
 EnCoef did     8 forward-backward iterations
 Coeff-En:   0.000D+00 0.000D+00 0.000D+00 0.000D+00 0.000D+00 0.240D+00
 Coeff-En:   0.195D+00 0.000D+00 0.296D+00 0.269D+00
 Coeff:      0.000D+00 0.000D+00 0.000D+00 0.000D+00 0.000D+00 0.240D+00
 Coeff:      0.195D+00 0.000D+00 0.296D+00 0.269D+00
 Gap=     0.006 Goal=   None    Shift=    0.000
 RMSDP=8.87D-03 MaxDP=2.11D-01 DE= 3.99D-02 OVMax= 0.00D+00

 Cycle  19  Pass 1  IDiag  1:
 RMSU=  4.48D-03    CP:  9.79D-01  1.02D+00  4.40D-01  3.10D-01  5.77D-03
                    CP:  7.27D-01  3.26D-01  6.83D-02  7.55D-02  3.63D-01
 E= -2547.79638961220     Delta-E=       -0.211819575827 Rises=F Damp=F
 DIIS: error= 5.67D-02 at cycle  11 NSaved=  11.
 NSaved=11 IEnMin=11 EnMin= -2547.79638961220     IErMin= 2 ErrMin= 1.56D-02
 ErrMax= 5.67D-02  0.00D+00 EMaxC= 1.00D-01 BMatC= 1.60D-01 BMatP= 8.29D-02
 IDIUse=2 WtCom= 0.00D+00 WtEn= 1.00D+00
 EnCoef did     5 forward-backward iterations
 Coeff-En:   0.000D+00 0.000D+00 0.000D+00 0.000D+00 0.000D+00 0.000D+00
 Coeff-En:   0.124D+00 0.000D+00 0.266D+00 0.251D+00 0.360D+00
 Coeff:      0.000D+00 0.000D+00 0.000D+00 0.000D+00 0.000D+00 0.000D+00
 Coeff:      0.124D+00 0.000D+00 0.266D+00 0.251D+00 0.360D+00
 Gap=     0.025 Goal=   None    Shift=    0.000
 RMSDP=1.20D-02 MaxDP=2.84D-01 DE=-2.12D-01 OVMax= 0.00D+00

 Cycle  20  Pass 1  IDiag  1:
 RMSU=  5.88D-03    CP:  9.67D-01  1.54D+00  3.80D-01  2.98D-01  7.64D-02
                    CP:  7.46D-02  6.45D-01 -4.01D-01  3.48D-01  1.23D-01
                    CP: -5.41D-01
 E= -2547.36473535622     Delta-E=        0.431654255983 Rises=F Damp=F
 DIIS: error= 4.74D-02 at cycle  12 NSaved=  12.
 NSaved=12 IEnMin=11 EnMin= -2547.79638961220     IErMin= 2 ErrMin= 1.56D-02
 ErrMax= 4.74D-02  0.00D+00 EMaxC= 1.00D-01 BMatC= 1.81D-01 BMatP= 8.29D-02
 IDIUse=2 WtCom= 0.00D+00 WtEn= 1.00D+00
 EnCoef did     9 forward-backward iterations
 Coeff-En:   0.000D+00 0.000D+00 0.000D+00 0.000D+00 0.000D+00 0.000D+00
 Coeff-En:   0.641D-01 0.000D+00 0.273D+00 0.247D+00 0.339D+00 0.780D-01
 Coeff:      0.000D+00 0.000D+00 0.000D+00 0.000D+00 0.000D+00 0.000D+00
 Coeff:      0.641D-01 0.000D+00 0.273D+00 0.247D+00 0.339D+00 0.780D-01
 Gap=    -0.007 Goal=   None    Shift=    0.000
 RMSDP=1.08D-02 MaxDP=2.58D-01 DE= 4.32D-01 OVMax= 0.00D+00

 Cycle  21  Pass 1  IDiag  1:
 RMSU=  2.08D-03    CP:  9.79D-01  9.58D-01  3.61D-01  2.58D-01  3.59D-01
                    CP:  3.66D-01  5.73D-01 -2.02D-02  6.45D-01  2.26D-01
                    CP:  6.79D-01 -1.75D-01
 E= -2547.88441868089     Delta-E=       -0.519683324670 Rises=F Damp=F
 DIIS: error= 3.21D-02 at cycle  13 NSaved=  13.
 NSaved=13 IEnMin=13 EnMin= -2547.88441868089     IErMin= 2 ErrMin= 1.56D-02
 ErrMax= 3.21D-02  0.00D+00 EMaxC= 1.00D-01 BMatC= 8.91D-02 BMatP= 8.29D-02
 IDIUse=3 WtCom= 6.79D-01 WtEn= 3.21D-01
 EnCoef did    13 forward-backward iterations
 Coeff-Com:  0.641D-02 0.833D-01-0.110D-02-0.127D-01-0.388D-01 0.270D-01
 Coeff-Com: -0.946D-02-0.141D-01 0.181D+00 0.158D+00 0.218D+00 0.356D-01
 Coeff-Com:  0.366D+00
 Coeff-En:   0.000D+00 0.000D+00 0.000D+00 0.000D+00 0.000D+00 0.000D+00
 Coeff-En:   0.000D+00 0.000D+00 0.168D+00 0.161D+00 0.323D+00 0.472D-01
 Coeff-En:   0.301D+00
 Coeff:      0.435D-02 0.565D-01-0.748D-03-0.864D-02-0.263D-01 0.183D-01
 Coeff:     -0.643D-02-0.959D-02 0.177D+00 0.159D+00 0.252D+00 0.393D-01
 Coeff:      0.345D+00
 Gap=     0.015 Goal=   None    Shift=    0.000
 RMSDP=6.58D-03 MaxDP=1.57D-01 DE=-5.20D-01 OVMax= 0.00D+00

 Cycle  22  Pass 1  IDiag  1:
 RMSU=  2.37D-03    CP:  9.72D-01  1.30D+00  3.34D-01  4.42D-01  1.20D-01
                    CP:  7.12D-01  2.78D-01  1.19D-01  6.37D-01  7.65D-01
                    CP:  5.40D-01  4.49D-02  5.47D-01
 E= -2547.91301191864     Delta-E=       -0.028593237751 Rises=F Damp=F
 DIIS: error= 2.85D-02 at cycle  14 NSaved=  14.
 NSaved=14 IEnMin=14 EnMin= -2547.91301191864     IErMin= 2 ErrMin= 1.56D-02
 ErrMax= 2.85D-02  0.00D+00 EMaxC= 1.00D-01 BMatC= 2.87D-02 BMatP= 8.29D-02
 IDIUse=3 WtCom= 7.15D-01 WtEn= 2.85D-01
 EnCoef did     8 forward-backward iterations
 Coeff-Com:  0.336D-02 0.383D-01-0.658D-02-0.103D-02-0.358D-01 0.215D-01
 Coeff-Com: -0.542D-01 0.767D-02 0.140D+00-0.378D-01 0.121D+00 0.280D-01
 Coeff-Com:  0.446D+00 0.329D+00
 Coeff-En:   0.000D+00 0.000D+00 0.000D+00 0.000D+00 0.000D+00 0.000D+00
 Coeff-En:   0.000D+00 0.000D+00 0.134D+00 0.000D+00 0.135D+00 0.000D+00
 Coeff-En:   0.299D+00 0.431D+00
 Coeff:      0.240D-02 0.274D-01-0.471D-02-0.736D-03-0.256D-01 0.154D-01
 Coeff:     -0.388D-01 0.549D-02 0.138D+00-0.270D-01 0.125D+00 0.201D-01
 Coeff:      0.404D+00 0.358D+00
 Gap=     0.015 Goal=   None    Shift=    0.000
 RMSDP=3.08D-03 MaxDP=8.25D-02 DE=-2.86D-02 OVMax= 0.00D+00

 Cycle  23  Pass 1  IDiag  1:
 RMSU=  4.95D-04    CP:  9.77D-01  1.10D+00  3.51D-01  3.28D-01  1.62D-01
                    CP:  6.49D-01  4.41D-01  4.65D-02  6.11D-01  4.66D-01
                    CP:  6.78D-01  8.85D-03  8.49D-01  7.31D-01
 E= -2547.97245730650     Delta-E=       -0.059445387858 Rises=F Damp=F
 DIIS: error= 9.47D-03 at cycle  15 NSaved=  15.
 NSaved=15 IEnMin=15 EnMin= -2547.97245730650     IErMin=15 ErrMin= 9.47D-03
 ErrMax= 9.47D-03  0.00D+00 EMaxC= 1.00D-01 BMatC= 7.90D-03 BMatP= 2.87D-02
 IDIUse=3 WtCom= 9.05D-01 WtEn= 9.47D-02
 EnCoef did     3 forward-backward iterations
 Coeff-Com:  0.291D-02 0.233D-01-0.351D-02-0.489D-02-0.166D-01-0.862D-03
 Coeff-Com: -0.227D-01 0.105D-01 0.826D-01-0.786D-02 0.213D-01-0.150D-01
 Coeff-Com:  0.285D+00 0.624D-01 0.584D+00
 Coeff-En:   0.000D+00 0.000D+00 0.000D+00 0.000D+00 0.000D+00 0.000D+00
 Coeff-En:   0.000D+00 0.000D+00 0.492D-01 0.000D+00 0.000D+00 0.000D+00
 Coeff-En:   0.175D+00 0.000D+00 0.776D+00
 Coeff:      0.264D-02 0.211D-01-0.318D-02-0.443D-02-0.151D-01-0.780D-03
 Coeff:     -0.205D-01 0.948D-02 0.795D-01-0.712D-02 0.193D-01-0.135D-01
 Coeff:      0.274D+00 0.565D-01 0.602D+00
 Gap=     0.019 Goal=   None    Shift=    0.000
 RMSDP=1.08D-03 MaxDP=2.75D-02 DE=-5.94D-02 OVMax= 0.00D+00

 Cycle  24  Pass 1  IDiag  1:
 RMSU=  5.41D-04    CP:  9.76D-01  1.12D+00  3.36D-01  3.51D-01  2.05D-01
                    CP:  6.23D-01  4.22D-01  7.22D-02  6.82D-01  5.35D-01
                    CP:  6.90D-01 -4.44D-02  7.74D-01  7.76D-01  1.78D-01
 E= -2547.97555017677     Delta-E=       -0.003092870275 Rises=F Damp=F
 DIIS: error= 1.13D-02 at cycle  16 NSaved=  16.
 NSaved=16 IEnMin=16 EnMin= -2547.97555017677     IErMin=15 ErrMin= 9.47D-03
 ErrMax= 1.13D-02  0.00D+00 EMaxC= 1.00D-01 BMatC= 4.87D-03 BMatP= 7.90D-03
 IDIUse=3 WtCom= 9.05D-01 WtEn= 9.47D-02
 EnCoef did   100 forward-backward iterations
 Coeff-Com:  0.698D-02 0.143D-01-0.569D-04-0.315D-02-0.131D-01 0.130D-02
 Coeff-Com: -0.441D-03-0.869D-03 0.721D-01 0.382D-01 0.131D-01-0.160D-01
 Coeff-Com:  0.922D-01-0.277D+00 0.465D+00 0.608D+00
 Coeff-En:   0.000D+00 0.000D+00 0.000D+00 0.000D+00 0.000D+00 0.000D+00
 Coeff-En:   0.000D+00 0.000D+00 0.650D-01 0.000D+00 0.583D-03 0.000D+00
 Coeff-En:   0.958D-01 0.000D+00 0.460D+00 0.379D+00
 Coeff:      0.632D-02 0.129D-01-0.515D-04-0.286D-02-0.118D-01 0.118D-02
 Coeff:     -0.400D-03-0.787D-03 0.714D-01 0.346D-01 0.119D-01-0.145D-01
 Coeff:      0.925D-01-0.251D+00 0.464D+00 0.587D+00
 Gap=     0.018 Goal=   None    Shift=    0.000
 RMSDP=7.74D-04 MaxDP=1.72D-02 DE=-3.09D-03 OVMax= 0.00D+00

 Cycle  25  Pass 1  IDiag  1:
 RMSU=  2.46D-04    CP:  9.77D-01  1.06D+00  3.31D-01  3.25D-01  2.16D-01
                    CP:  5.95D-01  4.32D-01  6.93D-02  7.08D-01  4.77D-01
                    CP:  7.26D-01 -7.24D-02  7.91D-01  6.65D-01  3.25D-01
                    CP:  1.30D+00
 E= -2547.98242766833     Delta-E=       -0.006877491559 Rises=F Damp=F
 DIIS: error= 6.21D-03 at cycle  17 NSaved=  17.
 NSaved=17 IEnMin=17 EnMin= -2547.98242766833     IErMin=17 ErrMin= 6.21D-03
 ErrMax= 6.21D-03  0.00D+00 EMaxC= 1.00D-01 BMatC= 1.55D-03 BMatP= 4.87D-03
 IDIUse=3 WtCom= 9.38D-01 WtEn= 6.21D-02
 EnCoef did     3 forward-backward iterations
 Coeff-Com:  0.694D-02 0.473D-02-0.130D-02 0.423D-03-0.641D-02 0.875D-02
 Coeff-Com:  0.614D-02-0.111D-01 0.521D-01 0.328D-01 0.159D-01-0.133D-02
 Coeff-Com: -0.164D-01-0.268D+00 0.140D+00 0.267D+00 0.769D+00
 Coeff-En:   0.000D+00 0.000D+00 0.000D+00 0.000D+00 0.000D+00 0.000D+00
 Coeff-En:   0.000D+00 0.000D+00 0.346D-01 0.000D+00 0.000D+00 0.000D+00
 Coeff-En:   0.000D+00 0.000D+00 0.797D-01 0.000D+00 0.886D+00
 Coeff:      0.651D-02 0.444D-02-0.122D-02 0.397D-03-0.601D-02 0.821D-02
 Coeff:      0.576D-02-0.104D-01 0.510D-01 0.308D-01 0.149D-01-0.124D-02
 Coeff:     -0.154D-01-0.251D+00 0.137D+00 0.250D+00 0.776D+00
 Gap=     0.019 Goal=   None    Shift=    0.000
 RMSDP=5.23D-04 MaxDP=1.08D-02 DE=-6.88D-03 OVMax= 0.00D+00

 Cycle  26  Pass 1  IDiag  1:
 RMSU=  1.70D-04    CP:  9.78D-01  1.02D+00  3.26D-01  3.07D-01  2.32D-01
                    CP:  5.70D-01  4.40D-01  6.09D-02  7.20D-01  4.43D-01
                    CP:  7.35D-01 -9.08D-02  8.02D-01  6.19D-01  2.75D-01
                    CP:  1.54D+00  9.37D-01
 E= -2547.98476659439     Delta-E=       -0.002338926055 Rises=F Damp=F
 DIIS: error= 1.98D-03 at cycle  18 NSaved=  18.
 NSaved=18 IEnMin=18 EnMin= -2547.98476659439     IErMin=18 ErrMin= 1.98D-03
 ErrMax= 1.98D-03  0.00D+00 EMaxC= 1.00D-01 BMatC= 3.91D-04 BMatP= 1.55D-03
 IDIUse=3 WtCom= 9.80D-01 WtEn= 1.98D-02
 Coeff-Com:  0.132D-02 0.935D-03-0.940D-03 0.809D-03-0.468D-02 0.431D-02
 Coeff-Com: -0.333D-02-0.254D-02 0.172D-01 0.598D-02 0.311D-02 0.645D-02
 Coeff-Com:  0.557D-02-0.617D-01 0.988D-01-0.163D+00 0.201D+00 0.890D+00
 Coeff-En:   0.000D+00 0.000D+00 0.000D+00 0.000D+00 0.000D+00 0.000D+00
 Coeff-En:   0.000D+00 0.000D+00 0.000D+00 0.000D+00 0.000D+00 0.000D+00
 Coeff-En:   0.000D+00 0.000D+00 0.000D+00 0.000D+00 0.000D+00 0.100D+01
 Coeff:      0.130D-02 0.916D-03-0.922D-03 0.793D-03-0.459D-02 0.423D-02
 Coeff:     -0.327D-02-0.249D-02 0.169D-01 0.586D-02 0.305D-02 0.632D-02
 Coeff:      0.546D-02-0.605D-01 0.968D-01-0.160D+00 0.197D+00 0.893D+00
 Gap=     0.020 Goal=   None    Shift=    0.000
 RMSDP=2.48D-04 MaxDP=4.85D-03 DE=-2.34D-03 OVMax= 0.00D+00

 Cycle  27  Pass 1  IDiag  1:
 RMSU=  1.41D-04    CP:  9.79D-01  1.01D+00  3.29D-01  3.02D-01  2.27D-01
                    CP:  5.73D-01  4.45D-01  5.68D-02  7.25D-01  4.20D-01
                    CP:  7.25D-01 -9.08D-02  8.34D-01  5.91D-01  4.08D-01
                    CP:  1.44D+00  9.69D-01  9.65D-01
 E= -2547.98516896464     Delta-E=       -0.000402370249 Rises=F Damp=F
 DIIS: error= 1.55D-03 at cycle  19 NSaved=  19.
 NSaved=19 IEnMin=19 EnMin= -2547.98516896464     IErMin=19 ErrMin= 1.55D-03
 ErrMax= 1.55D-03  0.00D+00 EMaxC= 1.00D-01 BMatC= 1.11D-04 BMatP= 3.91D-04
 IDIUse=3 WtCom= 9.85D-01 WtEn= 1.55D-02
 Coeff-Com:  0.127D-03 0.319D-02 0.717D-03-0.422D-03 0.789D-03-0.639D-03
 Coeff-Com:  0.116D-02-0.494D-03-0.594D-03 0.189D-02-0.194D-02 0.194D-02
 Coeff-Com: -0.904D-02-0.639D-02 0.654D-01-0.177D+00-0.114D+00 0.661D+00
 Coeff-Com:  0.573D+00
 Coeff-En:   0.000D+00 0.000D+00 0.000D+00 0.000D+00 0.000D+00 0.000D+00
 Coeff-En:   0.000D+00 0.000D+00 0.000D+00 0.000D+00 0.000D+00 0.000D+00
 Coeff-En:   0.000D+00 0.000D+00 0.000D+00 0.000D+00 0.000D+00 0.000D+00
 Coeff-En:   0.100D+01
 Coeff:      0.125D-03 0.314D-02 0.706D-03-0.416D-03 0.776D-03-0.629D-03
 Coeff:      0.114D-02-0.487D-03-0.584D-03 0.186D-02-0.191D-02 0.191D-02
 Coeff:     -0.890D-02-0.629D-02 0.644D-01-0.174D+00-0.112D+00 0.651D+00
 Coeff:      0.580D+00
 Gap=     0.020 Goal=   None    Shift=    0.000
 RMSDP=2.91D-04 MaxDP=6.35D-03 DE=-4.02D-04 OVMax= 0.00D+00

 Cycle  28  Pass 1  IDiag  1:
 RMSU=  6.54D-05    CP:  9.79D-01  9.94D-01  3.26D-01  2.94D-01  2.33D-01
                    CP:  5.57D-01  4.57D-01  4.88D-02  7.22D-01  4.03D-01
                    CP:  7.23D-01 -9.82D-02  8.44D-01  5.73D-01  4.38D-01
                    CP:  1.45D+00  8.55D-01  1.60D+00  1.01D+00
 E= -2547.98533908360     Delta-E=       -0.000170118962 Rises=F Damp=F
 DIIS: error= 7.56D-04 at cycle  20 NSaved=  20.
 NSaved=20 IEnMin=20 EnMin= -2547.98533908360     IErMin=20 ErrMin= 7.56D-04
 ErrMax= 7.56D-04  0.00D+00 EMaxC= 1.00D-01 BMatC= 2.37D-05 BMatP= 1.11D-04
 IDIUse=3 WtCom= 9.92D-01 WtEn= 7.56D-03
 Coeff-Com: -0.218D-03 0.109D-02 0.276D-03-0.112D-03 0.453D-03-0.483D-03
 Coeff-Com: -0.219D-03-0.321D-03 0.624D-03 0.224D-02 0.110D-02-0.340D-03
 Coeff-Com: -0.895D-02-0.134D-02 0.213D-01-0.908D-01-0.147D-02 0.286D+00
 Coeff-Com:  0.310D+00 0.481D+00
 Coeff-En:   0.000D+00 0.000D+00 0.000D+00 0.000D+00 0.000D+00 0.000D+00
 Coeff-En:   0.000D+00 0.000D+00 0.000D+00 0.000D+00 0.000D+00 0.000D+00
 Coeff-En:   0.000D+00 0.000D+00 0.000D+00 0.000D+00 0.000D+00 0.000D+00
 Coeff-En:   0.273D+00 0.727D+00
 Coeff:     -0.216D-03 0.109D-02 0.274D-03-0.111D-03 0.450D-03-0.479D-03
 Coeff:     -0.217D-03-0.318D-03 0.619D-03 0.222D-02 0.109D-02-0.337D-03
 Coeff:     -0.888D-02-0.133D-02 0.211D-01-0.901D-01-0.146D-02 0.284D+00
 Coeff:      0.309D+00 0.483D+00
 Gap=     0.020 Goal=   None    Shift=    0.000
 RMSDP=7.15D-05 MaxDP=1.92D-03 DE=-1.70D-04 OVMax= 0.00D+00

 Cycle  29  Pass 1  IDiag  1:
 Restarting incremental Fock formation.
 E= -2547.98538090672     Delta-E=       -0.000041823122 Rises=F Damp=F
 DIIS: error= 4.17D-04 at cycle  21 NSaved=  20.
 NSaved=20 IEnMin=20 EnMin= -2547.98538090672     IErMin=20 ErrMin= 4.17D-04
 ErrMax= 4.17D-04  0.00D+00 EMaxC= 1.00D-01 BMatC= 1.33D-05 BMatP= 2.37D-05
 IDIUse=3 WtCom= 9.96D-01 WtEn= 4.17D-03
 Coeff-Com: -0.195D-03-0.920D-04 0.125D-03 0.759D-03-0.294D-04-0.532D-03
 Coeff-Com: -0.306D-03-0.387D-03 0.189D-03 0.330D-02-0.959D-03-0.107D-01
 Coeff-Com:  0.623D-02-0.130D-01-0.402D-01 0.537D-01 0.535D-01 0.953D-01
 Coeff-Com:  0.121D+00 0.732D+00
 Coeff-En:   0.000D+00 0.000D+00 0.000D+00 0.000D+00 0.000D+00 0.000D+00
 Coeff-En:   0.000D+00 0.000D+00 0.000D+00 0.000D+00 0.000D+00 0.000D+00
 Coeff-En:   0.000D+00 0.000D+00 0.000D+00 0.000D+00 0.000D+00 0.746D-01
 Coeff-En:   0.000D+00 0.925D+00
 Coeff:     -0.195D-03-0.917D-04 0.124D-03 0.756D-03-0.292D-04-0.530D-03
 Coeff:     -0.305D-03-0.386D-03 0.189D-03 0.329D-02-0.955D-03-0.106D-01
 Coeff:      0.620D-02-0.129D-01-0.400D-01 0.534D-01 0.533D-01 0.952D-01
 Coeff:      0.121D+00 0.733D+00
 Gap=     0.020 Goal=   None    Shift=    0.000
 RMSDP=7.63D-05 MaxDP=1.80D-03 DE=-4.18D-05 OVMax= 0.00D+00

 Cycle  30  Pass 1  IDiag  1:
 RMSU=  7.62D-05    CP:  1.00D+00
 E= -2547.98539832675     Delta-E=       -0.000017420031 Rises=F Damp=F
 DIIS: error= 3.86D-04 at cycle  22 NSaved=  20.
 NSaved=20 IEnMin=20 EnMin= -2547.98539832675     IErMin=20 ErrMin= 3.86D-04
 ErrMax= 3.86D-04  0.00D+00 EMaxC= 1.00D-01 BMatC= 9.98D-06 BMatP= 1.33D-05
 IDIUse=3 WtCom= 9.96D-01 WtEn= 3.86D-03
 Coeff-Com: -0.219D-03-0.120D-02 0.291D-03 0.584D-05-0.634D-03-0.306D-04
 Coeff-Com: -0.741D-03-0.102D-02 0.356D-02-0.643D-03-0.483D-02 0.517D-02
 Coeff-Com: -0.223D-02-0.947D-02 0.364D-01-0.290D-01 0.346D-02-0.232D+00
 Coeff-Com:  0.238D+00 0.995D+00
 Coeff-En:   0.000D+00 0.000D+00 0.000D+00 0.000D+00 0.000D+00 0.000D+00
 Coeff-En:   0.000D+00 0.000D+00 0.000D+00 0.000D+00 0.000D+00 0.000D+00
 Coeff-En:   0.000D+00 0.000D+00 0.000D+00 0.000D+00 0.000D+00 0.000D+00
 Coeff-En:   0.000D+00 0.100D+01
 Coeff:     -0.218D-03-0.119D-02 0.290D-03 0.582D-05-0.632D-03-0.305D-04
 Coeff:     -0.739D-03-0.102D-02 0.354D-02-0.640D-03-0.481D-02 0.515D-02
 Coeff:     -0.222D-02-0.944D-02 0.363D-01-0.289D-01 0.345D-02-0.231D+00
 Coeff:      0.237D+00 0.995D+00
 Gap=     0.020 Goal=   None    Shift=    0.000
 RMSDP=8.38D-05 MaxDP=2.33D-03 DE=-1.74D-05 OVMax= 0.00D+00

 Cycle  31  Pass 1  IDiag  1:
 RMSU=  1.98D-05    CP:  1.00D+00  2.07D+00
 E= -2547.98541051070     Delta-E=       -0.000012183948 Rises=F Damp=F
 DIIS: error= 3.97D-04 at cycle  23 NSaved=  20.
 NSaved=20 IEnMin=20 EnMin= -2547.98541051070     IErMin=19 ErrMin= 3.86D-04
 ErrMax= 3.97D-04  0.00D+00 EMaxC= 1.00D-01 BMatC= 8.07D-06 BMatP= 9.98D-06
 IDIUse=3 WtCom= 9.96D-01 WtEn= 3.86D-03
 Coeff-Com: -0.116D-02-0.213D-03-0.552D-03 0.100D-04-0.463D-03-0.510D-03
 Coeff-Com:  0.353D-03 0.218D-02-0.745D-03 0.439D-02-0.777D-02 0.395D-01
 Coeff-Com:  0.245D-01-0.203D-01-0.264D-01 0.118D-01-0.309D+00-0.464D+00
 Coeff-Com:  0.561D+00 0.119D+01
 Coeff-En:   0.000D+00 0.000D+00 0.000D+00 0.000D+00 0.000D+00 0.000D+00
 Coeff-En:   0.000D+00 0.000D+00 0.000D+00 0.000D+00 0.000D+00 0.000D+00
 Coeff-En:   0.000D+00 0.000D+00 0.000D+00 0.000D+00 0.000D+00 0.000D+00
 Coeff-En:   0.000D+00 0.100D+01
 Coeff:     -0.116D-02-0.212D-03-0.549D-03 0.100D-04-0.461D-03-0.508D-03
 Coeff:      0.351D-03 0.217D-02-0.742D-03 0.437D-02-0.774D-02 0.394D-01
 Coeff:      0.244D-01-0.202D-01-0.263D-01 0.117D-01-0.307D+00-0.462D+00
 Coeff:      0.558D+00 0.119D+01
 Gap=     0.020 Goal=   None    Shift=    0.000
 RMSDP=1.04D-04 MaxDP=2.93D-03 DE=-1.22D-05 OVMax= 0.00D+00

 Cycle  32  Pass 1  IDiag  1:
 RMSU=  3.74D-05    CP:  1.00D+00  3.00D+00  2.28D+00
 E= -2547.98542423720     Delta-E=       -0.000013726504 Rises=F Damp=F
 DIIS: error= 3.56D-04 at cycle  24 NSaved=  20.
 NSaved=20 IEnMin=20 EnMin= -2547.98542423720     IErMin=20 ErrMin= 3.56D-04
 ErrMax= 3.56D-04  0.00D+00 EMaxC= 1.00D-01 BMatC= 4.75D-06 BMatP= 8.07D-06
 IDIUse=3 WtCom= 9.96D-01 WtEn= 3.56D-03
 Coeff-Com: -0.608D-03-0.293D-03-0.402D-03-0.330D-03-0.364D-03 0.239D-04
 Coeff-Com:  0.303D-03-0.869D-04 0.665D-02-0.794D-02 0.395D-01 0.332D-01
 Coeff-Com: -0.246D-01-0.305D-01 0.264D-01-0.124D+00-0.209D+00-0.181D+00
 Coeff-Com:  0.424D+00 0.105D+01
 Coeff-En:   0.000D+00 0.000D+00 0.000D+00 0.000D+00 0.000D+00 0.000D+00
 Coeff-En:   0.000D+00 0.000D+00 0.000D+00 0.000D+00 0.000D+00 0.000D+00
 Coeff-En:   0.000D+00 0.000D+00 0.000D+00 0.000D+00 0.000D+00 0.000D+00
 Coeff-En:   0.000D+00 0.100D+01
 Coeff:     -0.605D-03-0.292D-03-0.401D-03-0.329D-03-0.363D-03 0.238D-04
 Coeff:      0.302D-03-0.866D-04 0.662D-02-0.792D-02 0.393D-01 0.330D-01
 Coeff:     -0.245D-01-0.304D-01 0.263D-01-0.124D+00-0.208D+00-0.180D+00
 Coeff:      0.423D+00 0.105D+01
 Gap=     0.020 Goal=   None    Shift=    0.000
 RMSDP=8.32D-05 MaxDP=2.04D-03 DE=-1.37D-05 OVMax= 0.00D+00

 Cycle  33  Pass 1  IDiag  1:
 RMSU=  4.09D-05    CP:  1.00D+00  3.00D+00  3.00D+00  2.88D+00
 E= -2547.98543722679     Delta-E=       -0.000012989586 Rises=F Damp=F
 DIIS: error= 9.09D-05 at cycle  25 NSaved=  20.
 NSaved=20 IEnMin=20 EnMin= -2547.98543722679     IErMin=20 ErrMin= 9.09D-05
 ErrMax= 9.09D-05  0.00D+00 EMaxC= 1.00D-01 BMatC= 9.17D-07 BMatP= 4.75D-06
 IDIUse=1 WtCom= 1.00D+00 WtEn= 0.00D+00
 Coeff-Com:  0.143D-03-0.367D-05 0.242D-03-0.437D-03-0.378D-03-0.793D-03
 Coeff-Com: -0.356D-05 0.845D-03-0.198D-02-0.101D-02 0.312D-01 0.162D-01
 Coeff-Com: -0.841D-01-0.367D-01 0.382D-01 0.271D+00-0.186D+00-0.560D+00
 Coeff-Com:  0.686D+00 0.828D+00
 Coeff:      0.143D-03-0.367D-05 0.242D-03-0.437D-03-0.378D-03-0.793D-03
 Coeff:     -0.356D-05 0.845D-03-0.198D-02-0.101D-02 0.312D-01 0.162D-01
 Coeff:     -0.841D-01-0.367D-01 0.382D-01 0.271D+00-0.186D+00-0.560D+00
 Coeff:      0.686D+00 0.828D+00
 Gap=     0.020 Goal=   None    Shift=    0.000
 RMSDP=4.86D-05 MaxDP=1.60D-03 DE=-1.30D-05 OVMax= 0.00D+00

 Cycle  34  Pass 1  IDiag  1:
 RMSU=  4.15D-05    CP:  1.00D+00  3.00D+00  3.00D+00  3.00D+00  1.40D+00
 E= -2547.98543961020     Delta-E=       -0.000002383406 Rises=F Damp=F
 DIIS: error= 1.16D-04 at cycle  26 NSaved=  20.
 NSaved=20 IEnMin=20 EnMin= -2547.98543961020     IErMin=19 ErrMin= 9.09D-05
 ErrMax= 1.16D-04  0.00D+00 EMaxC= 1.00D-01 BMatC= 6.47D-07 BMatP= 9.17D-07
 IDIUse=1 WtCom= 1.00D+00 WtEn= 0.00D+00
 Coeff-Com:  0.159D-03 0.203D-04 0.227D-03-0.321D-03-0.336D-03-0.441D-03
 Coeff-Com:  0.363D-03-0.517D-04-0.791D-02 0.185D-01 0.835D-02-0.682D-01
 Coeff-Com: -0.592D-01 0.241D-01 0.126D+00 0.531D-01-0.252D+00 0.136D+00
 Coeff-Com:  0.105D+00 0.917D+00
 Coeff:      0.159D-03 0.203D-04 0.227D-03-0.321D-03-0.336D-03-0.441D-03
 Coeff:      0.363D-03-0.517D-04-0.791D-02 0.185D-01 0.835D-02-0.682D-01
 Coeff:     -0.592D-01 0.241D-01 0.126D+00 0.531D-01-0.252D+00 0.136D+00
 Coeff:      0.105D+00 0.917D+00
 Gap=     0.020 Goal=   None    Shift=    0.000
 RMSDP=3.11D-05 MaxDP=1.09D-03 DE=-2.38D-06 OVMax= 0.00D+00

 Cycle  35  Pass 1  IDiag  1:
 RMSU=  1.36D-05    CP:  1.00D+00  3.00D+00  3.00D+00  3.00D+00  1.44D+00
                    CP:  1.67D+00
 E= -2547.98544136074     Delta-E=       -0.000001750546 Rises=F Damp=F
 DIIS: error= 9.28D-05 at cycle  27 NSaved=  20.
 NSaved=20 IEnMin=20 EnMin= -2547.98544136074     IErMin=18 ErrMin= 9.09D-05
 ErrMax= 9.28D-05  0.00D+00 EMaxC= 1.00D-01 BMatC= 3.11D-07 BMatP= 6.47D-07
 IDIUse=1 WtCom= 1.00D+00 WtEn= 0.00D+00
 Coeff-Com:  0.515D-05 0.568D-04-0.105D-03-0.123D-03-0.356D-06 0.760D-03
 Coeff-Com: -0.334D-04-0.466D-02 0.632D-02-0.299D-02-0.342D-01-0.490D-01
 Coeff-Com: -0.207D-01-0.782D-01 0.141D+00 0.172D+00-0.152D+00-0.429D+00
 Coeff-Com:  0.564D+00 0.887D+00
 Coeff:      0.515D-05 0.568D-04-0.105D-03-0.123D-03-0.356D-06 0.760D-03
 Coeff:     -0.334D-04-0.466D-02 0.632D-02-0.299D-02-0.342D-01-0.490D-01
 Coeff:     -0.207D-01-0.782D-01 0.141D+00 0.172D+00-0.152D+00-0.429D+00
 Coeff:      0.564D+00 0.887D+00
 Gap=     0.020 Goal=   None    Shift=    0.000
 RMSDP=3.88D-05 MaxDP=1.29D-03 DE=-1.75D-06 OVMax= 0.00D+00

 Cycle  36  Pass 1  IDiag  1:
 RMSU=  9.28D-06    CP:  1.00D+00  3.00D+00  3.00D+00  3.00D+00  1.58D+00
                    CP:  2.47D+00  2.27D+00
 E= -2547.98544238543     Delta-E=       -0.000001024689 Rises=F Damp=F
 DIIS: error= 5.44D-05 at cycle  28 NSaved=  20.
 NSaved=20 IEnMin=20 EnMin= -2547.98544238543     IErMin=20 ErrMin= 5.44D-05
 ErrMax= 5.44D-05  0.00D+00 EMaxC= 1.00D-01 BMatC= 1.47D-07 BMatP= 3.11D-07
 IDIUse=1 WtCom= 1.00D+00 WtEn= 0.00D+00
 Coeff-Com: -0.421D-04 0.327D-04-0.180D-04 0.928D-05 0.558D-03 0.581D-03
 Coeff-Com: -0.237D-02-0.212D-02-0.195D-02-0.377D-02-0.138D-01-0.799D-02
 Coeff-Com: -0.396D-01 0.446D-01 0.120D+00-0.785D-01-0.234D+00-0.310D-01
 Coeff-Com:  0.452D+00 0.797D+00
 Coeff:     -0.421D-04 0.327D-04-0.180D-04 0.928D-05 0.558D-03 0.581D-03
 Coeff:     -0.237D-02-0.212D-02-0.195D-02-0.377D-02-0.138D-01-0.799D-02
 Coeff:     -0.396D-01 0.446D-01 0.120D+00-0.785D-01-0.234D+00-0.310D-01
 Coeff:      0.452D+00 0.797D+00
 Gap=     0.020 Goal=   None    Shift=    0.000
 RMSDP=1.33D-05 MaxDP=4.71D-04 DE=-1.02D-06 OVMax= 0.00D+00

 Cycle  37  Pass 1  IDiag  1:
 RMSU=  2.86D-06    CP:  1.00D+00  3.00D+00  3.00D+00  3.00D+00  1.59D+00
                    CP:  2.74D+00  2.72D+00  1.31D+00
 E= -2547.98544267101     Delta-E=       -0.000000285580 Rises=F Damp=F
 DIIS: error= 2.96D-05 at cycle  29 NSaved=  20.
 NSaved=20 IEnMin=20 EnMin= -2547.98544267101     IErMin=20 ErrMin= 2.96D-05
 ErrMax= 2.96D-05  0.00D+00 EMaxC= 1.00D-01 BMatC= 3.18D-08 BMatP= 1.47D-07
 IDIUse=1 WtCom= 1.00D+00 WtEn= 0.00D+00
 Coeff-Com:  0.576D-04 0.305D-04-0.283D-04 0.121D-03 0.354D-03-0.589D-03
 Coeff-Com: -0.300D-02 0.933D-03 0.685D-02 0.813D-02 0.708D-02 0.218D-01
 Coeff-Com: -0.466D-01-0.182D-01 0.449D-01 0.670D-01-0.235D+00-0.115D+00
 Coeff-Com:  0.424D+00 0.837D+00
 Coeff:      0.576D-04 0.305D-04-0.283D-04 0.121D-03 0.354D-03-0.589D-03
 Coeff:     -0.300D-02 0.933D-03 0.685D-02 0.813D-02 0.708D-02 0.218D-01
 Coeff:     -0.466D-01-0.182D-01 0.449D-01 0.670D-01-0.235D+00-0.115D+00
 Coeff:      0.424D+00 0.837D+00
 Gap=     0.020 Goal=   None    Shift=    0.000
 RMSDP=7.53D-06 MaxDP=2.11D-04 DE=-2.86D-07 OVMax= 0.00D+00

 Cycle  38  Pass 1  IDiag  1:
 RMSU=  1.84D-06    CP:  1.00D+00  3.00D+00  3.00D+00  3.00D+00  1.60D+00
                    CP:  2.86D+00  2.97D+00  1.68D+00  1.76D+00
 E= -2547.98544275280     Delta-E=       -0.000000081791 Rises=F Damp=F
 DIIS: error= 1.07D-05 at cycle  30 NSaved=  20.
 NSaved=20 IEnMin=20 EnMin= -2547.98544275280     IErMin=20 ErrMin= 1.07D-05
 ErrMax= 1.07D-05  0.00D+00 EMaxC= 1.00D-01 BMatC= 6.59D-09 BMatP= 3.18D-08
 IDIUse=1 WtCom= 1.00D+00 WtEn= 0.00D+00
 Coeff-Com:  0.121D-04 0.806D-04-0.146D-03 0.140D-03 0.170D-03-0.168D-02
 Coeff-Com:  0.217D-02 0.606D-02 0.976D-02 0.144D-02 0.265D-01-0.331D-01
 Coeff-Com: -0.377D-01 0.496D-01 0.116D+00-0.172D+00-0.237D+00-0.375D-01
 Coeff-Com:  0.453D+00 0.854D+00
 Coeff:      0.121D-04 0.806D-04-0.146D-03 0.140D-03 0.170D-03-0.168D-02
 Coeff:      0.217D-02 0.606D-02 0.976D-02 0.144D-02 0.265D-01-0.331D-01
 Coeff:     -0.377D-01 0.496D-01 0.116D+00-0.172D+00-0.237D+00-0.375D-01
 Coeff:      0.453D+00 0.854D+00
 Gap=     0.020 Goal=   None    Shift=    0.000
 RMSDP=4.67D-06 MaxDP=1.23D-04 DE=-8.18D-08 OVMax= 0.00D+00

 Cycle  39  Pass 1  IDiag  1:
 RMSU=  1.44D-06    CP:  1.00D+00  3.00D+00  3.00D+00  3.00D+00  1.59D+00
                    CP:  2.92D+00  3.00D+00  1.92D+00  2.60D+00  1.29D+00
 E= -2547.98544277278     Delta-E=       -0.000000019977 Rises=F Damp=F
 DIIS: error= 4.53D-06 at cycle  31 NSaved=  20.
 NSaved=20 IEnMin=20 EnMin= -2547.98544277278     IErMin=20 ErrMin= 4.53D-06
 ErrMax= 4.53D-06  0.00D+00 EMaxC= 1.00D-01 BMatC= 1.60D-09 BMatP= 6.59D-09
 IDIUse=1 WtCom= 1.00D+00 WtEn= 0.00D+00
 Coeff-Com:  0.195D-04-0.842D-04-0.101D-03 0.286D-03 0.529D-03 0.134D-02
 Coeff-Com:  0.457D-03 0.344D-02 0.469D-02 0.206D-01-0.260D-01-0.435D-01
 Coeff-Com:  0.382D-01 0.702D-01-0.259D-01-0.116D+00-0.132D+00 0.287D-01
 Coeff-Com:  0.414D+00 0.762D+00
 Coeff:      0.195D-04-0.842D-04-0.101D-03 0.286D-03 0.529D-03 0.134D-02
 Coeff:      0.457D-03 0.344D-02 0.469D-02 0.206D-01-0.260D-01-0.435D-01
 Coeff:      0.382D-01 0.702D-01-0.259D-01-0.116D+00-0.132D+00 0.287D-01
 Coeff:      0.414D+00 0.762D+00
 Gap=     0.020 Goal=   None    Shift=    0.000
 RMSDP=1.92D-06 MaxDP=4.42D-05 DE=-2.00D-08 OVMax= 0.00D+00

 Cycle  40  Pass 1  IDiag  1:
 RMSU=  4.70D-07    CP:  1.00D+00  3.00D+00  3.00D+00  3.00D+00  1.59D+00
                    CP:  2.95D+00  3.00D+00  2.00D+00  2.92D+00  1.71D+00
                    CP:  1.16D+00
 E= -2547.98544277597     Delta-E=       -0.000000003191 Rises=F Damp=F
 DIIS: error= 5.24D-06 at cycle  32 NSaved=  20.
 NSaved=20 IEnMin=20 EnMin= -2547.98544277597     IErMin=19 ErrMin= 4.53D-06
 ErrMax= 5.24D-06  0.00D+00 EMaxC= 1.00D-01 BMatC= 9.67D-10 BMatP= 1.60D-09
 IDIUse=1 WtCom= 1.00D+00 WtEn= 0.00D+00
 Coeff-Com: -0.465D-04-0.116D-03 0.335D-04 0.858D-03 0.595D-03-0.152D-02
 Coeff-Com: -0.517D-03 0.252D-02 0.104D-01-0.684D-02-0.239D-01 0.724D-02
 Coeff-Com:  0.177D-01 0.298D-01-0.533D-02-0.598D-01-0.112D+00 0.546D-03
 Coeff-Com:  0.305D+00 0.835D+00
 Coeff:     -0.465D-04-0.116D-03 0.335D-04 0.858D-03 0.595D-03-0.152D-02
 Coeff:     -0.517D-03 0.252D-02 0.104D-01-0.684D-02-0.239D-01 0.724D-02
 Coeff:      0.177D-01 0.298D-01-0.533D-02-0.598D-01-0.112D+00 0.546D-03
 Coeff:      0.305D+00 0.835D+00
 Gap=     0.020 Goal=   None    Shift=    0.000
 RMSDP=1.05D-06 MaxDP=2.13D-05 DE=-3.19D-09 OVMax= 0.00D+00

 Cycle  41  Pass 1  IDiag  1:
 RMSU=  6.20D-07    CP:  1.00D+00  3.00D+00  3.00D+00  3.00D+00  1.60D+00
                    CP:  2.96D+00  3.00D+00  2.00D+00  3.00D+00  1.93D+00
                    CP:  9.03D-01  1.40D+00
 E= -2547.98544277852     Delta-E=       -0.000000002554 Rises=F Damp=F
 DIIS: error= 1.78D-06 at cycle  33 NSaved=  20.
 NSaved=20 IEnMin=20 EnMin= -2547.98544277852     IErMin=20 ErrMin= 1.78D-06
 ErrMax= 1.78D-06  0.00D+00 EMaxC= 1.00D-01 BMatC= 2.75D-10 BMatP= 9.67D-10
 IDIUse=1 WtCom= 1.00D+00 WtEn= 0.00D+00
 Coeff-Com: -0.220D-04-0.232D-04 0.226D-03-0.263D-03-0.715D-03-0.892D-03
 Coeff-Com:  0.536D-03 0.123D-03 0.157D-02-0.859D-03-0.579D-02-0.925D-02
 Coeff-Com:  0.199D-01 0.311D-01 0.129D-01-0.770D-01-0.104D+00-0.792D-01
 Coeff-Com:  0.394D+00 0.817D+00
 Coeff:     -0.220D-04-0.232D-04 0.226D-03-0.263D-03-0.715D-03-0.892D-03
 Coeff:      0.536D-03 0.123D-03 0.157D-02-0.859D-03-0.579D-02-0.925D-02
 Coeff:      0.199D-01 0.311D-01 0.129D-01-0.770D-01-0.104D+00-0.792D-01
 Coeff:      0.394D+00 0.817D+00
 Gap=     0.020 Goal=   None    Shift=    0.000
 RMSDP=4.12D-07 MaxDP=1.30D-05 DE=-2.55D-09 OVMax= 0.00D+00

 Cycle  42  Pass 1  IDiag  1:
 RMSU=  1.85D-07    CP:  1.00D+00  3.00D+00  3.00D+00  3.00D+00  1.60D+00
                    CP:  2.96D+00  3.00D+00  2.00D+00  3.00D+00  2.02D+00
                    CP:  9.31D-01  1.66D+00  1.45D+00
 E= -2547.98544277892     Delta-E=       -0.000000000391 Rises=F Damp=F
 DIIS: error= 9.66D-07 at cycle  34 NSaved=  20.
 NSaved=20 IEnMin=20 EnMin= -2547.98544277892     IErMin=20 ErrMin= 9.66D-07
 ErrMax= 9.66D-07  0.00D+00 EMaxC= 1.00D-01 BMatC= 7.09D-11 BMatP= 2.75D-10
 IDIUse=1 WtCom= 1.00D+00 WtEn= 0.00D+00
 Coeff-Com: -0.110D-04-0.138D-04-0.148D-03-0.118D-03-0.886D-04-0.111D-03
 Coeff-Com: -0.786D-03 0.431D-04 0.141D-02 0.155D-02 0.264D-02-0.137D-02
 Coeff-Com: -0.429D-02 0.305D-02 0.975D-02 0.177D-01-0.122D+00-0.167D+00
 Coeff-Com:  0.318D+00 0.942D+00
 Coeff:     -0.110D-04-0.138D-04-0.148D-03-0.118D-03-0.886D-04-0.111D-03
 Coeff:     -0.786D-03 0.431D-04 0.141D-02 0.155D-02 0.264D-02-0.137D-02
 Coeff:     -0.429D-02 0.305D-02 0.975D-02 0.177D-01-0.122D+00-0.167D+00
 Coeff:      0.318D+00 0.942D+00
 Gap=     0.020 Goal=   None    Shift=    0.000
 RMSDP=3.75D-07 MaxDP=7.18D-06 DE=-3.91D-10 OVMax= 0.00D+00

 Cycle  43  Pass 1  IDiag  1:
 RMSU=  1.28D-07    CP:  1.00D+00  3.00D+00  3.00D+00  3.00D+00  1.60D+00
                    CP:  2.96D+00  3.00D+00  2.01D+00  3.00D+00  2.03D+00
                    CP:  1.05D+00  1.77D+00  1.59D+00  2.09D+00
 E= -2547.98544277910     Delta-E=       -0.000000000182 Rises=F Damp=F
 DIIS: error= 5.00D-07 at cycle  35 NSaved=  20.
 NSaved=20 IEnMin=20 EnMin= -2547.98544277910     IErMin=20 ErrMin= 5.00D-07
 ErrMax= 5.00D-07  0.00D+00 EMaxC= 1.00D-01 BMatC= 1.40D-11 BMatP= 7.09D-11
 IDIUse=1 WtCom= 1.00D+00 WtEn= 0.00D+00
 Coeff-Com: -0.153D-04 0.455D-04-0.460D-04-0.934D-06-0.778D-03-0.105D-02
 Coeff-Com:  0.509D-03 0.222D-02 0.256D-02 0.564D-02-0.672D-02-0.159D-01
 Coeff-Com: -0.699D-02 0.393D-01 0.734D-01-0.662D-01-0.291D+00-0.741D-01
 Coeff-Com:  0.565D+00 0.774D+00
 Coeff:     -0.153D-04 0.455D-04-0.460D-04-0.934D-06-0.778D-03-0.105D-02
 Coeff:      0.509D-03 0.222D-02 0.256D-02 0.564D-02-0.672D-02-0.159D-01
 Coeff:     -0.699D-02 0.393D-01 0.734D-01-0.662D-01-0.291D+00-0.741D-01
 Coeff:      0.565D+00 0.774D+00
 Gap=     0.020 Goal=   None    Shift=    0.000
 RMSDP=2.52D-07 MaxDP=4.85D-06 DE=-1.82D-10 OVMax= 0.00D+00

 Cycle  44  Pass 1  IDiag  1:
 RMSU=  7.05D-08    CP:  1.00D+00  3.00D+00  3.00D+00  3.00D+00  1.60D+00
                    CP:  2.96D+00  3.00D+00  2.01D+00  3.00D+00  2.01D+00
                    CP:  1.10D+00  1.84D+00  1.67D+00  2.89D+00  2.02D+00
 E= -2547.98544277917     Delta-E=       -0.000000000071 Rises=F Damp=F
 DIIS: error= 5.70D-07 at cycle  36 NSaved=  20.
 NSaved=20 IEnMin=20 EnMin= -2547.98544277917     IErMin=19 ErrMin= 5.00D-07
 ErrMax= 5.70D-07  0.00D+00 EMaxC= 1.00D-01 BMatC= 1.59D-11 BMatP= 1.40D-11
 IDIUse=1 WtCom= 1.00D+00 WtEn= 0.00D+00
 Coeff-Com:  0.406D-04-0.493D-04-0.190D-03-0.789D-03-0.131D-02 0.200D-02
 Coeff-Com:  0.318D-02-0.165D-02-0.184D-02-0.120D-02-0.190D-02-0.275D-02
 Coeff-Com:  0.149D-01 0.305D-01-0.122D-01-0.105D+00-0.851D-01 0.468D-01
 Coeff-Com:  0.316D+00 0.801D+00
 Coeff:      0.406D-04-0.493D-04-0.190D-03-0.789D-03-0.131D-02 0.200D-02
 Coeff:      0.318D-02-0.165D-02-0.184D-02-0.120D-02-0.190D-02-0.275D-02
 Coeff:      0.149D-01 0.305D-01-0.122D-01-0.105D+00-0.851D-01 0.468D-01
 Coeff:      0.316D+00 0.801D+00
 Gap=     0.020 Goal=   None    Shift=    0.000
 RMSDP=1.31D-07 MaxDP=1.89D-06 DE=-7.09D-11 OVMax= 0.00D+00

 Cycle  45  Pass 1  IDiag  1:
 RMSU=  5.80D-08    CP:  1.00D+00  3.00D+00  3.00D+00  3.00D+00  1.60D+00
                    CP:  2.96D+00  3.00D+00  2.01D+00  3.00D+00  2.00D+00
                    CP:  1.10D+00  1.86D+00  1.73D+00  3.00D+00  2.57D+00
                    CP:  1.63D+00
 E= -2547.98544277917     Delta-E=       -0.000000000004 Rises=F Damp=F
 DIIS: error= 2.92D-07 at cycle  37 NSaved=  20.
 NSaved=20 IEnMin=20 EnMin= -2547.98544277917     IErMin=20 ErrMin= 2.92D-07
 ErrMax= 2.92D-07  0.00D+00 EMaxC= 1.00D-01 BMatC= 6.15D-12 BMatP= 1.40D-11
 IDIUse=1 WtCom= 1.00D+00 WtEn= 0.00D+00
 Coeff-Com: -0.230D-04-0.146D-03-0.263D-03-0.769D-03 0.141D-02 0.202D-02
 Coeff-Com: -0.228D-02-0.359D-02 0.112D-02 0.404D-02 0.110D-02-0.328D-02
 Coeff-Com: -0.823D-02 0.682D-02 0.148D-01-0.126D-01-0.658D-01-0.541D-01
 Coeff-Com:  0.247D+00 0.872D+00
 Coeff:     -0.230D-04-0.146D-03-0.263D-03-0.769D-03 0.141D-02 0.202D-02
 Coeff:     -0.228D-02-0.359D-02 0.112D-02 0.404D-02 0.110D-02-0.328D-02
 Coeff:     -0.823D-02 0.682D-02 0.148D-01-0.126D-01-0.658D-01-0.541D-01
 Coeff:      0.247D+00 0.872D+00
 Gap=     0.020 Goal=   None    Shift=    0.000
 RMSDP=8.22D-08 MaxDP=2.47D-06 DE=-3.64D-12 OVMax= 0.00D+00

 Cycle  46  Pass 1  IDiag  1:
 RMSU=  2.72D-08    CP:  1.00D+00  3.00D+00  3.00D+00  3.00D+00  1.60D+00
                    CP:  2.96D+00  3.00D+00  2.01D+00  3.00D+00  2.00D+00
                    CP:  1.12D+00  1.88D+00  1.77D+00  3.00D+00  2.70D+00
                    CP:  1.64D+00  1.65D+00
 E= -2547.98544277916     Delta-E=        0.000000000013 Rises=F Damp=F
 DIIS: error= 6.71D-08 at cycle  38 NSaved=  20.
 NSaved=20 IEnMin=19 EnMin= -2547.98544277917     IErMin=20 ErrMin= 6.71D-08
 ErrMax= 6.71D-08  0.00D+00 EMaxC= 1.00D-01 BMatC= 2.81D-13 BMatP= 6.15D-12
 IDIUse=1 WtCom= 1.00D+00 WtEn= 0.00D+00
 Coeff-Com: -0.208D-05 0.102D-03 0.461D-04-0.779D-04 0.608D-04-0.324D-03
 Coeff-Com: -0.642D-03 0.345D-03 0.103D-02 0.689D-03-0.321D-02-0.783D-02
 Coeff-Com:  0.509D-02 0.230D-01 0.489D-02-0.283D-01-0.680D-01-0.137D+00
 Coeff-Com:  0.219D+00 0.991D+00
 Coeff:     -0.208D-05 0.102D-03 0.461D-04-0.779D-04 0.608D-04-0.324D-03
 Coeff:     -0.642D-03 0.345D-03 0.103D-02 0.689D-03-0.321D-02-0.783D-02
 Coeff:      0.509D-02 0.230D-01 0.489D-02-0.283D-01-0.680D-01-0.137D+00
 Coeff:      0.219D+00 0.991D+00
 Gap=     0.020 Goal=   None    Shift=    0.000
 RMSDP=5.97D-08 MaxDP=1.71D-06 DE= 1.27D-11 OVMax= 0.00D+00

 Cycle  47  Pass 1  IDiag  1:
 RMSU=  9.68D-09    CP:  1.00D+00  3.00D+00  3.00D+00  3.00D+00  1.60D+00
                    CP:  2.96D+00  3.00D+00  2.01D+00  3.00D+00  1.99D+00
                    CP:  1.13D+00  1.89D+00  1.79D+00  3.00D+00  2.79D+00
                    CP:  1.65D+00  2.07D+00  1.80D+00
 E= -2547.98544277919     Delta-E=       -0.000000000026 Rises=F Damp=F
 DIIS: error= 4.36D-08 at cycle  39 NSaved=  20.
 NSaved=20 IEnMin=20 EnMin= -2547.98544277919     IErMin=20 ErrMin= 4.36D-08
 ErrMax= 4.36D-08  0.00D+00 EMaxC= 1.00D-01 BMatC= 1.69D-13 BMatP= 2.81D-13
 IDIUse=1 WtCom= 1.00D+00 WtEn= 0.00D+00
 Coeff-Com:  0.594D-04 0.554D-04-0.124D-03-0.587D-04-0.169D-04-0.650D-04
 Coeff-Com:  0.282D-03 0.508D-04 0.848D-04-0.149D-02-0.189D-02 0.785D-03
 Coeff-Com:  0.570D-02-0.351D-03-0.129D-01-0.651D-02-0.346D-01-0.220D-01
 Coeff-Com:  0.468D+00 0.605D+00
 Coeff:      0.594D-04 0.554D-04-0.124D-03-0.587D-04-0.169D-04-0.650D-04
 Coeff:      0.282D-03 0.508D-04 0.848D-04-0.149D-02-0.189D-02 0.785D-03
 Coeff:      0.570D-02-0.351D-03-0.129D-01-0.651D-02-0.346D-01-0.220D-01
 Coeff:      0.468D+00 0.605D+00
 Gap=     0.020 Goal=   None    Shift=    0.000
 RMSDP=1.26D-08 MaxDP=2.15D-07 DE=-2.64D-11 OVMax= 0.00D+00

 Cycle  48  Pass 1  IDiag  1:
 RMSU=  3.24D-09    CP:  1.00D+00  3.00D+00  3.00D+00  3.00D+00  1.60D+00
                    CP:  2.96D+00  3.00D+00  2.01D+00  3.00D+00  2.00D+00
                    CP:  1.13D+00  1.90D+00  1.79D+00  3.00D+00  2.80D+00
                    CP:  1.64D+00  2.12D+00  2.02D+00  1.30D+00
 E= -2547.98544277922     Delta-E=       -0.000000000029 Rises=F Damp=F
 DIIS: error= 3.44D-08 at cycle  40 NSaved=  20.
 NSaved=20 IEnMin=20 EnMin= -2547.98544277922     IErMin=20 ErrMin= 3.44D-08
 ErrMax= 3.44D-08  0.00D+00 EMaxC= 1.00D-01 BMatC= 7.15D-14 BMatP= 1.69D-13
 IDIUse=1 WtCom= 1.00D+00 WtEn= 0.00D+00
 Coeff-Com:  0.669D-04-0.132D-03-0.171D-03 0.226D-03 0.279D-03 0.305D-04
 Coeff-Com: -0.344D-03 0.111D-03 0.616D-04 0.200D-02 0.565D-03-0.149D-02
 Coeff-Com: -0.410D-02-0.877D-02 0.254D-01 0.508D-01-0.160D+00-0.254D+00
 Coeff-Com:  0.220D+00 0.113D+01
 Coeff:      0.669D-04-0.132D-03-0.171D-03 0.226D-03 0.279D-03 0.305D-04
 Coeff:     -0.344D-03 0.111D-03 0.616D-04 0.200D-02 0.565D-03-0.149D-02
 Coeff:     -0.410D-02-0.877D-02 0.254D-01 0.508D-01-0.160D+00-0.254D+00
 Coeff:      0.220D+00 0.113D+01
 Gap=     0.020 Goal=   None    Shift=    0.000
 RMSDP=2.22D-08 MaxDP=4.18D-07 DE=-2.91D-11 OVMax= 0.00D+00

 Cycle  49  Pass 1  IDiag  1:
 Restarting incremental Fock formation.
 E= -2547.98544277920     Delta-E=        0.000000000014 Rises=F Damp=F
 DIIS: error= 1.62D-08 at cycle  41 NSaved=  20.
 NSaved=20 IEnMin=19 EnMin= -2547.98544277922     IErMin=20 ErrMin= 1.62D-08
 ErrMax= 1.62D-08  0.00D+00 EMaxC= 1.00D-01 BMatC= 1.61D-14 BMatP= 7.15D-14
 IDIUse=1 WtCom= 1.00D+00 WtEn= 0.00D+00
 Large coefficients: NSaved= 20 BigCof=    0.00 CofMax=   10.00 Det=-7.03D-15
 Inversion failed.  Reducing to 19 matrices.
 Large coefficients: NSaved= 19 BigCof=    0.00 CofMax=   10.00 Det=-8.02D-15
 Inversion failed.  Reducing to 18 matrices.
 Coeff-Com:  0.175D-04-0.993D-05 0.225D-04 0.365D-04 0.190D-03-0.212D-03
 Coeff-Com: -0.366D-04 0.263D-03 0.327D-03 0.297D-03-0.618D-02 0.203D-02
 Coeff-Com:  0.343D-01-0.585D-02-0.145D+00-0.251D-01 0.516D+00 0.629D+00
 Coeff:      0.175D-04-0.993D-05 0.225D-04 0.365D-04 0.190D-03-0.212D-03
 Coeff:     -0.366D-04 0.263D-03 0.327D-03 0.297D-03-0.618D-02 0.203D-02
 Coeff:      0.343D-01-0.585D-02-0.145D+00-0.251D-01 0.516D+00 0.629D+00
 Gap=     0.020 Goal=   None    Shift=    0.000
 RMSDP=9.06D-09 MaxDP=3.12D-07 DE= 1.36D-11 OVMax= 0.00D+00

 SCF Done:  E(RB3LYP) =  -2547.98544278     A.U. after   49 cycles
            NFock= 49  Conv=0.91D-08     -V/T= 2.0084
 KE= 2.526640782899D+03 PE=-1.310634963616D+04 EE= 4.492985885475D+03
 Leave Link  502 at Thu Sep 26 10:45:44 2024, MaxMem= 13421772800 cpu:            1091.0 elap:              10.7
 (Enter /gpfs/fs1/soft/improv/software/custom-built/gaussian/g16/l508.exe)
 QCSCF skips out because SCF is already converged.
 Leave Link  508 at Thu Sep 26 10:45:44 2024, MaxMem= 13421772800 cpu:               0.2 elap:               0.0
 (Enter /gpfs/fs1/soft/improv/software/custom-built/gaussian/g16/l801.exe)
 DoSCS=F DFT=T ScalE2(SS,OS)=  1.000000  1.000000
 Range of M.O.s used for correlation:     1   177
 NBasis=   177 NAE=   114 NBE=   114 NFC=     0 NFV=     0
 NROrb=    177 NOA=   114 NOB=   114 NVA=    63 NVB=    63

 **** Warning!!: The smallest alpha delta epsilon is  0.20065477D-01

 Leave Link  801 at Thu Sep 26 10:45:44 2024, MaxMem= 13421772800 cpu:               0.4 elap:               0.0
 (Enter /gpfs/fs1/soft/improv/software/custom-built/gaussian/g16/l1101.exe)
 Using compressed storage, NAtomX=    52.
 Will process     53 centers per pass.
 R6Disp: Adding Grimme-D3 dispersion energy 1st derivatives to the gradient.
 Leave Link 1101 at Thu Sep 26 10:45:44 2024, MaxMem= 13421772800 cpu:              26.4 elap:               0.3
 (Enter /gpfs/fs1/soft/improv/software/custom-built/gaussian/g16/l1102.exe)
 Symmetrizing basis deriv contribution to polar:
 IMax=3 JMax=2 DiffMx= 0.00D+00
 Leave Link 1102 at Thu Sep 26 10:45:44 2024, MaxMem= 13421772800 cpu:               0.6 elap:               0.0
 (Enter /gpfs/fs1/soft/improv/software/custom-built/gaussian/g16/l1110.exe)
 Forming Gx(P) for the SCF density, NAtomX=    52.
 Integral derivatives from FoFJK, PRISM(SPDF).
 Do as many integral derivatives as possible in FoFJK.
 G2DrvN: MDV=   13421767100.
 G2DrvN: will do    53 centers at a time, making    1 passes.
 Calling FoFCou, ICntrl=  3107 FMM=F I1Cent=   0 AccDes= 0.00D+00.
 FoFJK:  IHMeth= 1 ICntrl=    3107 DoSepK=F KAlg= 0 I1Cent=           0 FoldK=F
 IRaf=         0 NMat=       1 IRICut=       1 DoRegI=T DoRafI=F ISym2E= 0 IDoP0=0 IntGTp=1.
 FoFCou: FMM=F IPFlag=           0 FMFlag=      100000 FMFlg1=           0
         NFxFlg=           0 DoJE=F BraDBF=F KetDBF=F FulRan=T
         wScrn=  0.000000 ICntrl=      3107 IOpCl=  0 I1Cent=           0 NGrid=           0
         NMat0=    1 NMatS0=      1 NMatT0=    0 NMatD0=    1 NMtDS0=    0 NMtDT0=    0
 Symmetry not used in FoFCou.
 End of G2Drv F.D. properties file   721 does not exist.
 End of G2Drv F.D. properties file   722 does not exist.
 End of G2Drv F.D. properties file   788 does not exist.
 Leave Link 1110 at Thu Sep 26 10:45:48 2024, MaxMem= 13421772800 cpu:             508.6 elap:               4.2
 (Enter /gpfs/fs1/soft/improv/software/custom-built/gaussian/g16/l1002.exe)
 Minotr:  Closed shell wavefunction.
          IDoAtm=11111111111111111111111111111111111111111111111111
          IDoAtm=11
          Direct CPHF calculation.
          Differentiating once with respect to electric field.
                with respect to dipole field.
          Differentiating once with respect to nuclear coordinates.
          Requested convergence is 1.0D-08 RMS, and 1.0D-07 maximum.
          Secondary convergence is 1.0D-12 RMS, and 1.0D-12 maximum.
          NewPWx=T KeepS1=F KeepF1=F KeepIn=T MapXYZ=F SortEE=F KeepMc=T.
        15721 words used for storage of precomputed grid.
 Keep R1 ints in memory in canonical form, NReq=252496957.
 FoFCou: FMM=F IPFlag=           0 FMFlag=           0 FMFlg1=           0
         NFxFlg=           0 DoJE=F BraDBF=F KetDBF=F FulRan=T
         wScrn=  0.000000 ICntrl=       600 IOpCl=  0 I1Cent=           0 NGrid=           0
         NMat0=    1 NMatS0=  15753 NMatT0=    0 NMatD0=    1 NMtDS0=    0 NMtDT0=    0
 Symmetry not used in FoFCou.
 Two-electron integral symmetry not used.
          MDV=   13421772800 using IRadAn=       1.
          Solving linear equations simultaneously, MaxMat=       0.
[...]
 00029650,0.00000886,0.00001869,-0.00000058,-0.00000483,-0.00000184,0.0
 0000747,-0.00000124,0.00002462,0.00000478,0.00000023,0.00001293,0.0000
 0558,-0.00000981,-0.00000119,0.00001522,0.00000038,0.00001708,0.000022
 64,0.00000344,0.00000841,0.00002235,0.,0.00001271,0.00002226,-0.000002
 96,-0.00003271,0.00058602,0.00035440,0.00001415,0.00002012,0.00001194,
 -0.00021142,-0.00002125,0.00006338,0.00020255,-0.00004080,-0.00011302,
 -0.00002904,-0.00001450,-0.00007377,-0.00023970,-0.00001141,-0.0000685
 6,0.00009396,0.00003677,0.00019829,0.00001632,-0.00001931,-0.00011504,
 0.00005285,0.00000805,0.00004602,0.00008066,-0.00001737,0.00010022,0.0
 0000052,-0.00000395,-0.00001686,-0.00001299,0.00000064,0.00000118,0.00
 000056,-0.00000067,-0.00000949,-0.00000022,0.00000088,-0.00001671,-0.0
 0001517,-0.00000153,-0.00000062,-0.00001905,0.00000079,-0.00001616,-0.
 00001983,-0.00000165,-0.00001007,-0.00001844,-0.00000621,-0.00001540,-
 0.00006104,0.00002190,-0.00046224,-0.00003470,0.00002355,0.00005668,-0
 .00011287,0.00243797,0.00087095,0.00004155,0.00042835,-0.00138039,0.00
 448859,-0.00785141,-0.01511057,0.04605631,-0.04505760,-0.34285137,0.00
 547488,-0.00574229,-0.01251055,-0.00310636,0.00450762,0.00717905,0.000
 13981,-0.00047419,0.00020764,-0.00002869,0.00005640,-0.00008012,0.0000
 0379,0.00007078,-0.00008883,-0.00002114,0.00018455,0.00166616,-0.00037
 665,-0.00044802,0.00114012,-0.05255443,0.05282471,0.36065870,-0.000002
 37,-0.00000179,-0.00000474,-0.00000531,0.00001893,0.00000745,0.0000171
 3,-0.00001353,0.00000373,-0.00000588,-0.00000315,-0.00000391,-0.000000
 32,0.00001052,-0.00000086,-0.00000904,-0.00000585,0.00000141,0.0000056
 4,0.00000062,-0.00000312,-0.00000205,-0.00000296,0.00000064,-0.0000113
 4,-0.00002635,0.00000491,0.00000028,0.00000083,0.00000065,0.00000018,-
 0.00000069,0.00000052,0.00000231,0.00000072,-0.00000085,0.00000055,0.0
 0000062,-0.00000049,0.00000009,0.00000082,0.00000056,0.00000045,0.0000
 0094,0.00000022,0.00000043,0.00000119,0.00000011,0.00000074,0.00000115
 ,-0.00000048,0.00001343,0.00003050,-0.00002322,0.00000198,-0.00000010,
 0.00000265,-0.00002893,-0.00000047,0.00000581,0.00002469,-0.00000070,-
 0.00001218,-0.00001048,-0.00000685,0.00000021,-0.00002631,-0.00000379,
 -0.00000684,0.00001034,0.00000439,0.00002128,0.00000139,-0.00000334,-0
 .00001160,0.00000570,0.00000111,0.00000480,0.00001512,0.00000520,0.000
 02112,-0.00000012,-0.00000057,-0.00000181,-0.00000104,0.00000039,-0.00
 000015,0.00000009,-0.00000012,-0.00000234,-0.00000023,0.00000054,-0.00
 000203,-0.00000190,0.00000021,-0.00000025,-0.00000207,-0.00000007,-0.0
 0000154,-0.00000214,-0.00000007,-0.00000113,-0.00000202,-0.00000071,-0
 .00000185,-0.00005050,-0.00007558,-0.00016590,0.00000512,-0.00001022,0
 .00000514,0.00006977,0.00000120,0.00010863,-0.00002860,0.00002692,-0.0
 0001897,-0.00009848,0.00009885,-0.00012161,0.00091057,-0.00118875,-0.0
 0284463,0.00382824,-0.00013790,-0.00291989,-0.08313157,0.02805044,0.05
 887440,0.00000906,-0.00002751,0.00001430,0.00000014,0.00000377,-0.0000
 0638,0.00000733,0.00001037,-0.00003499,0.00005309,0.00017372,0.0002065
 0,-0.00003947,-0.00000193,0.00000959,-0.00066658,-0.00058750,0.0005660
 0,0.07490056,0.00002318,0.00002467,0.00002710,0.00007887,-0.00022838,-
 0.00007134,-0.00016637,0.00017475,0.00001283,0.00003922,-0.00001544,0.
 00000173,-0.00001956,-0.00018222,-0.00001395,0.00015084,0.00009362,-0.
 00001409,-0.00009864,0.00000323,0.00001917,0.00003263,0.00004643,-0.00
 000251,0.00015430,0.00024506,-0.00004889,-0.00001471,-0.00000221,0.000
 00217,0.00000198,-0.00001017,-0.00000108,-0.00002328,-0.00000612,0.000
 00168,-0.00000970,-0.00000329,0.00000524,0.00000012,-0.00001042,-0.000
 00170,-0.00001244,-0.00001751,-0.00000295,-0.00000680,-0.00001634,-0.0
 0000027,-0.00000996,-0.00001734,0.00000311,-0.00019425,-0.00033829,0.0
 0020085,-0.00001924,-0.00001353,-0.00001412,0.00020691,0.00000960,-0.0
 0005445,-0.00016445,0.00002763,0.00008406,0.00004124,0.00004625,0.0000
 1729,0.00019848,0.00001394,0.00005912,-0.00007743,-0.00003528,-0.00016
 673,-0.00001851,0.00002066,0.00009871,-0.00004423,-0.00000731,-0.00003
 865,-0.00009584,-0.00000106,-0.00013594,0.00000019,0.00000391,0.000015
 11,0.00001669,-0.00000154,-0.00000144,-0.00000099,0.00000103,0.0000117
 7,-0.00000117,-0.00000085,0.00001239,0.00001125,0.00000085,0.00000080,
 0.00001627,-0.00000046,0.00001329,0.00001583,0.00000118,0.00000865,0.0
 0001598,0.00000567,0.00001387,-0.00016639,0.00021221,0.00101469,-0.000
 11033,0.00027007,0.00018835,0.00008471,0.00003361,-0.00063982,0.000067
 18,-0.00018740,0.00003572,0.00006551,-0.00051843,0.00068758,-0.0028772
 8,0.00676927,0.00796158,-0.00227080,0.00325392,0.02206842,0.02709574,-
 0.11731773,-0.11257332,-0.00004079,0.00022419,-0.00016372,0.00004084,-
 0.00006882,0.00014724,-0.00001590,-0.00007720,0.00011864,0.00034328,-0
 .00059717,-0.00172732,0.00000342,-0.00004895,-0.00005863,-0.00019137,0
 .00067887,-0.00234527,-0.03111484,0.11828778,-0.00003664,-0.00003330,-
 0.00004264,-0.00013350,0.00036967,0.00011241,0.00027717,-0.00030309,-0
 .00002444,-0.00005739,0.00003111,0.00000635,0.00003623,0.00032356,0.00
 002753,-0.00026680,-0.00016687,0.00002590,0.00017325,0.00000019,-0.000
 03169,-0.00005878,-0.00008255,0.00000402,-0.00024781,-0.00040011,0.000
 08054,0.00002352,0.00000156,-0.00000503,-0.00000264,0.00000960,0.00000
 039,0.00003740,0.00000875,-0.00000116,0.00001724,0.00000637,-0.0000099
 4,-0.00000079,0.00001978,0.00000250,0.00002239,0.00003085,0.00000508,0
 .00001182,0.00003034,0.00000046,0.00001763,0.00003056,-0.00000519,0.00
 030194,0.00060857,-0.00036610,0.00002845,0.00002737,0.00002050,-0.0003
 3928,-0.00001771,0.00008932,0.00028467,-0.00005171,-0.00013103,-0.0000
 7825,-0.00007114,-0.00003274,-0.00034335,-0.00001896,-0.00010285,0.000
 13569,0.00005869,0.00028655,0.00002692,-0.00002969,-0.00016957,0.00007
 698,0.00001145,0.00006737,0.00015084,-0.00000280,0.00023558,0.00000045
 ,-0.00000571,-0.00002521,-0.00002316,0.00000130,0.00000322,0.00000124,
 -0.00000161,-0.00001573,0.00000180,0.00000070,-0.00002207,-0.00002081,
 -0.00000255,-0.00000113,-0.00002803,0.00000128,-0.00002353,-0.00002855
 ,-0.00000228,-0.00001481,-0.00002721,-0.00000946,-0.00002302,0.0001180
 6,-0.00012152,-0.00130126,0.00024862,-0.00059906,-0.00057116,-0.000096
 91,0.00006577,0.00094135,-0.00013231,0.00026646,-0.00001606,-0.0000134
 1,0.00034419,-0.00093411,0.00180128,-0.00726522,0.00406107,0.00308028,
 0.00192807,-0.03048706,0.06147264,-0.12118755,-0.29670870,0.00005641,-
 0.00033630,0.00038013,-0.00007604,0.00012274,-0.00017433,0.00002494,0.
 00014527,-0.00016008,-0.00031708,0.00037908,0.00287376,-0.00001372,0.0
 0003829,0.00004167,-0.00055064,0.00126979,0.00059274,-0.06447543,0.119
 66411,0.31855418,-0.00001519,-0.00001904,-0.00001778,-0.00005203,0.000
 14906,0.00004712,0.00010682,-0.00010905,-0.00000854,-0.00002411,0.0000
 0209,-0.00000813,0.00001245,0.00011625,0.00000793,-0.00009677,-0.00006
 023,0.00000855,0.00006409,-0.00000368,-0.00001294,-0.00002097,-0.00003
 000,0.00000171,-0.00010547,-0.00015800,0.00003573,0.00001013,0.0000020
 2,-0.00000125,-0.00000183,0.00000897,0.00000116,0.00001555,0.00000443,
 -0.00000141,0.00000626,0.00000141,-0.00000266,0.00000004,0.00000629,0.
 00000118,0.00000801,0.00001141,0.00000198,0.00000445,0.00001027,0.0000
 0019,0.00000646,0.00001128,-0.00000213,0.00015683,0.00017679,-0.000134
 38,0.00001270,0.00000717,0.00000805,-0.00011225,-0.00000590,0.00002853
 ,0.00008624,-0.00001443,-0.00003567,-0.00003634,-0.00002626,-0.0000114
 6,-0.00010727,-0.00000518,-0.00003539,0.00004170,0.00002014,0.00009288
 ,0.00001291,-0.00001104,-0.00005729,0.00002456,0.00000394,0.00002188,0
 .00005128,-0.00000562,0.00006569,0.00000004,-0.00000204,-0.00000873,-0
 .00001193,0.00000050,0.00000111,0.00000030,-0.00000079,-0.00000730,0.0
 0000162,-0.00000096,-0.00000576,-0.00000528,-0.00000094,-0.00000050,-0
 .00000916,0.00000060,-0.00000779,-0.00000849,-0.00000088,-0.00000487,-
 0.00000913,-0.00000332,-0.00000760,-0.00000125,-0.00000972,0.00003255,
 0.00003190,-0.00000614,-0.00021983,-0.00009660,0.00007892,0.00071260,-
 0.00002713,0.00007983,-0.00004360,-0.00008455,0.00051024,-0.00123618,-
 0.00016279,-0.00298881,0.00068628,0.00422305,0.00520378,-0.00460332,-0
 .34393054,0.09097338,0.00353440,0.00002163,-0.00016648,0.00009146,0.00
 001313,-0.00001002,-0.00000640,0.00000248,-0.00001037,0.00000675,0.000
 00499,0.00001592,-0.00006772,0.00006434,-0.00006322,0.00002016,0.00002
 816,-0.00008014,-0.00029350,-0.00284721,-0.00220891,-0.00511392,0.3604
 4927,0.00004075,0.00004521,0.00004658,0.00012365,-0.00038798,-0.000118
 41,-0.00028103,0.00026937,0.00001932,0.00007329,-0.00000646,0.00001869
 ,-0.00002619,-0.00027541,-0.00002120,0.00022815,0.00014185,-0.00002135
 ,-0.00015013,0.00000842,0.00002817,0.00004887,0.00007002,-0.00000330,0
 .00026916,0.00039954,-0.00009008,-0.00002512,-0.00000450,0.00000335,0.
 00000379,-0.00002025,-0.00000219,-0.00003893,-0.00001065,0.00000298,-0
 .00001455,-0.00000463,0.00000855,0.00000009,-0.00001501,-0.00000237,-0
 .00001895,-0.00002670,-0.00000449,-0.00001035,-0.00002395,-0.00000037,
 -0.00001495,-0.00002618,0.00000455,-0.00030329,-0.00043260,0.00027614,
 -0.00002575,-0.00001520,-0.00002001,0.00027033,0.00001275,-0.00006922,
 -0.00021103,0.00003432,0.00010750,0.00006799,0.00006858,0.00002699,0.0
 0025837,0.00001881,0.00007822,-0.00010161,-0.00004790,-0.00021769,-0.0
 0002386,0.00002703,0.00012905,-0.00005823,-0.00000926,-0.00005076,-0.0
 0012553,0.00000345,-0.00016755,0.00000033,0.00000523,0.00001991,0.0000
 2147,-0.00000188,-0.00000144,-0.00000095,0.00000162,0.00001770,-0.0000
 0188,-0.00000030,0.00001594,0.00001507,0.00000132,0.00000135,0.0000214
 1,-0.00000070,0.00001751,0.00002088,0.00000158,0.00001139,0.00002111,0
 .00000747,0.00001821,0.00001129,-0.00000824,-0.00008205,-0.00010043,-0
 .00014428,0.00037522,0.00012561,0.00001987,-0.00147470,0.00017040,-0.0
 0031836,0.00020540,-0.00104949,-0.00206809,0.00163090,0.00109692,0.002
 07103,0.00297913,0.02230932,-0.01420134,0.00413801,0.09746736,-0.08988
 086,-0.00751975,-0.00006483,0.00044395,-0.00019247,-0.00001677,0.00004
 296,0.00000297,-0.00002255,0.00003502,-0.00002041,0.00003558,0.0000461
 7,0.00018743,-0.00026167,-0.00020438,0.00010081,0.00085794,0.00035924,
 0.00049871,0.01525349,-0.00305735,0.00264129,-0.10359911,0.09522583,-0
 .00005057,-0.00005207,-0.00005986,-0.00014382,0.00047609,0.00014917,0.
 00034222,-0.00033602,-0.00001789,-0.00009750,0.00001987,-0.00003188,0.
 00003030,0.00033357,0.00002307,-0.00027649,-0.00017238,0.00002692,0.00
 018104,-0.00000687,-0.00003730,-0.00005960,-0.00008514,0.00000494,-0.0
 0034483,-0.00050363,0.00010611,0.00002893,0.00000590,-0.00000277,-0.00
 000359,0.00001938,0.00000289,0.00004791,0.00001307,-0.00000482,0.00001
 755,0.00000636,-0.00001048,-0.00000009,0.00001891,0.00000366,0.0000225
 1,0.00003201,0.00000544,0.00001248,0.00002981,0.00000058,0.00001838,0.
 00003186,-0.00000594,0.00041167,0.00056841,-0.00031490,0.00003440,0.00
 001589,0.00002811,-0.00037181,-0.00002117,0.00009713,0.00028742,-0.000
 04276,-0.00015844,-0.00007415,-0.00009656,-0.00002989,-0.00034912,-0.0
 0002582,-0.00010427,0.00013581,0.00006507,0.00029367,0.00003230,-0.000
 03853,-0.00017320,0.00007800,0.00001297,0.00006790,0.00017188,0.000021
 01,0.00022672,-0.00000026,-0.00000717,-0.00002611,-0.00002864,0.000003
 08,0.00000155,0.00000112,-0.00000208,-0.00002496,0.00000187,0.00000044
 ,-0.00002168,-0.00002021,-0.00000146,-0.00000183,-0.00002865,0.0000007
 7,-0.00002327,-0.00002788,-0.00000203,-0.00001527,-0.00002825,-0.00001
 004,-0.00002454,0.00000304,-0.00007274,0.00016678,0.00009456,0.0003048
 0,-0.00032352,-0.00027533,-0.00026466,0.00156728,-0.00019325,0.0004843
 7,-0.00024242,0.00079767,0.00195536,-0.00149024,-0.00159088,-0.0023306
 7,-0.00265734,-0.02531388,0.01584807,-0.00022443,-0.00454241,-0.004966
 42,-0.06200423,0.00008873,-0.00062115,0.00022327,0.00002580,-0.0000485
 0,0.00000127,0.00002573,-0.00004723,0.00001788,-0.00005274,0.00000282,
 -0.00043319,0.00038850,0.00029748,-0.00010446,-0.00046938,-0.00012132,
 -0.00019142,0.03387966,-0.00918094,0.00416060,0.00455714,-0.00361982,0
 .06094073,0.00000046,-0.00000093,0.00000334,0.00000003,-0.00000553,-0.
 00000305,-0.00000932,0.00000522,-0.00000331,0.00000290,0.00000482,-0.0
 0000106,0.00000056,-0.00000526,0.00000154,0.00000466,0.00000337,-0.000
 00081,-0.00000287,-0.00000180,0.00000275,0.00000146,0.00000176,-0.0000
 0070,0.00000391,0.00000460,-0.00000416,0.00000130,0.00000010,-0.000000
 67,-0.00000007,0.00000257,-0.00000021,-0.00000081,-0.00000008,0.000000
 50,-0.00000020,-0.00000019,0.00000015,0.00000007,-0.00000057,-0.000000
 61,-0.00000016,-0.00000041,-0.00000011,-0.00000020,-0.00000105,-0.0000
 0012,-0.00000053,-0.00000069,0.00000041,0.00001043,0.00000307,0.000030
 68,-0.00000208,-0.00000023,-0.00000109,0.00001159,-0.00000256,-0.00000
 374,-0.00000896,0.00000060,0.00000345,0.00000390,0.00000033,0.00000262
 ,0.00001206,0.00000073,0.00000428,-0.00000532,-0.00000221,-0.00001215,
 -0.00000219,0.00000177,0.00000814,-0.00000327,-0.00000071,-0.00000318,
 -0.00001100,0.00000359,-0.00000939,0.00000012,0.00000036,0.00000114,0.
 00000185,-0.00000012,-0.00000024,-0.00000024,-0.00000001,0.00000148,-0
 .00000035,0.00000056,0.00000051,0.00000046,-0.00000002,0.00000009,0.00
 000130,-0.00000009,0.00000111,0.00000112,0.00000015,0.00000073,0.00000
 137,0.00000055,0.00000116,-0.00000815,0.00002270,-0.00000164,-0.000030
 39,0.00000749,0.00002371,-0.00003399,-0.00002612,-0.00008550,0.0000410
 3,0.00001961,-0.00001841,-0.00065739,-0.00002535,0.00026699,-0.0005045
 4,0.00163087,-0.00168706,0.00811056,0.00607490,0.00357992,-0.17443813,
 -0.14503390,-0.03031832,-0.00000406,0.00000915,-0.00001179,-0.00000470
 ,-0.00000508,0.00000419,0.00000720,-0.00000132,0.00000319,0.00003447,-
 0.00002893,0.00002835,-0.00006010,0.00007785,-0.00005724,0.00038400,0.
 00013166,0.00008941,0.00708955,0.01126952,0.00405461,-0.01769513,-0.03
 226543,-0.00737327,0.17775777,0.00003782,0.00003567,0.00004993,0.00011
 345,-0.00034991,-0.00012381,-0.00025974,0.00027426,0.00000780,0.000076
 82,-0.00001351,0.00003064,-0.00002501,-0.00027394,-0.00001611,0.000228
 35,0.00014310,-0.00002015,-0.00014841,0.00000042,0.00003300,0.00005037
 ,0.00007110,-0.00000521,0.00027264,0.00040194,-0.00008503,-0.00002030,
 -0.00000397,0.00000213,0.00000205,-0.00000831,-0.00000190,-0.00003805,
 -0.00001019,0.00000381,-0.00001482,-0.00000556,0.00000729,0.00000011,-
 0.00001678,-0.00000395,-0.00001855,-0.00002645,-0.00000447,-0.00001033
 ,-0.00002604,-0.00000066,-0.00001549,-0.00002657,0.00000523,-0.0004774
 3,-0.00052994,0.00033333,-0.00002956,-0.00001343,-0.00002779,0.0003607
 2,0.00001775,-0.00008247,-0.00028917,0.00003222,0.00014349,0.00011482,
 0.00009420,0.00001258,0.00033693,0.00003194,0.00009810,-0.00013042,-0.
 00006114,-0.00027941,-0.00002726,0.00003827,0.00016210,-0.00007409,-0.
 00001274,-0.00006412,-0.00016184,-0.00001959,-0.00022770,0.00000009,0.
 00000705,0.00002445,0.00002310,-0.00000368,-0.00000081,-0.00000162,0.0
 0000177,0.00002361,-0.00000092,-0.00000324,0.00002159,0.00002036,0.000
 00041,0.00000185,0.00002711,-0.00000032,0.00002167,0.00002698,0.000001
 61,0.00001445,0.00002652,0.00000940,0.00002351,0.00003324,0.00000725,-
 0.00010006,-0.00001932,-0.00009196,0.00048273,0.00019691,-0.00005267,-
 0.00174472,0.00007975,-0.00033357,0.00020190,0.00148651,-0.00141094,0.
 00244843,-0.00330608,0.00226004,0.00175146,-0.00706952,-0.02322433,0.0
 0330000,-0.15043964,-0.25133833,-0.05037183,-0.00008879,0.00049214,-0.
 00024433,0.00000319,0.00004074,-0.00002325,-0.00000577,0.00005355,0.00
 001229,-0.00007165,0.00000606,0.00021054,0.00027572,0.00002323,0.00013
 152,-0.00090389,-0.00014730,0.00040663,-0.01048218,-0.00766759,0.00227
 241,0.01220557,0.01183178,0.00210981,0.15813071,0.26979607,-0.00004745
 ,-0.00004650,-0.00005781,-0.00013517,0.00044281,0.00014911,0.00031802,
 -0.00032575,-0.00001666,-0.00009760,0.00002554,-0.00003320,0.00003025,
 0.00032308,0.00002218,-0.00026828,-0.00016715,0.00002439,0.00017528,-0
 .00000511,-0.00003545,-0.00005820,-0.00008267,0.00000494,-0.00033716,-
 0.00048428,0.00009777,0.00002672,0.00000451,-0.00000325,-0.00000316,0.
 00001645,0.00000206,0.00004574,0.00001230,-0.00000413,0.00001718,0.000
 00615,-0.00000968,-0.00000016,0.00001867,0.00000366,0.00002211,0.00003
 118,0.00000521,0.00001213,0.00002929,0.00000053,0.00001780,0.00003090,
 -0.00000561,0.00046622,0.00058799,-0.00030244,0.00003354,0.00001318,0.
 00002914,-0.00037983,-0.00001947,0.00009549,0.00029174,-0.00003899,-0.
 00016413,-0.00008207,-0.00010052,-0.00002654,-0.00035106,-0.00002916,-
 0.00010358,0.00013501,0.00006534,0.00029399,0.00003210,-0.00004061,-0.
 00017228,0.00007753,0.00001342,0.00006741,0.00017018,0.00002309,0.0002
 2710,-0.00000009,-0.00000744,-0.00002559,-0.00002800,0.00000376,0.0000
 0115,0.00000142,-0.00000199,-0.00002546,0.00000125,0.00000163,-0.00002
 185,-0.00002015,-0.00000094,-0.00000176,-0.00002847,0.00000052,-0.0000
 2295,-0.00002770,-0.00000187,-0.00001518,-0.00002803,-0.00000998,-0.00
 002465,-0.00002488,-0.00008127,0.00017767,-0.00007683,0.00023922,-0.00
 032992,0.00006947,-0.00012922,0.00153183,-0.00008367,0.00049109,-0.000
 21477,-0.00153489,0.00120829,-0.00164770,0.00292963,-0.00055485,-0.002
 37594,0.01333865,0.02754646,0.00482585,-0.02531229,-0.04251921,-0.0699
 0719,0.00011027,-0.00060194,0.00022286,-0.00000037,-0.00004930,0.00002
 208,0.00000509,-0.00005717,-0.00000453,0.00012118,0.00004790,-0.000419
 54,-0.00044984,0.00005270,-0.00019302,0.00052552,0.00019089,-0.0000469
 0,-0.02307311,-0.02523815,-0.00117259,0.00199101,0.00008765,0.00064490
 ,0.03148342,0.03907952,0.06893494\\0.00000053,0.00000015,-0.00000083,0
 .00000124,0.00000056,-0.00000072,-0.00000030,0.00000044,0.00000009,0.0
 0000142,-0.00000112,0.00000232,0.00000109,0.00000012,0.00000016,0.0000
 0096,0.00000038,-0.00000001,0.00000071,0.00000018,-0.00000058,0.000000
 84,0.00000028,-0.00000074,0.00000029,-0.00000002,0.00000035,0.00000046
 ,0.00000031,-0.00000078,0.00000008,0.00000047,-0.00000089,0.00000014,0
 .00000044,-0.00000062,0.00000080,0.00000040,0.00000036,0.00000082,0.00
 000021,0.00000008,0.00000073,0.00000024,-0.00000075,0.00000079,0.00000
 020,-0.00000027,0.00000024,0.00000038,-0.00000043,-0.00000209,0.000001
 57,0.00000113,0.00000018,0.00000060,-0.00000215,0.00000014,-0.00000008
 ,-0.00000258,0.00000061,0.00000065,0.00000099,0.00000099,0.00000093,-0
 .00000136,-0.00000009,0.00000041,-0.00000020,-0.00000006,-0.00000049,0
 .00000215,-0.00000061,-0.00000116,0.00000159,-0.00000024,-0.00000177,0
 .00000111,-0.00000151,0.00000076,-0.00000084,-0.00000314,-0.00000169,0
 .00000204,0.00000184,-0.00000073,0.00000138,-0.00000104,0.00000433,0.0
 0000046,0.00000026,0.00000018,0.00000057,0.00000016,-0.00000059,0.0000
 0111,-0.00000051,-0.00000350,0.00000163,0.00000003,-0.00000171,0.00000
 128,-0.00000013,-0.00000112,0.00000260,0.00000034,-0.00000109,-0.00000
 049,-0.00000018,-0.00000026,-0.00000047,0.00000019,0.,0.00000018,0.000
 00056,0.00000125,-0.00000142,0.00000043,-0.00000073,0.00000019,-0.0000
 0038,-0.00000021,-0.00000017,-0.00000112,-0.00000046,-0.00000038,-0.00
 000184,-0.00000074,-0.00000126,0.00000321,0.00000076,0.00000002,-0.000
 00094,0.00000066,0.00000112,0.00000206,0.00000149,-0.00000020,-0.00000
 046,0.00000070,-0.00000167,0.00000028,-0.00000004,-0.00000002,-0.00000
 077,-0.00000034,-0.00000034,-0.00000230,-0.00000065,-0.00000082,-0.000
 00298,-0.00000112,-0.00000072,-0.00000174,0.00000056,-0.00000120\\\@
 The archive entry for this job was punched.


 IT IS THE BEHAVIOR AND DISTRIBUTION OF THE ELECTRONS 
 AROUND THE NUCLEUS THAT GIVES THE FUNDAMENTAL 
 CHARACTER OF AN ATOM:  IT MUST BE THE SAME FOR MOLECULES.

                               -- C. A. COULSON, 1951
 Job cpu time:       0 days  0 hours 28 minutes  2.6 seconds.
 Elapsed time:       0 days  0 hours  0 minutes 15.8 seconds.
 File lengths (MBytes):  RWF=    245 Int=      0 D2E=      0 Chk=     32 Scr=      1
 Normal termination of Gaussian 16 at Thu Sep 26 11:05:25 2024.
