43
maltolate_ox_low_spin.log	Energy: -1634210.5741465
C          0.75144        4.22140        2.04482
C          1.40202        3.57515        0.82647
C          1.06889        2.33735        0.29962
C          1.75613        1.80798       -0.88078
O          1.29514        0.57757       -1.24957
C          2.76824        2.61349       -1.48334
C          3.05853        3.84161       -0.91022
O          2.43190        4.38458        0.23838
O          0.08294        1.48687        0.75442
H          1.49096        4.41634        2.84119
H          0.27105        5.18110        1.78508
H         -0.01489        3.53126        2.43085
H          3.31629        2.28701       -2.37546
H          3.82541        4.52983       -1.29529
Fe         0.02092        0.01131       -0.18370
C         -4.06607       -1.43969        2.11809
C         -3.85171       -0.60672        0.85893
C         -2.59745       -0.26769        0.33143
C         -2.53290        0.55386       -0.90742
O         -1.31933        0.82841       -1.34170
C         -3.77979        0.96443       -1.50868
C         -4.96211        0.57689       -0.90725
O         -5.05955       -0.18658        0.24752
O         -1.40875       -0.62444        0.84592
H         -4.61751       -0.87273        2.88823
H         -4.63029       -2.36332        1.90063
H         -3.07349       -1.70865        2.51242
H         -3.80088        1.57030       -2.42196
H         -5.96120        0.84296       -1.29141
C          3.28658       -2.62622        2.12217
C          2.46596       -2.90608        0.86723
C          1.51361       -2.05303        0.32922
C          0.76794       -2.42149       -0.89265
O         -0.12441       -1.51346       -1.28997
C          1.06853       -3.69836       -1.48332
C          2.03261       -4.49152       -0.88951
O          2.75994       -4.16681        0.26705
O          1.14198       -0.83939        0.84615
H          3.09675       -3.38305        2.90302
H          4.36803       -2.62443        1.90102
H          2.99532       -1.63522        2.50405
H          0.55630       -4.04799       -2.38750
H          2.33284       -5.47952       -1.27321
