 Entering Gaussian System, Link 0=g16
 Input=maltolate_red_low_spin.com
 Output=maltolate_red_low_spin.log
 Initial command:
 /gpfs/fs1/soft/improv/software/custom-built/gaussian/g16/l1.exe "/scratch/Gau-1646045.inp" -scrdir="/scratch/"
 Default CPUs for threads: 0-127
 Default linda workers: i300.lcrc.anl.gov
 Default is to use 128 SMP processors on each worker.
 Entering Link 1 = /gpfs/fs1/soft/improv/software/custom-built/gaussian/g16/l1.exe PID=   1646046.
  
 Copyright (c) 1988-2021, Gaussian, Inc.  All Rights Reserved.
  
 This is part of the Gaussian(R) 16 program.  It is based on
 the Gaussian(R) 09 system (copyright 2009, Gaussian, Inc.),
 the Gaussian(R) 03 system (copyright 2003, Gaussian, Inc.),
 the Gaussian(R) 98 system (copyright 1998, Gaussian, Inc.),
 the Gaussian(R) 94 system (copyright 1995, Gaussian, Inc.),
 the Gaussian 92(TM) system (copyright 1992, Gaussian, Inc.),
 the Gaussian 90(TM) system (copyright 1990, Gaussian, Inc.),
 the Gaussian 88(TM) system (copyright 1988, Gaussian, Inc.),
 the Gaussian 86(TM) system (copyright 1986, Carnegie Mellon
 University), and the Gaussian 82(TM) system (copyright 1983,
 Carnegie Mellon University). Gaussian is a federally registered
 trademark of Gaussian, Inc.
  
 This software contains proprietary and confidential information,
 including trade secrets, belonging to Gaussian, Inc.
  
 This software is provided under written license and may be
 used, copied, transmitted, or stored only in accord with that
 written license.
  
 The following legend is applicable only to US Government
 contracts under FAR:
  
                    RESTRICTED RIGHTS LEGEND
  
 Use, reproduction and disclosure by the US Government is
 subject to restrictions as set forth in subparagraphs (a)
 and (c) of the Commercial Computer Software - Restricted
 Rights clause in FAR 52.227-19.
  
 Gaussian, Inc.
 340 Quinnipiac St., Bldg. 40, Wallingford CT 06492
  
  
 ---------------------------------------------------------------
 Warning -- This program may not be used in any manner that
 competes with the business of Gaussian, Inc. or will provide
 assistance to any competitor of Gaussian, Inc.  The licensee
 of this program is prohibited from giving any competitor of
 Gaussian, Inc. access to this program.  By using this program,
 the user acknowledges that Gaussian, Inc. is engaged in the
 business of creating and licensing software in the field of
 computational chemistry and represents and warrants to the
 licensee that it is not a competitor of Gaussian, Inc. and that
 it will not use this program in any manner prohibited above.
 ---------------------------------------------------------------
  

 Cite this work as:
 Gaussian 16, Revision C.02,
 M. J. Frisch, G. W. Trucks, H. B. Schlegel, G. E. Scuseria, 
 M. A. Robb, J. R. Cheeseman, G. Scalmani, V. Barone, 
 G. A. Petersson, H. Nakatsuji, X. Li, M. Caricato, A. V. Marenich, 
 J. Bloino, B. G. Janesko, R. Gomperts, B. Mennucci, H. P. Hratchian, 
 J. V. Ortiz, A. F. Izmaylov, J. L. Sonnenberg, D. Williams-Young, 
 F. Ding, F. Lipparini, F. Egidi, J. Goings, B. Peng, A. Petrone, 
 T. Henderson, D. Ranasinghe, V. G. Zakrzewski, J. Gao, N. Rega, 
 G. Zheng, W. Liang, M. Hada, M. Ehara, K. Toyota, R. Fukuda, 
 J. Hasegawa, M. Ishida, T. Nakajima, Y. Honda, O. Kitao, H. Nakai, 
 T. Vreven, K. Throssell, J. A. Montgomery, Jr., J. E. Peralta, 
 F. Ogliaro, M. J. Bearpark, J. J. Heyd, E. N. Brothers, K. N. Kudin, 
 V. N. Staroverov, T. A. Keith, R. Kobayashi, J. Normand, 
 K. Raghavachari, A. P. Rendell, J. C. Burant, S. S. Iyengar, 
 J. Tomasi, M. Cossi, J. M. Millam, M. Klene, C. Adamo, R. Cammi, 
 J. W. Ochterski, R. L. Martin, K. Morokuma, O. Farkas, 
 J. B. Foresman, and D. J. Fox, Gaussian, Inc., Wallingford CT, 2019.
 
 ******************************************
 Gaussian 16:  ES64L-G16RevC.02  7-Dec-2021
                26-Sep-2024 
 ******************************************
 %chk=maltolate_red_low_spin.chk
 SetSPE:  set environment variable "OMP_PROC_BIND" = "true"
 SetSPE:  set environment variable "OMP_PLACES" = "{0},{1},{2},{3},{4},{5},{6},{7},{8},{9},{10},{11},{12},{13},{14},{15},{16},{17},{18},{19},{20},{21},{22},{23},{24},{25},{26},{27},{28},{29},{30},{31},{32},{33},{34},{35},{36},{37},{38},{39},{40},{41},{42},{43},{44},{45},{46},{47},{48},{49},{50},{51},{52},{53},{54},{55},{56},{57},{58},{59},{60},{61},{62},{63},{64},{65},{66},{67},{68},{69},{70},{71},{72},{73},{74},{75},{76},{77},{78},{79},{80},{81},{82},{83},{84},{85},{86},{87},{88},{89},{90},{91},{92},{93},{94},{95},{96},{97},{98},{99},{100},{101},{102},{103},{104},{105},{106},{107},{108},{109},{110},{111},{112},{113},{114},{115},{116},{117},{118},{119},{120},{121},{122},{123},{124},{125},{126},{127}"
 SetLPE:    new flags="-opt 'Tsnet.Node.lindarsharg: ssh'  -nodelist 'i300.lcrc.anl.gov' -env GAUSS_MDEF=13421772800 -env GAUSS_EXEDIR="/gpfs/fs1/soft/improv/software/custom-built/gaussian/g16/bsd:/gpfs/fs1/soft/improv/software/custom-built/gaussian/g16" -env "OMP_PROC_BIND=true" -env "OMP_PLACES={0},{1},{2},{3},{4},{5},{6},{7},{8},{9},{10},{11},{12},{13},{14},{15},{16},{17},{18},{19},{20},{21},{22},{23},{24},{25},{26},{27},{28},{29},{30},{31},{32},{33},{34},{35},{36},{37},{38},{39},{40},{41},{42},{43},{44},{45},{46},{47},{48},{49},{50},{51},{52},{53},{54},{55},{56},{57},{58},{59},{60},{61},{62},{63},{64},{65},{66},{67},{68},{69},{70},{71},{72},{73},{74},{75},{76},{77},{78},{79},{80},{81},{82},{83},{84},{85},{86},{87},{88},{89},{90},{91},{92},{93},{94},{95},{96},{97},{98},{99},{100},{101},{102},{103},{104},{105},{106},{107},{108},{109},{110},{111},{112},{113},{114},{115},{116},{117},{118},{119},{120},{121},{122},{123},{124},{125},{126},{127}" -env GAUSS_ADEF="0,1,2,3,4,5,6,7,8,9,10,11,12,13,14,15,16,17,18,19,20,21,22,23,24,25,26,27,28,29,30,31,32,33,34,35,36,37,38,39,40,41,42,43,44,45,46,47,48,49,50,51,52,53,54,55,56,57,58,59,60,61,62,63,64,65,66,67,68,69,70,71,72,73,74,75,76,77,78,79,80,81,82,83,84,85,86,87,88,89,90,91,92,93,94,95,96,97,98,99,100,101,102,103,104,105,106,107,108,109,110,111,112,113,114,115,116,117,118,119,120,121,122,123,124,125,126,127""
 Will use up to    1 processors via Linda.
 ----------------------------------------------------------------------
 #p B3LYP empiricaldispersion=gd3 opt=(cartesian,calcall,maxcycles=500)
  freq scf=(maxcycles=500,xqc,maxconventional=50)
 ----------------------------------------------------------------------
 1/6=500,10=4,18=10,26=3,38=1/1,3;
 2/12=2,17=6,18=5,29=2,40=1/2;
 3/11=2,25=1,30=1,71=2,74=-5,124=31,140=1/1,2,3;
 4//1;
 5/5=2,7=500,8=3,13=1,38=5,85=50/2,8;
 8/6=4,10=90,11=11/1;
 11/6=1,8=1,9=11,15=111,16=1/1,2,10;
 10/6=1/2;
 6/7=2,8=2,9=2,10=2,18=1,28=1/1;
 7/7=1,10=1,25=1/1,2,3,16;
 1/6=500,10=4,18=10,26=3/3(3);
 2/29=1/2;
 7/7=1,8=1,9=1,25=1,44=-1/16;
 99/12=1/99;
 2/29=1/2;
 3/11=2,25=1,30=1,71=2,74=-5,124=31,140=1/1,2,3;
 4/5=5,16=3,69=1/1;
 5/5=2,7=500,8=3,13=1,38=5,85=50/2,8;
 8/6=4,10=90,11=11/1;
 11/6=1,8=1,9=11,15=111,16=1/1,2,10;
 10/6=1/2;
 7/7=1,10=1,25=1/1,2,3,16;
 1/6=500,10=4,18=10,26=3/3(-8);
 2/29=1/2;
 6/7=2,8=2,9=2,10=2,18=1,19=2,28=1/1;
 7/7=1,8=1,9=1,25=1,44=-1/16;
 99/12=1/99;
 Leave Link    1 at Thu Sep 26 10:52:48 2024, MaxMem=           0 cpu:               4.3 elap:               0.1
 (Enter /gpfs/fs1/soft/improv/software/custom-built/gaussian/g16/l101.exe)
 ---------------------------
 maltolate red low_spin spin
 ---------------------------
 Symbolic Z-matrix:
 Charge = -1 Multiplicity = 1
 C                     1.90292  -0.62481  -0.72101 
 C                     0.46823  -0.84591  -0.20442 
 C                    -0.32966   0.22227   0.00148 
 C                    -1.77004   0.0407    0.30521 
 O                    -2.38901   1.10096   0.54119 
 C                    -2.32791  -1.37042   0.28199 
 C                    -1.45008  -2.39212   0.06178 
 O                    -0.00365  -2.19165   0.07018 
 O                     0.02732   1.41661  -0.03581 
 H                     2.54826  -1.3952   -0.34646 
 H                     1.90682  -0.64837  -1.79235 
 H                     2.25058   0.32366  -0.3814 
 H                    -3.3727   -1.5532    0.42534 
 H                    -1.83627  -3.37728  -0.11402 
 Fe                   -1.35206   2.60305   0.26402 
 C                     1.76835   5.43515  -1.79768 
 C                     0.43712   4.91396  -2.36755 
 C                    -0.34077   4.10696  -1.60397 
 C                    -1.48801   3.39111  -2.20549 
 O                    -2.12604   2.67116  -1.40788 
 C                    -1.75247   3.57736  -3.68918 
 C                    -0.92651   4.42718  -4.38169 
 O                     0.03592   5.29801  -3.71509 
 O                    -0.18496   3.86766  -0.38956 
 H                     2.54391   4.71758  -1.99225 
 H                     2.0187    6.3696   -2.26319 
 H                     1.66898   5.57781  -0.74227 
 H                    -2.5517    3.05274  -4.18065 
 H                    -0.99097   4.46056  -5.45055 
 C                    -0.49491   2.61863   4.88645 
 C                    -1.78792   2.94324   4.11789 
 C                    -1.75201   3.08603   2.77828 
 C                    -2.90576   3.64609   2.05348 
 O                    -2.68844   3.74595   0.84803 
 C                    -4.13124   4.07638   2.84628 
 C                    -4.09532   3.86033   4.19434 
 O                    -3.04112   3.08013   4.84201 
 O                    -0.79919   2.79505   2.01665 
 H                    -0.55633   3.01273   5.88027 
 H                    -0.36786   1.55847   4.93219 
 H                     0.33938   3.05777   4.38297 
 H                    -4.97845   4.53933   2.37075 
 H                    -4.86924   4.27243   4.80417 
 
 ITRead=  0  0  0  0  0  0  0  0  0  0  0  0  0  0  0  0  0  0  0  0
 ITRead=  0  0  0  0  0  0  0  0  0  0  0  0  0  0  0  0  0  0  0  0
 ITRead=  0  0  0
 MicOpt= -1 -1 -1 -1 -1 -1 -1 -1 -1 -1 -1 -1 -1 -1 -1 -1 -1 -1 -1 -1
 MicOpt= -1 -1 -1 -1 -1 -1 -1 -1 -1 -1 -1 -1 -1 -1 -1 -1 -1 -1 -1 -1
 MicOpt= -1 -1 -1
 NAtoms=     43 NQM=       43 NQMF=       0 NMMI=      0 NMMIF=      0
                NMic=       0 NMicF=      0.
                    Isotopes and Nuclear Properties:
 (Nuclear quadrupole moments (NQMom) in fm**2, nuclear magnetic moments (NMagM)
  in nuclear magnetons)

  Atom         1           2           3           4           5           6           7           8           9          10
 IAtWgt=          12          12          12          12          16          12          12          16          16           1
 AtmWgt=  12.0000000  12.0000000  12.0000000  12.0000000  15.9949146  12.0000000  12.0000000  15.9949146  15.9949146   1.0078250
 NucSpn=           0           0           0           0           0           0           0           0           0           1
 AtZEff=  -0.0000000  -0.0000000  -0.0000000  -0.0000000  -0.0000000  -0.0000000  -0.0000000  -0.0000000  -0.0000000  -0.0000000
 NQMom=    0.0000000   0.0000000   0.0000000   0.0000000   0.0000000   0.0000000   0.0000000   0.0000000   0.0000000   0.0000000
 NMagM=    0.0000000   0.0000000   0.0000000   0.0000000   0.0000000   0.0000000   0.0000000   0.0000000   0.0000000   2.7928460
 AtZNuc=   6.0000000   6.0000000   6.0000000   6.0000000   8.0000000   6.0000000   6.0000000   8.0000000   8.0000000   1.0000000

  Atom        11          12          13          14          15          16          17          18          19          20
 IAtWgt=           1           1           1           1          56          12          12          12          12          16
 AtmWgt=   1.0078250   1.0078250   1.0078250   1.0078250  55.9349393  12.0000000  12.0000000  12.0000000  12.0000000  15.9949146
 NucSpn=           1           1           1           1           0           0           0           0           0           0
 AtZEff=  -0.0000000  -0.0000000  -0.0000000  -0.0000000  -0.0000000  -0.0000000  -0.0000000  -0.0000000  -0.0000000  -0.0000000
 NQMom=    0.0000000   0.0000000   0.0000000   0.0000000   0.0000000   0.0000000   0.0000000   0.0000000   0.0000000   0.0000000
 NMagM=    2.7928460   2.7928460   2.7928460   2.7928460   0.0000000   0.0000000   0.0000000   0.0000000   0.0000000   0.0000000
 AtZNuc=   1.0000000   1.0000000   1.0000000   1.0000000  26.0000000   6.0000000   6.0000000   6.0000000   6.0000000   8.0000000

  Atom        21          22          23          24          25          26          27          28          29          30
 IAtWgt=          12          12          16          16           1           1           1           1           1          12
 AtmWgt=  12.0000000  12.0000000  15.9949146  15.9949146   1.0078250   1.0078250   1.0078250   1.0078250   1.0078250  12.0000000
 NucSpn=           0           0           0           0           1           1           1           1           1           0
 AtZEff=  -0.0000000  -0.0000000  -0.0000000  -0.0000000  -0.0000000  -0.0000000  -0.0000000  -0.0000000  -0.0000000  -0.0000000
 NQMom=    0.0000000   0.0000000   0.0000000   0.0000000   0.0000000   0.0000000   0.0000000   0.0000000   0.0000000   0.0000000
 NMagM=    0.0000000   0.0000000   0.0000000   0.0000000   2.7928460   2.7928460   2.7928460   2.7928460   2.7928460   0.0000000
 AtZNuc=   6.0000000   6.0000000   8.0000000   8.0000000   1.0000000   1.0000000   1.0000000   1.0000000   1.0000000   6.0000000

  Atom        31          32          33          34          35          36          37          38          39          40
 IAtWgt=          12          12          12          16          12          12          16          16           1           1
 AtmWgt=  12.0000000  12.0000000  12.0000000  15.9949146  12.0000000  12.0000000  15.9949146  15.9949146   1.0078250   1.0078250
 NucSpn=           0           0           0           0           0           0           0           0           1           1
 AtZEff=  -0.0000000  -0.0000000  -0.0000000  -0.0000000  -0.0000000  -0.0000000  -0.0000000  -0.0000000  -0.0000000  -0.0000000
 NQMom=    0.0000000   0.0000000   0.0000000   0.0000000   0.0000000   0.0000000   0.0000000   0.0000000   0.0000000   0.0000000
 NMagM=    0.0000000   0.0000000   0.0000000   0.0000000   0.0000000   0.0000000   0.0000000   0.0000000   2.7928460   2.7928460
 AtZNuc=   6.0000000   6.0000000   6.0000000   8.0000000   6.0000000   6.0000000   8.0000000   8.0000000   1.0000000   1.0000000

  Atom        41          42          43
 IAtWgt=           1           1           1
 AtmWgt=   1.0078250   1.0078250   1.0078250
 NucSpn=           1           1           1
 AtZEff=  -0.0000000  -0.0000000  -0.0000000
 NQMom=    0.0000000   0.0000000   0.0000000
 NMagM=    2.7928460   2.7928460   2.7928460
 AtZNuc=   1.0000000   1.0000000   1.0000000
 Leave Link  101 at Thu Sep 26 10:52:48 2024, MaxMem= 13421772800 cpu:               0.4 elap:               0.1
 (Enter /gpfs/fs1/soft/improv/software/custom-built/gaussian/g16/l103.exe)

 GradGradGradGradGradGradGradGradGradGradGradGradGradGradGradGradGradGrad
 Berny optimization.
 Initialization pass.
 No Z-matrix variables, so optimization will use Cartesian coordinates.
 Trust Radius=3.00D-01 FncErr=1.00D-07 GrdErr=1.00D-06 EigMax=2.50D+02 EigMin=1.00D-04
 Number of steps in this run=    258 maximum allowed number of steps=    258.
 GradGradGradGradGradGradGradGradGradGradGradGradGradGradGradGradGradGrad

 Leave Link  103 at Thu Sep 26 10:52:48 2024, MaxMem= 13421772800 cpu:               0.4 elap:               0.0
 (Enter /gpfs/fs1/soft/improv/software/custom-built/gaussian/g16/l202.exe)
 ---------------------------------------------------------------------------------------------------
                            Z-MATRIX (ANGSTROMS AND DEGREES)
   CD    Cent   Atom    N1       Length/X        N2       Alpha/Y        N3        Beta/Z          J
 ---------------------------------------------------------------------------------------------------
      1      1  C        0   1.902919         -0.624813         -0.721008
      2      2  C        0   0.468234         -0.845914         -0.204417
      3      3  C        0  -0.329659          0.222267          0.001479
      4      4  C        0  -1.770042          0.040697          0.305205
      5      5  O        0  -2.389011          1.100965          0.541193
      6      6  C        0  -2.327910         -1.370420          0.281988
      7      7  C        0  -1.450078         -2.392119          0.061778
      8      8  O        0  -0.003653         -2.191646          0.070185
      9      9  O        0   0.027316          1.416609         -0.035811
     10     10  H        0   2.548257         -1.395196         -0.346463
     11     11  H        0   1.906820         -0.648373         -1.792349
     12     12  H        0   2.250575          0.323662         -0.381404
     13     13  H        0  -3.372696         -1.553201          0.425339
     14     14  H        0  -1.836266         -3.377278         -0.114021
     15     15  Fe       0  -1.352059          2.603052          0.264024
     16     16  C        0   1.768346          5.435154         -1.797678
     17     17  C        0   0.437116          4.913963         -2.367555
     18     18  C        0  -0.340765          4.106956         -1.603967
     19     19  C        0  -1.488007          3.391113         -2.205493
     20     20  O        0  -2.126042          2.671164         -1.407884
     21     21  C        0  -1.752473          3.577362         -3.689178
     22     22  C        0  -0.926511          4.427185         -4.381688
     23     23  O        0   0.035920          5.298010         -3.715091
     24     24  O        0  -0.184960          3.867662         -0.389555
     25     25  H        0   2.543909          4.717583         -1.992246
     26     26  H        0   2.018695          6.369599         -2.263194
     27     27  H        0   1.668984          5.577809         -0.742272
     28     28  H        0  -2.551695          3.052743         -4.180648
     29     29  H        0  -0.990974          4.460556         -5.450549
     30     30  C        0  -0.494910          2.618632          4.886448
     31     31  C        0  -1.787919          2.943236          4.117887
     32     32  C        0  -1.752005          3.086031          2.778275
     33     33  C        0  -2.905763          3.646088          2.053475
     34     34  O        0  -2.688437          3.745954          0.848028
     35     35  C        0  -4.131236          4.076376          2.846281
     36     36  C        0  -4.095322          3.860330          4.194341
     37     37  O        0  -3.041123          3.080130          4.842011
     38     38  O        0  -0.799185          2.795049          2.016650
     39     39  H        0  -0.556329          3.012734          5.880270
     40     40  H        0  -0.367856          1.558465          4.932191
     41     41  H        0   0.339378          3.057771          4.382969
     42     42  H        0  -4.978447          4.539329          2.370753
     43     43  H        0  -4.869239          4.272428          4.804171
 ---------------------------------------------------------------------------------------------------
                         Z-Matrix orientation:                         
 ---------------------------------------------------------------------
 Center     Atomic      Atomic             Coordinates (Angstroms)
 Number     Number       Type             X           Y           Z
 ---------------------------------------------------------------------
      1          6           0        1.902919   -0.624813   -0.721008
      2          6           0        0.468234   -0.845914   -0.204417
      3          6           0       -0.329659    0.222267    0.001479
      4          6           0       -1.770042    0.040697    0.305205
      5          8           0       -2.389011    1.100965    0.541193
      6          6           0       -2.327910   -1.370420    0.281988
      7          6           0       -1.450078   -2.392119    0.061778
      8          8           0       -0.003653   -2.191646    0.070185
      9          8           0        0.027316    1.416609   -0.035811
     10          1           0        2.548257   -1.395196   -0.346463
     11          1           0        1.906820   -0.648373   -1.792349
     12          1           0        2.250575    0.323662   -0.381404
     13          1           0       -3.372696   -1.553201    0.425339
     14          1           0       -1.836266   -3.377278   -0.114021
     15         26           0       -1.352059    2.603052    0.264024
     16          6           0        1.768346    5.435154   -1.797678
     17          6           0        0.437116    4.913963   -2.367555
     18          6           0       -0.340765    4.106956   -1.603967
     19          6           0       -1.488007    3.391113   -2.205493
     20          8           0       -2.126042    2.671164   -1.407884
     21          6           0       -1.752473    3.577362   -3.689178
     22          6           0       -0.926511    4.427185   -4.381688
     23          8           0        0.035920    5.298010   -3.715091
     24          8           0       -0.184960    3.867662   -0.389555
     25          1           0        2.543909    4.717583   -1.992246
     26          1           0        2.018695    6.369599   -2.263194
     27          1           0        1.668984    5.577809   -0.742272
     28          1           0       -2.551695    3.052743   -4.180648
     29          1           0       -0.990974    4.460556   -5.450549
     30          6           0       -0.494910    2.618632    4.886448
     31          6           0       -1.787919    2.943236    4.117887
     32          6           0       -1.752005    3.086031    2.778275
     33          6           0       -2.905763    3.646088    2.053475
     34          8           0       -2.688437    3.745954    0.848028
     35          6           0       -4.131236    4.076376    2.846281
     36          6           0       -4.095322    3.860330    4.194341
     37          8           0       -3.041123    3.080130    4.842011
     38          8           0       -0.799185    2.795049    2.016650
     39          1           0       -0.556329    3.012734    5.880270
     40          1           0       -0.367856    1.558465    4.932191
     41          1           0        0.339378    3.057771    4.382969
     42          1           0       -4.978447    4.539329    2.370753
     43          1           0       -4.869239    4.272428    4.804171
 ---------------------------------------------------------------------
                    Distance matrix (angstroms):
                    1          2          3          4          5
     1  C    0.000000
     2  C    1.540803   0.000000
     3  C    2.494781   1.349087   0.000000
     4  C    3.871261   2.460828   1.483214   0.000000
     5  O    4.795010   3.536965   2.303114   1.250192   0.000000
     6  C    4.411558   2.886194   2.570670   1.517566   2.485692
     7  C    3.870235   2.478211   2.844994   2.465812   3.648708
     8  O    2.591519   1.452266   2.436797   2.856348   4.093052
     9  O    2.855658   2.311243   1.247106   2.289087   2.504236
    10  H    1.072491   2.156012   3.319586   4.597192   5.603158
    11  H    1.071608   2.151763   2.996276   4.288807   5.192280
    12  H    1.065739   2.139153   2.610457   4.088627   4.793866
    13  H    5.477968   3.955956   3.548524   2.263502   2.832958
    14  H    4.682521   3.424426   3.903835   3.444225   4.559550
    15  Fe   4.688740   3.927884   2.604298   2.596550   1.846174
    16  C    6.156341   6.609130   5.900236   6.785461   6.445086
    17  C    5.961353   6.152749   5.311522   5.980294   5.566575
    18  C    5.310685   5.210004   4.203378   4.714047   4.222915
    19  C    5.461660   5.077754   4.031635   4.196241   3.687936
    20  O    5.250504   4.533039   3.348192   3.159236   2.516661
    21  C    6.311117   6.053137   5.186715   5.335111   4.943052
    22  C    6.850470   6.870261   6.103255   6.474550   6.118612
    23  O    6.894204   7.089396   6.301563   6.860293   6.450692
    24  O    4.965020   4.762220   3.669162   4.200100   3.657697
    25  H    5.528843   6.201392   5.695629   6.764741   6.620569
    26  H    7.163346   7.661992   6.959396   7.810647   7.419634
    27  H    6.207068   6.557081   5.764510   6.601797   6.177115
    28  H    6.733284   6.334817   5.517175   5.459513   5.111916
    29  H    7.523573   7.603277   6.937221   7.298686   7.010160
    30  C    6.907465   6.232787   5.443602   5.409205   4.977165
    31  C    7.054655   6.174965   5.145388   4.791826   4.067925
    32  C    6.274855   5.411663   4.234951   3.923067   3.057907
    33  C    7.004411   6.054751   4.750742   4.164751   3.005275
    34  O    6.530392   5.670755   4.323985   3.855779   2.679509
    35  C    8.440246   7.395324   6.115476   5.321561   4.147511
    36  C    8.958575   7.894546   6.707893   5.926374   4.885805
    37  O    8.313684   7.293548   6.241008   5.606818   4.779056
    38  O    5.146998   4.449281   3.301602   3.384976   2.752170
    39  H    7.928210   7.277521   6.511396   6.433308   5.959809
    40  H    6.471613   5.732785   5.108700   5.067420   4.855434
    41  H    6.485110   6.024904   5.261668   5.493682   5.102199
    42  H    9.142239   8.080759   6.772128   5.898986   4.677052
    43  H   10.018617   8.931516   7.750964   6.910373   5.863675
                    6          7          8          9         10
     6  C    0.000000
     7  C    1.364899   0.000000
     8  O    2.474156   1.460276   0.000000
     9  O    3.662733   4.086395   3.609944   0.000000
    10  H    4.916561   4.140918   2.705582   3.789182   0.000000
    11  H    4.770447   4.212743   3.082309   3.298805   1.749221
    12  H    4.926716   4.611585   3.407675   2.501370   1.744795
    13  H    1.070297   2.128948   3.447347   4.537897   5.973135
    14  H    2.103810   1.072653   2.190463   5.143968   4.817336
    15  Fe   4.091587   5.000225   4.984466   1.843970   5.618821
    16  C    8.210978   8.664989   8.049657   4.720601   7.026235
    17  C    7.359274   7.927294   7.525060   4.223323   6.953217
    18  C    6.124314   6.800240   6.526011   3.135693   6.340461
    19  C    5.437389   6.211902   6.208802   3.301877   6.531170
    20  O    4.385296   5.315418   5.507826   2.844898   6.285776
    21  C    6.370387   7.056615   7.104409   4.602564   7.375389
    22  C    7.571395   8.156066   8.029929   5.372151   7.890322
    23  O    8.126025   8.695459   8.391950   5.348126   7.903069
    24  O    5.699185   6.402272   6.079428   2.485530   5.930431
    25  H    8.122225   8.409447   7.647296   4.588825   6.330457
    26  H    9.234653   9.705956   9.101069   5.784370   8.015381
    27  H    8.080975   8.596209   7.988882   4.528770   7.039360
    28  H    6.287254   6.989868   7.215657   5.148583   7.777831
    29  H    8.285509   8.806570   8.700868   6.294595   8.536258
    30  C    6.361877   7.021212   6.824698   5.093742   7.263266
    31  C    5.797701   6.710601   6.777501   4.783186   7.586490
    32  C    5.140337   6.122143   6.184203   3.724517   6.952527
    33  C    5.351395   6.522716   6.814310   4.235404   7.805164
    34  O    5.160199   6.310916   6.562637   3.685422   7.435133
    35  C    6.284518   7.535482   8.001985   5.716150   9.205832
    36  C    6.766905   7.947863   8.389091   6.392347   9.611275
    37  O    6.411699   7.438250   7.732282   5.997980   8.842510
    38  O    4.764156   5.581388   5.411906   2.606875   5.860702
    39  H    7.327435   7.991625   7.819726   6.155345   8.236535
    40  H    5.834773   6.363902   6.151023   4.985712   6.715059
    41  H    6.598586   7.181653   6.802511   4.724024   6.861165
    42  H    6.805396   8.113305   8.680278   6.371859   9.962586
    43  H    7.664869   8.865502   9.373836   7.453682  10.661624
                   11         12         13         14         15
    11  H    0.000000
    12  H    1.747509   0.000000
    13  H    5.797425   5.982861   0.000000
    14  H    4.926906   5.520029   2.445155   0.000000
    15  Fe   5.041897   4.311748   4.624223   6.011799   0.000000
    16  C    6.085106   5.325949   8.955960   9.668862   4.691305
    17  C    5.781909   5.320178   8.008690   8.887708   3.932768
    18  C    5.263106   4.745842   6.734097   7.776260   2.602659
    19  C    5.292729   5.168516   5.909278   7.092719   2.595773
    20  O    5.237472   5.071411   4.770756   6.192068   1.843628
    21  C    5.902984   6.127996   6.773259   7.820216   4.091139
    22  C    6.363468   6.552485   8.053343   8.941492   5.009111
    23  O    6.523548   6.384536   8.700627   9.577756   5.002263
    24  O    5.170875   4.300213   6.341251   7.435852   1.840795
    25  H    5.407340   4.689072   8.953974   9.393638   4.973988
    26  H    7.034639   6.336265   9.953194  10.699592   5.651167
    27  H    6.318590   5.298541   8.810968   9.637171   4.357581
    28  H    6.267422   6.704024   6.565354   7.641627   4.625631
    29  H    6.919595   7.301902   8.738646   9.519700   6.019722
    30  C    7.813320   6.368268   6.751840   7.921797   4.701250
    31  C    7.841023   6.589023   6.030288   7.606594   3.893322
    32  C    6.944306   5.799560   5.448432   7.081443   2.591270
    33  C    7.509575   6.599619   5.468222   7.427620   2.589219
    34  O    6.884627   6.133305   5.359843   7.238243   1.852887
    35  C    8.960930   8.076405   6.174826   8.341897   4.069712
    36  C    9.601801   8.585795   6.635803   8.720568   4.955162
    37  O    9.077368   7.929959   6.409734   8.228734   4.902908
    38  O    5.804145   4.599941   5.297405   6.611574   1.847764
    39  H    8.850983   7.370101   7.650880   8.854492   5.687112
    40  H    7.433958   6.051050   6.246859   7.209858   4.883810
    41  H    7.370680   5.816121   7.120631   8.146545   4.475872
    42  H    9.573430   8.809369   6.594087   8.872433   4.619325
    43  H   10.660363   9.652704   7.439876   9.586737   5.980828
                   16         17         18         19         20
    16  C    0.000000
    17  C    1.539017   0.000000
    18  C    2.499997   1.356254   0.000000
    19  C    3.866297   2.459966   1.480010   0.000000
    20  O    4.791433   3.538487   2.299382   1.249638   0.000000
    21  C    4.407418   2.885739   2.573227   1.518536   2.482952
    22  C    3.867217   2.480557   2.856813   2.474782   3.655953
    23  O    2.587775   1.457499   2.453027   2.870103   4.110669
    24  O    2.873194   2.322543   1.247531   2.285314   2.497278
    25  H    1.074367   2.148953   2.974049   4.249864   5.132031
    26  H    1.073576   2.152013   3.334844   4.601268   5.620393
    27  H    1.069629   2.144700   2.635341   4.109653   4.826370
    28  H    5.478794   3.960358   3.555118   2.268736   2.831078
    29  H    4.680508   3.427808   3.917141   3.452700   4.564367
    30  C    7.598201   7.665362   6.660657   7.202680   6.502458
    31  C    7.338296   7.134108   6.015656   6.346312   5.542788
    32  C    6.233025   5.883294   4.715712   5.000072   4.223262
    33  C    6.315017   5.685759   4.490935   4.495982   3.679599
    34  O    5.451245   4.633929   3.413820   3.300141   2.561366
    35  C    7.630052   6.982512   5.845794   5.742531   4.908497
    36  C    8.530356   8.044353   6.912156   6.926481   6.056163
    37  O    8.530100   8.212121   7.063777   7.223309   6.329756
    38  O    5.302026   5.023892   3.878160   4.319290   3.674688
    39  H    8.379924   8.522219   7.566875   8.148053   7.463100
    40  H    8.055012   8.074258   7.015476   7.453850   6.672771
    41  H    6.774533   7.001755   6.116109   6.845311   6.305690
    42  H    7.981073   7.205569   6.123188   5.868867   5.089631
    43  H    9.433656   8.944418   7.848483   7.832294   6.977019
                   21         22         23         24         25
    21  C    0.000000
    22  C    1.372582   0.000000
    23  O    2.481865   1.459097   0.000000
    24  O    3.664544   4.098791   3.626826   0.000000
    25  H    4.758002   4.223456   3.097596   3.276844   0.000000
    26  H    4.904256   4.115244   2.680989   3.824435   1.754542
    27  H    4.938868   4.615830   3.403357   2.546786   1.751548
    28  H    1.074953   2.137927   3.457415   4.542897   5.790162
    29  H    2.112425   1.071322   2.183496   5.158957   4.951901
    30  C    8.720206   9.452803   9.024816   5.430687   7.807461
    31  C    7.832857   8.671039   8.380149   4.872482   7.697192
    32  C    6.486090   7.331113   7.088958   3.619631   6.623799
    33  C    5.857719   6.777823   6.682716   3.663368   6.871309
    34  O    4.635805   5.560431   5.536520   2.795322   6.032302
    35  C    6.972787   7.914346   7.868238   5.107572   8.269223
    36  C    8.229149   9.160293   9.038429   6.025205   9.115269
    37  O    8.642283   9.558387   9.360084   6.012251   8.976687
    38  O    5.837572   6.604454   6.309919   2.705106   5.562703
    39  H    9.660430  10.365592   9.881508   6.338733   8.631019
    40  H    8.962205   9.761660   9.429884   5.804036   8.149002
    41  H    8.354961   8.960858   8.407694   4.869070   6.946819
    42  H    6.932175   7.875673   7.921929   5.572069   8.697894
    43  H    9.073826   9.997453   9.883836   7.005790  10.066986
                   26         27         28         29         30
    26  H    0.000000
    27  H    1.749981   0.000000
    28  H    5.963776   6.001044   0.000000
    29  H    4.781399   5.521912   2.455695   0.000000
    30  C    8.456083   6.717265   9.307580  10.511530   0.000000
    31  C    8.182205   6.520146   8.334329   9.720718   1.538807
    32  C    7.100452   5.505123   7.004800   8.377472   2.498628
    33  C    7.092351   5.698777   6.272298   7.787179   3.859224
    34  O    6.222565   4.987171   5.078072   6.562325   4.731940
    35  C    8.317888   6.983879   7.274648   8.879540   4.417031
    36  C    9.239990   7.781203   8.554264  10.149934   3.870891
    37  O    9.322356   7.720604   9.035965  10.585154   2.588080
    38  O    6.247794   4.631120   6.445479   7.653088   2.891270
    39  H    9.176890   7.442425  10.256957  11.431210   1.070874
    40  H    8.978653   7.245921   9.489250  10.798690   1.068733
    41  H    7.613133   5.864003   9.038466  10.021762   1.068817
    42  H    8.589724   7.413346   7.142823   8.779459   5.488160
    43  H   10.089074   8.672682   9.358718  10.965200   4.677239
                   31         32         33         34         35
    31  C    0.000000
    32  C    1.347680   0.000000
    33  C    2.450586   1.473145   0.000000
    34  O    3.485294   2.244607   1.228946   0.000000
    35  C    2.896916   2.578012   1.521668   2.486737   0.000000
    36  C    2.484154   2.845333   2.458507   3.631835   1.365735
    37  O    1.453828   2.433283   2.848607   4.064433   2.482698
    38  O    2.326962   1.254037   2.272288   2.416438   3.665058
    39  H    2.151194   3.325265   4.534902   5.514251   4.807950
    40  H    2.144122   2.981389   4.368769   5.181756   4.985371
    41  H    2.146807   2.636233   4.037771   4.705005   4.835841
    42  H    3.972337   3.562033   2.279159   2.862216   1.076206
    43  H    3.425240   3.902427   3.437130   4.547982   2.101527
                   36         37         38         39         40
    36  C    0.000000
    37  O    1.462711   0.000000
    38  O    4.091660   3.618041   0.000000
    39  H    4.010642   2.693831   3.877361   0.000000
    40  H    4.442636   3.077330   3.196179   1.746217   0.000000
    41  H    4.510682   3.411600   2.639093   1.745346   1.746351
    42  H    2.136919   3.462600   4.542481   5.848276   6.058388
    43  H    1.068018   2.182891   5.149588   4.620174   5.257797
                   41         42         43
    41  H    0.000000
    42  H    5.875652   0.000000
    43  H    5.364932   2.450446   0.000000
 Stoichiometry    C18H15FeO9(1-)
 Framework group  C1[X(C18H15FeO9)]
 Deg. of freedom   123
 Full point group                 C1      NOp   1
 Largest Abelian subgroup         C1      NOp   1
 Largest concise Abelian subgroup C1      NOp   1
                         Standard orientation:                         
 ---------------------------------------------------------------------
 Center     Atomic      Atomic             Coordinates (Angstroms)
 Number     Number       Type             X           Y           Z
 ---------------------------------------------------------------------
      1          6           0       -1.353196    3.728575    1.895814
      2          6           0       -0.343001    3.538387    0.748029
      3          6           0       -0.100320    2.295317    0.283361
      4          6           0        0.708540    2.092940   -0.943306
      5          8           0        0.919183    0.895686   -1.235185
      6          6           0        1.167885    3.324492   -1.701785
      7          6           0        0.875170    4.543391   -1.161828
      8          8           0        0.346550    4.689030    0.191596
      9          8           0       -0.501871    1.233174    0.799000
     10          1           0       -1.072583    4.574580    2.492277
     11          1           0       -2.331986    3.889293    1.490248
     12          1           0       -1.355524    2.852915    2.503278
     13          1           0        1.694517    3.236762   -2.629415
     14          1           0        1.048409    5.424382   -1.748708
     15         26           0        0.001735   -0.272504   -0.138837
     16          6           0       -3.538176   -2.004284    2.406415
     17          6           0       -3.497961   -1.741978    0.890449
     18          6           0       -2.365892   -1.244896    0.332997
     19          6           0       -2.377729   -0.747753   -1.060967
     20          8           0       -1.280212   -0.306048   -1.463394
     21          6           0       -3.685779   -0.799487   -1.830566
     22          6           0       -4.777928   -1.335621   -1.195150
     23          8           0       -4.674970   -2.033851    0.081893
     24          8           0       -1.256646   -1.133125    0.892829
     25          1           0       -3.834793   -1.105736    2.915231
     26          1           0       -4.242510   -2.786259    2.618537
     27          1           0       -2.565762   -2.300146    2.739555
     28          1           0       -3.755102   -0.418902   -2.833498
     29          1           0       -5.742724   -1.246142   -1.652198
     30          6           0        3.943297   -0.677637    2.391323
     31          6           0        3.614649   -1.195881    0.980174
     32          6           0        2.344782   -1.153601    0.530852
     33          6           0        1.960256   -1.871593   -0.696659
     34          8           0        0.760108   -1.762490   -0.937589
     35          6           0        3.018378   -2.675608   -1.437881
     36          6           0        4.286437   -2.631512   -0.932595
     37          8           0        4.679514   -1.714927    0.137399
     38          8           0        1.379997   -0.551871    1.059737
     39          1           0        4.794645   -1.198982    2.778851
     40          1           0        4.159353    0.367877    2.342238
     41          1           0        3.105914   -0.840295    3.035296
     42          1           0        2.777390   -3.259904   -2.308939
     43          1           0        5.025937   -3.288477   -1.335334
 ---------------------------------------------------------------------
 Rotational constants (GHZ):           0.2020321           0.1533671           0.1095707
 Leave Link  202 at Thu Sep 26 10:52:48 2024, MaxMem= 13421772800 cpu:               0.4 elap:               0.0
 (Enter /gpfs/fs1/soft/improv/software/custom-built/gaussian/g16/l301.exe)
 Standard basis: STO-3G (5D, 7F)
 Ernie: Thresh=  0.10000D-02 Tol=  0.10000D-05 Strict=F.
 There are   169 symmetry adapted cartesian basis functions of A   symmetry.
 There are   168 symmetry adapted basis functions of A   symmetry.
   168 basis functions,   507 primitive gaussians,   169 cartesian basis functions
   111 alpha electrons      111 beta electrons
       nuclear repulsion energy      3374.2845079164 Hartrees.
 IExCor=  402 DFT=T Ex+Corr=B3LYP ExCW=0 ScaHFX=  0.200000
 ScaDFX=  0.800000  0.720000  1.000000  0.810000 ScalE2=  1.000000  1.000000
 IRadAn=      5 IRanWt=     -1 IRanGd=            0 ICorTp=0 IEmpDi=131
 NAtoms=   43 NActive=   43 NUniq=   43 SFac= 1.00D+00 NAtFMM=   60 NAOKFM=F Big=F
 Integral buffers will be    131072 words long.
 Raffenetti 2 integral format.
 Two-electron integral symmetry is turned on.
 R6Disp:  Grimme-D3 Dispersion energy=       -0.0439024305 Hartrees.
 Nuclear repulsion after empirical dispersion term =     3374.2406054859 Hartrees.
 Leave Link  301 at Thu Sep 26 10:52:48 2024, MaxMem= 13421772800 cpu:               0.4 elap:               0.0
 (Enter /gpfs/fs1/soft/improv/software/custom-built/gaussian/g16/l302.exe)
 NPDir=0 NMtPBC=     1 NCelOv=     1 NCel=       1 NClECP=     1 NCelD=      1
         NCelK=      1 NCelE2=     1 NClLst=     1 CellRange=     0.0.
 One-electron integrals computed using PRISM.
 One-electron integral symmetry used in STVInt
 NBasis=   168 RedAO= T EigKep=  1.90D-01  NBF=   168
 NBsUse=   168 1.00D-06 EigRej= -1.00D+00 NBFU=   168
 Precomputing XC quadrature grid using
 IXCGrd= 4 IRadAn=           5 IRanWt=          -1 IRanGd=           0 AccXCQ= 0.00D+00.
 Generated NRdTot=       0 NPtTot=           0 NUsed=           0 NTot=          32
 NSgBfM=   162   161   162   162   162 MxSgAt=    43 MxSgA2=    43.
 Leave Link  302 at Thu Sep 26 10:52:48 2024, MaxMem= 13421772800 cpu:              13.0 elap:               0.2
 (Enter /gpfs/fs1/soft/improv/software/custom-built/gaussian/g16/l303.exe)
 DipDrv:  MaxL=1.
 Leave Link  303 at Thu Sep 26 10:52:49 2024, MaxMem= 13421772800 cpu:               0.7 elap:               0.0
 (Enter /gpfs/fs1/soft/improv/software/custom-built/gaussian/g16/l401.exe)
 ExpMin= 9.65D-02 ExpMax= 1.45D+03 ExpMxC= 1.45D+03 IAcc=3 IRadAn=         5 AccDes= 0.00D+00
 Harris functional with IExCor=  402 and IRadAn=       5 diagonalized for initial guess.
 HarFok:  IExCor=  402 AccDes= 0.00D+00 IRadAn=         5 IDoV= 1 UseB2=F ITyADJ=14
 ICtDFT=  3500011 ScaDFX=  1.000000  1.000000  1.000000  1.000000
 FoFCou: FMM=F IPFlag=           0 FMFlag=      100000 FMFlg1=           0
         NFxFlg=           0 DoJE=T BraDBF=F KetDBF=T FulRan=T
         wScrn=  0.000000 ICntrl=       500 IOpCl=  0 I1Cent=   200000004 NGrid=           0
         NMat0=    1 NMatS0=      1 NMatT0=    0 NMatD0=    1 NMtDS0=    0 NMtDT0=    0
 Petite list used in FoFCou.
 Harris En= -2604.91238149705    
 JPrj=0 DoOrth=F DoCkMO=F.
 Leave Link  401 at Thu Sep 26 10:52:49 2024, MaxMem= 13421772800 cpu:              20.5 elap:               0.2
 (Enter /gpfs/fs1/soft/improv/software/custom-built/gaussian/g16/l502.exe)
 Integral symmetry usage will be decided dynamically.
 Closed shell SCF:
 Using DIIS extrapolation, IDIIS=  1040.
 NGot= 13421772800 LenX= 13421690130 LenY= 13421661128
 Requested convergence on RMS density matrix=1.00D-08 within  50 cycles.
 Requested convergence on MAX density matrix=1.00D-06.
 Requested convergence on             energy=1.00D-06.
 No special actions if energy rises.
 Fock matrices will be formed incrementally for  20 cycles.
 Integral accuracy reduced to 1.0D-05 until final iterations.

 Cycle   1  Pass 0  IDiag  1:
 FoFJK:  IHMeth= 1 ICntrl=       0 DoSepK=F KAlg= 0 I1Cent=           0 FoldK=F
 IRaf= 790000000 NMat=       1 IRICut=       1 DoRegI=T DoRafI=F ISym2E= 0 IDoP0=0 IntGTp=1.
 FoFCou: FMM=F IPFlag=           0 FMFlag=      100000 FMFlg1=           0
         NFxFlg=           0 DoJE=F BraDBF=F KetDBF=F FulRan=T
         wScrn=  0.000000 ICntrl=         0 IOpCl=  0 I1Cent=           0 NGrid=           0
         NMat0=    1 NMatS0=      1 NMatT0=    0 NMatD0=    1 NMtDS0=    0 NMtDT0=    0
 Symmetry not used in FoFCou.
 E= -2594.87054955523    
 DIIS: error= 1.57D-01 at cycle   1 NSaved=   1.
 NSaved= 1 IEnMin= 1 EnMin= -2594.87054955523     IErMin= 1 ErrMin= 1.57D-01
 ErrMax= 1.57D-01  0.00D+00 EMaxC= 1.00D-01 BMatC= 3.70D+00 BMatP= 3.70D+00
 IDIUse=3 WtCom= 0.00D+00 WtEn= 1.00D+00
 Coeff-Com:  0.100D+01
 Coeff-En:   0.100D+01
 Coeff:      0.100D+01
 Gap=     0.106 Goal=   None    Shift=    0.000
 GapD=    0.106 DampG=1.000 DampE=0.125 DampFc=0.1250 IDamp=-1.
 Damping current iteration by 1.25D-01
 RMSDP=4.92D-02 MaxDP=2.25D+00              OVMax= 0.00D+00

 Cycle   2  Pass 0  IDiag  1:
 RMSU=  6.11D-03    CP:  9.89D-01
 E= -2598.37687808986     Delta-E=       -3.506328534637 Rises=F Damp=T
 DIIS: error= 1.04D-01 at cycle   2 NSaved=   2.
 NSaved= 2 IEnMin= 2 EnMin= -2598.37687808986     IErMin= 2 ErrMin= 1.04D-01
 ErrMax= 1.04D-01  0.00D+00 EMaxC= 1.00D-01 BMatC= 1.54D+00 BMatP= 3.70D+00
 IDIUse=3 WtCom= 0.00D+00 WtEn= 1.00D+00
 Coeff-Com: -0.967D+00 0.197D+01
 Coeff-En:   0.000D+00 0.100D+01
 Coeff:      0.000D+00 0.100D+01
 Gap=    -0.087 Goal=   None    Shift=    0.000
 RMSDP=2.26D-02 MaxDP=8.66D-01 DE=-3.51D+00 OVMax= 0.00D+00

 Cycle   3  Pass 0  IDiag  1:
 RMSU=  2.16D-02    CP:  9.27D-01  1.91D+00
 E= -2591.57248617034     Delta-E=        6.804391919525 Rises=F Damp=F
 DIIS: error= 1.11D-01 at cycle   3 NSaved=   3.
 NSaved= 3 IEnMin= 2 EnMin= -2598.37687808986     IErMin= 2 ErrMin= 1.04D-01
 ErrMax= 1.11D-01  0.00D+00 EMaxC= 1.00D-01 BMatC= 2.50D+00 BMatP= 1.54D+00
 IDIUse=2 WtCom= 0.00D+00 WtEn= 1.00D+00
 EnCoef did   100 forward-backward iterations
 Coeff-En:   0.519D+00 0.295D-01 0.452D+00
 Coeff:      0.519D+00 0.295D-01 0.452D+00
 Gap=    -0.048 Goal=   None    Shift=    0.000
 RMSDP=1.88D-02 MaxDP=6.12D-01 DE= 6.80D+00 OVMax= 0.00D+00

 Cycle   4  Pass 0  IDiag  1:
 RMSU=  1.38D-02    CP:  9.47D-01  8.48D-01  4.91D-01
 E= -2600.68930502142     Delta-E=       -9.116818851086 Rises=F Damp=F
 DIIS: error= 1.63D-01 at cycle   4 NSaved=   4.
 NSaved= 4 IEnMin= 4 EnMin= -2600.68930502142     IErMin= 2 ErrMin= 1.04D-01
 ErrMax= 1.63D-01  0.00D+00 EMaxC= 1.00D-01 BMatC= 2.94D+00 BMatP= 1.54D+00
 IDIUse=2 WtCom= 0.00D+00 WtEn= 1.00D+00
 EnCoef did   100 forward-backward iterations
 Coeff-En:   0.354D+00 0.775D-02 0.000D+00 0.639D+00
 Coeff:      0.354D+00 0.775D-02 0.000D+00 0.639D+00
 Gap=     0.192 Goal=   None    Shift=    0.000
 RMSDP=1.28D-02 MaxDP=3.28D-01 DE=-9.12D+00 OVMax= 0.00D+00

 Cycle   5  Pass 0  IDiag  1:
 RMSU=  1.04D-02    CP:  9.51D-01  6.21D-01  5.28D-01  4.67D-01
 E= -2601.93866918856     Delta-E=       -1.249364167138 Rises=F Damp=F
 DIIS: error= 1.06D-01 at cycle   5 NSaved=   5.
 NSaved= 5 IEnMin= 5 EnMin= -2601.93866918856     IErMin= 2 ErrMin= 1.04D-01
 ErrMax= 1.06D-01  0.00D+00 EMaxC= 1.00D-01 BMatC= 1.74D+00 BMatP= 1.54D+00
 IDIUse=2 WtCom= 0.00D+00 WtEn= 1.00D+00
 EnCoef did   100 forward-backward iterations
 Coeff-En:   0.300D+00 0.479D-02 0.000D+00 0.393D+00 0.303D+00
 Coeff:      0.300D+00 0.479D-02 0.000D+00 0.393D+00 0.303D+00
 Gap=     0.055 Goal=   None    Shift=    0.000
 RMSDP=8.80D-03 MaxDP=2.75D-01 DE=-1.25D+00 OVMax= 0.00D+00

 Cycle   6  Pass 0  IDiag  1:
 RMSU=  6.00D-03    CP:  9.61D-01  5.83D-01  4.09D-01  6.25D-01  4.77D-01
 E= -2603.87754341266     Delta-E=       -1.938874224102 Rises=F Damp=F
 DIIS: error= 2.50D-02 at cycle   6 NSaved=   6.
 NSaved= 6 IEnMin= 6 EnMin= -2603.87754341266     IErMin= 6 ErrMin= 2.50D-02
 ErrMax= 2.50D-02  0.00D+00 EMaxC= 1.00D-01 BMatC= 8.12D-02 BMatP= 1.54D+00
 IDIUse=3 WtCom= 7.50D-01 WtEn= 2.50D-01
 Coeff-Com:  0.103D+00 0.361D-01 0.181D-01 0.370D-01 0.642D-01 0.741D+00
 Coeff-En:   0.410D-01 0.000D+00 0.000D+00 0.000D+00 0.000D+00 0.959D+00
 Coeff:      0.876D-01 0.271D-01 0.136D-01 0.277D-01 0.481D-01 0.796D+00
 Gap=     0.079 Goal=   None    Shift=    0.000
 RMSDP=5.69D-03 MaxDP=1.78D-01 DE=-1.94D+00 OVMax= 0.00D+00

 Cycle   7  Pass 0  IDiag  1:
 RMSU=  4.74D-03    CP:  9.59D-01  5.25D-01  4.52D-01  6.66D-01  5.10D-01
                    CP:  5.15D-01
 E= -2603.69099565377     Delta-E=        0.186547758893 Rises=F Damp=F
 DIIS: error= 5.13D-02 at cycle   7 NSaved=   7.
 NSaved= 7 IEnMin= 6 EnMin= -2603.87754341266     IErMin= 6 ErrMin= 2.50D-02
 ErrMax= 5.13D-02  0.00D+00 EMaxC= 1.00D-01 BMatC= 2.45D-01 BMatP= 8.12D-02
 IDIUse=2 WtCom= 0.00D+00 WtEn= 1.00D+00
 EnCoef did     2 forward-backward iterations
 Coeff-En:   0.510D-01 0.000D+00 0.000D+00 0.000D+00 0.000D+00 0.703D+00
 Coeff-En:   0.246D+00
 Coeff:      0.510D-01 0.000D+00 0.000D+00 0.000D+00 0.000D+00 0.703D+00
 Coeff:      0.246D+00
 Gap=     0.001 Goal=   None    Shift=    0.000
 RMSDP=1.19D-02 MaxDP=6.73D-01 DE= 1.87D-01 OVMax= 0.00D+00

 Cycle   8  Pass 0  IDiag  1:
 RMSU=  4.20D-03    CP:  9.93D-01  7.19D-02  1.29D-01  1.64D-01  1.84D-01
                    CP:  6.13D-01  5.16D-01
 E= -2598.81630735430     Delta-E=        4.874688299475 Rises=F Damp=F
 DIIS: error= 3.23D-01 at cycle   8 NSaved=   8.
 NSaved= 8 IEnMin= 6 EnMin= -2603.87754341266     IErMin= 6 ErrMin= 2.50D-02
 ErrMax= 3.23D-01  0.00D+00 EMaxC= 1.00D-01 BMatC= 5.32D+00 BMatP= 8.12D-02
 IDIUse=2 WtCom= 0.00D+00 WtEn= 1.00D+00
 EnCoef did   100 forward-backward iterations
 Coeff-En:   0.186D-02 0.000D+00 0.000D+00 0.000D+00 0.000D+00 0.691D+00
 Coeff-En:   0.227D+00 0.799D-01
 Coeff:      0.186D-02 0.000D+00 0.000D+00 0.000D+00 0.000D+00 0.691D+00
 Coeff:      0.227D+00 0.799D-01
 Gap=     0.017 Goal=   None    Shift=    0.000
 RMSDP=7.25D-03 MaxDP=3.74D-01 DE= 4.87D+00 OVMax= 0.00D+00

 Problem detected with inexpensive integrals.
 Switching to full accuracy and repeating last cycle.
 Cycle   9  Pass 1  IDiag  1:
 E= -2598.81631564058     Delta-E=       -0.000008286283 Rises=F Damp=F
 DIIS: error= 3.23D-01 at cycle   1 NSaved=   1.
 NSaved= 1 IEnMin= 1 EnMin= -2598.81631564058     IErMin= 1 ErrMin= 3.23D-01
 ErrMax= 3.23D-01  0.00D+00 EMaxC= 1.00D-01 BMatC= 5.32D+00 BMatP= 5.32D+00
 IDIUse=3 WtCom= 0.00D+00 WtEn= 1.00D+00
 Coeff-Com:  0.100D+01
 Coeff-En:   0.100D+01
 Coeff:      0.100D+01
 Gap=    -1.394 Goal=   None    Shift=    0.000
 GapD=   -1.394 DampG=0.250 DampE=0.250 DampFc=0.2500 IDamp=-1.
 Damping current iteration by 2.50D-01
 RMSDP=4.91D-02 MaxDP=2.18D+00 DE=-8.29D-06 OVMax= 0.00D+00

 Cycle  10  Pass 1  IDiag  1:
 RMSU=  1.22D-02    CP:  9.78D-01
 E= -2600.61901442657     Delta-E=       -1.802698785993 Rises=F Damp=T
 DIIS: error= 5.98D-02 at cycle   2 NSaved=   2.
 NSaved= 2 IEnMin= 2 EnMin= -2600.61901442657     IErMin= 2 ErrMin= 5.98D-02
 ErrMax= 5.98D-02  0.00D+00 EMaxC= 1.00D-01 BMatC= 6.02D-01 BMatP= 5.32D+00
 IDIUse=3 WtCom= 4.02D-01 WtEn= 5.98D-01
 Coeff-Com: -0.256D-01 0.103D+01
 Coeff-En:   0.307D+00 0.693D+00
 Coeff:      0.173D+00 0.827D+00
 Gap=    -0.172 Goal=   None    Shift=    0.000
 RMSDP=2.42D-02 MaxDP=7.60D-01 DE=-1.80D+00 OVMax= 0.00D+00

 Cycle  11  Pass 1  IDiag  1:
 RMSU=  2.25D-02    CP:  9.32D-01  3.04D-01
 E= -2589.35967522379     Delta-E=       11.259339202783 Rises=F Damp=F
 DIIS: error= 1.17D-01 at cycle   3 NSaved=   3.
 NSaved= 3 IEnMin= 2 EnMin= -2600.61901442657     IErMin= 2 ErrMin= 5.98D-02
 ErrMax= 1.17D-01  0.00D+00 EMaxC= 1.00D-01 BMatC= 5.00D+00 BMatP= 6.02D-01
 IDIUse=2 WtCom= 0.00D+00 WtEn= 1.00D+00
 EnCoef did     2 forward-backward iterations
 Coeff-En:   0.351D+00 0.416D+00 0.232D+00
 Coeff:      0.351D+00 0.416D+00 0.232D+00
 Gap=    -0.023 Goal=   None    Shift=    0.000
 RMSDP=2.24D-02 MaxDP=7.76D-01 DE= 1.13D+01 OVMax= 0.00D+00

 Cycle  12  Pass 1  IDiag  1:
 RMSU=  1.64D-02    CP:  9.37D-01  6.79D-01  3.50D-01
 E= -2590.01511259396     Delta-E=       -0.655437370175 Rises=F Damp=F
 DIIS: error= 1.02D-01 at cycle   4 NSaved=   4.
 NSaved= 4 IEnMin= 2 EnMin= -2600.61901442657     IErMin= 2 ErrMin= 5.98D-02
 ErrMax= 1.02D-01  0.00D+00 EMaxC= 1.00D-01 BMatC= 3.50D+00 BMatP= 6.02D-01
 IDIUse=2 WtCom= 0.00D+00 WtEn= 1.00D+00
 EnCoef did   100 forward-backward iterations
 Coeff-En:   0.605D+00 0.145D-01 0.647D-01 0.315D+00
 Coeff:      0.605D+00 0.145D-01 0.647D-01 0.315D+00
 Gap=    -0.117 Goal=   None    Shift=    0.000
 RMSDP=1.73D-02 MaxDP=4.45D-01 DE=-6.55D-01 OVMax= 0.00D+00

 Cycle  13  Pass 1  IDiag  1:
 RMSU=  1.22D-02    CP:  9.55D-01  3.29D-01  4.10D-01  3.05D-01
 E= -2599.21575504904     Delta-E=       -9.200642455080 Rises=F Damp=F
 DIIS: error= 2.00D-01 at cycle   5 NSaved=   5.
 NSaved= 5 IEnMin= 2 EnMin= -2600.61901442657     IErMin= 2 ErrMin= 5.98D-02
 ErrMax= 2.00D-01  0.00D+00 EMaxC= 1.00D-01 BMatC= 3.59D+00 BMatP= 6.02D-01
 IDIUse=2 WtCom= 0.00D+00 WtEn= 1.00D+00
 EnCoef did   100 forward-backward iterations
 Coeff-En:   0.530D+00 0.639D-02 0.380D-02 0.191D+00 0.269D+00
 Coeff:      0.530D+00 0.639D-02 0.380D-02 0.191D+00 0.269D+00
 Gap=    -0.013 Goal=   None    Shift=    0.000
 RMSDP=1.20D-02 MaxDP=2.91D-01 DE=-9.20D+00 OVMax= 0.00D+00

 Cycle  14  Pass 1  IDiag  1:
 RMSU=  8.76D-03    CP:  9.62D-01  3.23D-01  2.84D-01  4.30D-01  3.97D-01
 E= -2602.58266739174     Delta-E=       -3.366912342693 Rises=F Damp=F
 DIIS: error= 1.05D-01 at cycle   6 NSaved=   6.
 NSaved= 6 IEnMin= 6 EnMin= -2602.58266739174     IErMin= 2 ErrMin= 5.98D-02
 ErrMax= 1.05D-01  0.00D+00 EMaxC= 1.00D-01 BMatC= 1.19D+00 BMatP= 6.02D-01
 IDIUse=2 WtCom= 0.00D+00 WtEn= 1.00D+00
 EnCoef did   100 forward-backward iterations
 Coeff-En:   0.328D+00 0.555D-02 0.000D+00 0.000D+00 0.528D-03 0.666D+00
 Coeff:      0.328D+00 0.555D-02 0.000D+00 0.000D+00 0.528D-03 0.666D+00
 Gap=     0.136 Goal=   None    Shift=    0.000
 RMSDP=8.76D-03 MaxDP=2.05D-01 DE=-3.37D+00 OVMax= 0.00D+00

 Cycle  15  Pass 1  IDiag  1:
 RMSU=  6.98D-03    CP:  9.71D-01  2.80D-01  1.55D-01  4.21D-01  3.60D-01
                    CP:  5.06D-01
 E= -2603.41726297425     Delta-E=       -0.834595582513 Rises=F Damp=F
 DIIS: error= 4.98D-02 at cycle   7 NSaved=   7.
 NSaved= 7 IEnMin= 7 EnMin= -2603.41726297425     IErMin= 7 ErrMin= 4.98D-02
 ErrMax= 4.98D-02  0.00D+00 EMaxC= 1.00D-01 BMatC= 4.36D-01 BMatP= 6.02D-01
 IDIUse=3 WtCom= 5.02D-01 WtEn= 4.98D-01
 EnCoef did   100 forward-backward iterations
 Coeff-Com:  0.127D+00 0.201D+00 0.746D-01-0.341D-01-0.701D-01 0.280D+00
 Coeff-Com:  0.422D+00
 Coeff-En:   0.265D+00 0.193D-02 0.000D+00 0.000D+00 0.183D-03 0.429D+00
 Coeff-En:   0.304D+00
 Coeff:      0.196D+00 0.102D+00 0.374D-01-0.171D-01-0.351D-01 0.354D+00
 Coeff:      0.363D+00
 Gap=     0.042 Goal=   None    Shift=    0.000
 RMSDP=1.03D-02 MaxDP=4.09D-01 DE=-8.35D-01 OVMax= 0.00D+00

 Cycle  16  Pass 1  IDiag  1:
 RMSU=  3.54D-03    CP:  9.93D-01  5.91D-02  7.22D-02  9.30D-02  5.78D-02
                    CP:  3.16D-01  1.42D-01
 E= -2602.24542345373     Delta-E=        1.171839520523 Rises=F Damp=F
 DIIS: error= 2.32D-01 at cycle   8 NSaved=   8.
 NSaved= 8 IEnMin= 7 EnMin= -2603.41726297425     IErMin= 7 ErrMin= 4.98D-02
 ErrMax= 2.32D-01  0.00D+00 EMaxC= 1.00D-01 BMatC= 2.39D+00 BMatP= 4.36D-01
 IDIUse=2 WtCom= 0.00D+00 WtEn= 1.00D+00
 EnCoef did   100 forward-backward iterations
 Coeff-En:   0.637D-04 0.942D-03 0.000D+00 0.000D+00 0.895D-04 0.302D+00
 Coeff-En:   0.321D+00 0.376D+00
 Coeff:      0.637D-04 0.942D-03 0.000D+00 0.000D+00 0.895D-04 0.302D+00
 Coeff:      0.321D+00 0.376D+00
 Gap=     0.038 Goal=   None    Shift=    0.000
 RMSDP=8.13D-03 MaxDP=3.87D-01 DE= 1.17D+00 OVMax= 0.00D+00

 Cycle  17  Pass 1  IDiag  1:
 RMSU=  2.45D-03    CP:  9.75D-01  2.35D-01  1.84D-01  3.48D-01  2.91D-01
                    CP:  7.75D-01  3.66D-01  4.38D-01
 E= -2603.88683374508     Delta-E=       -1.641410291350 Rises=F Damp=F
 DIIS: error= 3.43D-02 at cycle   9 NSaved=   9.
 NSaved= 9 IEnMin= 9 EnMin= -2603.88683374508     IErMin= 9 ErrMin= 3.43D-02
 ErrMax= 3.43D-02  0.00D+00 EMaxC= 1.00D-01 BMatC= 8.37D-02 BMatP= 4.36D-01
 IDIUse=3 WtCom= 6.57D-01 WtEn= 3.43D-01
 Coeff-Com: -0.518D-01-0.874D-02 0.329D-02-0.812D-02-0.108D-01-0.770D-01
 Coeff-Com:  0.869D-01 0.201D+00 0.865D+00
 Coeff-En:   0.000D+00 0.000D+00 0.000D+00 0.000D+00 0.000D+00 0.000D+00
 Coeff-En:   0.000D+00 0.159D+00 0.841D+00
 Coeff:     -0.340D-01-0.574D-02 0.216D-02-0.533D-02-0.706D-02-0.505D-01
 Coeff:      0.570D-01 0.186D+00 0.857D+00
 Gap=     0.057 Goal=   None    Shift=    0.000
 RMSDP=5.09D-03 MaxDP=1.81D-01 DE=-1.64D+00 OVMax= 0.00D+00

 Cycle  18  Pass 1  IDiag  1:
 RMSU=  2.43D-03    CP:  9.83D-01  1.59D-01  1.13D-01  2.57D-01  1.63D-01
                    CP:  5.53D-01  5.23D-01  8.28D-01  1.04D-01
 E= -2603.75185069645     Delta-E=        0.134983048622 Rises=F Damp=F
 DIIS: error= 8.61D-02 at cycle  10 NSaved=  10.
 NSaved=10 IEnMin= 9 EnMin= -2603.88683374508     IErMin= 9 ErrMin= 3.43D-02
 ErrMax= 8.61D-02  0.00D+00 EMaxC= 1.00D-01 BMatC= 2.47D-01 BMatP= 8.37D-02
 IDIUse=2 WtCom= 0.00D+00 WtEn= 1.00D+00
 Coeff-En:   0.000D+00 0.000D+00 0.000D+00 0.000D+00 0.000D+00 0.000D+00
 Coeff-En:   0.000D+00 0.000D+00 0.628D+00 0.372D+00
 Coeff:      0.000D+00 0.000D+00 0.000D+00 0.000D+00 0.000D+00 0.000D+00
 Coeff:      0.000D+00 0.000D+00 0.628D+00 0.372D+00
 Gap=     0.058 Goal=   None    Shift=    0.000
 RMSDP=3.95D-03 MaxDP=1.05D-01 DE= 1.35D-01 OVMax= 0.00D+00

 Cycle  19  Pass 1  IDiag  1:
 RMSU=  1.40D-03    CP:  9.83D-01  1.54D-01  1.38D-01  2.40D-01  1.99D-01
                    CP:  5.69D-01  3.79D-01  7.02D-01  1.06D+00 -4.08D-02
 E= -2603.81997739541     Delta-E=       -0.068126698955 Rises=F Damp=F
 DIIS: error= 6.90D-02 at cycle  11 NSaved=  11.
 NSaved=11 IEnMin= 9 EnMin= -2603.88683374508     IErMin= 9 ErrMin= 3.43D-02
 ErrMax= 6.90D-02  0.00D+00 EMaxC= 1.00D-01 BMatC= 1.87D-01 BMatP= 8.37D-02
 IDIUse=2 WtCom= 0.00D+00 WtEn= 1.00D+00
 EnCoef did    13 forward-backward iterations
 Coeff-En:   0.000D+00 0.000D+00 0.000D+00 0.000D+00 0.000D+00 0.000D+00
 Coeff-En:   0.000D+00 0.000D+00 0.592D+00 0.227D+00 0.181D+00
 Coeff:      0.000D+00 0.000D+00 0.000D+00 0.000D+00 0.000D+00 0.000D+00
 Coeff:      0.000D+00 0.000D+00 0.592D+00 0.227D+00 0.181D+00
 Gap=     0.055 Goal=   None    Shift=    0.000
 RMSDP=2.94D-03 MaxDP=1.29D-01 DE=-6.81D-02 OVMax= 0.00D+00

 Cycle  20  Pass 1  IDiag  1:
 RMSU=  6.88D-04    CP:  9.78D-01  2.05D-01  1.66D-01  3.19D-01  2.44D-01
                    CP:  6.90D-01  4.95D-01  6.40D-01  6.30D-01  4.75D-01
                    CP:  3.73D-01
 E= -2603.96705723832     Delta-E=       -0.147079842915 Rises=F Damp=F
 DIIS: error= 8.60D-03 at cycle  12 NSaved=  12.
 NSaved=12 IEnMin=12 EnMin= -2603.96705723832     IErMin=12 ErrMin= 8.60D-03
 ErrMax= 8.60D-03  0.00D+00 EMaxC= 1.00D-01 BMatC= 5.96D-03 BMatP= 8.37D-02
 IDIUse=3 WtCom= 9.14D-01 WtEn= 8.60D-02
 EnCoef did     9 forward-backward iterations
 Coeff-Com: -0.304D-02 0.113D-01 0.228D-03-0.104D-02-0.261D-02-0.189D-01
 Coeff-Com: -0.178D-01-0.147D-01 0.290D+00 0.776D-01 0.174D+00 0.505D+00
 Coeff-En:   0.000D+00 0.000D+00 0.000D+00 0.000D+00 0.000D+00 0.000D+00
 Coeff-En:   0.000D+00 0.000D+00 0.996D-02 0.000D+00 0.126D+00 0.864D+00
 Coeff:     -0.278D-02 0.104D-01 0.208D-03-0.953D-03-0.238D-02-0.173D-01
 Coeff:     -0.163D-01-0.135D-01 0.266D+00 0.709D-01 0.169D+00 0.536D+00
 Gap=     0.056 Goal=   None    Shift=    0.000
 RMSDP=8.50D-04 MaxDP=1.66D-02 DE=-1.47D-01 OVMax= 0.00D+00

 Cycle  21  Pass 1  IDiag  1:
 RMSU=  2.99D-04    CP:  9.77D-01  2.09D-01  1.67D-01  3.20D-01  2.49D-01
                    CP:  7.14D-01  4.36D-01  5.82D-01  8.50D-01  3.83D-01
                    CP:  3.92D-01  7.45D-01
 E= -2603.96964477706     Delta-E=       -0.002587538735 Rises=F Damp=F
 DIIS: error= 9.83D-03 at cycle  13 NSaved=  13.
 NSaved=13 IEnMin=13 EnMin= -2603.96964477706     IErMin=12 ErrMin= 8.60D-03
 ErrMax= 9.83D-03  0.00D+00 EMaxC= 1.00D-01 BMatC= 5.25D-03 BMatP= 5.96D-03
 IDIUse=3 WtCom= 9.14D-01 WtEn= 8.60D-02
 EnCoef did     5 forward-backward iterations
 Coeff-Com: -0.161D-02 0.100D-01-0.102D-03-0.484D-03-0.664D-03-0.124D-01
 Coeff-Com: -0.951D-02-0.110D-01 0.996D-01 0.539D-01 0.128D+00 0.237D+00
 Coeff-Com:  0.507D+00
 Coeff-En:   0.000D+00 0.000D+00 0.000D+00 0.000D+00 0.000D+00 0.000D+00
 Coeff-En:   0.000D+00 0.000D+00 0.000D+00 0.000D+00 0.118D+00 0.706D-01
 Coeff-En:   0.811D+00
 Coeff:     -0.147D-02 0.916D-02-0.934D-04-0.442D-03-0.607D-03-0.113D-01
 Coeff:     -0.869D-02-0.100D-01 0.910D-01 0.493D-01 0.127D+00 0.223D+00
 Coeff:      0.533D+00
 Gap=     0.052 Goal=   None    Shift=    0.000
 RMSDP=3.65D-04 MaxDP=1.23D-02 DE=-2.59D-03 OVMax= 0.00D+00

 Cycle  22  Pass 1  IDiag  1:
 RMSU=  2.01D-04    CP:  9.78D-01  2.03D-01  1.64D-01  3.13D-01  2.43D-01
                    CP:  6.98D-01  4.41D-01  6.11D-01  8.43D-01  4.08D-01
                    CP:  4.97D-01  8.11D-01  1.03D+00
 E= -2603.97403878376     Delta-E=       -0.004394006698 Rises=F Damp=F
 DIIS: error= 3.38D-03 at cycle  14 NSaved=  14.
 NSaved=14 IEnMin=14 EnMin= -2603.97403878376     IErMin=14 ErrMin= 3.38D-03
 ErrMax= 3.38D-03  0.00D+00 EMaxC= 1.00D-01 BMatC= 6.35D-04 BMatP= 5.25D-03
 IDIUse=3 WtCom= 9.66D-01 WtEn= 3.38D-02
 Coeff-Com:  0.530D-03 0.468D-02-0.308D-03 0.207D-03-0.656D-03-0.350D-02
 Coeff-Com:  0.330D-02-0.972D-02 0.310D-02 0.344D-01 0.656D-01-0.368D-01
 Coeff-Com:  0.283D+00 0.656D+00
 Coeff-En:   0.000D+00 0.000D+00 0.000D+00 0.000D+00 0.000D+00 0.000D+00
 Coeff-En:   0.000D+00 0.000D+00 0.000D+00 0.000D+00 0.175D-01 0.000D+00
 Coeff-En:   0.000D+00 0.982D+00
 Coeff:      0.512D-03 0.452D-02-0.298D-03 0.200D-03-0.634D-03-0.338D-02
 Coeff:      0.318D-02-0.939D-02 0.299D-02 0.332D-01 0.640D-01-0.355D-01
 Coeff:      0.274D+00 0.667D+00
 Gap=     0.050 Goal=   None    Shift=    0.000
 RMSDP=2.64D-04 MaxDP=1.00D-02 DE=-4.39D-03 OVMax= 0.00D+00

 Cycle  23  Pass 1  IDiag  1:
 RMSU=  9.94D-05    CP:  9.78D-01  2.02D-01  1.62D-01  3.11D-01  2.40D-01
                    CP:  6.92D-01  4.37D-01  6.06D-01  8.67D-01  4.28D-01
                    CP:  5.94D-01  7.98D-01  1.53D+00  1.33D+00
 E= -2603.97479664148     Delta-E=       -0.000757857727 Rises=F Damp=F
 DIIS: error= 6.31D-04 at cycle  15 NSaved=  15.
 NSaved=15 IEnMin=15 EnMin= -2603.97479664148     IErMin=15 ErrMin= 6.31D-04
 ErrMax= 6.31D-04  0.00D+00 EMaxC= 1.00D-01 BMatC= 3.51D-05 BMatP= 6.35D-04
 IDIUse=3 WtCom= 9.94D-01 WtEn= 6.31D-03
 Coeff-Com:  0.122D-02 0.167D-02-0.285D-04 0.145D-03-0.468D-03 0.285D-03
 Coeff-Com:  0.645D-02-0.601D-02-0.130D-01 0.169D-01 0.110D-01-0.854D-01
 Coeff-Com:  0.397D-01 0.418D+00 0.610D+00
 Coeff-En:   0.000D+00 0.000D+00 0.000D+00 0.000D+00 0.000D+00 0.000D+00
 Coeff-En:   0.000D+00 0.000D+00 0.000D+00 0.000D+00 0.000D+00 0.000D+00
 Coeff-En:   0.000D+00 0.000D+00 0.100D+01
 Coeff:      0.121D-02 0.165D-02-0.283D-04 0.144D-03-0.465D-03 0.284D-03
 Coeff:      0.641D-02-0.597D-02-0.130D-01 0.168D-01 0.109D-01-0.849D-01
 Coeff:      0.395D-01 0.415D+00 0.612D+00
 Gap=     0.049 Goal=   None    Shift=    0.000
 RMSDP=2.27D-04 MaxDP=8.68D-03 DE=-7.58D-04 OVMax= 0.00D+00

 Cycle  24  Pass 1  IDiag  1:
 RMSU=  5.95D-05    CP:  9.78D-01  2.02D-01  1.62D-01  3.12D-01  2.41D-01
                    CP:  6.93D-01  4.36D-01  5.93D-01  8.69D-01  4.67D-01
                    CP:  6.52D-01  8.49D-01  1.92D+00  1.93D+00  1.32D+00
 E= -2603.97504239432     Delta-E=       -0.000245752835 Rises=F Damp=F
 DIIS: error= 5.54D-04 at cycle  16 NSaved=  16.
 NSaved=16 IEnMin=16 EnMin= -2603.97504239432     IErMin=16 ErrMin= 5.54D-04
 ErrMax= 5.54D-04  0.00D+00 EMaxC= 1.00D-01 BMatC= 1.32D-05 BMatP= 3.51D-05
 IDIUse=3 WtCom= 9.94D-01 WtEn= 5.54D-03
 Coeff-Com:  0.823D-03-0.736D-04 0.874D-04 0.263D-04-0.106D-03 0.101D-02
 Coeff-Com:  0.213D-02-0.183D-02 0.108D-02-0.193D-02-0.863D-02-0.193D-01
 Coeff-Com: -0.916D-01-0.542D-01 0.301D+00 0.872D+00
 Coeff-En:   0.000D+00 0.000D+00 0.000D+00 0.000D+00 0.000D+00 0.000D+00
 Coeff-En:   0.000D+00 0.000D+00 0.000D+00 0.000D+00 0.000D+00 0.000D+00
 Coeff-En:   0.000D+00 0.000D+00 0.000D+00 0.100D+01
 Coeff:      0.818D-03-0.732D-04 0.870D-04 0.261D-04-0.106D-03 0.101D-02
 Coeff:      0.212D-02-0.182D-02 0.108D-02-0.192D-02-0.858D-02-0.192D-01
 Coeff:     -0.911D-01-0.539D-01 0.299D+00 0.873D+00
 Gap=     0.048 Goal=   None    Shift=    0.000
 RMSDP=3.22D-04 MaxDP=1.13D-02 DE=-2.46D-04 OVMax= 0.00D+00

 Cycle  25  Pass 1  IDiag  1:
 RMSU=  3.87D-05    CP:  9.78D-01  2.03D-01  1.62D-01  3.12D-01  2.41D-01
                    CP:  6.91D-01  4.31D-01  5.79D-01  8.76D-01  5.11D-01
                    CP:  7.52D-01  9.18D-01  2.48D+00  2.72D+00  2.32D+00
                    CP:  1.58D+00
 E= -2603.97533556471     Delta-E=       -0.000293170393 Rises=F Damp=F
 DIIS: error= 6.18D-04 at cycle  17 NSaved=  17.
 NSaved=17 IEnMin=17 EnMin= -2603.97533556471     IErMin=16 ErrMin= 5.54D-04
 ErrMax= 6.18D-04  0.00D+00 EMaxC= 1.00D-01 BMatC= 2.17D-05 BMatP= 1.32D-05
 IDIUse=3 WtCom= 9.94D-01 WtEn= 5.54D-03
 Coeff-Com:  0.439D-03-0.800D-03 0.751D-04 0.529D-05 0.870D-04 0.564D-03
 Coeff-Com: -0.113D-02 0.159D-03 0.975D-02-0.110D-01-0.662D-02 0.302D-01
 Coeff-Com: -0.811D-01-0.201D+00-0.280D-01 0.671D+00 0.618D+00
 Coeff-En:   0.000D+00 0.000D+00 0.000D+00 0.000D+00 0.000D+00 0.000D+00
 Coeff-En:   0.000D+00 0.000D+00 0.000D+00 0.000D+00 0.000D+00 0.000D+00
 Coeff-En:   0.000D+00 0.000D+00 0.000D+00 0.000D+00 0.100D+01
 Coeff:      0.437D-03-0.796D-03 0.747D-04 0.526D-05 0.865D-04 0.561D-03
 Coeff:     -0.113D-02 0.158D-03 0.970D-02-0.110D-01-0.658D-02 0.300D-01
 Coeff:     -0.807D-01-0.200D+00-0.278D-01 0.667D+00 0.620D+00
 Gap=     0.047 Goal=   None    Shift=    0.000
 RMSDP=2.86D-04 MaxDP=1.02D-02 DE=-2.93D-04 OVMax= 0.00D+00

 Cycle  26  Pass 1  IDiag  1:
 RMSU=  8.95D-05    CP:  9.78D-01  2.03D-01  1.63D-01  3.13D-01  2.41D-01
                    CP:  6.90D-01  4.25D-01  5.64D-01  8.82D-01  5.44D-01
                    CP:  8.40D-01  9.78D-01  2.97D+00  3.00D+00  3.00D+00
                    CP:  2.58D+00  1.52D+00
 E= -2603.97556654243     Delta-E=       -0.000230977725 Rises=F Damp=F
 DIIS: error= 1.04D-03 at cycle  18 NSaved=  18.
 NSaved=18 IEnMin=18 EnMin= -2603.97556654243     IErMin=16 ErrMin= 5.54D-04
 ErrMax= 1.04D-03  0.00D+00 EMaxC= 1.00D-01 BMatC= 5.87D-05 BMatP= 1.32D-05
 IDIUse=3 WtCom= 9.94D-01 WtEn= 5.54D-03
 Coeff-Com:  0.228D-03-0.780D-03 0.524D-04 0.516D-04 0.137D-03-0.920D-04
 Coeff-Com: -0.148D-02-0.702D-04 0.986D-02-0.894D-02 0.170D-02 0.423D-01
 Coeff-Com:  0.787D-02-0.578D-01-0.102D+00 0.798D-02 0.176D+00 0.925D+00
 Coeff-En:   0.000D+00 0.000D+00 0.000D+00 0.000D+00 0.000D+00 0.000D+00
 Coeff-En:   0.000D+00 0.000D+00 0.000D+00 0.000D+00 0.000D+00 0.000D+00
 Coeff-En:   0.000D+00 0.000D+00 0.000D+00 0.000D+00 0.000D+00 0.100D+01
 Coeff:      0.227D-03-0.776D-03 0.521D-04 0.514D-04 0.137D-03-0.915D-04
 Coeff:     -0.147D-02-0.698D-04 0.980D-02-0.889D-02 0.169D-02 0.421D-01
 Coeff:      0.783D-02-0.575D-01-0.102D+00 0.793D-02 0.175D+00 0.926D+00
 Gap=     0.045 Goal=   None    Shift=    0.000
 RMSDP=2.99D-04 MaxDP=1.12D-02 DE=-2.31D-04 OVMax= 0.00D+00

 Cycle  27  Pass 1  IDiag  1:
 RMSU=  1.62D-04    CP:  9.78D-01  2.04D-01  1.63D-01  3.13D-01  2.42D-01
                    CP:  6.89D-01  4.18D-01  5.47D-01  8.87D-01  5.75D-01
                    CP:  9.31D-01  1.05D+00  3.00D+00  3.00D+00  3.00D+00
                    CP:  3.00D+00  2.67D+00  2.80D+00
 E= -2603.97579738017     Delta-E=       -0.000230837734 Rises=F Damp=F
 DIIS: error= 1.25D-03 at cycle  19 NSaved=  19.
 NSaved=19 IEnMin=19 EnMin= -2603.97579738017     IErMin=16 ErrMin= 5.54D-04
 ErrMax= 1.25D-03  0.00D+00 EMaxC= 1.00D-01 BMatC= 9.81D-05 BMatP= 1.32D-05
 IDIUse=3 WtCom= 9.94D-01 WtEn= 5.54D-03
 Coeff-Com:  0.150D-03-0.347D-03 0.507D-04 0.649D-04 0.199D-04-0.339D-04
 Coeff-Com:  0.164D-03-0.270D-03 0.184D-02-0.364D-02 0.234D-02 0.344D-01
 Coeff-Com:  0.116D+00 0.199D+00 0.976D-02-0.789D+00-0.741D+00 0.119D+01
 Coeff-Com:  0.976D+00
 Coeff-En:   0.000D+00 0.000D+00 0.000D+00 0.000D+00 0.000D+00 0.000D+00
 Coeff-En:   0.000D+00 0.000D+00 0.000D+00 0.000D+00 0.000D+00 0.000D+00
 Coeff-En:   0.000D+00 0.000D+00 0.000D+00 0.000D+00 0.000D+00 0.000D+00
 Coeff-En:   0.100D+01
 Coeff:      0.149D-03-0.345D-03 0.504D-04 0.645D-04 0.198D-04-0.337D-04
 Coeff:      0.163D-03-0.268D-03 0.183D-02-0.362D-02 0.233D-02 0.342D-01
 Coeff:      0.115D+00 0.198D+00 0.971D-02-0.785D+00-0.737D+00 0.119D+01
 Coeff:      0.976D+00
 Gap=     0.043 Goal=   None    Shift=    0.000
 RMSDP=5.36D-04 MaxDP=2.10D-02 DE=-2.31D-04 OVMax= 0.00D+00

 Cycle  28  Pass 1  IDiag  1:
 RMSU=  2.81D-04    CP:  9.77D-01  2.05D-01  1.65D-01  3.15D-01  2.44D-01
                    CP:  6.88D-01  4.04D-01  5.09D-01  8.90D-01  6.30D-01
                    CP:  1.08D+00  1.18D+00  3.00D+00  3.00D+00  3.00D+00
                    CP:  3.00D+00  3.00D+00  3.00D+00  2.91D+00
 E= -2603.97625808658     Delta-E=       -0.000460706407 Rises=F Damp=F
 DIIS: error= 1.18D-03 at cycle  20 NSaved=  20.
 NSaved=20 IEnMin=20 EnMin= -2603.97625808658     IErMin=16 ErrMin= 5.54D-04
 ErrMax= 1.18D-03  0.00D+00 EMaxC= 1.00D-01 BMatC= 8.61D-05 BMatP= 1.32D-05
 IDIUse=3 WtCom= 9.94D-01 WtEn= 5.54D-03
 Coeff-Com: -0.173D-03 0.575D-03 0.547D-04-0.374D-05 0.194D-03 0.490D-03
 Coeff-Com:  0.294D-03 0.984D-03-0.475D-02-0.246D-02-0.791D-02 0.257D-01
 Coeff-Com:  0.810D-01 0.165D+00 0.368D-01-0.470D+00-0.444D+00 0.539D-01
 Coeff-Com:  0.436D+00 0.113D+01
 Coeff-En:   0.000D+00 0.000D+00 0.000D+00 0.000D+00 0.000D+00 0.000D+00
 Coeff-En:   0.000D+00 0.000D+00 0.000D+00 0.000D+00 0.000D+00 0.000D+00
 Coeff-En:   0.000D+00 0.000D+00 0.000D+00 0.000D+00 0.000D+00 0.000D+00
 Coeff-En:   0.000D+00 0.100D+01
 Coeff:     -0.172D-03 0.572D-03 0.544D-04-0.372D-05 0.193D-03 0.487D-03
 Coeff:      0.292D-03 0.978D-03-0.473D-02-0.245D-02-0.787D-02 0.256D-01
 Coeff:      0.805D-01 0.164D+00 0.366D-01-0.467D+00-0.442D+00 0.536D-01
 Coeff:      0.433D+00 0.113D+01
 Gap=     0.041 Goal=   None    Shift=    0.000
 RMSDP=5.45D-04 MaxDP=2.10D-02 DE=-4.61D-04 OVMax= 0.00D+00

 Cycle  29  Pass 1  IDiag  1:
 Restarting incremental Fock formation.
 E= -2603.97667843092     Delta-E=       -0.000420344340 Rises=F Damp=F
 DIIS: error= 9.23D-04 at cycle  21 NSaved=  20.
 NSaved=20 IEnMin=20 EnMin= -2603.97667843092     IErMin=15 ErrMin= 5.54D-04
 ErrMax= 9.23D-04  0.00D+00 EMaxC= 1.00D-01 BMatC= 5.50D-05 BMatP= 1.32D-05
 IDIUse=3 WtCom= 9.94D-01 WtEn= 5.54D-03
 Coeff-Com: -0.431D-03 0.422D-03 0.726D-04 0.176D-03 0.130D-02-0.519D-03
 Coeff-Com:  0.268D-02-0.260D-02-0.526D-02-0.171D-01 0.859D-02-0.718D-01
 Coeff-Com: -0.169D+00-0.117D+00 0.695D+00 0.968D+00-0.118D+01-0.144D+01
 Coeff-Com:  0.807D+00 0.152D+01
 Coeff-En:   0.000D+00 0.000D+00 0.000D+00 0.000D+00 0.000D+00 0.000D+00
 Coeff-En:   0.000D+00 0.000D+00 0.000D+00 0.000D+00 0.000D+00 0.000D+00
 Coeff-En:   0.000D+00 0.000D+00 0.000D+00 0.000D+00 0.000D+00 0.000D+00
 Coeff-En:   0.000D+00 0.100D+01
 Coeff:     -0.428D-03 0.419D-03 0.722D-04 0.175D-03 0.129D-02-0.516D-03
 Coeff:      0.266D-02-0.259D-02-0.523D-02-0.170D-01 0.854D-02-0.714D-01
 Coeff:     -0.168D+00-0.117D+00 0.691D+00 0.963D+00-0.118D+01-0.143D+01
 Coeff:      0.803D+00 0.152D+01
 Gap=     0.038 Goal=   None    Shift=    0.000
 RMSDP=7.48D-04 MaxDP=2.58D-02 DE=-4.20D-04 OVMax= 0.00D+00

 Cycle  30  Pass 1  IDiag  1:
 RMSU=  7.48D-04    CP:  1.00D+00
 E= -2603.97692757037     Delta-E=       -0.000249139451 Rises=F Damp=F
 DIIS: error= 1.62D-03 at cycle  22 NSaved=  20.
 NSaved=20 IEnMin=20 EnMin= -2603.97692757037     IErMin=14 ErrMin= 5.54D-04
 ErrMax= 1.62D-03  0.00D+00 EMaxC= 1.00D-01 BMatC= 1.55D-04 BMatP= 1.32D-05
 IDIUse=3 WtCom= 9.94D-01 WtEn= 5.54D-03
 Coeff-Com: -0.407D-03 0.436D-03 0.551D-04 0.112D-02-0.252D-04 0.147D-02
 Coeff-Com:  0.102D-01-0.749D-02-0.564D-02 0.297D-02-0.150D+00-0.335D+00
 Coeff-Com: -0.100D+00 0.148D+01 0.176D+01-0.127D+01-0.196D+01-0.251D+00
 Coeff-Com:  0.120D+01 0.613D+00
 Coeff-En:   0.000D+00 0.000D+00 0.000D+00 0.000D+00 0.000D+00 0.000D+00
 Coeff-En:   0.000D+00 0.000D+00 0.000D+00 0.000D+00 0.000D+00 0.000D+00
 Coeff-En:   0.000D+00 0.000D+00 0.000D+00 0.000D+00 0.000D+00 0.000D+00
 Coeff-En:   0.000D+00 0.100D+01
 Coeff:     -0.404D-03 0.434D-03 0.548D-04 0.111D-02-0.251D-04 0.146D-02
 Coeff:      0.101D-01-0.744D-02-0.561D-02 0.295D-02-0.150D+00-0.333D+00
 Coeff:     -0.998D-01 0.148D+01 0.175D+01-0.126D+01-0.195D+01-0.249D+00
 Coeff:      0.119D+01 0.615D+00
 Gap=     0.040 Goal=   None    Shift=    0.000
 RMSDP=6.19D-04 MaxDP=2.47D-02 DE=-2.49D-04 OVMax= 0.00D+00

 Cycle  31  Pass 1  IDiag  1:
 RMSU=  1.99D-04    CP:  1.00D+00  2.17D-01
 E= -2603.97629524260     Delta-E=        0.000632327771 Rises=F Damp=F
 DIIS: error= 3.37D-03 at cycle  23 NSaved=  20.
 NSaved=20 IEnMin=19 EnMin= -2603.97692757037     IErMin=13 ErrMin= 5.54D-04
 ErrMax= 3.37D-03  0.00D+00 EMaxC= 1.00D-01 BMatC= 5.35D-04 BMatP= 1.32D-05
 IDIUse=3 WtCom= 9.94D-01 WtEn= 5.54D-03
 Coeff-Com:  0.684D-04 0.101D-03 0.500D-03 0.173D-03 0.304D-03-0.165D-02
 Coeff-Com: -0.409D-03-0.102D-02-0.150D-01-0.419D-01-0.871D-01-0.134D+00
 Coeff-Com:  0.329D+00 0.438D+00-0.753D+00-0.890D+00 0.132D+00 0.950D+00
 Coeff-Com:  0.672D+00 0.403D+00
 Coeff-En:   0.000D+00 0.000D+00 0.000D+00 0.000D+00 0.000D+00 0.000D+00
 Coeff-En:   0.000D+00 0.000D+00 0.000D+00 0.000D+00 0.000D+00 0.000D+00
 Coeff-En:   0.000D+00 0.000D+00 0.000D+00 0.000D+00 0.000D+00 0.000D+00
 Coeff-En:   0.958D+00 0.418D-01
 Coeff:      0.681D-04 0.101D-03 0.498D-03 0.172D-03 0.303D-03-0.165D-02
 Coeff:     -0.407D-03-0.101D-02-0.149D-01-0.416D-01-0.866D-01-0.134D+00
 Coeff:      0.327D+00 0.435D+00-0.749D+00-0.885D+00 0.131D+00 0.945D+00
 Coeff:      0.674D+00 0.401D+00
 Gap=     0.035 Goal=   None    Shift=    0.000
 RMSDP=1.51D-03 MaxDP=5.36D-02 DE= 6.32D-04 OVMax= 0.00D+00

 Cycle  32  Pass 1  IDiag  1:
 RMSU=  1.14D-04    CP:  1.00D+00  2.20D+00 -2.47D-01
 E= -2603.97619387517     Delta-E=        0.000101367429 Rises=F Damp=F
 DIIS: error= 3.87D-03 at cycle  24 NSaved=  20.
 NSaved=20 IEnMin=18 EnMin= -2603.97692757037     IErMin=12 ErrMin= 5.54D-04
 ErrMax= 3.87D-03  0.00D+00 EMaxC= 1.00D-01 BMatC= 7.62D-04 BMatP= 1.32D-05
 IDIUse=3 WtCom= 9.94D-01 WtEn= 5.54D-03
 Rare condition: small coef for last iteration:  0.000D+00
 Coeff-Com: -0.217D-03 0.504D-03 0.758D-03-0.498D-03-0.159D-02 0.202D-02
 Coeff-Com:  0.408D-02-0.258D-01-0.330D-01-0.331D-01-0.713D-01 0.234D+00
 Coeff-Com:  0.238D+00-0.386D+00-0.449D+00-0.124D+00 0.472D+00 0.376D+00
 Coeff-Com:  0.564D+00 0.233D+00
 Coeff-En:   0.000D+00 0.000D+00 0.000D+00 0.000D+00 0.000D+00 0.000D+00
 Coeff-En:   0.000D+00 0.000D+00 0.000D+00 0.000D+00 0.000D+00 0.000D+00
 Coeff-En:   0.000D+00 0.000D+00 0.000D+00 0.000D+00 0.000D+00 0.000D+00
 Coeff-En:   0.000D+00 0.100D+01
 Coeff:     -0.217D-03 0.504D-03 0.758D-03-0.498D-03-0.159D-02 0.202D-02
 Coeff:      0.408D-02-0.258D-01-0.330D-01-0.331D-01-0.713D-01 0.234D+00
 Coeff:      0.238D+00-0.386D+00-0.449D+00-0.124D+00 0.472D+00 0.376D+00
 Coeff:      0.564D+00 0.233D+00
 Gap=     0.037 Goal=   None    Shift=    0.000
 RMSDP=3.42D-04 MaxDP=1.27D-02 DE= 1.01D-04 OVMax= 0.00D+00

 Cycle  33  Pass 1  IDiag  1:
 RMSU=  2.27D-05    CP:  1.00D+00  1.76D+00  1.60D-01  6.02D-01
 E= -2603.97697281111     Delta-E=       -0.000778935948 Rises=F Damp=F
 DIIS: error= 1.66D-03 at cycle  25 NSaved=  20.
 NSaved=20 IEnMin=20 EnMin= -2603.97697281111     IErMin=11 ErrMin= 5.54D-04
 ErrMax= 1.66D-03  0.00D+00 EMaxC= 1.00D-01 BMatC= 1.38D-04 BMatP= 1.32D-05
 IDIUse=3 WtCom= 9.94D-01 WtEn= 5.54D-03
 Coeff-Com:  0.152D-03 0.240D-03-0.291D-03-0.484D-02 0.249D-02 0.180D-02
 Coeff-Com: -0.111D-01 0.217D-01 0.659D-01-0.799D-02-0.172D+00-0.284D+00
 Coeff-Com: -0.121D+00 0.114D+00 0.224D+00 0.113D+00-0.118D-01 0.308D+00
 Coeff-Com: -0.269D+00 0.103D+01
 Coeff-En:   0.000D+00 0.000D+00 0.000D+00 0.000D+00 0.000D+00 0.000D+00
 Coeff-En:   0.000D+00 0.000D+00 0.000D+00 0.000D+00 0.000D+00 0.000D+00
 Coeff-En:   0.000D+00 0.000D+00 0.000D+00 0.000D+00 0.000D+00 0.000D+00
 Coeff-En:   0.000D+00 0.100D+01
 Coeff:      0.152D-03 0.238D-03-0.289D-03-0.482D-02 0.247D-02 0.179D-02
 Coeff:     -0.110D-01 0.216D-01 0.655D-01-0.795D-02-0.171D+00-0.282D+00
 Coeff:     -0.120D+00 0.113D+00 0.223D+00 0.112D+00-0.117D-01 0.306D+00
 Coeff:     -0.267D+00 0.103D+01
 Gap=     0.037 Goal=   None    Shift=    0.000
 RMSDP=1.35D-04 MaxDP=4.32D-03 DE=-7.79D-04 OVMax= 0.00D+00

 Cycle  34  Pass 1  IDiag  1:
 RMSU=  1.41D-05    CP:  1.00D+00  1.94D+00  8.11D-02  7.89D-01  9.91D-01
 E= -2603.97683811850     Delta-E=        0.000134692619 Rises=F Damp=F
 DIIS: error= 2.14D-03 at cycle  26 NSaved=  20.
 NSaved=20 IEnMin=19 EnMin= -2603.97697281111     IErMin=10 ErrMin= 5.54D-04
 ErrMax= 2.14D-03  0.00D+00 EMaxC= 1.00D-01 BMatC= 2.34D-04 BMatP= 1.32D-05
 IDIUse=3 WtCom= 9.94D-01 WtEn= 5.54D-03
 Rare condition: small coef for last iteration:  0.000D+00
 Coeff-Com:  0.117D-03 0.215D-04-0.346D-02 0.843D-03-0.226D-03-0.293D-02
 Coeff-Com:  0.145D-01 0.517D-01 0.235D-01-0.128D+00-0.239D+00 0.452D-01
 Coeff-Com:  0.260D+00 0.121D+00-0.127D+00-0.208D+00 0.187D+00-0.511D+00
 Coeff-Com:  0.102D+01 0.497D+00
 Coeff-En:   0.000D+00 0.000D+00 0.000D+00 0.000D+00 0.000D+00 0.000D+00
 Coeff-En:   0.000D+00 0.000D+00 0.000D+00 0.000D+00 0.000D+00 0.000D+00
 Coeff-En:   0.000D+00 0.000D+00 0.000D+00 0.000D+00 0.000D+00 0.000D+00
 Coeff-En:   0.000D+00 0.100D+01
 Coeff:      0.117D-03 0.215D-04-0.346D-02 0.843D-03-0.226D-03-0.293D-02
 Coeff:      0.145D-01 0.517D-01 0.235D-01-0.128D+00-0.239D+00 0.452D-01
 Coeff:      0.260D+00 0.121D+00-0.127D+00-0.208D+00 0.187D+00-0.511D+00
 Coeff:      0.102D+01 0.497D+00
 Gap=     0.037 Goal=   None    Shift=    0.000
 RMSDP=3.20D-04 MaxDP=1.17D-02 DE= 1.35D-04 OVMax= 0.00D+00

 Cycle  35  Pass 1  IDiag  1:
 RMSU=  8.33D-06    CP:  1.00D+00  1.52D+00  3.97D-01  4.83D-01  1.78D+00
                    CP:  6.25D-01
 E= -2603.97712982834     Delta-E=       -0.000291709841 Rises=F Damp=F
 DIIS: error= 3.29D-04 at cycle  27 NSaved=  20.
 NSaved=20 IEnMin=20 EnMin= -2603.97712982834     IErMin=20 ErrMin= 3.29D-04
 ErrMax= 3.29D-04  0.00D+00 EMaxC= 1.00D-01 BMatC= 4.99D-06 BMatP= 1.32D-05
 IDIUse=3 WtCom= 9.97D-01 WtEn= 3.29D-03
 Coeff-Com: -0.384D-04-0.175D-02 0.505D-03 0.994D-04-0.446D-03 0.123D-01
 Coeff-Com:  0.335D-01 0.102D-01-0.985D-01-0.165D+00 0.891D-01 0.166D+00
 Coeff-Com:  0.503D-01-0.112D+00-0.108D+00 0.104D+00-0.323D+00 0.536D+00
 Coeff-Com:  0.302D+00 0.505D+00
 Coeff-En:   0.000D+00 0.000D+00 0.000D+00 0.000D+00 0.000D+00 0.000D+00
 Coeff-En:   0.000D+00 0.000D+00 0.000D+00 0.000D+00 0.000D+00 0.000D+00
 Coeff-En:   0.000D+00 0.000D+00 0.000D+00 0.000D+00 0.000D+00 0.000D+00
 Coeff-En:   0.000D+00 0.100D+01
 Coeff:     -0.383D-04-0.175D-02 0.503D-03 0.991D-04-0.444D-03 0.122D-01
 Coeff:      0.334D-01 0.102D-01-0.982D-01-0.165D+00 0.889D-01 0.166D+00
 Coeff:      0.502D-01-0.112D+00-0.108D+00 0.104D+00-0.322D+00 0.534D+00
 Coeff:      0.301D+00 0.506D+00
 Gap=     0.038 Goal=   None    Shift=    0.000
 RMSDP=1.18D-05 MaxDP=4.82D-04 DE=-2.92D-04 OVMax= 0.00D+00

 Cycle  36  Pass 1  IDiag  1:
 RMSU=  3.38D-06    CP:  1.00D+00  1.51D+00  4.32D-01  4.75D-01  1.81D+00
                    CP:  8.56D-01  1.19D+00
 E= -2603.97713383543     Delta-E=       -0.000004007092 Rises=F Damp=F
 DIIS: error= 1.64D-04 at cycle  28 NSaved=  20.
 NSaved=20 IEnMin=20 EnMin= -2603.97713383543     IErMin=20 ErrMin= 1.64D-04
 ErrMax= 1.64D-04  0.00D+00 EMaxC= 1.00D-01 BMatC= 1.38D-06 BMatP= 4.99D-06
 IDIUse=3 WtCom= 9.98D-01 WtEn= 1.64D-03
 Coeff-Com: -0.376D-03-0.409D-04 0.291D-04 0.289D-03 0.326D-02 0.775D-02
 Coeff-Com: -0.392D-02-0.285D-01-0.336D-01 0.657D-01 0.325D-01-0.263D-01
 Coeff-Com: -0.464D-01 0.675D-02 0.691D-02-0.312D-01-0.547D-01 0.998D-02
 Coeff-Com:  0.318D+00 0.773D+00
 Coeff-En:   0.000D+00 0.000D+00 0.000D+00 0.000D+00 0.000D+00 0.000D+00
 Coeff-En:   0.000D+00 0.000D+00 0.000D+00 0.000D+00 0.000D+00 0.000D+00
 Coeff-En:   0.000D+00 0.000D+00 0.000D+00 0.000D+00 0.000D+00 0.000D+00
 Coeff-En:   0.000D+00 0.100D+01
 Coeff:     -0.376D-03-0.409D-04 0.291D-04 0.288D-03 0.326D-02 0.774D-02
 Coeff:     -0.391D-02-0.284D-01-0.336D-01 0.656D-01 0.325D-01-0.263D-01
 Coeff:     -0.464D-01 0.674D-02 0.689D-02-0.311D-01-0.546D-01 0.997D-02
[...]
 0.00001594,0.00002819,0.00004136,0.00001346,0.00000630,0.00000611,-0.0
 0000998,0.00000087,-0.00000510,-0.00000328,0.00000577,-0.00000803,0.00
 001665,-0.06472628,-0.10051191,-0.11323301,-0.01445658,-0.01237202,-0.
 01425420,-0.00243374,0.00072218,0.00300708,0.00009947,0.00110791,-0.00
 085691,-0.00087720,0.00027243,0.00033827,0.00039269,-0.00046138,-0.000
 51729,-0.00021865,0.00044390,0.00014647,0.00224910,-0.00103008,0.00019
 840,0.00062877,-0.00054432,-0.00052502,0.07666932,0.10121634,0.1183530
 7,-0.00005324,-0.00000386,0.00001596,-0.00005223,0.00022176,0.00000451
 ,0.00008297,-0.00009445,-0.00001473,-0.00000324,-0.00012054,-0.0000216
 0,-0.00005093,0.00046213,0.00018763,0.00004616,0.00003816,-0.00002875,
 -0.00017623,-0.00002794,0.00004150,0.00017142,-0.00018486,-0.00003160,
 0.00013935,0.00001862,-0.00005865,0.00003198,-0.00000890,-0.00000358,0
 .00002533,-0.00000208,-0.00000659,0.00000307,-0.00000191,-0.00000859,-
 0.00000314,-0.00000479,-0.00000583,0.00000669,0.00001402,0.00000352,-0
 .00027444,-0.00106221,0.00018422,-0.00004093,-0.00004930,-0.00004245,-
 0.00007007,-0.00008508,0.00016656,0.00004279,0.00004783,0.00003893,-0.
 00000953,0.00012851,-0.00008213,0.00019805,-0.00019327,0.00029235,0.00
 000925,0.00003439,0.00002097,-0.00010094,-0.00007523,-0.00005016,0.000
 13087,0.00016356,-0.00013322,0.00001955,0.00028324,0.00002140,0.000031
 41,0.00002366,0.00001354,0.00001959,0.00002829,0.00000873,0.00000231,0
 .00000553,-0.00000628,0.00000154,-0.00000290,-0.00000241,0.00000727,-0
 .00000920,0.00000780,-0.10268894,-0.06541392,0.08536771,0.00965393,0.0
 1790194,-0.02715424,-0.00268801,0.00328111,0.00147845,-0.00085305,-0.0
 0151984,0.00003004,-0.00028196,0.00084902,-0.00017826,0.00031473,-0.00
 014222,-0.00025833,-0.00065765,0.00002144,-0.00027831,0.00240799,-0.00
 179961,0.00044179,0.00143167,-0.00043653,-0.00074745,-0.00650480,-0.00
 858568,0.01703638,0.10628983,0.00003518,0.00000257,-0.00001106,0.00004
 008,-0.00014254,-0.00000455,-0.00007022,0.00005131,0.00002151,0.000026
 32,0.00006382,0.00001345,0.00005187,-0.00031983,-0.00015835,-0.0000287
 2,-0.00002652,0.00002267,0.00011822,0.00002066,-0.00002596,-0.00011787
 ,0.00011846,0.00002225,-0.00007913,0.00000358,0.00005721,-0.00002202,0
 .00000586,0.00000289,-0.00001692,0.00000180,0.00000435,-0.00000192,0.0
 0000029,0.00000458,0.00000137,0.00000222,0.00000257,-0.00000495,-0.000
 01002,-0.00000281,0.00016440,0.00065639,-0.00018800,0.00001882,0.00002
 725,0.00002344,0.00002758,0.00001751,-0.00007795,-0.00002263,0.0000021
 6,-0.00006973,0.00001520,-0.00007952,0.00007392,-0.00015909,0.00013904
 ,-0.00013559,0.00000817,-0.00001094,-0.00003233,0.00004849,0.00002220,
 0.00003529,-0.00006630,-0.00007431,0.00006838,-0.00000102,-0.00019212,
 -0.00000003,-0.00001668,-0.00001226,-0.00000632,-0.00000911,-0.0000133
 5,-0.00000336,0.00000205,-0.00000042,-0.00000148,-0.00000152,0.0000018
 6,0.00000274,-0.00000603,0.00000727,-0.00000430,-0.07229510,-0.1646135
 3,0.12747782,0.00158464,-0.00423810,0.01067760,-0.00019675,-0.00198003
 ,-0.00200700,0.00057517,0.00025614,-0.00009326,0.00017860,-0.00035225,
 -0.00003508,-0.00033958,0.00020989,0.00021119,0.00063742,-0.00016695,0
 .00020526,-0.00182805,0.00151459,-0.00038206,-0.00091458,0.00054846,0.
 00053905,-0.01028104,-0.01367431,0.02447066,0.07332088,0.16678037,-0.0
 0010110,-0.00000909,0.00001892,-0.00001417,0.00035999,0.00000494,0.000
 07738,-0.00010556,-0.00002050,0.00006318,-0.00019816,-0.00003773,-0.00
 013447,0.00068199,0.00032962,0.00006963,0.00004015,-0.00002956,-0.0002
 6560,-0.00003024,0.00007317,0.00023435,-0.00033765,-0.00004196,0.00016
 019,0.00000163,-0.00008021,0.00005340,-0.00001273,-0.00000619,0.000043
 43,-0.00000574,-0.00001295,0.00000358,-0.00000095,-0.00000566,-0.00000
 982,-0.00001122,-0.00001551,0.00000395,0.00002057,0.00000021,0.0000722
 7,-0.00128163,-0.00004143,-0.00004768,-0.00005275,-0.00004584,-0.00005
 619,-0.00006588,0.00017140,0.00005473,0.00001977,0.00008758,0.00002946
 ,0.00015806,-0.00017282,0.00012197,-0.00017813,0.00039641,-0.00000501,
 0.00001402,0.00006990,-0.00010399,-0.00006664,-0.00008423,0.00014806,0
 .00017958,-0.00014042,-0.00004259,0.00032820,-0.00001260,0.00003340,0.
 00002495,0.00001306,0.00002109,0.00003231,0.00000794,-0.00000053,-0.00
 000129,-0.00000081,0.00000335,-0.00000407,-0.00000511,0.00000804,-0.00
 001174,0.00001181,0.09403023,0.12890795,-0.22766293,-0.00018388,0.0103
 8303,-0.01912391,-0.00026650,0.00300205,0.00298916,-0.00128713,-0.0005
 3333,-0.00043913,-0.00052860,0.00092676,0.00023552,0.00053108,-0.00045
 224,-0.00058863,-0.00056176,0.00018762,0.00024634,0.00201239,-0.001886
 78,0.00036669,0.00071037,-0.00059820,-0.00054429,-0.00860096,-0.013126
 82,0.01336274,-0.08979052,-0.14173544,0.24189066,-0.00000091,0.0000012
 7,-0.00000204,-0.00000348,0.00006481,0.00000238,-0.00000144,-0.0000852
 7,-0.00002092,0.00004667,-0.00013759,-0.00001528,-0.00008868,0.0002076
 1,0.00009805,0.00002424,0.00004172,0.00000696,-0.00006314,-0.00002770,
 0.00002042,0.00005470,-0.00004161,-0.00001168,0.00003041,0.00004584,0.
 00003650,0.00000105,0.00000227,-0.00000018,-0.00000236,-0.00000088,0.0
 0000024,0.00000260,-0.00000046,0.00000256,-0.00000444,-0.00000497,-0.0
 0000722,-0.00000006,0.00000552,-0.00000217,0.00025448,-0.00040955,-0.0
 0058472,0.00000012,0.00000034,0.00000100,-0.00000241,0.00000032,-0.000
 00035,-0.00000193,0.00000356,0.00002404,0.00002142,0.00003304,-0.00001
 778,0.00001164,-0.00003164,0.00014072,-0.00000177,-0.00000874,0.000008
 79,-0.00000082,0.00000026,-0.00000419,0.00000368,0.00000059,0.00000367
 ,-0.00003076,0.00005324,0.00001647,-0.00000154,-0.00000122,0.00000181,
 -0.00000088,0.00000052,-0.00000109,0.00000396,-0.00000089,-0.00000093,
 0.00000030,-0.00000009,0.00000006,-0.00000056,-0.00000050,0.00000095,-
 0.18159999,0.10997107,0.11746708,-0.01532748,0.01433701,0.01649380,0.0
 0013596,0.00020357,0.00076922,0.00008277,-0.00001295,0.00031513,-0.000
 06663,0.00019618,0.00047385,-0.00023215,0.00016431,0.00009419,0.000252
 57,0.00031306,0.00127155,-0.00277263,0.00118714,-0.00448616,0.00072837
 ,-0.00078874,0.00092085,0.01560470,-0.01466955,-0.01499014,-0.00660857
 ,0.00969310,0.00343801,0.18981569,-0.00001298,0.00000069,-0.00000198,0
 .00001802,0.00003384,0.00001010,0.00001050,0.00001020,-0.00001717,0.00
 000829,-0.00004761,0.00000497,0.00001818,0.00008677,-0.00001298,0.0000
 0764,0.00001296,0.00000811,-0.00002702,-0.00001424,0.00001107,0.000020
 15,-0.00004044,-0.00000081,-0.00001706,-0.00004587,-0.00001961,0.00000
 858,-0.00000235,-0.00000251,0.00000285,-0.00000045,0.00000270,0.000001
 67,0.00000243,0.00000120,-0.00000209,-0.00000132,-0.00000402,-0.000001
 43,0.00000289,-0.00000272,-0.00007912,0.00009051,0.00030046,0.00001014
 ,0.00001022,0.00000732,0.00003130,0.00005917,-0.00005083,-0.00002045,-
 0.00004198,0.00005113,-0.00002412,-0.00002240,0.00000270,0.00001830,0.
 00004523,-0.00012078,-0.00001490,-0.00002096,0.00000772,0.00004118,0.0
 0004523,0.00001199,-0.00004406,-0.00006068,0.00002053,-0.00003720,-0.0
 0002792,-0.00006935,-0.00000735,-0.00000547,-0.00000259,-0.00000565,-0
 .00000539,-0.00000524,-0.00000226,-0.00000947,0.00000514,0.00000035,0.
 00000109,-0.00000104,-0.00000040,0.00000009,-0.00000279,0.10945809,-0.
 16626879,-0.10712451,0.00697020,-0.00731187,-0.00757032,-0.00042764,0.
 00033336,-0.00048040,0.00002077,-0.00010680,-0.00019279,-0.00004679,0.
 00000478,-0.00023277,0.00010740,-0.00011149,-0.00003100,-0.00001536,0.
 00012459,-0.00056261,0.00124171,0.00023424,0.00191773,-0.00057801,-0.0
 0029711,0.00000373,0.02069504,-0.01154356,-0.01313883,-0.01700952,0.01
 542023,0.01542977,-0.12041314,0.16949280,-0.00001026,0.00000490,0.0000
 0377,-0.00005770,0.00013412,0.00002556,0.00000706,-0.00020267,-0.00002
 328,0.00003570,-0.00009774,-0.00001082,-0.00011277,0.00024589,0.000116
 37,0.00004366,0.00000003,-0.00001375,-0.00012528,0.00000317,0.00003152
 ,0.00011421,-0.00007341,-0.00002553,0.00011880,0.00012041,0.00009082,0
 .00001018,-0.00000638,-0.00000144,0.00000574,0.00000380,0.00000390,0.0
 0000733,-0.00000158,-0.00001227,-0.00000189,-0.00000070,-0.00000087,0.
 00000350,0.00000671,0.00000035,0.00032465,-0.00063285,-0.00087238,-0.0
 0000936,-0.00001353,-0.00000783,-0.00002854,-0.00005120,0.00004921,0.0
 0000914,0.00004998,0.00000169,0.00003957,0.00006835,-0.00003119,0.0000
 0776,-0.00007987,0.00028863,0.00001738,0.00000099,0.00000561,-0.000040
 47,-0.00004109,-0.00002101,0.00004968,0.00006031,-0.00002078,0.0000060
 2,0.00009110,0.00006075,0.00000731,0.00000621,0.00000353,0.00000542,0.
 00000468,0.00000395,0.00000356,0.00000876,-0.00000174,-0.00000016,-0.0
 0000107,0.00000074,-0.00000142,-0.00000015,0.00000464,0.11538566,-0.10
 569639,-0.16958085,-0.01324666,0.01308235,0.01522523,-0.00186221,0.001
 36306,0.00046112,0.00042854,-0.00027279,0.00008752,-0.00035003,0.00036
 500,0.00041110,-0.00013767,0.00012613,0.00010496,-0.00008150,0.0003841
 0,0.00156429,-0.00460731,0.00198067,-0.00426047,0.00173000,-0.00056824
 ,0.00194952,0.01038129,-0.00338314,-0.00641101,0.01343932,-0.01887549,
 -0.01124269,-0.12113002,0.11171152,0.17241795,-0.00000347,0.00000013,-
 0.00000213,0.00002065,-0.00000273,-0.00000925,-0.00003292,0.00001607,0
 .00004064,0.00005652,-0.00002605,0.00005341,0.00006798,-0.00003652,-0.
 00011786,-0.00000413,-0.00000842,-0.00002062,0.00000637,0.00000514,-0.
 00000436,-0.00001310,-0.00000604,0.00000927,0.00007797,0.00002144,-0.0
 0002778,-0.00000029,0.00000031,0.00000026,0.00000046,-0.00000021,0.,0.
 00000052,0.00000002,-0.00000040,0.00000120,-0.00000073,0.00000353,0.00
 000011,-0.00000144,0.00000382,-0.00041408,0.00035170,0.00016562,0.0000
 2116,0.00002526,0.00001430,0.00002811,0.00001962,-0.00010840,-0.000003
 49,0.00002803,0.00008202,-0.00004611,-0.00012742,0.00003976,-0.0001095
 3,0.00016121,-0.00022585,-0.00000404,-0.00005460,0.00000841,0.00007619
 ,0.00006872,0.00001665,-0.00006746,-0.00008820,0.00006948,0.00002954,-
 0.00010078,-0.00014369,-0.00000669,-0.00000958,-0.00000835,-0.00001089
 ,-0.00001678,0.00000031,-0.00000937,0.00000092,-0.00000109,0.00000062,
 0.00000274,0.00000316,-0.00000636,0.00000908,-0.00000039,0.00002168,-0
 .00036755,-0.00011830,-0.00102632,0.00067802,0.00109124,0.00183437,0.0
 0364534,0.00223369,-0.00853695,0.00458251,-0.01214575,0.00134358,-0.00
 269616,-0.00132658,-0.26061843,0.12863243,-0.12575200,-0.00171846,0.00
 172656,0.00207629,0.00703029,0.00216154,0.00114462,-0.00124697,-0.0002
 9660,-0.00029102,-0.00009487,0.00004040,-0.00007211,-0.00000360,0.0000
 0966,-0.00002245,0.00004407,-0.00003101,0.00003628,0.26434551,-0.00002
 497,-0.00000252,0.00000659,0.00005435,0.00003612,-0.00002200,-0.000074
 08,0.00006044,0.00005878,0.00008137,-0.00005130,0.00000042,-0.00000932
 ,0.00013188,0.00010788,-0.00000400,-0.00000760,-0.00002513,-0.00001344
 ,0.00001106,-0.00000189,-0.00001204,-0.00007023,0.00000775,0.00006074,
 0.00004980,-0.00006003,0.00000838,-0.00000076,-0.00000029,0.00000770,-
 0.00000208,-0.00000428,0.,-0.00000005,0.00000046,0.00000038,-0.0000092
 5,0.00000088,-0.00000198,0.00000033,0.00000623,0.00047531,-0.00023942,
 0.00025530,0.00000696,0.00001011,0.00000900,-0.00001149,-0.00002479,-0
 .00001658,0.00004585,0.00003004,-0.00004013,0.00002923,0.00001106,-0.0
 0011806,-0.00017147,0.00005839,0.00006668,-0.00001326,-0.00003814,0.00
 007266,0.00000399,0.00001859,-0.00004925,0.00001582,0.00000747,0.00004
 030,-0.00007329,-0.00001342,-0.00000668,-0.00000235,-0.00000416,-0.000
 00380,-0.00000399,-0.00000619,0.00000029,-0.00000396,0.00000149,0.0000
 0018,0.00000560,-0.00000135,-0.00000269,-0.00000074,0.00000143,0.00000
 635,-0.00038440,-0.00012168,0.00024419,0.00083792,-0.00124335,-0.00080
 186,0.00306397,0.00309901,-0.00377496,0.01156905,-0.00290881,0.0116918
 5,-0.00282555,0.00024402,0.00144213,0.12943791,-0.10835253,0.06326098,
 -0.00601302,0.00325233,-0.00393647,0.00198460,0.00731950,-0.00388507,0
 .00012453,-0.00151606,0.00055782,0.00000017,0.00001662,0.00000459,0.00
 010418,-0.00006109,0.00008310,-0.00005555,0.00001630,-0.00003849,-0.13
 540441,0.10343078,0.00000460,-0.00000044,-0.00000286,0.00000321,-0.000
 02562,0.00000144,0.00001191,0.00003002,-0.00000124,-0.00001960,0.00004
 703,0.00001399,-0.00002831,-0.00004822,-0.00007868,-0.00000976,0.00000
 282,0.00000289,0.00002697,-0.00000443,-0.00000561,-0.00002239,0.000019
 89,0.00000424,-0.00005415,-0.00003633,-0.00003507,-0.00000373,0.000001
 09,0.00000029,-0.00000128,-0.00000012,-0.00000009,-0.00000085,0.000000
 26,0.00000166,0.00000165,-0.00000100,0.00000169,-0.00000051,-0.0000012
 8,-0.00000034,0.00000605,0.00018956,0.00083275,-0.00000834,-0.00001082
 ,-0.00000725,-0.00000022,0.00000531,0.00004443,0.00000179,-0.00001481,
 -0.00002527,0.00002095,0.00005363,-0.00003181,-0.00002396,-0.00003967,
 0.00000230,-0.00000353,0.00001570,0.00000851,-0.00002312,-0.00001510,-
 0.00001433,0.00001559,0.00003420,-0.00003992,-0.00000617,0.00001598,-0
 .00001185,0.00000023,0.00000332,0.00000305,0.00000540,0.00000767,0.000
 00066,0.00000358,-0.00000124,0.00000125,0.00000345,-0.00000238,-0.0000
 0561,0.00000196,-0.00000399,-0.00000030,-0.00020131,0.00031030,0.00021
 025,0.00170598,-0.00125443,-0.00066210,0.00036282,-0.00246825,-0.00257
 619,0.01576006,-0.00797148,0.01472582,-0.00148300,0.00156492,0.0001064
 8,-0.12300951,0.06126060,-0.13418123,-0.02850824,0.01766958,-0.0096178
 2,0.00037502,-0.00336929,-0.00260453,0.00134562,-0.00051965,0.00008451
 ,0.00008083,-0.00002592,0.00004884,0.00003356,-0.00003452,0.00003587,-
 0.00006512,0.00003216,-0.00006937,0.13268649,-0.06624520,0.13308149,-0
 .00005097,-0.00000435,0.00001099,0.00009180,0.00009829,-0.00001043,-0.
 00016284,0.00001659,0.00002494,0.00018231,-0.00014082,0.00001316,0.000
 17742,0.00016141,-0.00038156,0.00003461,-0.00004258,0.00002851,-0.0000
 6589,0.00003974,0.00002901,0.00001963,-0.00014868,-0.00001452,0.000185
 40,0.00013225,0.00009768,0.00001893,-0.00000540,-0.00000106,0.00001848
 ,-0.00000206,-0.00000806,0.00000113,-0.00000012,-0.00000208,-0.0000046
 4,-0.00000566,-0.00000062,-0.00000620,0.00000065,-0.00000740,-0.000524
 63,-0.00117672,-0.00038517,-0.00003469,-0.00001313,-0.00001247,0.00002
 077,-0.00008570,0.00010567,0.00001607,0.00003360,-0.00010246,0.0001388
 5,0.00003675,-0.00008416,-0.00036625,0.00020810,0.00035120,0.00003586,
 -0.00000948,-0.00000471,-0.00002391,-0.00006103,-0.00002562,0.00002952
 ,0.00010245,-0.00007945,0.00006754,-0.00004291,-0.00007496,0.00000836,
 0.00000644,-0.00000085,0.00001091,0.00001379,0.00001014,0.00000308,0.0
 0000541,-0.00000049,0.00000061,-0.00000143,0.00000027,-0.00001288,0.00
 000581,0.00000692,-0.00089742,0.00132796,0.00104172,0.00265726,-0.0007
 3045,-0.00575937,-0.00066136,0.00005683,-0.00063524,0.00325813,0.00155
 469,-0.00401381,0.00119272,0.00092573,0.00085562,0.00617154,-0.0036572
 3,-0.00561120,-0.16562362,0.12634871,0.10959824,-0.02428733,0.01800625
 ,0.01480052,-0.00018202,0.00011676,0.00052800,0.00019011,-0.00005130,0
 .00009453,0.00005376,-0.00007797,0.00009942,-0.00030675,0.00012719,-0.
 00041452,-0.00102936,-0.00281466,0.00101537,0.17965595,-0.00001090,-0.
 00000363,-0.00001884,0.00012364,-0.00010561,-0.00000330,-0.00017859,0.
 00020383,0.00000758,0.00004587,0.00009698,0.00000482,0.00034473,-0.000
 04117,-0.00006301,-0.00002640,-0.00010532,0.00000925,0.00010064,0.0000
 6875,-0.00001144,-0.00013746,0.00001717,0.00003362,0.00027995,-0.00002
 831,-0.00010092,-0.00000924,0.00000002,0.00000313,0.00000189,0.0000019
 6,-0.00000197,-0.00000308,0.00000185,0.00000278,-0.00000327,-0.0000025
 1,-0.00000852,-0.00000907,-0.00001237,-0.00000213,-0.00100483,-0.00082
 220,0.00093187,0.00000366,0.00001754,0.00000616,0.00007182,0.00011537,
 -0.00008771,-0.00004821,-0.00015726,0.00007560,0.00006580,-0.00006901,
 0.00005949,-0.00026447,0.00025965,-0.00022599,-0.00003443,-0.00001678,
 -0.00001253,0.00008704,0.00007592,0.00005034,-0.00007544,-0.00012627,0
 .00001156,0.00004005,0.00010393,0.00002623,-0.00000598,-0.00000868,-0.
 00000405,-0.00000603,-0.00000975,-0.00000126,-0.00000650,-0.00000064,0
 .00000135,0.00000584,-0.00000278,-0.00000206,-0.00000121,0.00000170,-0
 .00000860,0.00086962,-0.00014370,-0.00062542,0.00001015,0.00426705,0.0
 0225782,0.00013990,-0.00035489,0.00058872,0.00119550,0.00609677,0.0003
 6604,0.00110529,0.00108935,-0.00137224,0.00331615,0.00097560,0.0011119
 2,0.12676147,-0.14392746,-0.11516653,0.01051999,-0.01282034,-0.0055597
 9,-0.00011105,-0.00022130,-0.00027000,-0.00003769,-0.00002962,-0.00004
 214,-0.00011443,0.00009415,-0.00007520,0.00016466,-0.00004142,0.000214
 51,-0.00291165,-0.00313201,0.00083014,-0.14025373,0.14869542,0.0000328
 1,0.00000121,-0.00000701,-0.00001127,-0.00012942,0.00000213,0.00007238
 ,0.00010014,-0.00000633,-0.00008135,0.00010628,0.00001814,0.00007589,-
 0.00029527,-0.00002703,-0.00003344,-0.00000186,0.00000378,0.00010078,-
 0.00000770,-0.00002965,-0.00007754,0.00011680,0.00001907,-0.00002555,-
 0.00018734,0.00000723,-0.00001412,0.00000320,0.00000106,-0.00001363,0.
 00000236,0.00000591,-0.00000213,0.00000084,0.00000119,0.00000340,0.000
 00513,0.00000193,0.00000030,-0.00000600,0.00000132,-0.00083509,0.00147
 218,0.00039656,0.00002365,0.00001799,0.00001387,0.00001355,0.00004973,
 -0.00008273,-0.00001838,-0.00002281,0.00003215,-0.00009728,-0.00008682
 ,0.00011889,0.00017411,-0.00005235,-0.00031836,-0.00001573,-0.00000136
 ,-0.00002214,0.00004606,0.00004928,0.00003547,-0.00005886,-0.00008827,
 0.00005816,0.00004179,-0.00016702,-0.00001980,-0.00000936,-0.00000771,
 -0.00000440,-0.00000895,-0.00001353,-0.00000430,-0.00000493,-0.0000014
 4,0.00000075,-0.00000138,0.00000239,0.00000228,0.00000262,0.00000142,-
 0.00000609,-0.00081841,0.00068359,0.00106003,-0.00286306,0.00026100,-0
 .00327835,-0.00030686,0.00028652,-0.00012075,-0.00534267,0.00137667,-0
 .00249537,0.00196616,-0.00220090,-0.00113083,0.02205729,-0.01838581,-0
 .00835966,0.11110311,-0.11623505,-0.17608711,-0.01466550,0.01520117,0.
 01533298,0.00019677,-0.00006845,0.00013464,0.00005696,-0.00001338,0.00
 003309,0.00006876,-0.00005215,0.00004318,-0.00026831,0.00010760,-0.000
 30545,0.00061912,0.00110843,0.00075908,-0.11108173,0.11707071,0.174222
 47\\0.00000268,0.00000144,0.00000032,-0.00000765,-0.00000067,0.0000038
 9,0.00000029,0.00000189,0.00000236,0.00000386,0.00000255,-0.00000062,-
 0.00000358,-0.00001329,-0.00001263,0.00000385,0.00000298,-0.00000053,-
 0.00000418,-0.00000271,-0.00000011,0.00000217,-0.00000105,0.00000017,0
 .00000486,0.00000126,0.00000275,-0.00000008,-0.00000038,0.,0.00000054,
 -0.00000031,-0.00000013,-0.00000245,-0.00000038,-0.00000107,0.00000002
 ,-0.00000049,-0.00000006,-0.00000004,-0.00000021,0.00000018,-0.0000107
 7,0.00000207,0.00001263,0.00000174,0.00000091,0.00000357,-0.00001003,-
 0.00001083,0.00000105,0.00000093,-0.00000237,-0.00000701,0.00000804,0.
 00000572,-0.00000006,-0.00000070,0.00000141,-0.00000282,0.00000309,-0.
 00000133,0.00001186,-0.00000726,-0.00000253,-0.00001896,0.00000680,0.0
 0000616,0.00000594,0.00000290,0.00000938,0.00000239,-0.00000013,0.0000
 0042,-0.00000009,-0.00000019,0.00000050,0.00000040,0.,-0.00000161,-0.0
 0000138,0.00000048,0.00000067,-0.00000050,-0.00000064,0.00000026,0.000
 00012,0.00000067,-0.00000088,0.00000035,-0.00000183,0.00000086,-0.0000
 0374,0.00000378,-0.00000055,-0.00000153,0.00000467,-0.00000030,0.00000
 346,0.00000096,0.00000128,-0.00000063,0.00000099,-0.00000132,0.0000007
 6,-0.00000436,0.00000226,-0.00000275,0.00000323,-0.00000052,-0.0000004
 4,-0.00000250,-0.00000111,0.00000256,-0.00000094,-0.00000117,-0.000000
 42,0.00000083,0.00000093,-0.00000078,-0.00000008,0.00000120,0.00000202
 ,0.00000023,0.00000013,-0.00000008,-0.00000020,-0.00000029,-0.00000045
 \\\@
 The archive entry for this job was punched.


 DIATOMIC MOLECULES ARE PECULIAR BECAUSE THEY ONLY HAVE TWO ENDS,
 AND THESE ENDS ARE VERY CLOSE TOGETHER.
 KLAUS RUEDENBERG, REV.MOD.PHYS. PG 176, 32, (1960)
 Job cpu time:       0 days  0 hours 25 minutes  0.6 seconds.
 Elapsed time:       0 days  0 hours  0 minutes 14.0 seconds.
 File lengths (MBytes):  RWF=    181 Int=      0 D2E=      0 Chk=     32 Scr=      1
 Normal termination of Gaussian 16 at Thu Sep 26 11:01:23 2024.
