 Entering Gaussian System, Link 0=g16
 Input=salicylate_ox_low_spin.com
 Output=salicylate_ox_low_spin.log
 Initial command:
 /gpfs/fs1/soft/improv/software/custom-built/gaussian/g16/l1.exe "/scratch/Gau-1958019.inp" -scrdir="/scratch/"
 Default CPUs for threads: 0-127
 Default linda workers: i022.lcrc.anl.gov
 Default is to use 128 SMP processors on each worker.
 Entering Link 1 = /gpfs/fs1/soft/improv/software/custom-built/gaussian/g16/l1.exe PID=   1958020.
  
 Copyright (c) 1988-2021, Gaussian, Inc.  All Rights Reserved.
  
 This is part of the Gaussian(R) 16 program.  It is based on
 the Gaussian(R) 09 system (copyright 2009, Gaussian, Inc.),
 the Gaussian(R) 03 system (copyright 2003, Gaussian, Inc.),
 the Gaussian(R) 98 system (copyright 1998, Gaussian, Inc.),
 the Gaussian(R) 94 system (copyright 1995, Gaussian, Inc.),
 the Gaussian 92(TM) system (copyright 1992, Gaussian, Inc.),
 the Gaussian 90(TM) system (copyright 1990, Gaussian, Inc.),
 the Gaussian 88(TM) system (copyright 1988, Gaussian, Inc.),
 the Gaussian 86(TM) system (copyright 1986, Carnegie Mellon
 University), and the Gaussian 82(TM) system (copyright 1983,
 Carnegie Mellon University). Gaussian is a federally registered
 trademark of Gaussian, Inc.
  
 This software contains proprietary and confidential information,
 including trade secrets, belonging to Gaussian, Inc.
  
 This software is provided under written license and may be
 used, copied, transmitted, or stored only in accord with that
 written license.
  
 The following legend is applicable only to US Government
 contracts under FAR:
  
                    RESTRICTED RIGHTS LEGEND
  
 Use, reproduction and disclosure by the US Government is
 subject to restrictions as set forth in subparagraphs (a)
 and (c) of the Commercial Computer Software - Restricted
 Rights clause in FAR 52.227-19.
  
 Gaussian, Inc.
 340 Quinnipiac St., Bldg. 40, Wallingford CT 06492
  
  
 ---------------------------------------------------------------
 Warning -- This program may not be used in any manner that
 competes with the business of Gaussian, Inc. or will provide
 assistance to any competitor of Gaussian, Inc.  The licensee
 of this program is prohibited from giving any competitor of
 Gaussian, Inc. access to this program.  By using this program,
 the user acknowledges that Gaussian, Inc. is engaged in the
 business of creating and licensing software in the field of
 computational chemistry and represents and warrants to the
 licensee that it is not a competitor of Gaussian, Inc. and that
 it will not use this program in any manner prohibited above.
 ---------------------------------------------------------------
  

 Cite this work as:
 Gaussian 16, Revision C.02,
 M. J. Frisch, G. W. Trucks, H. B. Schlegel, G. E. Scuseria, 
 M. A. Robb, J. R. Cheeseman, G. Scalmani, V. Barone, 
 G. A. Petersson, H. Nakatsuji, X. Li, M. Caricato, A. V. Marenich, 
 J. Bloino, B. G. Janesko, R. Gomperts, B. Mennucci, H. P. Hratchian, 
 J. V. Ortiz, A. F. Izmaylov, J. L. Sonnenberg, D. Williams-Young, 
 F. Ding, F. Lipparini, F. Egidi, J. Goings, B. Peng, A. Petrone, 
 T. Henderson, D. Ranasinghe, V. G. Zakrzewski, J. Gao, N. Rega, 
 G. Zheng, W. Liang, M. Hada, M. Ehara, K. Toyota, R. Fukuda, 
 J. Hasegawa, M. Ishida, T. Nakajima, Y. Honda, O. Kitao, H. Nakai, 
 T. Vreven, K. Throssell, J. A. Montgomery, Jr., J. E. Peralta, 
 F. Ogliaro, M. J. Bearpark, J. J. Heyd, E. N. Brothers, K. N. Kudin, 
 V. N. Staroverov, T. A. Keith, R. Kobayashi, J. Normand, 
 K. Raghavachari, A. P. Rendell, J. C. Burant, S. S. Iyengar, 
 J. Tomasi, M. Cossi, J. M. Millam, M. Klene, C. Adamo, R. Cammi, 
 J. W. Ochterski, R. L. Martin, K. Morokuma, O. Farkas, 
 J. B. Foresman, and D. J. Fox, Gaussian, Inc., Wallingford CT, 2019.
 
 ******************************************
 Gaussian 16:  ES64L-G16RevC.02  7-Dec-2021
                26-Sep-2024 
 ******************************************
 %chk=salicylate_ox_low_spin.chk
 SetSPE:  set environment variable "OMP_PROC_BIND" = "true"
 SetSPE:  set environment variable "OMP_PLACES" = "{0},{1},{2},{3},{4},{5},{6},{7},{8},{9},{10},{11},{12},{13},{14},{15},{16},{17},{18},{19},{20},{21},{22},{23},{24},{25},{26},{27},{28},{29},{30},{31},{32},{33},{34},{35},{36},{37},{38},{39},{40},{41},{42},{43},{44},{45},{46},{47},{48},{49},{50},{51},{52},{53},{54},{55},{56},{57},{58},{59},{60},{61},{62},{63},{64},{65},{66},{67},{68},{69},{70},{71},{72},{73},{74},{75},{76},{77},{78},{79},{80},{81},{82},{83},{84},{85},{86},{87},{88},{89},{90},{91},{92},{93},{94},{95},{96},{97},{98},{99},{100},{101},{102},{103},{104},{105},{106},{107},{108},{109},{110},{111},{112},{113},{114},{115},{116},{117},{118},{119},{120},{121},{122},{123},{124},{125},{126},{127}"
 SetLPE:    new flags="-opt 'Tsnet.Node.lindarsharg: ssh'  -nodelist 'i022.lcrc.anl.gov' -env GAUSS_MDEF=13421772800 -env GAUSS_EXEDIR="/gpfs/fs1/soft/improv/software/custom-built/gaussian/g16/bsd:/gpfs/fs1/soft/improv/software/custom-built/gaussian/g16" -env "OMP_PROC_BIND=true" -env "OMP_PLACES={0},{1},{2},{3},{4},{5},{6},{7},{8},{9},{10},{11},{12},{13},{14},{15},{16},{17},{18},{19},{20},{21},{22},{23},{24},{25},{26},{27},{28},{29},{30},{31},{32},{33},{34},{35},{36},{37},{38},{39},{40},{41},{42},{43},{44},{45},{46},{47},{48},{49},{50},{51},{52},{53},{54},{55},{56},{57},{58},{59},{60},{61},{62},{63},{64},{65},{66},{67},{68},{69},{70},{71},{72},{73},{74},{75},{76},{77},{78},{79},{80},{81},{82},{83},{84},{85},{86},{87},{88},{89},{90},{91},{92},{93},{94},{95},{96},{97},{98},{99},{100},{101},{102},{103},{104},{105},{106},{107},{108},{109},{110},{111},{112},{113},{114},{115},{116},{117},{118},{119},{120},{121},{122},{123},{124},{125},{126},{127}" -env GAUSS_ADEF="0,1,2,3,4,5,6,7,8,9,10,11,12,13,14,15,16,17,18,19,20,21,22,23,24,25,26,27,28,29,30,31,32,33,34,35,36,37,38,39,40,41,42,43,44,45,46,47,48,49,50,51,52,53,54,55,56,57,58,59,60,61,62,63,64,65,66,67,68,69,70,71,72,73,74,75,76,77,78,79,80,81,82,83,84,85,86,87,88,89,90,91,92,93,94,95,96,97,98,99,100,101,102,103,104,105,106,107,108,109,110,111,112,113,114,115,116,117,118,119,120,121,122,123,124,125,126,127""
 Will use up to    1 processors via Linda.
 ----------------------------------------------------------------------
 #p B3LYP empiricaldispersion=gd3 opt=(cartesian,calcall,maxcycles=500)
  freq scf=(maxcycles=500,xqc,maxconventional=50)
 ----------------------------------------------------------------------
 1/6=500,10=4,18=10,26=3,38=1/1,3;
 2/12=2,17=6,18=5,29=2,40=1/2;
 3/11=2,25=1,30=1,71=2,74=-5,124=31,140=1/1,2,3;
 4//1;
 5/5=2,7=500,8=3,13=1,38=5,85=50/2,8;
 8/6=4,10=90,11=11/1;
 11/6=1,8=1,9=11,15=111,16=1/1,2,10;
 10/6=1/2;
 6/7=2,8=2,9=2,10=2,18=1,28=1/1;
 7/7=1,10=1,25=1/1,2,3,16;
 1/6=500,10=4,18=10,26=3/3(3);
 2/29=1/2;
 7/7=1,8=1,9=1,25=1,44=-1/16;
 99/12=1/99;
 2/29=1/2;
 3/11=2,25=1,30=1,71=2,74=-5,124=31,140=1/1,2,3;
 4/5=5,16=3,69=1/1;
 5/5=2,7=500,8=3,13=1,38=5,85=50/2,8;
 8/6=4,10=90,11=11/1;
 11/6=1,8=1,9=11,15=111,16=1/1,2,10;
 10/6=1/2;
 7/7=1,10=1,25=1/1,2,3,16;
 1/6=500,10=4,18=10,26=3/3(-8);
 2/29=1/2;
 6/7=2,8=2,9=2,10=2,18=1,19=2,28=1/1;
 7/7=1,8=1,9=1,25=1,44=-1/16;
 99/12=1/99;
 Leave Link    1 at Thu Sep 26 11:01:51 2024, MaxMem=           0 cpu:               6.2 elap:               0.1
 (Enter /gpfs/fs1/soft/improv/software/custom-built/gaussian/g16/l101.exe)
 ---------------------------
 salicylate ox low_spin spin
 ---------------------------
 Symbolic Z-matrix:
 Charge = -3 Multiplicity = 2
 C                    -0.77243  -1.38399  -0.48915 
 C                    -1.49928  -0.60256   0.35179 
 C                    -0.92213   0.52661   0.95145 
 C                     0.41947   0.86813   0.69175 
 C                     1.16275   0.06687  -0.17551 
 C                     0.56383  -1.05287  -0.77044 
 C                     2.62382   0.37476  -0.49703 
 O                     3.25404   1.3176    0.04277 
 O                     3.24642  -0.37768  -1.36027 
 O                     0.88884   1.89456   1.2569 
 H                    -1.22282  -2.25414  -0.93873 
 H                    -2.52435  -0.85007   0.55931 
 H                    -1.50706   1.13452   1.61613 
 H                     1.1352   -1.65872  -1.43986 
 Fe                    2.62359   2.50346   1.28722 
 C                    -0.0091    1.70974   5.81716 
 C                    -0.2845    2.99704   5.49085 
 C                     0.38935   3.61177   4.41995 
 C                     1.33666   2.89196   3.68175 
 C                     1.66277   1.59428   4.07899 
 C                     0.96075   0.99392   5.1138 
 C                     2.80862   0.84041   3.4133 
 O                     3.43114   1.39245   2.48789 
 O                     3.14819  -0.34432   3.82781 
 O                     1.86083   3.44403   2.66481 
 H                    -0.52974   1.23788   6.6197 
 H                    -1.01564   3.54098   6.052 
 H                     0.18075   4.6318    4.16317 
 H                     1.17522  -0.01756   5.37595 
 C                     3.62102   3.80935  -3.66123 
 C                     2.28685   4.0285   -3.48962 
 C                     1.71582   4.00927  -2.20569 
 C                     2.52069   3.76062  -1.09001 
 C                     3.89018   3.58067  -1.26131 
 C                     4.44726   3.58603  -2.55127 
 C                     4.77836   3.4186   -0.02195 
 O                     4.2559    3.29305   1.11505 
 O                     6.06788   3.42508  -0.15506 
 O                     2.02661   3.71558   0.06615 
 H                     4.04087   3.81483  -4.64707 
 H                     1.66247   4.22092  -4.3389 
 H                     0.66613   4.18418  -2.08709 
 H                     5.5009    3.42775  -2.69014 
 
 ITRead=  0  0  0  0  0  0  0  0  0  0  0  0  0  0  0  0  0  0  0  0
 ITRead=  0  0  0  0  0  0  0  0  0  0  0  0  0  0  0  0  0  0  0  0
 ITRead=  0  0  0
 MicOpt= -1 -1 -1 -1 -1 -1 -1 -1 -1 -1 -1 -1 -1 -1 -1 -1 -1 -1 -1 -1
 MicOpt= -1 -1 -1 -1 -1 -1 -1 -1 -1 -1 -1 -1 -1 -1 -1 -1 -1 -1 -1 -1
 MicOpt= -1 -1 -1
 NAtoms=     43 NQM=       43 NQMF=       0 NMMI=      0 NMMIF=      0
                NMic=       0 NMicF=      0.
                    Isotopes and Nuclear Properties:
 (Nuclear quadrupole moments (NQMom) in fm**2, nuclear magnetic moments (NMagM)
  in nuclear magnetons)

  Atom         1           2           3           4           5           6           7           8           9          10
 IAtWgt=          12          12          12          12          12          12          12          16          16          16
 AtmWgt=  12.0000000  12.0000000  12.0000000  12.0000000  12.0000000  12.0000000  12.0000000  15.9949146  15.9949146  15.9949146
 NucSpn=           0           0           0           0           0           0           0           0           0           0
 AtZEff=  -0.0000000  -0.0000000  -0.0000000  -0.0000000  -0.0000000  -0.0000000  -0.0000000  -0.0000000  -0.0000000  -0.0000000
 NQMom=    0.0000000   0.0000000   0.0000000   0.0000000   0.0000000   0.0000000   0.0000000   0.0000000   0.0000000   0.0000000
 NMagM=    0.0000000   0.0000000   0.0000000   0.0000000   0.0000000   0.0000000   0.0000000   0.0000000   0.0000000   0.0000000
 AtZNuc=   6.0000000   6.0000000   6.0000000   6.0000000   6.0000000   6.0000000   6.0000000   8.0000000   8.0000000   8.0000000

  Atom        11          12          13          14          15          16          17          18          19          20
 IAtWgt=           1           1           1           1          56          12          12          12          12          12
 AtmWgt=   1.0078250   1.0078250   1.0078250   1.0078250  55.9349393  12.0000000  12.0000000  12.0000000  12.0000000  12.0000000
 NucSpn=           1           1           1           1           0           0           0           0           0           0
 AtZEff=  -0.0000000  -0.0000000  -0.0000000  -0.0000000  -0.0000000  -0.0000000  -0.0000000  -0.0000000  -0.0000000  -0.0000000
 NQMom=    0.0000000   0.0000000   0.0000000   0.0000000   0.0000000   0.0000000   0.0000000   0.0000000   0.0000000   0.0000000
 NMagM=    2.7928460   2.7928460   2.7928460   2.7928460   0.0000000   0.0000000   0.0000000   0.0000000   0.0000000   0.0000000
 AtZNuc=   1.0000000   1.0000000   1.0000000   1.0000000  26.0000000   6.0000000   6.0000000   6.0000000   6.0000000   6.0000000

  Atom        21          22          23          24          25          26          27          28          29          30
 IAtWgt=          12          12          16          16          16           1           1           1           1          12
 AtmWgt=  12.0000000  12.0000000  15.9949146  15.9949146  15.9949146   1.0078250   1.0078250   1.0078250   1.0078250  12.0000000
 NucSpn=           0           0           0           0           0           1           1           1           1           0
 AtZEff=  -0.0000000  -0.0000000  -0.0000000  -0.0000000  -0.0000000  -0.0000000  -0.0000000  -0.0000000  -0.0000000  -0.0000000
 NQMom=    0.0000000   0.0000000   0.0000000   0.0000000   0.0000000   0.0000000   0.0000000   0.0000000   0.0000000   0.0000000
 NMagM=    0.0000000   0.0000000   0.0000000   0.0000000   0.0000000   2.7928460   2.7928460   2.7928460   2.7928460   0.0000000
 AtZNuc=   6.0000000   6.0000000   8.0000000   8.0000000   8.0000000   1.0000000   1.0000000   1.0000000   1.0000000   6.0000000

  Atom        31          32          33          34          35          36          37          38          39          40
 IAtWgt=          12          12          12          12          12          12          16          16          16           1
 AtmWgt=  12.0000000  12.0000000  12.0000000  12.0000000  12.0000000  12.0000000  15.9949146  15.9949146  15.9949146   1.0078250
 NucSpn=           0           0           0           0           0           0           0           0           0           1
 AtZEff=  -0.0000000  -0.0000000  -0.0000000  -0.0000000  -0.0000000  -0.0000000  -0.0000000  -0.0000000  -0.0000000  -0.0000000
 NQMom=    0.0000000   0.0000000   0.0000000   0.0000000   0.0000000   0.0000000   0.0000000   0.0000000   0.0000000   0.0000000
 NMagM=    0.0000000   0.0000000   0.0000000   0.0000000   0.0000000   0.0000000   0.0000000   0.0000000   0.0000000   2.7928460
 AtZNuc=   6.0000000   6.0000000   6.0000000   6.0000000   6.0000000   6.0000000   8.0000000   8.0000000   8.0000000   1.0000000

  Atom        41          42          43
 IAtWgt=           1           1           1
 AtmWgt=   1.0078250   1.0078250   1.0078250
 NucSpn=           1           1           1
 AtZEff=  -0.0000000  -0.0000000  -0.0000000
 NQMom=    0.0000000   0.0000000   0.0000000
 NMagM=    2.7928460   2.7928460   2.7928460
 AtZNuc=   1.0000000   1.0000000   1.0000000
 Leave Link  101 at Thu Sep 26 11:01:51 2024, MaxMem= 13421772800 cpu:               0.4 elap:               0.1
 (Enter /gpfs/fs1/soft/improv/software/custom-built/gaussian/g16/l103.exe)

 GradGradGradGradGradGradGradGradGradGradGradGradGradGradGradGradGradGrad
 Berny optimization.
 Initialization pass.
 No Z-matrix variables, so optimization will use Cartesian coordinates.
 Trust Radius=3.00D-01 FncErr=1.00D-07 GrdErr=1.00D-06 EigMax=2.50D+02 EigMin=1.00D-04
 Number of steps in this run=    258 maximum allowed number of steps=    258.
 GradGradGradGradGradGradGradGradGradGradGradGradGradGradGradGradGradGrad

 Leave Link  103 at Thu Sep 26 11:01:52 2024, MaxMem= 13421772800 cpu:               0.4 elap:               0.1
 (Enter /gpfs/fs1/soft/improv/software/custom-built/gaussian/g16/l202.exe)
 ---------------------------------------------------------------------------------------------------
                            Z-MATRIX (ANGSTROMS AND DEGREES)
   CD    Cent   Atom    N1       Length/X        N2       Alpha/Y        N3        Beta/Z          J
 ---------------------------------------------------------------------------------------------------
      1      1  C        0  -0.772426         -1.383989         -0.489154
      2      2  C        0  -1.499276         -0.602557          0.351787
      3      3  C        0  -0.922129          0.526615          0.951451
      4      4  C        0   0.419468          0.868133          0.691752
      5      5  C        0   1.162747          0.066872         -0.175511
      6      6  C        0   0.563826         -1.052867         -0.770443
      7      7  C        0   2.623820          0.374755         -0.497029
      8      8  O        0   3.254040          1.317596          0.042772
      9      9  O        0   3.246416         -0.377676         -1.360274
     10     10  O        0   0.888840          1.894561          1.256904
     11     11  H        0  -1.222818         -2.254136         -0.938730
     12     12  H        0  -2.524354         -0.850072          0.559312
     13     13  H        0  -1.507063          1.134524          1.616134
     14     14  H        0   1.135198         -1.658718         -1.439861
     15     15  Fe       0   2.623585          2.503456          1.287217
     16     16  C        0  -0.009102          1.709745          5.817164
     17     17  C        0  -0.284502          2.997037          5.490850
     18     18  C        0   0.389348          3.611772          4.419948
     19     19  C        0   1.336657          2.891955          3.681749
     20     20  C        0   1.662774          1.594281          4.078991
     21     21  C        0   0.960754          0.993915          5.113798
     22     22  C        0   2.808620          0.840406          3.413304
     23     23  O        0   3.431144          1.392448          2.487886
     24     24  O        0   3.148190         -0.344325          3.827813
     25     25  O        0   1.860834          3.444029          2.664806
     26     26  H        0  -0.529744          1.237881          6.619695
     27     27  H        0  -1.015645          3.540976          6.052004
     28     28  H        0   0.180750          4.631803          4.163166
     29     29  H        0   1.175222         -0.017557          5.375952
     30     30  C        0   3.621020          3.809353         -3.661228
     31     31  C        0   2.286846          4.028500         -3.489619
     32     32  C        0   1.715821          4.009271         -2.205687
     33     33  C        0   2.520685          3.760618         -1.090013
     34     34  C        0   3.890180          3.580672         -1.261311
     35     35  C        0   4.447258          3.586033         -2.551272
     36     36  C        0   4.778363          3.418605         -0.021951
     37     37  O        0   4.255897          3.293045          1.115051
     38     38  O        0   6.067881          3.425085         -0.155060
     39     39  O        0   2.026613          3.715581          0.066152
     40     40  H        0   4.040866          3.814828         -4.647068
     41     41  H        0   1.662474          4.220916         -4.338900
     42     42  H        0   0.666128          4.184181         -2.087092
     43     43  H        0   5.500902          3.427750         -2.690144
 ---------------------------------------------------------------------------------------------------
                         Z-Matrix orientation:                         
 ---------------------------------------------------------------------
 Center     Atomic      Atomic             Coordinates (Angstroms)
 Number     Number       Type             X           Y           Z
 ---------------------------------------------------------------------
      1          6           0       -0.772426   -1.383989   -0.489154
      2          6           0       -1.499276   -0.602557    0.351787
      3          6           0       -0.922129    0.526615    0.951451
      4          6           0        0.419468    0.868133    0.691752
      5          6           0        1.162747    0.066872   -0.175511
      6          6           0        0.563826   -1.052867   -0.770443
      7          6           0        2.623820    0.374755   -0.497029
      8          8           0        3.254040    1.317596    0.042772
      9          8           0        3.246416   -0.377676   -1.360274
     10          8           0        0.888840    1.894561    1.256904
     11          1           0       -1.222818   -2.254136   -0.938730
     12          1           0       -2.524354   -0.850072    0.559312
     13          1           0       -1.507063    1.134524    1.616134
     14          1           0        1.135198   -1.658718   -1.439861
     15         26           0        2.623585    2.503456    1.287217
     16          6           0       -0.009102    1.709745    5.817164
     17          6           0       -0.284502    2.997037    5.490850
     18          6           0        0.389348    3.611772    4.419948
     19          6           0        1.336657    2.891955    3.681749
     20          6           0        1.662774    1.594281    4.078991
     21          6           0        0.960754    0.993915    5.113798
     22          6           0        2.808620    0.840406    3.413304
     23          8           0        3.431144    1.392448    2.487886
     24          8           0        3.148190   -0.344325    3.827813
     25          8           0        1.860834    3.444029    2.664806
     26          1           0       -0.529744    1.237881    6.619695
     27          1           0       -1.015645    3.540976    6.052004
     28          1           0        0.180750    4.631803    4.163166
     29          1           0        1.175222   -0.017557    5.375952
     30          6           0        3.621020    3.809353   -3.661228
     31          6           0        2.286846    4.028500   -3.489619
     32          6           0        1.715821    4.009271   -2.205687
     33          6           0        2.520685    3.760618   -1.090013
     34          6           0        3.890180    3.580672   -1.261311
     35          6           0        4.447258    3.586033   -2.551272
     36          6           0        4.778363    3.418605   -0.021951
     37          8           0        4.255897    3.293045    1.115051
     38          8           0        6.067881    3.425085   -0.155060
     39          8           0        2.026613    3.715581    0.066152
     40          1           0        4.040866    3.814828   -4.647068
     41          1           0        1.662474    4.220916   -4.338900
     42          1           0        0.666128    4.184181   -2.087092
     43          1           0        5.500902    3.427750   -2.690144
 ---------------------------------------------------------------------
                    Distance matrix (angstroms):
                    1          2          3          4          5
     1  C    0.000000
     2  C    1.358723   0.000000
     3  C    2.397532   1.402756   0.000000
     4  C    2.808417   2.441329   1.408532   0.000000
     5  C    2.438906   2.795093   2.414149   1.395216   0.000000
     6  C    1.405110   2.391352   2.769069   2.418490   1.402307
     7  C    3.824621   4.321521   3.833394   2.552604   1.527384
     8  O    4.877902   5.135805   4.346463   2.942446   2.446521
     9  O    4.233510   5.050081   4.851659   3.708704   2.437820
    10  O    4.069080   3.571825   2.290020   1.262244   2.338223
    11  H    1.078021   2.114137   3.375763   3.886405   3.414748
    12  H    2.110355   1.074763   2.148526   3.411138   3.869814
    13  H    3.363753   2.148508   1.074013   2.153362   3.387884
    14  H    2.149034   3.356475   3.837531   3.382458   2.139393
    15  Fe   5.458994   5.245983   4.073418   2.808379   3.195398
    16  C    7.065656   6.118636   5.090047   5.211701   6.323323
    17  C    7.429125   6.390831   5.207273   5.297089   6.541257
    18  C    7.099762   6.154462   4.823757   4.629028   5.855143
    19  C    6.334695   5.598463   4.260455   3.725208   4.784328
    20  C    5.972288   5.358797   4.195610   3.680555   4.547944
    21  C    6.328618   5.592604   4.592249   4.456826   5.373733
    22  C    5.744649   5.478412   4.480812   3.621555   4.023289
    23  O    5.851612   5.731667   4.696945   3.545588   3.741185
    24  O    5.923541   5.809336   5.059595   4.330226   4.487502
    25  O    6.339658   5.745890   4.380842   3.550452   4.467652
    26  H    7.580820   6.604081   5.726156   6.014834   7.100043
    27  H    8.191531   7.063657   5.925433   6.159216   7.456322
    28  H    7.664358   6.689367   5.327666   5.125711   6.373934
    29  H    6.329291   5.721661   4.926582   4.826732   5.552119
    30  C    7.505679   7.860449   7.259021   6.152165   5.674459
    31  C    6.903403   7.108995   6.502602   5.564070   5.285963
    32  C    6.182646   6.176284   5.390287   4.465695   4.468782
    33  C    6.137800   6.105422   5.145807   3.994530   4.040305
    34  C    6.854485   7.010544   6.114074   4.818522   4.578716
    35  C    7.496569   7.831558   7.103480   5.841855   5.368123
    36  C    7.354892   7.464461   6.465813   5.100416   4.932583
    37  O    7.052102   6.991445   5.872977   4.558241   4.652023
    38  O    8.368310   8.587238   7.647597   6.257768   5.944607
    39  O    5.843680   5.582096   4.432645   3.329001   3.757359
    40  H    8.214848   8.671506   8.172337   7.092286   6.505810
    41  H    7.222481   7.434049   6.950960   6.172007   5.902509
    42  H    5.968865   5.792233   5.013292   4.333472   4.566508
    43  H    8.206815   8.631292   7.933040   6.618899   6.036428
                    6          7          8          9         10
     6  C    0.000000
     7  C    2.521197   0.000000
     8  O    3.676637   1.255990   0.000000
     9  O    2.828440   1.303446   2.200578   0.000000
    10  O    3.592088   2.897627   2.720510   4.191760   0.000000
    11  H    2.159507   4.680043   5.810584   4.865477   5.146999
    12  H    3.368416   5.396272   6.193177   6.099980   4.435036
    13  H    3.843047   4.701797   5.017677   5.808728   2.539105
    14  H    1.068477   2.690714   3.942859   2.470758   4.467552
    15  Fe   4.596086   2.777571   1.830951   3.962077   1.838753
    16  C    7.166368   6.970186   6.644206   8.152996   4.651497
    17  C    7.505009   7.154676   6.709945   8.413916   4.529734
    18  C    6.980648   6.296650   5.712213   7.582183   3.633614
    19  C    5.998408   5.045321   4.404216   6.305527   2.659927
    20  C    5.633123   4.832267   4.347384   5.998512   2.941652
    21  C    6.242688   5.884770   5.574876   7.001366   3.961309
    22  C    5.111489   3.942294   3.433162   4.945952   3.073575
    23  O    4.981745   3.255332   2.452662   4.239788   2.868927
    24  O    5.322117   4.415461   4.135181   5.189124   4.089847
    25  O    5.805620   4.472112   3.652095   5.720711   2.308205
    26  H    7.813933   7.831839   7.588102   8.974927   5.585977
    27  H    8.375195   8.133910   7.699643   9.405470   5.415785
    28  H    7.536757   6.768195   6.116104   8.062356   4.054657
    29  H    6.262893   6.061703   5.877663   7.056647   4.550249
    30  C    6.429949   4.775251   4.479190   4.792278   5.943000
    31  C    6.015231   4.734871   4.556561   4.986910   5.388654
    32  C    5.386303   4.117485   3.829726   4.722579   4.140704
    33  C    5.205867   3.438944   2.790944   4.210131   3.413665
    34  C    5.724968   3.530679   2.688274   4.011577   4.265257
    35  C    6.306488   4.225772   3.646730   4.309465   5.479564
    36  C    6.190042   3.759358   2.596534   4.306939   4.368818
    37  O    6.006115   3.711993   2.460874   4.540978   3.648691
    38  O    7.122174   4.613351   3.521129   4.886123   5.581990
    39  O    5.057443   3.440196   2.693967   4.503040   2.455307
    40  H    7.128287   5.573594   5.371206   5.386210   6.962727
    41  H    6.461710   5.520608   5.491939   5.703344   6.109292
    42  H    5.400990   4.568652   4.410319   5.291190   4.058850
    43  H    6.938003   4.733723   4.119462   4.618715   6.261067
                   11         12         13         14         15
    11  H    0.000000
    12  H    2.430950   0.000000
    13  H    4.253369   2.467869   0.000000
    14  H    2.483122   4.247696   4.911501   0.000000
    15  Fe   6.510326   6.186863   4.363991   5.193837   0.000000
    16  C    7.926384   6.365859   4.497045   8.082102   5.299191
    17  C    8.354325   6.643587   4.469567   8.469141   5.135282
    18  C    8.106996   6.580442   4.194580   7.916547   4.004271
    19  C    7.374415   6.217700   3.929640   6.854203   2.746070
    20  C    6.950862   5.991247   4.040409   6.427913   3.089297
    21  C    7.207699   6.024086   4.282936   7.072294   4.436940
    22  C    6.690956   6.280414   4.684170   5.709569   2.705590
    23  O    6.833641   6.649531   5.021192   5.477973   1.824307
    24  O    6.743369   6.566326   5.361893   5.790351   3.852232
    25  O    7.413735   6.488627   4.216189   6.588844   1.834180
    26  H    8.354898   6.713141   5.099163   8.724607   6.323012
    27  H    9.082764   7.192161   5.070448   9.369684   6.084705
    28  H    8.684211   7.096218   4.644033   8.477944   4.332249
    29  H    7.115342   6.130250   4.760060   7.010729   5.017072
    30  C    8.224395   8.791406   7.829591   6.404184   5.214150
    31  C    7.635202   7.958766   6.988387   6.154043   5.025666
    32  C    7.033567   7.016945   5.766928   5.748888   3.910486
    33  C    7.086182   7.030730   5.517459   5.604567   2.691147
    34  C    7.764779   8.005773   6.587379   5.922247   3.042968
    35  C    8.298050   8.829391   7.670144   6.301777   4.385403
    36  C    8.308710   8.478747   6.885269   6.407990   2.682254
    37  O    8.062603   7.965304   6.174301   6.386415   1.821410
    38  O    9.274804   9.623606   8.109474   7.199106   3.846133
    39  O    6.870671   6.465269   4.642323   5.652060   1.821161
    40  H    8.848191   9.590089   8.785855   6.977735   6.240523
    41  H    7.862084   8.199812   7.418504   6.576666   5.960419
    42  H    6.807260   6.521222   5.266597   5.897321   4.247639
    43  H    8.975505   9.657301   8.538998   6.818705   4.995265
                   16         17         18         19         20
    16  C    0.000000
    17  C    1.356262   0.000000
    18  C    2.393466   1.406700   0.000000
    19  C    2.787236   2.431470   1.400167   0.000000
    20  C    2.414486   2.784413   2.410007   1.395748   0.000000
    21  C    1.395620   2.388583   2.767870   2.407202   1.387118
    22  C    3.804451   4.305190   3.814011   2.539210   1.524608
    23  O    4.797922   5.039695   4.232114   2.839138   2.387360
    24  O    4.259719   5.070874   4.859273   3.711670   2.455147
    25  O    4.054844   3.576143   2.296505   1.270323   2.336817
    26  H    1.066668   2.104534   3.364368   3.853692   3.374808
    27  H    2.102781   1.070202   2.154674   3.401861   3.854390
    28  H    3.363060   2.156772   1.072340   2.143584   3.380831
    29  H    2.140295   3.351383   3.834523   3.370703   2.125519
    30  C   10.364654   9.983661   8.705639   7.744627   8.285666
    31  C    9.862262   9.398115   8.144655   7.322781   7.974882
    32  C    8.522283   8.016395   6.768794   6.004504   6.732917
    33  C    7.636426   7.194435   5.909690   4.992616   5.669889
    34  C    8.295153   7.959917   6.673342   5.606127   6.117672
    35  C    9.664901   9.349449   8.066301   7.000581   7.461958
    36  C    7.741788   7.496753   6.247499   5.083315   5.463770
    37  O    6.542699   6.312722   5.096482   3.907783   4.288942
    38  O    8.691350   8.509542   7.294607   6.114721   6.378401
    39  O    6.421966   5.940110   4.652629   3.771862   4.553589
    40  H   11.416381  11.052374   9.776789   8.805319   9.312908
    41  H   10.594610  10.095176   8.871827   8.136529   8.818168
    42  H    8.309995   7.729049   6.538029   5.949704   6.761764
    43  H   10.280368  10.029211   8.758725   7.630795   7.994625
                   21         22         23         24         25
    21  C    0.000000
    22  C    2.515920   0.000000
    23  O    3.627267   1.244462   0.000000
    24  O    2.868714   1.300274   2.211752   0.000000
    25  O    3.579212   2.870087   2.589625   4.166712   0.000000
    26  H    2.132799   4.645815   5.725764   4.881104   5.120850
    27  H    3.357663   5.374087   6.090405   6.113927   4.444844
    28  H    3.840095   4.673615   4.885186   5.803448   2.545304
    29  H    1.066675   2.693710   3.926604   2.529054   4.450050
    30  C    9.591912   7.715157   6.609772   8.576849   6.576505
    31  C    9.218785   7.621453   6.632402   8.567865   6.196776
    32  C    7.952192   6.542857   5.640898   7.576846   4.905326
    33  C    6.969599   5.374980   4.386175   6.436562   3.825480
    34  C    7.477624   5.525474   4.365263   6.469570   4.421686
    35  C    8.810680   6.767553   5.589044   7.604473   5.823849
    36  C    6.843185   4.725249   3.495653   5.624747   3.966268
    37  O    5.668680   3.659510   2.485389   4.670819   2.856722
    38  O    7.730084   5.480563   4.250783   6.212593   5.064706
    39  O    5.832860   4.481250   3.637919   5.647200   2.618058
    40  H   10.616927   8.679586   7.559580   9.482564   7.638948
    41  H   10.012963   8.534528   7.598252   9.473330   7.049453
    42  H    7.881460   6.784206   6.030714   7.852012   4.955368
    43  H    9.350829   7.155055   5.936189   7.889712   6.475017
                   26         27         28         29         30
    26  H    0.000000
    27  H    2.421285   0.000000
    28  H    4.249476   2.487764   0.000000
    29  H    2.455592   4.233214   4.906767   0.000000
    30  C   11.381507  10.766502   8.586794  10.114237   0.000000
    31  C   10.859050  10.108743   7.960197   9.808396   1.362899
    32  C    9.518957   8.710319   6.580751   8.601676   2.405899
    33  C    8.666541   7.972596   5.816370   7.608783   2.797187
    34  C    9.334595   8.806433   6.655051   8.023185   2.425767
    35  C   10.695373  10.191256   8.023740   9.302309   1.401622
    36  C    8.777415   8.395143   6.334438   7.343513   3.838811
    37  O    7.578071   7.226626   5.262138   6.213365   4.845873
    38  O    9.706174   9.418992   7.400105   8.147514   4.292786
    39  O    7.458076   6.716863   4.586088   6.546385   4.055156
    40  H   12.428640  11.836952   9.653402  11.106755   1.071532
    41  H   11.566984  10.752000   8.639992  10.610391   2.112943
    42  H    9.269246   8.335883   6.285036   8.579673   3.368945
    43  H   11.306517  10.904281   8.759088   9.779751   2.150019
                   31         32         33         34         35
    31  C    0.000000
    32  C    1.405319   0.000000
    33  C    2.425809   1.397985   0.000000
    34  C    2.781471   2.409021   1.391847   0.000000
    35  C    2.396591   2.785554   2.424343   1.405121   0.000000
    36  C    4.313276   3.807461   2.520881   1.533346   2.556390
    37  O    5.061723   4.241729   2.844625   2.421482   3.682987
    38  O    5.077363   4.846316   3.683656   2.447526   2.897267
    39  O    3.578986   2.311730   1.258115   2.291995   3.567522
    40  H    2.112328   3.376979   3.868659   3.397188   2.147059
    41  H    1.071514   2.144350   3.391705   3.852809   3.369527
    42  H    2.148964   1.070754   2.147779   3.382402   3.856188
    43  H    3.366038   3.860014   3.398957   2.158558   1.074479
                   36         37         38         39         40
    36  C    0.000000
    37  O    1.257581   0.000000
    38  O    1.296386   2.216733   0.000000
    39  O    2.769131   2.499687   4.057730   0.000000
    40  H    4.700277   5.789690   4.943564   5.126549   0.000000
    41  H    5.384099   6.110022   6.127437   4.448869   2.432412
    42  H    4.664911   4.892268   5.786874   2.589780   4.251913
    43  H    2.764308   4.005957   2.597715   4.444176   2.472061
                   41         42         43
    41  H    0.000000
    42  H    2.462660   0.000000
    43  H    4.252180   4.930608   0.000000
 Stoichiometry    C21H12FeO9(3-,2)
 Framework group  C1[X(C21H12FeO9)]
 Deg. of freedom   123
 Full point group                 C1      NOp   1
 Largest Abelian subgroup         C1      NOp   1
 Largest concise Abelian subgroup C1      NOp   1
                         Standard orientation:                         
 ---------------------------------------------------------------------
 Center     Atomic      Atomic             Coordinates (Angstroms)
 Number     Number       Type             X           Y           Z
 ---------------------------------------------------------------------
      1          6           0        0.720614    4.584125    0.157009
      2          6           0        1.573950    4.094936   -0.780348
      3          6           0        1.588195    2.725636   -1.084556
      4          6           0        0.718751    1.836333   -0.423368
      5          6           0       -0.159766    2.341400    0.535664
      6          6           0       -0.163034    3.714841    0.818709
      7          6           0       -1.125210    1.433699    1.295202
      8          8           0       -1.140955    0.186192    1.150328
      9          8           0       -1.961530    1.974262    2.136233
     10          8           0        0.772342    0.614509   -0.735677
     11          1           0        0.722973    5.636828    0.389260
     12          1           0        2.243024    4.761227   -1.293680
     13          1           0        2.269361    2.351575   -1.825903
     14          1           0       -0.843183    4.097580    1.548469
     15         26           0       -0.071036   -0.816171    0.053549
     16          6           0        5.188837   -0.838037   -0.590406
     17          6           0        4.709366   -1.392025   -1.731744
     18          6           0        3.342106   -1.703474   -1.843115
     19          6           0        2.472050   -1.431021   -0.780457
     20          6           0        2.995015   -0.932169    0.413597
     21          6           0        4.338950   -0.597389    0.490119
     22          6           0        2.113811   -0.785579    1.649081
     23          8           0        0.910521   -1.092062    1.566336
     24          8           0        2.619239   -0.378308    2.775752
     25          8           0        1.229574   -1.638266   -0.944843
     26          1           0        6.222675   -0.588031   -0.510042
     27          1           0        5.376133   -1.590550   -2.544973
     28          1           0        2.959726   -2.148861   -2.740517
     29          1           0        4.721538   -0.163631    1.386376
     30          6           0       -5.137902    0.004602   -0.863271
     31          6           0       -4.483088    0.553749   -1.924944
     32          6           0       -3.114670    0.307663   -2.129382
     33          6           0       -2.413079   -0.506453   -1.235319
     34          6           0       -3.091754   -1.102583   -0.176420
     35          6           0       -4.456313   -0.836310    0.027150
     36          6           0       -2.337262   -2.080151    0.732565
     37          8           0       -1.092435   -2.215464    0.615917
     38          8           0       -2.993740   -2.772531    1.610211
     39          8           0       -1.182596   -0.721137   -1.385905
     40          1           0       -6.178622    0.210599   -0.712780
     41          1           0       -5.013030    1.178163   -2.615894
     42          1           0       -2.614471    0.745603   -2.968741
     43          1           0       -4.979918   -1.278376    0.854748
 ---------------------------------------------------------------------
 Rotational constants (GHZ):           0.2280355           0.1337506           0.1106120
 Leave Link  202 at Thu Sep 26 11:01:52 2024, MaxMem= 13421772800 cpu:               0.5 elap:               0.1
 (Enter /gpfs/fs1/soft/improv/software/custom-built/gaussian/g16/l301.exe)
 Standard basis: STO-3G (5D, 7F)
 Ernie: Thresh=  0.10000D-02 Tol=  0.10000D-05 Strict=F.
 There are   181 symmetry adapted cartesian basis functions of A   symmetry.
 There are   180 symmetry adapted basis functions of A   symmetry.
   180 basis functions,   543 primitive gaussians,   181 cartesian basis functions
   120 alpha electrons      119 beta electrons
       nuclear repulsion energy      3887.7107036336 Hartrees.
 IExCor=  402 DFT=T Ex+Corr=B3LYP ExCW=0 ScaHFX=  0.200000
 ScaDFX=  0.800000  0.720000  1.000000  0.810000 ScalE2=  1.000000  1.000000
 IRadAn=      5 IRanWt=     -1 IRanGd=            0 ICorTp=0 IEmpDi=131
 NAtoms=   43 NActive=   43 NUniq=   43 SFac= 1.00D+00 NAtFMM=   60 NAOKFM=F Big=F
 Integral buffers will be    131072 words long.
 Raffenetti 2 integral format.
 Two-electron integral symmetry is turned on.
 R6Disp:  Grimme-D3 Dispersion energy=       -0.0528673165 Hartrees.
 Nuclear repulsion after empirical dispersion term =     3887.6578363170 Hartrees.
 Leave Link  301 at Thu Sep 26 11:01:53 2024, MaxMem= 13421772800 cpu:               0.4 elap:               0.1
 (Enter /gpfs/fs1/soft/improv/software/custom-built/gaussian/g16/l302.exe)
 NPDir=0 NMtPBC=     1 NCelOv=     1 NCel=       1 NClECP=     1 NCelD=      1
         NCelK=      1 NCelE2=     1 NClLst=     1 CellRange=     0.0.
 One-electron integrals computed using PRISM.
 One-electron integral symmetry used in STVInt
 NBasis=   180 RedAO= T EigKep=  1.68D-01  NBF=   180
 NBsUse=   180 1.00D-06 EigRej= -1.00D+00 NBFU=   180
 Precomputing XC quadrature grid using
 IXCGrd= 4 IRadAn=           5 IRanWt=          -1 IRanGd=           0 AccXCQ= 0.00D+00.
 Generated NRdTot=       0 NPtTot=           0 NUsed=           0 NTot=          32
 NSgBfM=   174   174   174   174   174 MxSgAt=    43 MxSgA2=    43.
 Leave Link  302 at Thu Sep 26 11:01:53 2024, MaxMem= 13421772800 cpu:              13.4 elap:               0.2
 (Enter /gpfs/fs1/soft/improv/software/custom-built/gaussian/g16/l303.exe)
 DipDrv:  MaxL=1.
 Leave Link  303 at Thu Sep 26 11:01:53 2024, MaxMem= 13421772800 cpu:               0.7 elap:               0.0
 (Enter /gpfs/fs1/soft/improv/software/custom-built/gaussian/g16/l401.exe)
 ExpMin= 9.65D-02 ExpMax= 1.45D+03 ExpMxC= 1.45D+03 IAcc=3 IRadAn=         5 AccDes= 0.00D+00
 Harris functional with IExCor=  402 and IRadAn=       5 diagonalized for initial guess.
 HarFok:  IExCor=  402 AccDes= 0.00D+00 IRadAn=         5 IDoV= 1 UseB2=F ITyADJ=14
 ICtDFT=  3500011 ScaDFX=  1.000000  1.000000  1.000000  1.000000
 FoFCou: FMM=F IPFlag=           0 FMFlag=      100000 FMFlg1=           0
         NFxFlg=           0 DoJE=T BraDBF=F KetDBF=T FulRan=T
         wScrn=  0.000000 ICntrl=       500 IOpCl=  0 I1Cent=   200000004 NGrid=           0
         NMat0=    1 NMatS0=      1 NMatT0=    0 NMatD0=    1 NMtDS0=    0 NMtDT0=    0
 Petite list used in FoFCou.
 Harris En= -2716.56418169942    
 JPrj=0 DoOrth=F DoCkMO=F.
 Initial guess <Sx>= 0.0000 <Sy>= 0.0000 <Sz>= 0.5000 <S**2>= 0.7500 S= 0.5000
 Leave Link  401 at Thu Sep 26 11:01:54 2024, MaxMem= 13421772800 cpu:              22.2 elap:               0.3
 (Enter /gpfs/fs1/soft/improv/software/custom-built/gaussian/g16/l502.exe)
 Integral symmetry usage will be decided dynamically.
 UHF open shell SCF:
 Using DIIS extrapolation, IDIIS=  1040.
 NGot= 13421772800 LenX= 13421680107 LenY= 13421646905
 Requested convergence on RMS density matrix=1.00D-08 within  50 cycles.
 Requested convergence on MAX density matrix=1.00D-06.
 Requested convergence on             energy=1.00D-06.
 No special actions if energy rises.
 Fock matrices will be formed incrementally for  20 cycles.
 Integral accuracy reduced to 1.0D-05 until final iterations.

 Cycle   1  Pass 0  IDiag  1:
 FoFJK:  IHMeth= 1 ICntrl=       0 DoSepK=F KAlg= 0 I1Cent=           0 FoldK=F
 IRaf= 780000000 NMat=       1 IRICut=       1 DoRegI=T DoRafI=F ISym2E= 0 IDoP0=0 IntGTp=1.
 FoFCou: FMM=F IPFlag=           0 FMFlag=      100000 FMFlg1=           0
         NFxFlg=           0 DoJE=F BraDBF=F KetDBF=F FulRan=T
         wScrn=  0.000000 ICntrl=         0 IOpCl=  1 I1Cent=           0 NGrid=           0
         NMat0=    1 NMatS0=      1 NMatT0=    0 NMatD0=    1 NMtDS0=    0 NMtDT0=    0
 Symmetry not used in FoFCou.
 E= -2704.86451960408    
 DIIS: error= 1.79D-01 at cycle   1 NSaved=   1.
 NSaved= 1 IEnMin= 1 EnMin= -2704.86451960408     IErMin= 1 ErrMin= 1.79D-01
 ErrMax= 1.79D-01  0.00D+00 EMaxC= 1.00D-01 BMatC= 1.68D+01 BMatP= 1.68D+01
 IDIUse=3 WtCom= 0.00D+00 WtEn= 1.00D+00
 Coeff-Com:  0.100D+01
 Coeff-En:   0.100D+01
 Coeff:      0.100D+01
 Gap=     0.005 Goal=   None    Shift=    0.000
 Gap=    -0.002 Goal=   None    Shift=    0.000
 GapD=   -0.002 DampG=0.250 DampE=0.125 DampFc=0.1250 IDamp=-1.
 Damping current iteration by 1.25D-01
 RMSDP=4.91D-02 MaxDP=2.39D+00              OVMax= 0.00D+00

 Cycle   2  Pass 0  IDiag  1:
 RMSU=  6.11D-03    CP:  9.90D-01
 E= -2708.96255819235     Delta-E=       -4.098038588277 Rises=F Damp=T
 DIIS: error= 1.22D-01 at cycle   2 NSaved=   2.
 NSaved= 2 IEnMin= 2 EnMin= -2708.96255819235     IErMin= 2 ErrMin= 1.22D-01
 ErrMax= 1.22D-01  0.00D+00 EMaxC= 1.00D-01 BMatC= 6.34D+00 BMatP= 1.68D+01
 IDIUse=3 WtCom= 0.00D+00 WtEn= 1.00D+00
 Coeff-Com: -0.102D+01 0.202D+01
 Coeff-En:   0.000D+00 0.100D+01
 Coeff:      0.000D+00 0.100D+01
 Gap=     0.098 Goal=   None    Shift=    0.000
 Gap=    -0.108 Goal=   None    Shift=    0.000
 RMSDP=2.08D-02 MaxDP=8.62D-01 DE=-4.10D+00 OVMax= 0.00D+00

 Cycle   3  Pass 0  IDiag  1:
 RMSU=  1.92D-02    CP:  9.40D-01  2.19D+00
 E= -2697.66450845775     Delta-E=       11.298049734604 Rises=F Damp=F
 DIIS: error= 1.22D-01 at cycle   3 NSaved=   3.
 NSaved= 3 IEnMin= 2 EnMin= -2708.96255819235     IErMin= 3 ErrMin= 1.22D-01
 ErrMax= 1.22D-01  0.00D+00 EMaxC= 1.00D-01 BMatC= 1.84D+01 BMatP= 6.34D+00
 IDIUse=2 WtCom= 0.00D+00 WtEn= 1.00D+00
 EnCoef did   100 forward-backward iterations
 Coeff-En:   0.563D+00 0.183D-01 0.419D+00
 Coeff:      0.563D+00 0.183D-01 0.419D+00
 Gap=     0.001 Goal=   None    Shift=    0.000
 Gap=     0.013 Goal=   None    Shift=    0.000
 RMSDP=2.12D-02 MaxDP=6.08D-01 DE= 1.13D+01 OVMax= 0.00D+00

 Cycle   4  Pass 0  IDiag  1:
 RMSU=  1.67D-02    CP:  9.43D-01  7.58D-01  4.87D-01
 E= -2705.14270572817     Delta-E=       -7.478197270424 Rises=F Damp=F
 DIIS: error= 2.85D-01 at cycle   4 NSaved=   4.
 NSaved= 4 IEnMin= 2 EnMin= -2708.96255819235     IErMin= 3 ErrMin= 1.22D-01
 ErrMax= 2.85D-01  0.00D+00 EMaxC= 1.00D-01 BMatC= 2.18D+01 BMatP= 6.34D+00
 IDIUse=2 WtCom= 0.00D+00 WtEn= 1.00D+00
 EnCoef did   100 forward-backward iterations
 Coeff-En:   0.509D+00 0.135D-01 0.287D+00 0.190D+00
 Coeff:      0.509D+00 0.135D-01 0.287D+00 0.190D+00
 Gap=     0.142 Goal=   None    Shift=    0.000
 Gap=    -0.117 Goal=   None    Shift=    0.000
 RMSDP=1.47D-02 MaxDP=6.83D-01 DE=-7.48D+00 OVMax= 0.00D+00

 Cycle   5  Pass 0  IDiag  1:
 RMSU=  1.06D-02    CP:  9.50D-01  9.04D-01  5.33D-01  3.97D-01
 E= -2711.39046655266     Delta-E=       -6.247760824485 Rises=F Damp=F
 DIIS: error= 2.20D-01 at cycle   5 NSaved=   5.
 NSaved= 5 IEnMin= 5 EnMin= -2711.39046655266     IErMin= 3 ErrMin= 1.22D-01
 ErrMax= 2.20D-01  0.00D+00 EMaxC= 1.00D-01 BMatC= 1.16D+01 BMatP= 6.34D+00
 IDIUse=2 WtCom= 0.00D+00 WtEn= 1.00D+00
 EnCoef did   100 forward-backward iterations
 Coeff-En:   0.338D+00 0.192D-01 0.000D+00 0.126D-01 0.630D+00
 Coeff:      0.338D+00 0.192D-01 0.000D+00 0.126D-01 0.630D+00
 Gap=     0.619 Goal=   None    Shift=    0.000
 Gap=    -0.246 Goal=   None    Shift=    0.000
 RMSDP=1.31D-02 MaxDP=7.87D-01 DE=-6.25D+00 OVMax= 0.00D+00

 Cycle   6  Pass 0  IDiag  1:
 RMSU=  1.15D-02    CP:  9.51D-01  8.96D-01  4.22D-01  4.53D-01  4.52D-01
 E= -2709.76770364144     Delta-E=        1.622762911220 Rises=F Damp=F
 DIIS: error= 1.41D-01 at cycle   6 NSaved=   6.
 NSaved= 6 IEnMin= 5 EnMin= -2711.39046655266     IErMin= 3 ErrMin= 1.22D-01
 ErrMax= 1.41D-01  0.00D+00 EMaxC= 1.00D-01 BMatC= 9.36D+00 BMatP= 6.34D+00
 IDIUse=2 WtCom= 0.00D+00 WtEn= 1.00D+00
 EnCoef did   100 forward-backward iterations
 Coeff-En:   0.322D+00 0.685D-02 0.000D+00 0.497D-02 0.528D+00 0.139D+00
 Coeff:      0.322D+00 0.685D-02 0.000D+00 0.497D-02 0.528D+00 0.139D+00
 Gap=     0.183 Goal=   None    Shift=    0.000
 Gap=    -0.095 Goal=   None    Shift=    0.000
 RMSDP=1.11D-02 MaxDP=7.93D-01 DE= 1.62D+00 OVMax= 0.00D+00

 Cycle   7  Pass 0  IDiag  1:
 RMSU=  7.36D-03    CP:  9.64D-01  5.87D-01  4.11D-01  2.86D-01  5.75D-01
                    CP:  3.44D-01
 E= -2714.40875221217     Delta-E=       -4.641048570731 Rises=F Damp=F
 DIIS: error= 4.50D-02 at cycle   7 NSaved=   7.
 NSaved= 7 IEnMin= 7 EnMin= -2714.40875221217     IErMin= 7 ErrMin= 4.50D-02
 ErrMax= 4.50D-02  0.00D+00 EMaxC= 1.00D-01 BMatC= 9.17D-01 BMatP= 6.34D+00
 IDIUse=3 WtCom= 5.50D-01 WtEn= 4.50D-01
 EnCoef did    13 forward-backward iterations
 Coeff-Com: -0.192D+00 0.468D+00 0.120D-01 0.507D-01 0.112D+00 0.213D-02
 Coeff-Com:  0.548D+00
 Coeff-En:   0.128D-01 0.000D+00 0.000D+00 0.000D+00 0.167D+00 0.000D+00
 Coeff-En:   0.820D+00
 Coeff:     -0.996D-01 0.257D+00 0.661D-02 0.279D-01 0.137D+00 0.117D-02
 Coeff:      0.670D+00
 Gap=     0.164 Goal=   None    Shift=    0.000
 Gap=     0.100 Goal=   None    Shift=    0.000
 RMSDP=1.22D-02 MaxDP=7.28D-01 DE=-4.64D+00 OVMax= 0.00D+00

 Cycle   8  Pass 0  IDiag  1:
 RMSU=  9.34D-03    CP:  9.64D-01  6.46D-01  3.50D-01  2.99D-01  7.09D-01
                    CP:  4.19D-02  6.95D-02
 E= -2711.76391518248     Delta-E=        2.644837029692 Rises=F Damp=F
 DIIS: error= 7.76D-02 at cycle   8 NSaved=   8.
 NSaved= 8 IEnMin= 7 EnMin= -2714.40875221217     IErMin= 7 ErrMin= 4.50D-02
 ErrMax= 7.76D-02  0.00D+00 EMaxC= 1.00D-01 BMatC= 5.37D+00 BMatP= 9.17D-01
 IDIUse=2 WtCom= 0.00D+00 WtEn= 1.00D+00
 EnCoef did     5 forward-backward iterations
 Coeff-En:   0.000D+00 0.000D+00 0.000D+00 0.000D+00 0.542D-02 0.000D+00
 Coeff-En:   0.798D+00 0.197D+00
 Coeff:      0.000D+00 0.000D+00 0.000D+00 0.000D+00 0.542D-02 0.000D+00
 Coeff:      0.798D+00 0.197D+00
 Gap=    -0.058 Goal=   None    Shift=    0.000
 Gap=    -0.024 Goal=   None    Shift=    0.000
 RMSDP=1.01D-02 MaxDP=6.47D-01 DE= 2.64D+00 OVMax= 0.00D+00

 Cycle   9  Pass 0  IDiag  1:
 RMSU=  5.80D-03    CP:  9.61D-01  7.82D-01  4.69D-01  3.26D-01  6.34D-01
                    CP:  2.03D-01  4.01D-01  2.33D-01
 E= -2714.29969913123     Delta-E=       -2.535783948748 Rises=F Damp=F
 DIIS: error= 5.78D-02 at cycle   9 NSaved=   9.
 NSaved= 9 IEnMin= 7 EnMin= -2714.40875221217     IErMin= 7 ErrMin= 4.50D-02
 ErrMax= 5.78D-02  0.00D+00 EMaxC= 1.00D-01 BMatC= 1.65D+00 BMatP= 9.17D-01
 IDIUse=2 WtCom= 0.00D+00 WtEn= 1.00D+00
 EnCoef did     5 forward-backward iterations
 Coeff-En:   0.544D-03 0.000D+00 0.000D+00 0.000D+00 0.000D+00 0.000D+00
 Coeff-En:   0.581D+00 0.722D-01 0.347D+00
 Coeff:      0.544D-03 0.000D+00 0.000D+00 0.000D+00 0.000D+00 0.000D+00
 Coeff:      0.581D+00 0.722D-01 0.347D+00
 Gap=     0.135 Goal=   None    Shift=    0.000
 Gap=     0.135 Goal=   None    Shift=    0.000
 RMSDP=1.34D-02 MaxDP=8.21D-01 DE=-2.54D+00 OVMax= 0.00D+00

 Cycle  10  Pass 0  IDiag  1:
 RMSU=  7.71D-03    CP:  9.88D-01  1.80D-01  1.71D-01  7.05D-02  2.75D-01
                    CP: -3.35D-02  1.27D-01  3.22D-01  1.30D-01
 E= -2709.24133907876     Delta-E=        5.058360052465 Rises=F Damp=F
 DIIS: error= 1.59D-01 at cycle  10 NSaved=  10.
 NSaved=10 IEnMin= 7 EnMin= -2714.40875221217     IErMin= 7 ErrMin= 4.50D-02
 ErrMax= 1.59D-01  0.00D+00 EMaxC= 1.00D-01 BMatC= 1.29D+01 BMatP= 9.17D-01
 IDIUse=2 WtCom= 0.00D+00 WtEn= 1.00D+00
 EnCoef did    15 forward-backward iterations
 Coeff-En:   0.000D+00 0.000D+00 0.000D+00 0.000D+00 0.000D+00 0.000D+00
 Coeff-En:   0.426D+00 0.874D-02 0.496D+00 0.696D-01
 Coeff:      0.000D+00 0.000D+00 0.000D+00 0.000D+00 0.000D+00 0.000D+00
 Coeff:      0.426D+00 0.874D-02 0.496D+00 0.696D-01
 Gap=    -0.027 Goal=   None    Shift=    0.000
 Gap=     0.017 Goal=   None    Shift=    0.000
 RMSDP=1.27D-02 MaxDP=8.04D-01 DE= 5.06D+00 OVMax= 0.00D+00

 Cycle  11  Pass 0  IDiag  1:
 RMSU=  4.15D-03    CP:  9.62D-01  6.04D-01  4.46D-01  3.46D-01  6.47D-01
                    CP:  1.76D-01  5.91D-01  2.03D-01  4.74D-01  1.11D-01
 E= -2714.65416129719     Delta-E=       -5.412822218424 Rises=F Damp=F
 DIIS: error= 1.83D-02 at cycle  11 NSaved=  11.
 NSaved=11 IEnMin=11 EnMin= -2714.65416129719     IErMin=11 ErrMin= 1.83D-02
 ErrMax= 1.83D-02  0.00D+00 EMaxC= 1.00D-01 BMatC= 4.52D-01 BMatP= 9.17D-01
 IDIUse=3 WtCom= 8.17D-01 WtEn= 1.83D-01
 EnCoef did     8 forward-backward iterations
 Coeff-Com: -0.320D-01 0.845D-01-0.123D-02-0.490D-02-0.312D-01-0.123D-01
 Coeff-Com:  0.266D+00-0.405D-02 0.314D+00 0.219D-01 0.399D+00
 Coeff-En:   0.000D+00 0.000D+00 0.000D+00 0.000D+00 0.000D+00 0.000D+00
 Coeff-En:   0.187D+00 0.000D+00 0.270D+00 0.499D-01 0.494D+00
 Coeff:     -0.261D-01 0.690D-01-0.100D-02-0.401D-02-0.255D-01-0.100D-01
 Coeff:      0.252D+00-0.331D-02 0.306D+00 0.270D-01 0.416D+00
 Gap=     0.075 Goal=   None    Shift=    0.000
 Gap=     0.068 Goal=   None    Shift=    0.000
 RMSDP=3.24D-03 MaxDP=1.84D-01 DE=-5.41D+00 OVMax= 0.00D+00

 Cycle  12  Pass 0  IDiag  1:
 RMSU=  1.58D-03    CP:  9.62D-01  6.77D-01  4.62D-01  3.36D-01  6.44D-01
                    CP:  1.99D-01  5.53D-01  2.00D-01  7.06D-01  4.81D-02
                    CP:  4.35D-01
 E= -2714.72272236728     Delta-E=       -0.068561070098 Rises=F Damp=F
 DIIS: error= 2.92D-02 at cycle  12 NSaved=  12.
 NSaved=12 IEnMin=12 EnMin= -2714.72272236728     IErMin=11 ErrMin= 1.83D-02
 ErrMax= 2.92D-02  0.00D+00 EMaxC= 1.00D-01 BMatC= 2.61D-01 BMatP= 4.52D-01
 IDIUse=3 WtCom= 8.17D-01 WtEn= 1.83D-01
 EnCoef did     1 forward-backward iterations
 Coeff-Com: -0.708D-01 0.147D+00 0.431D-04-0.631D-02-0.300D-01-0.942D-02
 Coeff-Com:  0.135D+00-0.167D-02 0.305D-01 0.230D-01 0.261D+00 0.523D+00
 Coeff-En:   0.000D+00 0.000D+00 0.000D+00 0.000D+00 0.000D+00 0.000D+00
 Coeff-En:   0.000D+00 0.000D+00 0.000D+00 0.695D-01 0.127D+00 0.803D+00
 Coeff:     -0.579D-01 0.120D+00 0.352D-04-0.516D-02-0.245D-01-0.770D-02
 Coeff:      0.110D+00-0.136D-02 0.249D-01 0.315D-01 0.236D+00 0.574D+00
 Gap=     0.089 Goal=   None    Shift=    0.000
 Gap=     0.071 Goal=   None    Shift=    0.000
 RMSDP=1.09D-03 MaxDP=5.53D-02 DE=-6.86D-02 OVMax= 0.00D+00

 Cycle  13  Pass 0  IDiag  1:
 RMSU=  7.01D-04    CP:  9.62D-01  6.63D-01  4.60D-01  3.31D-01  6.43D-01
                    CP:  2.03D-01  5.61D-01  1.96D-01  6.54D-01  5.95D-02
                    CP:  5.81D-01  7.06D-01
 E= -2714.75855584812     Delta-E=       -0.035833480837 Rises=F Damp=F
 DIIS: error= 2.29D-02 at cycle  13 NSaved=  13.
 NSaved=13 IEnMin=13 EnMin= -2714.75855584812     IErMin=11 ErrMin= 1.83D-02
 ErrMax= 2.29D-02  0.00D+00 EMaxC= 1.00D-01 BMatC= 1.43D-01 BMatP= 2.61D-01
 IDIUse=3 WtCom= 8.17D-01 WtEn= 1.83D-01
 Coeff-Com: -0.687D-01 0.141D+00-0.162D-02-0.148D-02-0.283D-01-0.142D-01
 Coeff-Com:  0.117D+00 0.123D-01-0.357D-01 0.242D-01 0.589D-01 0.303D+00
 Coeff-Com:  0.494D+00
 Coeff-En:   0.000D+00 0.000D+00 0.000D+00 0.000D+00 0.000D+00 0.000D+00
 Coeff-En:   0.000D+00 0.000D+00 0.000D+00 0.599D-01 0.000D+00 0.000D+00
 Coeff-En:   0.940D+00
 Coeff:     -0.562D-01 0.115D+00-0.132D-02-0.121D-02-0.232D-01-0.116D-01
 Coeff:      0.959D-01 0.101D-01-0.292D-01 0.307D-01 0.481D-01 0.247D+00
 Coeff:      0.575D+00
 Gap=     0.085 Goal=   None    Shift=    0.000
 Gap=     0.067 Goal=   None    Shift=    0.000
 RMSDP=4.79D-04 MaxDP=1.45D-02 DE=-3.58D-02 OVMax= 0.00D+00

 Cycle  14  Pass 0  IDiag  1:
 RMSU=  2.82D-04    CP:  9.62D-01  6.63D-01  4.59D-01  3.31D-01  6.40D-01
                    CP:  2.04D-01  5.71D-01  1.93D-01  6.60D-01  5.59D-02
                    CP:  5.46D-01  8.95D-01  7.47D-01
 E= -2714.76634611200     Delta-E=       -0.007790263879 Rises=F Damp=F
 DIIS: error= 2.15D-02 at cycle  14 NSaved=  14.
 NSaved=14 IEnMin=14 EnMin= -2714.76634611200     IErMin=11 ErrMin= 1.83D-02
 ErrMax= 2.15D-02  0.00D+00 EMaxC= 1.00D-01 BMatC= 1.20D-01 BMatP= 1.43D-01
 IDIUse=3 WtCom= 8.17D-01 WtEn= 1.83D-01
 Coeff-Com: -0.531D-01 0.112D+00-0.270D-02 0.288D-04-0.231D-01-0.163D-01
 Coeff-Com:  0.991D-01 0.196D-01-0.177D-01 0.229D-01-0.231D-01-0.181D+00
 Coeff-Com:  0.877D-01 0.976D+00
 Coeff-En:   0.000D+00 0.000D+00 0.000D+00 0.000D+00 0.000D+00 0.000D+00
 Coeff-En:   0.000D+00 0.000D+00 0.000D+00 0.560D-01 0.000D+00 0.000D+00
 Coeff-En:   0.000D+00 0.944D+00
 Coeff:     -0.434D-01 0.914D-01-0.220D-02 0.236D-04-0.188D-01-0.133D-01
 Coeff:      0.810D-01 0.160D-01-0.145D-01 0.289D-01-0.188D-01-0.148D+00
 Coeff:      0.716D-01 0.970D+00
 Gap=     0.079 Goal=   None    Shift=    0.000
 Gap=     0.060 Goal=   None    Shift=    0.000
 RMSDP=4.22D-04 MaxDP=1.41D-02 DE=-7.79D-03 OVMax= 0.00D+00

 Cycle  15  Pass 0  IDiag  1:
 RMSU=  3.30D-04    CP:  9.62D-01  6.59D-01  4.57D-01  3.28D-01  6.35D-01
                    CP:  2.07D-01  5.80D-01  1.92D-01  6.54D-01  5.88D-02
                    CP:  5.75D-01  8.61D-01  1.02D+00  9.01D-01
 E= -2714.78054893067     Delta-E=       -0.014202818667 Rises=F Damp=F
 DIIS: error= 1.69D-02 at cycle  15 NSaved=  15.
 NSaved=15 IEnMin=15 EnMin= -2714.78054893067     IErMin=15 ErrMin= 1.69D-02
 ErrMax= 1.69D-02  0.00D+00 EMaxC= 1.00D-01 BMatC= 7.98D-02 BMatP= 1.20D-01
 IDIUse=3 WtCom= 8.31D-01 WtEn= 1.69D-01
 Coeff-Com: -0.137D-01 0.264D-01-0.280D-02-0.204D-02-0.393D-02-0.117D-01
 Coeff-Com:  0.532D-01 0.174D-01 0.677D-01 0.145D-01 0.508D-01-0.517D+00
 Coeff-Com: -0.157D+01 0.726D+00 0.216D+01
 Coeff-En:   0.000D+00 0.000D+00 0.000D+00 0.000D+00 0.000D+00 0.000D+00
 Coeff-En:   0.000D+00 0.000D+00 0.000D+00 0.433D-01 0.000D+00 0.000D+00
 Coeff-En:   0.000D+00 0.000D+00 0.957D+00
 Coeff:     -0.114D-01 0.219D-01-0.233D-02-0.170D-02-0.326D-02-0.971D-02
 Coeff:      0.442D-01 0.145D-01 0.562D-01 0.193D-01 0.422D-01-0.429D+00
 Coeff:     -0.130D+01 0.603D+00 0.196D+01
 Gap=     0.060 Goal=   None    Shift=    0.000
 Gap=     0.031 Goal=   None    Shift=    0.000
 RMSDP=1.63D-03 MaxDP=7.68D-02 DE=-1.42D-02 OVMax= 0.00D+00

 Failed to achieve initial convergence to 1.0D-08 in 16 cycles.
 Switch to full accuracy anyway.
 Cycle  16  Pass 1  IDiag  1:
 E= -2714.81067531853     Delta-E=       -0.030126387864 Rises=F Damp=F
 DIIS: error= 1.66D-03 at cycle   1 NSaved=   1.
 NSaved= 1 IEnMin= 1 EnMin= -2714.81067531853     IErMin= 1 ErrMin= 1.66D-03
 ErrMax= 1.66D-03  0.00D+00 EMaxC= 1.00D-01 BMatC= 4.49D-03 BMatP= 4.49D-03
 IDIUse=3 WtCom= 9.83D-01 WtEn= 1.66D-02
 Coeff-Com:  0.100D+01
 Coeff-En:   0.100D+01
 Coeff:      0.100D+01
 Gap=     0.071 Goal=   None    Shift=    0.000
 Gap=     0.034 Goal=   None    Shift=    0.000
 RMSDP=1.63D-03 MaxDP=7.68D-02 DE=-3.01D-02 OVMax= 0.00D+00

 Cycle  17  Pass 1  IDiag  1:
 RMSU=  9.89D-04    CP:  1.00D+00
 E= -2714.80773564815     Delta-E=        0.002939670376 Rises=F Damp=F
 DIIS: error= 3.35D-03 at cycle   2 NSaved=   2.
 NSaved= 2 IEnMin= 1 EnMin= -2714.81067531853     IErMin= 1 ErrMin= 1.66D-03
 ErrMax= 3.35D-03  0.00D+00 EMaxC= 1.00D-01 BMatC= 1.72D-02 BMatP= 4.49D-03
 IDIUse=3 WtCom= 1.47D-01 WtEn= 8.53D-01
 Coeff-Com:  0.670D+00 0.330D+00
 Coeff-En:   0.689D+00 0.311D+00
 Coeff:      0.686D+00 0.314D+00
 Gap=     0.066 Goal=   None    Shift=    0.000
 Gap=     0.022 Goal=   None    Shift=    0.000
 RMSDP=8.26D-04 MaxDP=5.07D-02 DE= 2.94D-03 OVMax= 0.00D+00

 Cycle  18  Pass 1  IDiag  1:
 RMSU=  7.82D-04    CP:  1.00D+00  7.32D-01
 E= -2714.81207493804     Delta-E=       -0.004339289888 Rises=F Damp=F
 DIIS: error= 4.24D-03 at cycle   3 NSaved=   3.
 NSaved= 3 IEnMin= 3 EnMin= -2714.81207493804     IErMin= 1 ErrMin= 1.66D-03
 ErrMax= 4.24D-03  0.00D+00 EMaxC= 1.00D-01 BMatC= 6.74D-03 BMatP= 4.49D-03
 IDIUse=3 WtCom= 1.33D-01 WtEn= 8.67D-01
 Coeff-Com:  0.601D+00 0.308D+00 0.906D-01
 Coeff-En:   0.000D+00 0.200D+00 0.800D+00
 Coeff:      0.801D-01 0.215D+00 0.705D+00
 Gap=     0.107 Goal=   None    Shift=    0.000
 Gap=     0.045 Goal=   None    Shift=    0.000
 RMSDP=1.44D-03 MaxDP=9.59D-02 DE=-4.34D-03 OVMax= 0.00D+00

 Cycle  19  Pass 1  IDiag  1:
 RMSU=  1.04D-03    CP:  9.99D-01  6.14D-01 -2.76D-01
 E= -2714.79224577641     Delta-E=        0.019829161633 Rises=F Damp=F
 DIIS: error= 1.33D-02 at cycle   4 NSaved=   4.
 NSaved= 4 IEnMin= 3 EnMin= -2714.81207493804     IErMin= 1 ErrMin= 1.66D-03
 ErrMax= 1.33D-02  0.00D+00 EMaxC= 1.00D-01 BMatC= 6.17D-02 BMatP= 4.49D-03
 IDIUse=2 WtCom= 0.00D+00 WtEn= 1.00D+00
 Coeff-En:   0.000D+00 0.000D+00 0.818D+00 0.182D+00
 Coeff:      0.000D+00 0.000D+00 0.818D+00 0.182D+00
 Gap=     0.091 Goal=   None    Shift=    0.000
 Gap=     0.031 Goal=   None    Shift=    0.000
 RMSDP=9.78D-04 MaxDP=6.88D-02 DE= 1.98D-02 OVMax= 0.00D+00

 Cycle  20  Pass 1  IDiag  1:
 RMSU=  2.70D-04    CP:  1.00D+00  9.75D-01  6.36D-01  5.21D-01
 E= -2714.81243108515     Delta-E=       -0.020185308746 Rises=F Damp=F
 DIIS: error= 4.50D-03 at cycle   5 NSaved=   5.
 NSaved= 5 IEnMin= 5 EnMin= -2714.81243108515     IErMin= 1 ErrMin= 1.66D-03
 ErrMax= 4.50D-03  0.00D+00 EMaxC= 1.00D-01 BMatC= 7.01D-03 BMatP= 4.49D-03
 IDIUse=3 WtCom= 1.30D-01 WtEn= 8.70D-01
 Coeff-Com:  0.129D+00 0.435D-01 0.492D+00 0.858D-01 0.249D+00
 Coeff-En:   0.000D+00 0.000D+00 0.473D+00 0.000D+00 0.527D+00
 Coeff:      0.168D-01 0.565D-02 0.476D+00 0.111D-01 0.491D+00
 Gap=     0.080 Goal=   None    Shift=    0.000
 Gap=     0.022 Goal=   None    Shift=    0.000
 RMSDP=1.01D-03 MaxDP=8.96D-02 DE=-2.02D-02 OVMax= 0.00D+00

 Cycle  21  Pass 1  IDiag  1:
 RMSU=  2.77D-04    CP:  1.00D+00  1.04D+00  1.86D+00  3.63D-01  1.09D+00
 E= -2714.81270945806     Delta-E=       -0.000278372902 Rises=F Damp=F
 DIIS: error= 5.25D-03 at cycle   6 NSaved=   6.
 NSaved= 6 IEnMin= 6 EnMin= -2714.81270945806     IErMin= 1 ErrMin= 1.66D-03
 ErrMax= 5.25D-03  0.00D+00 EMaxC= 1.00D-01 BMatC= 1.05D-02 BMatP= 4.49D-03
 IDIUse=3 WtCom= 1.30D-01 WtEn= 8.70D-01
 Coeff-Com:  0.948D-02 0.150D-01 0.296D+00 0.823D-01 0.356D+00 0.241D+00
 Coeff-En:   0.000D+00 0.000D+00 0.000D+00 0.000D+00 0.485D+00 0.515D+00
 Coeff:      0.123D-02 0.195D-02 0.385D-01 0.107D-01 0.469D+00 0.479D+00
 Gap=     0.095 Goal=   None    Shift=    0.000
 Gap=     0.027 Goal=   None    Shift=    0.000
 RMSDP=5.10D-04 MaxDP=2.88D-02 DE=-2.78D-04 OVMax= 0.00D+00

 Cycle  22  Pass 1  IDiag  1:
 RMSU=  1.45D-04    CP:  9.99D-01  1.23D+00  1.48D+00  6.81D-01  1.45D+00
                    CP:  9.66D-01
 E= -2714.81611548921     Delta-E=       -0.003406031157 Rises=F Damp=F
 DIIS: error= 1.61D-03 at cycle   7 NSaved=   7.
 NSaved= 7 IEnMin= 7 EnMin= -2714.81611548921     IErMin= 7 ErrMin= 1.61D-03
 ErrMax= 1.61D-03  0.00D+00 EMaxC= 1.00D-01 BMatC= 5.12D-04 BMatP= 4.49D-03
 IDIUse=3 WtCom= 9.84D-01 WtEn= 1.61D-02
 Coeff-Com: -0.416D-01-0.110D-01-0.601D-01 0.198D-02 0.331D+00 0.375D+00
 Coeff-Com:  0.405D+00
 Coeff-En:   0.000D+00 0.000D+00 0.000D+00 0.000D+00 0.000D+00 0.281D-01
 Coeff-En:   0.972D+00
 Coeff:     -0.410D-01-0.108D-01-0.591D-01 0.195D-02 0.326D+00 0.369D+00
 Coeff:      0.414D+00
 Gap=     0.093 Goal=   None    Shift=    0.000
 Gap=     0.023 Goal=   None    Shift=    0.000
 RMSDP=8.17D-04 MaxDP=8.00D-02 DE=-3.41D-03 OVMax= 0.00D+00

 Cycle  23  Pass 1  IDiag  1:
 RMSU=  1.72D-04    CP:  9.99D-01  1.45D+00  2.32D+00  6.43D-01  2.17D+00
                    CP:  2.24D+00  6.30D-01
 E= -2714.81418527217     Delta-E=        0.001930217046 Rises=F Damp=F
 DIIS: error= 5.69D-03 at cycle   8 NSaved=   8.
 NSaved= 8 IEnMin= 7 EnMin= -2714.81611548921     IErMin= 7 ErrMin= 1.61D-03
 ErrMax= 5.69D-03  0.00D+00 EMaxC= 1.00D-01 BMatC= 1.07D-02 BMatP= 5.12D-04
 IDIUse=3 WtCom= 9.84D-01 WtEn= 1.61D-02
 Coeff-Com:  0.780D-01 0.176D-01-0.270D-01 0.771D-01 0.154D-01-0.140D+00
 Coeff-Com:  0.551D+00 0.428D+00
 Coeff-En:   0.000D+00 0.000D+00 0.000D+00 0.000D+00 0.000D+00 0.000D+00
 Coeff-En:   0.745D+00 0.255D+00
 Coeff:      0.767D-01 0.174D-01-0.266D-01 0.758D-01 0.151D-01-0.138D+00
 Coeff:      0.554D+00 0.425D+00
 Gap=     0.096 Goal=   None    Shift=    0.000
 Gap=     0.023 Goal=   None    Shift=    0.000
 RMSDP=1.97D-04 MaxDP=1.22D-02 DE= 1.93D-03 OVMax= 0.00D+00

 Cycle  24  Pass 1  IDiag  1:
 RMSU=  4.81D-05    CP:  9.99D-01  1.50D+00  2.40D+00  7.28D-01  2.44D+00
                    CP:  2.68D+00  8.83D-01  1.08D+00
 E= -2714.81479829203     Delta-E=       -0.000613019857 Rises=F Damp=F
 DIIS: error= 5.56D-03 at cycle   9 NSaved=   9.
 NSaved= 9 IEnMin= 7 EnMin= -2714.81611548921     IErMin= 7 ErrMin= 1.61D-03
 ErrMax= 5.56D-03  0.00D+00 EMaxC= 1.00D-01 BMatC= 9.76D-03 BMatP= 5.12D-04
 IDIUse=3 WtCom= 9.84D-01 WtEn= 1.61D-02
 Coeff-Com:  0.680D-01-0.444D-01 0.162D+00 0.925D-01-0.428D-02-0.438D+00
 Coeff-Com:  0.567D+00-0.134D-01 0.611D+00
 Coeff-En:   0.000D+00 0.000D+00 0.000D+00 0.000D+00 0.000D+00 0.000D+00
 Coeff-En:   0.698D+00 0.000D+00 0.302D+00
 Coeff:      0.669D-01-0.437D-01 0.160D+00 0.910D-01-0.421D-02-0.431D+00
 Coeff:      0.569D+00-0.132D-01 0.606D+00
 Gap=     0.099 Goal=   None    Shift=    0.000
 Gap=     0.023 Goal=   None    Shift=    0.000
 RMSDP=1.65D-04 MaxDP=1.05D-02 DE=-6.13D-04 OVMax= 0.00D+00

 Cycle  25  Pass 1  IDiag  1:
 RMSU=  2.87D-05    CP:  9.99D-01  1.56D+00  2.48D+00  8.00D-01  2.60D+00
                    CP:  3.00D+00  1.15D+00  1.36D+00  1.33D+00
 E= -2714.81518451923     Delta-E=       -0.000386227203 Rises=F Damp=F
 DIIS: error= 5.50D-03 at cycle  10 NSaved=  10.
 NSaved=10 IEnMin= 7 EnMin= -2714.81611548921     IErMin= 7 ErrMin= 1.61D-03
 ErrMax= 5.50D-03  0.00D+00 EMaxC= 1.00D-01 BMatC= 9.39D-03 BMatP= 5.12D-04
 IDIUse=3 WtCom= 9.84D-01 WtEn= 1.61D-02
 Coeff-Com:  0.102D+00-0.126D-01 0.857D-01 0.987D-01-0.654D-01-0.430D+00
 Coeff-Com:  0.605D+00 0.186D+00 0.745D+00-0.314D+00
 Coeff-En:   0.000D+00 0.000D+00 0.000D+00 0.000D+00 0.000D+00 0.000D+00
 Coeff-En:   0.663D+00 0.000D+00 0.000D+00 0.337D+00
 Coeff:      0.100D+00-0.124D-01 0.843D-01 0.971D-01-0.643D-01-0.423D+00
 Coeff:      0.606D+00 0.183D+00 0.733D+00-0.303D+00
 Gap=     0.098 Goal=   None    Shift=    0.000
 Gap=     0.023 Goal=   None    Shift=    0.000
 RMSDP=4.95D-05 MaxDP=3.64D-03 DE=-3.86D-04 OVMax= 0.00D+00

 Cycle  26  Pass 1  IDiag  1:
 RMSU=  1.32D-05    CP:  9.99D-01  1.54D+00  2.45D+00  7.81D-01  2.54D+00
                    CP:  2.91D+00  1.12D+00  1.33D+00  9.67D-01  9.76D-01
 E= -2714.81504223743     Delta-E=        0.000142281803 Rises=F Damp=F
 DIIS: error= 5.54D-03 at cycle  11 NSaved=  11.
 NSaved=11 IEnMin= 7 EnMin= -2714.81611548921     IErMin= 7 ErrMin= 1.61D-03
 ErrMax= 5.54D-03  0.00D+00 EMaxC= 1.00D-01 BMatC= 9.57D-03 BMatP= 5.12D-04
 IDIUse=3 WtCom= 9.84D-01 WtEn= 1.61D-02
 Rare condition: small coef for last iteration:  0.000D+00
 Coeff-Com:  0.380D-01-0.190D-01 0.103D+00 0.900D-01 0.676D-01-0.200D+00
 Coeff-Com:  0.454D+00 0.190D+00-0.103D-01 0.240D+01-0.212D+01
 Coeff-En:   0.000D+00 0.000D+00 0.000D+00 0.000D+00 0.000D+00 0.000D+00
 Coeff-En:   0.676D+00 0.000D+00 0.000D+00 0.000D+00 0.324D+00
 Coeff:      0.380D-01-0.190D-01 0.103D+00 0.900D-01 0.676D-01-0.200D+00
 Coeff:      0.454D+00 0.190D+00-0.103D-01 0.240D+01-0.212D+01
 Gap=     0.099 Goal=   None    Shift=    0.000
 Gap=     0.022 Goal=   None    Shift=    0.000
 RMSDP=7.96D-05 MaxDP=7.16D-03 DE= 1.42D-04 OVMax= 0.00D+00

 Cycle  27  Pass 1  IDiag  1:
 RMSU=  2.11D-05    CP:  9.99D-01  1.57D+00  2.50D+00  7.98D-01  2.58D+00
                    CP:  3.00D+00  1.13D+00  1.46D+00  1.56D+00  1.73D+00
                    CP: -6.12D-01
 E= -2714.81503082875     Delta-E=        0.000011408673 Rises=F Damp=F
 DIIS: error= 5.67D-03 at cycle  12 NSaved=  12.
 NSaved=12 IEnMin= 7 EnMin= -2714.81611548921     IErMin= 7 ErrMin= 1.61D-03
 ErrMax= 5.67D-03  0.00D+00 EMaxC= 1.00D-01 BMatC= 9.98D-03 BMatP= 5.12D-04
 IDIUse=3 WtCom= 9.84D-01 WtEn= 1.61D-02
 EnCoef did   100 forward-backward iterations
 Rare condition: small coef for last iteration:  0.000D+00
 Coeff-Com:  0.344D-01-0.101D-01 0.859D-01 0.859D-01 0.943D-01-0.122D+00
 Coeff-Com:  0.428D+00 0.283D+00-0.202D+00 0.322D+01-0.349D+01 0.596D+00
 Coeff-En:   0.000D+00 0.000D+00 0.000D+00 0.000D+00 0.000D+00 0.000D+00
 Coeff-En:   0.679D+00 0.000D+00 0.000D+00 0.000D+00 0.000D+00 0.321D+00
 Coeff:      0.344D-01-0.101D-01 0.859D-01 0.859D-01 0.943D-01-0.122D+00
 Coeff:      0.428D+00 0.283D+00-0.202D+00 0.322D+01-0.349D+01 0.596D+00
 Gap=     0.099 Goal=   None    Shift=    0.000
 Gap=     0.022 Goal=   None    Shift=    0.000
 RMSDP=3.99D-05 MaxDP=2.67D-03 DE= 1.14D-05 OVMax= 0.00D+00

 Cycle  28  Pass 1  IDiag  1:
 RMSU=  1.43D-05    CP:  9.99D-01  1.57D+00  2.50D+00  7.96D-01  2.56D+00
                    CP:  3.00D+00  1.12D+00  1.46D+00  2.02D+00  2.24D+00
                    CP: -2.23D+00  1.67D+00
 E= -2714.81510605207     Delta-E=       -0.000075223322 Rises=F Damp=F
 DIIS: error= 5.61D-03 at cycle  13 NSaved=  13.
 NSaved=13 IEnMin= 7 EnMin= -2714.81611548921     IErMin= 7 ErrMin= 1.61D-03
 ErrMax= 5.61D-03  0.00D+00 EMaxC= 1.00D-01 BMatC= 9.76D-03 BMatP= 5.12D-04
 IDIUse=3 WtCom= 9.84D-01 WtEn= 1.61D-02
 EnCoef did   100 forward-backward iterations
 Coeff-Com:  0.136D-01-0.138D-01 0.902D-01 0.848D-01 0.131D+00-0.633D-01
 Coeff-Com:  0.390D+00 0.256D+00-0.354D+00 0.370D+01-0.361D+01 0.948D+00
 Coeff-Com: -0.567D+00
 Coeff-En:   0.000D+00 0.000D+00 0.000D+00 0.000D+00 0.000D+00 0.000D+00
 Coeff-En:   0.663D+00 0.000D+00 0.000D+00 0.325D+00 0.616D-02 0.000D+00
 Coeff-En:   0.525D-02
 Coeff:      0.133D-01-0.136D-01 0.887D-01 0.834D-01 0.129D+00-0.623D-01
 Coeff:      0.395D+00 0.252D+00-0.348D+00 0.364D+01-0.355D+01 0.932D+00
 Coeff:     -0.558D+00
 Gap=     0.100 Goal=   None    Shift=    0.000
 Gap=     0.023 Goal=   None    Shift=    0.000
 RMSDP=3.26D-05 MaxDP=2.45D-03 DE=-7.52D-05 OVMax= 0.00D+00

 Cycle  29  Pass 1  IDiag  1:
 RMSU=  7.50D-06    CP:  9.99D-01  1.57D+00  2.49D+00  8.02D-01  2.57D+00
                    CP:  3.00D+00  1.12D+00  1.44D+00  1.75D+00  1.80D+00
                    CP: -1.21D+00  8.01D-01  5.92D-01
 E= -2714.81527608302     Delta-E=       -0.000170030949 Rises=F Damp=F
 DIIS: error= 5.45D-03 at cycle  14 NSaved=  14.
 NSaved=14 IEnMin= 7 EnMin= -2714.81611548921     IErMin= 7 ErrMin= 1.61D-03
 ErrMax= 5.45D-03  0.00D+00 EMaxC= 1.00D-01 BMatC= 9.17D-03 BMatP= 5.12D-04
 IDIUse=3 WtCom= 9.84D-01 WtEn= 1.61D-02
 Coeff-Com: -0.535D-01-0.987D-02 0.145D+00 0.713D-01 0.275D+00 0.232D+00
 Coeff-Com:  0.145D+00 0.381D+00-0.148D+01 0.760D+01-0.763D+01 0.350D+01
 Coeff-Com: -0.601D+01 0.384D+01
 Coeff-En:   0.000D+00 0.000D+00 0.000D+00 0.000D+00 0.000D+00 0.000D+00
 Coeff-En:   0.653D+00 0.000D+00 0.000D+00 0.000D+00 0.000D+00 0.000D+00
 Coeff-En:   0.000D+00 0.347D+00
 Coeff:     -0.526D-01-0.972D-02 0.143D+00 0.702D-01 0.271D+00 0.229D+00
 Coeff:      0.153D+00 0.375D+00-0.146D+01 0.747D+01-0.751D+01 0.345D+01
 Coeff:     -0.591D+01 0.379D+01
 Gap=     0.102 Goal=   None    Shift=    0.000
 Gap=     0.023 Goal=   None    Shift=    0.000
 RMSDP=1.12D-04 MaxDP=7.13D-03 DE=-1.70D-04 OVMax= 0.00D+00

 Cycle  30  Pass 1  IDiag  1:
 RMSU=  3.81D-05    CP:  9.99D-01  1.58D+00  2.51D+00  8.36D-01  2.65D+00
                    CP:  3.00D+00  1.10D+00  1.41D+00  1.43D+00  5.16D-01
                    CP:  8.50D-01 -1.54D+00 -3.00D+00  2.34D+00
 E= -2714.81572970766     Delta-E=       -0.000453624636 Rises=F Damp=F
 DIIS: error= 5.11D-03 at cycle  15 NSaved=  15.
 NSaved=15 IEnMin= 7 EnMin= -2714.81611548921     IErMin= 7 ErrMin= 1.61D-03
 ErrMax= 5.11D-03  0.00D+00 EMaxC= 1.00D-01 BMatC= 8.01D-03 BMatP= 5.12D-04
 IDIUse=3 WtCom= 9.84D-01 WtEn= 1.61D-02
 Coeff-Com:  0.374D-01 0.180D-01 0.289D+00 0.921D-01 0.122D+00 0.123D-03
 Coeff-Com:  0.253D-01 0.674D+00-0.154D+01 0.739D+01-0.970D+01 0.339D+01
 Coeff-Com: -0.770D+01 0.631D+01 0.160D+01
 Coeff-En:   0.000D+00 0.000D+00 0.000D+00 0.000D+00 0.000D+00 0.000D+00
 Coeff-En:   0.590D+00 0.000D+00 0.000D+00 0.000D+00 0.000D+00 0.000D+00
 Coeff-En:   0.000D+00 0.000D+00 0.410D+00
 Coeff:      0.368D-01 0.177D-01 0.285D+00 0.906D-01 0.120D+00 0.121D-03
 Coeff:      0.345D-01 0.663D+00-0.152D+01 0.727D+01-0.954D+01 0.333D+01
 Coeff:     -0.758D+01 0.621D+01 0.158D+01
 Gap=     0.105 Goal=   None    Shift=    0.000
 Gap=     0.022 Goal=   None    Shift=    0.000
 RMSDP=1.53D-04 MaxDP=9.01D-03 DE=-4.54D-04 OVMax= 0.00D+00

 Cycle  31  Pass 1  IDiag  1:
 RMSU=  7.96D-05    CP:  9.99D-01  1.59D+00  2.54D+00  8.89D-01  2.74D+00
                    CP:  3.00D+00  1.21D+00  1.51D+00  1.55D+00 -7.32D-02
                    CP:  3.00D+00 -3.00D+00 -3.00D+00  3.00D+00  3.00D+00
 E= -2714.81653050542     Delta-E=       -0.000800797758 Rises=F Damp=F
 DIIS: error= 4.41D-03 at cycle  16 NSaved=  16.
 NSaved=16 IEnMin=16 EnMin= -2714.81653050542     IErMin= 7 ErrMin= 1.61D-03
 ErrMax= 4.41D-03  0.00D+00 EMaxC= 1.00D-01 BMatC= 5.80D-03 BMatP= 5.12D-04
 IDIUse=3 WtCom= 9.84D-01 WtEn= 1.61D-02
 Coeff-Com:  0.456D-01 0.187D-01 0.289D+00 0.943D-01 0.101D+00-0.359D-01
 Coeff-Com:  0.365D-01 0.676D+00-0.145D+01 0.702D+01-0.934D+01 0.309D+01
 Coeff-Com: -0.721D+01 0.599D+01 0.158D+01 0.904D-01
 Coeff-En:   0.000D+00 0.000D+00 0.000D+00 0.000D+00 0.000D+00 0.000D+00
 Coeff-En:   0.283D+00 0.000D+00 0.000D+00 0.000D+00 0.000D+00 0.000D+00
 Coeff-En:   0.000D+00 0.000D+00 0.000D+00 0.717D+00
 Coeff:      0.449D-01 0.184D-01 0.284D+00 0.927D-01 0.994D-01-0.353D-01
 Coeff:      0.404D-01 0.665D+00-0.142D+01 0.690D+01-0.919D+01 0.304D+01
 Coeff:     -0.709D+01 0.590D+01 0.155D+01 0.101D+00
 Gap=     0.106 Goal=   None    Shift=    0.000
 Gap=     0.022 Goal=   None    Shift=    0.000
 RMSDP=1.90D-05 MaxDP=8.51D-04 DE=-8.01D-04 OVMax= 0.00D+00

 Cycle  32  Pass 1  IDiag  1:
 RMSU=  9.03D-06    CP:  9.99D-01  1.59D+00  2.53D+00  9.00D-01  2.75D+00
                    CP:  3.00D+00  1.24D+00  1.51D+00  1.59D+00 -1.12D-01
                    CP:  3.00D+00 -3.00D+00 -3.00D+00  3.00D+00  3.00D+00
                    CP:  1.11D+00
 E= -2714.81670617506     Delta-E=       -0.000175669642 Rises=F Damp=F
 DIIS: error= 4.23D-03 at cycle  17 NSaved=  17.
 NSaved=17 IEnMin=17 EnMin= -2714.81670617506     IErMin= 7 ErrMin= 1.61D-03
 ErrMax= 4.23D-03  0.00D+00 EMaxC= 1.00D-01 BMatC= 5.28D-03 BMatP= 5.12D-04
 IDIUse=3 WtCom= 9.84D-01 WtEn= 1.61D-02
 Large coefficients: NSaved= 17 BigCof=   12.60 CofMax=   10.00 Det=-3.85D-08
 Inversion failed.  Reducing to 16 matrices.
 Coeff-Com: -0.162D+00-0.396D-01 0.195D-01 0.399D+00 0.551D+00-0.162D+00
 Coeff-Com:  0.642D+00-0.204D+01 0.928D+01-0.973D+01 0.266D+01-0.449D+01
 Coeff-Com:  0.304D+01 0.305D+00-0.927D+01 0.100D+02
 Coeff-En:   0.000D+00 0.000D+00 0.000D+00 0.000D+00 0.000D+00 0.772D-01
 Coeff-En:   0.000D+00 0.000D+00 0.000D+00 0.000D+00 0.000D+00 0.000D+00
 Coeff-En:   0.000D+00 0.000D+00 0.000D+00 0.923D+00
 Coeff:     -0.160D+00-0.389D-01 0.192D-01 0.393D+00 0.542D+00-0.158D+00
 Coeff:      0.632D+00-0.201D+01 0.913D+01-0.957D+01 0.262D+01-0.442D+01
 Coeff:      0.299D+01 0.300D+00-0.912D+01 0.985D+01
 Gap=     0.118 Goal=   None    Shift=    0.000
 Gap=     0.023 Goal=   None    Shift=    0.000
 RMSDP=5.83D-04 MaxDP=4.41D-02 DE=-1.76D-04 OVMax= 0.00D+00

 Cycle  33  Pass 1  IDiag  1:
 RMSU=  2.85D-04    CP:  9.98D-01  1.79D+00  2.87D+00  1.13D+00  3.00D+00
                    CP:  3.00D+00  1.37D+00  2.46D+00  2.61D+00  2.47D-01
                    CP: -3.76D-01  1.25D-01 -3.00D+00 -2.93D+00  3.00D+00
                    CP:  3.00D+00  3.00D+00
 E= -2714.81751808862     Delta-E=       -0.000811913560 Rises=F Damp=F
 DIIS: error= 4.38D-03 at cycle  18 NSaved=  17.
 NSaved=17 IEnMin=17 EnMin= -2714.81751808862     IErMin= 6 ErrMin= 1.61D-03
 ErrMax= 4.38D-03  0.00D+00 EMaxC= 1.00D-01 BMatC= 5.54D-03 BMatP= 5.12D-04
 IDIUse=3 WtCom= 9.84D-01 WtEn= 1.61D-02
 Large coefficients: NSaved= 17 BigCof=   12.50 CofMax=   10.00 Det=-4.12D-08
 Inversion failed.  Reducing to 16 matrices.
 Large coefficients: NSaved= 16 BigCof=   12.26 CofMax=   10.00 Det=-4.20D-08
 Inversion failed.  Reducing to 15 matrices.
 Large coefficients: NSaved= 15 BigCof=   12.50 CofMax=   10.00 Det=-4.20D-08
 Inversion failed.  Reducing to 14 matrices.
 Large coefficients: NSaved= 14 BigCof=   13.11 CofMax=   10.00 Det=-4.82D-08
 Inversion failed.  Reducing to 13 matrices.
 Large coefficients: NSaved= 13 BigCof=   19.12 CofMax=   10.00 Det=-6.26D-08
 Inversion failed.  Reducing to 12 matrices.
 Large coefficients: NSaved= 12 BigCof=   19.17 CofMax=   10.00 Det=-6.35D-08
 Inversion failed.  Reducing to 11 matrices.
 Large coefficients: NSaved= 11 BigCof=   17.65 CofMax=   10.00 Det=-6.41D-08
 Inversion failed.  Reducing to 10 matrices.
 Large coefficients: NSaved= 10 BigCof=   17.05 CofMax=   10.00 Det=-9.95D-08
 Inversion failed.  Reducing to  9 matrices.
 Large coefficients: NSaved=  9 BigCof=   15.38 CofMax=   10.00 Det=-1.08D-07
 Inversion failed.  Reducing to  8 matrices.
 Large coefficients: NSaved=  8 BigCof=   16.06 CofMax=   10.00 Det=-1.09D-07
 Inversion failed.  Reducing to  7 matrices.
 Large coefficients: NSaved=  7 BigCof=   18.11 CofMax=   10.00 Det=-1.41D-07
 Inversion failed.  Reducing to  6 matrices.
 Large coefficients: NSaved=  6 BigCof=   11.96 CofMax=   10.00 Det=-2.29D-07
 Inversion failed.  Reducing to  5 matrices.
 Large coefficients: NSaved=  5 BigCof=   13.13 CofMax=   10.00 Det=-2.41D-07
 Inversion failed.  Reducing to  4 matrices.
 Large coefficients: NSaved=  4 BigCof=   13.53 CofMax=   10.00 Det=-2.43D-07
 Inversion failed.  Reducing to  3 matrices.
 Large coefficients: NSaved=  3 BigCof=   21.16 CofMax=   10.00 Det=-1.15D-05
 Inversion failed.  Reducing to  2 matrices.
 Coeff-Com:  0.339D+01-0.239D+01
 Coeff-En:   0.000D+00 0.100D+01
 Coeff:      0.333D+01-0.233D+01
 Gap=     0.122 Goal=   None    Shift=    0.000
 Gap=     0.040 Goal=   None    Shift=    0.000
 RMSDP=2.87D-03 MaxDP=2.80D-01 DE=-8.12D-04 OVMax= 0.00D+00

 Cycle  34  Pass 1  IDiag  1:
 RMSU=  1.62D-04    CP:  9.99D-01  1.03D+00 -1.43D-01  1.35D+00  5.34D-01
                    CP:  3.94D-01  1.41D+00 -9.76D-02  4.23D-01  2.23D-02
                    CP:  6.44D-01 -2.19D+00 -5.67D-01  6.87D-01  3.74D-01
                    CP: -2.28D-01 -1.65D+00  9.80D-02
 E= -2714.77829516565     Delta-E=        0.039222922964 Rises=F Damp=F
 DIIS: error= 1.81D-02 at cycle  19 NSaved=   3.
 NSaved= 3 IEnMin= 2 EnMin= -2714.81751808862     IErMin= 1 ErrMin= 4.23D-03
 ErrMax= 1.81D-02  0.00D+00 EMaxC= 1.00D-01 BMatC= 1.07D-01 BMatP= 5.28D-03
 IDIUse=2 WtCom= 0.00D+00 WtEn= 1.00D+00
 Coeff-En:   0.000D+00 0.930D+00 0.704D-01
 Coeff:      0.000D+00 0.930D+00 0.704D-01
 Gap=     0.145 Goal=   None    Shift=    0.000
 Gap=     0.036 Goal=   None    Shift=    0.000
 RMSDP=1.46D-03 MaxDP=9.89D-02 DE= 3.92D-02 OVMax= 0.00D+00

 Cycle  35  Pass 1  IDiag  1:
 RMSU=  3.06D-04    CP:  9.98D-01  1.54D+00  1.21D+00  1.63D+00  2.51D+00
                    CP:  1.57D+00  3.00D+00  1.67D-01  3.00D+00 -5.17D-01
                    CP: -3.00D+00 -3.00D+00 -3.00D+00  3.00D+00  3.00D+00
                    CP:  2.03D+00  3.00D+00 -2.22D-02  1.16D+00
 E= -2714.78625631295     Delta-E=       -0.007961147292 Rises=F Damp=F
 DIIS: error= 1.82D-02 at cycle  20 NSaved=   4.
 NSaved= 4 IEnMin= 2 EnMin= -2714.81751808862     IErMin= 1 ErrMin= 4.23D-03
 ErrMax= 1.82D-02  0.00D+00 EMaxC= 1.00D-01 BMatC= 1.01D-01 BMatP= 5.28D-03
 IDIUse=2 WtCom= 0.00D+00 WtEn= 1.00D+00
 Coeff-En:   0.000D+00 0.862D+00 0.000D+00 0.138D+00
 Coeff:      0.000D+00 0.862D+00 0.000D+00 0.138D+00
 Gap=     0.136 Goal=   None    Shift=    0.000
 Gap=     0.028 Goal=   None    Shift=    0.000
 RMSDP=1.04D-03 MaxDP=1.08D-01 DE=-7.96D-03 OVMax= 0.00D+00

 Cycle  36  Pass 1  IDiag  1:
 Restarting incremental Fock formation.
 E= -2714.81497376210     Delta-E=       -0.028717449157 Rises=F Damp=F
 DIIS: error= 6.98D-03 at cycle  21 NSaved=   5.
 NSaved= 5 IEnMin= 2 EnMin= -2714.81751808862     IErMin= 1 ErrMin= 4.23D-03
 ErrMax= 6.98D-03  0.00D+00 EMaxC= 1.00D-01 BMatC= 1.29D-02 BMatP= 5.28D-03
 IDIUse=3 WtCom= 9.84D-01 WtEn= 1.61D-02
 Coeff-Com: -0.423D+00 0.103D+01-0.212D-01 0.286D-01 0.385D+00
 Coeff-En:   0.000D+00 0.633D+00 0.000D+00 0.000D+00 0.367D+00
[...]
 .03184390,-0.00000740,-0.00007383,-0.00008710,0.00010952,-0.00024007,-
 0.00026996,-0.00000578,0.00001340,-0.00007510,0.00002049,0.00003193,-0
 .00026303,0.00602299,0.00371004,-0.00142308,-0.01275030,-0.00726980,0.
 00543249,0.02002774,0.05447377,-0.04489181,0.10305913,0.16247416,-0.18
 324169,0.01567972,0.00729602,0.01209094,-0.00693051,-0.00181320,0.0035
 2216,0.00284567,0.00833815,-0.01003464,-0.00674571,0.00003829,-0.00208
 405,-0.00195920,-0.00273440,0.00234226,-0.10945418,-0.22595870,0.26671
 556,0.00000466,-0.00000235,0.00000129,0.00000146,0.00000133,0.00000208
 ,0.00000193,-0.00000331,0.00000487,-0.00000235,-0.00001064,-0.00001147
 ,0.00000317,0.00000263,0.00000590,-0.00000087,-0.00000308,-0.00000225,
 -0.00001561,-0.00001073,-0.00001568,0.00002619,0.00002160,-0.00001552,
 0.00000321,0.00000604,0.00001515,0.00002928,0.00001576,-0.00001069,0.0
 0000006,-0.00000054,-0.00000069,-0.00000036,0.00000044,-0.00000014,0.0
 0000118,0.00000140,-0.00000114,-0.00000091,0.00000032,-0.00000047,-0.0
 0026326,-0.00025885,0.00028486,0.00000467,0.00000079,-0.00002213,-0.00
 001756,0.00001392,0.00008253,0.00003408,-0.00004428,-0.00009273,-0.000
 04681,0.00007110,0.00007971,0.00005636,-0.00010498,-0.00010846,-0.0000
 1374,0.00000997,0.00007696,-0.00007452,0.00012753,0.00013779,0.0000154
 9,0.00008980,-0.00019190,0.00002321,-0.00005740,0.00000821,0.00003633,
 -0.00002292,-0.00007457,-0.00000112,0.00000027,0.00000715,-0.00000020,
 0.00000043,0.00000120,-0.00000020,-0.00000068,-0.00000086,-0.00000004,
 0.00000247,-0.00000003,-0.13642426,-0.11503553,0.07623535,-0.00961151,
 -0.02344579,0.02362968,-0.00350502,0.00043846,-0.00580146,-0.00038763,
 0.00036639,-0.00012095,-0.00100463,-0.00050992,-0.00362137,0.01040199,
 0.01492295,-0.01153028,0.00091563,-0.00009179,-0.00002681,0.00011714,0
 .00044107,-0.00039076,-0.00009157,-0.00001697,0.00000583,0.00029193,0.
 00035390,0.00009254,0.13822637,0.00002769,-0.00001543,-0.00002067,-0.0
 0004314,-0.00000882,0.00000474,0.00003093,0.00001783,0.00000742,-0.000
 04889,0.00003053,0.00004349,0.00005788,-0.00001033,-0.00002979,-0.0000
 2807,-0.00001195,-0.00000300,-0.00002471,0.00002783,0.00003745,-0.0000
 4403,-0.00002858,-0.00004347,0.00002426,-0.00003794,-0.00004252,-0.000
 04626,-0.00002886,-0.00003930,-0.00000267,-0.00000371,-0.00000225,-0.0
 0000100,-0.00000172,-0.00000049,-0.00000063,0.00000053,-0.00000004,0.0
 0000097,-0.00000155,-0.00000178,0.00044662,0.00012812,0.00019195,0.000
 00242,-0.00000432,-0.00000400,-0.00001418,0.00001653,0.00006003,0.0000
 0966,-0.00000752,-0.00005704,-0.00001243,0.00001942,-0.00004137,0.0000
 2927,-0.00006145,-0.00003828,-0.00001177,0.00000824,0.00005366,-0.0000
 2964,0.00007445,-0.00000552,-0.00003184,-0.00006247,0.00002778,0.00001
 572,-0.00003307,0.00001955,-0.00004828,0.00001467,0.00000496,-0.000002
 94,0.00000080,0.00000979,-0.00000010,0.00000400,0.00000451,-0.00000269
 ,-0.00000207,-0.00000032,-0.00000191,-0.00000082,0.00000333,-0.1156713
 8,-0.19600990,0.14159184,0.00237011,-0.00481824,0.00518816,-0.00213503
 ,0.00486469,0.00030441,0.00062165,-0.00046195,-0.00026244,0.00139567,0
 .00430907,0.00382481,-0.00995801,-0.00788642,0.00258116,-0.00110736,0.
 00064814,0.00006230,0.00006601,-0.00059377,0.00027158,0.00010946,-0.00
 011338,0.00010806,0.00032773,-0.00001486,-0.00061043,0.12177180,0.2027
 5401,-0.00001723,0.00001175,0.00001651,0.00003968,0.00001297,0.0000009
 3,-0.00002667,-0.00001924,-0.00000617,0.00004064,-0.00003123,-0.000049
 63,-0.00003749,0.00001680,0.00003062,0.00002218,0.00000737,0.00000095,
 -0.00000128,-0.00005068,-0.00003671,0.00002573,0.00004921,0.00007848,-
 0.00001077,0.00003809,0.00003194,0.00006422,0.00003245,0.00005062,0.00
 000289,0.00000348,0.00000186,0.00000177,0.00000197,0.00000070,0.000000
 91,0.00000057,-0.00000093,-0.00000151,0.00000111,0.00000148,-0.0006368
 6,-0.00019151,-0.00022554,0.00000415,-0.00001606,0.00001205,0.00002232
 ,-0.00001298,-0.00010767,-0.00001293,0.00000216,0.00009300,-0.00000426
 ,-0.00001707,0.00006401,-0.00002955,0.00006144,0.00006485,0.00000968,0
 .00000183,-0.00007676,0.00001863,-0.00008488,0.00000246,0.00008043,0.0
 0005652,0.00000534,-0.00000726,0.00002843,-0.00001126,0.00006795,-0.00
 001750,-0.00005321,0.00000287,-0.00000148,-0.00001230,0.00000302,-0.00
 000511,-0.00000678,0.00000038,0.00000014,-0.00000062,0.00000071,-0.000
 00156,-0.00000350,0.07709016,0.14199779,-0.15205642,-0.00730591,-0.008
 97090,0.00514729,-0.00269418,0.00170102,0.00258699,-0.00043936,-0.0003
 7651,-0.00076087,-0.00593953,0.00275070,0.00029406,0.01821661,0.016216
 38,-0.01057130,0.00119771,0.00061262,0.00107820,0.00011979,0.00052581,
 -0.00083391,-0.00015087,0.00003413,-0.00017448,0.00013644,-0.00061729,
 0.00017179,-0.08200996,-0.14916495,0.15557827,0.00001717,0.00000343,-0
 .00000198,-0.00000977,-0.00000641,-0.00000335,0.00001980,0.00001591,0.
 00000624,-0.00001772,-0.00003097,-0.00001697,0.00002270,0.00002045,0.0
 0001128,-0.00001583,-0.00001690,-0.00001076,-0.00004730,-0.00003916,-0
 .00002124,0.00002702,0.00007123,-0.00002095,0.00000814,0.00001656,0.00
 001344,0.00006076,0.00003856,0.00000821,0.00000129,0.00000037,0.000000
 01,0.00000212,0.00000062,0.00000021,0.00000110,-0.00000003,0.00000041,
 -0.00000191,0.00000017,0.00000026,-0.00024595,-0.00020254,0.00030895,0
 .00000385,-0.00000070,-0.00001924,-0.00001277,0.00001190,0.00005987,0.
 00002534,-0.00004005,-0.00007171,-0.00003112,0.00004196,0.00007329,0.0
 0003827,-0.00006727,-0.00008106,-0.00000838,0.00000861,0.00005506,-0.0
 0004910,0.00007972,0.00010417,0.00002694,0.00007368,-0.00013739,0.0000
 0864,-0.00003738,0.00000171,0.00001636,0.00002114,-0.00005938,-0.00000
 036,0.00000028,0.00000240,0.00000145,-0.00000069,-0.00000056,-0.000001
 49,0.00000268,-0.00000025,0.00000075,0.00000291,-0.00000104,-0.0067218
 3,0.01868743,-0.02717172,-0.13859184,0.05499764,-0.12129419,0.01140796
 ,-0.00962833,0.01577423,-0.00163530,-0.00442015,-0.00072966,0.00047779
 ,0.00015869,0.00069092,-0.00484215,-0.00555733,0.00022427,-0.00008994,
 0.00012510,0.00040906,0.00019724,0.00016495,-0.00028274,0.00009771,0.0
 0012427,-0.00018999,0.00085992,0.00000708,0.00059507,0.00101940,0.0012
 2737,0.00145656,0.13788517,-0.00002140,-0.00002035,-0.00001797,-0.0000
 1174,0.00000817,0.00000843,-0.00003063,-0.00001375,-0.00000755,0.00004
 313,0.00013361,0.00009773,0.00000422,-0.00005684,-0.00005789,0.0000196
 5,0.00003121,0.00001730,0.00006131,0.00013479,0.00010812,0.00001424,-0
 .00023844,-0.00001237,0.00001746,-0.00005323,-0.00006758,-0.00013706,-
 0.00015185,-0.00001226,-0.00000347,-0.00000359,-0.00000019,-0.00000505
 ,-0.00000298,-0.00000024,-0.00000177,-0.00000130,0.00000003,0.00000317
 ,-0.00000277,-0.00000150,0.00002459,0.00045404,-0.00100362,-0.00001243
 ,0.00002012,0.00002081,0.00000899,-0.00001427,-0.00002108,-0.00003150,
 0.00007111,0.00005563,0.00006826,-0.00008849,-0.00017099,-0.00004854,0
 .00008771,0.00009541,0.00000747,-0.00002201,-0.00004060,0.00012000,-0.
 00015277,-0.00024170,-0.00000408,-0.00019995,0.00044370,-0.00001104,0.
 00004860,0.00003858,-0.00006944,0.00010836,0.00021756,-0.00000094,0.00
 000099,0.00000319,-0.00000337,0.00000413,0.00000517,-0.00000047,-0.000
 00394,0.00000101,-0.00000288,-0.00000351,0.00000400,-0.00654927,0.0064
 2171,-0.00883237,0.05526692,-0.11077742,0.11801362,0.01519475,-0.00464
 375,0.01824773,-0.00561619,0.00384846,0.00345626,-0.00015064,-0.000865
 80,-0.00033560,-0.00333580,0.00341511,0.00227637,0.00013332,-0.0003909
 1,-0.00073649,-0.00009303,0.00002517,0.00019495,0.00013270,0.00011061,
 0.00014119,0.00047605,-0.00137296,0.00161825,0.00155174,-0.00170431,-0
 .00225918,-0.05837271,0.10754534,0.00002868,0.00001033,0.00000621,0.00
 001337,0.00001391,0.00001023,0.00002047,-0.00000403,-0.00000477,-0.000
 05647,-0.00013485,-0.00008380,-0.00000671,0.00005633,0.00004621,-0.000
 01480,-0.00002128,-0.00001391,-0.00005363,-0.00013772,-0.00008105,-0.0
 0002177,0.00015053,0.00002380,-0.00001109,0.00006080,0.00005235,0.0000
 6794,0.00013241,-0.00002176,0.00000499,0.00000442,0.00000152,0.0000062
 3,0.00000344,0.00000036,0.00000166,0.00000189,0.00000020,-0.00000296,0
 .00000122,0.00000161,0.00007794,-0.00076587,0.00093637,0.00002127,-0.0
 0004016,-0.00001295,0.00000425,0.00001288,-0.00004226,0.00004014,-0.00
 006055,0.00000044,-0.00010447,0.00009041,0.00020379,0.00003814,-0.0000
 5142,-0.00006487,-0.00001358,0.00003138,0.00000603,-0.00009589,0.00009
 208,0.00020874,-0.00002660,0.00015544,-0.00036440,0.00003185,-0.000015
 80,-0.00003307,0.00011261,-0.00015356,-0.00035102,0.00000144,-0.000002
 10,-0.00000893,0.00000318,-0.00000837,-0.00000962,-0.00000329,0.000001
 04,-0.00000199,-0.00000096,-0.00000036,-0.00000706,0.00306735,0.005005
 37,-0.00227056,-0.12166682,0.11791270,-0.24531222,-0.01391784,0.004579
 74,-0.00947835,0.00072782,0.00415608,0.00473981,0.00100970,-0.00022307
 ,-0.00020072,-0.00239513,0.00109205,0.00420759,0.00035734,-0.00069067,
 -0.00003807,0.00014845,0.00033594,-0.00017362,-0.00016673,0.00014072,-
 0.00008082,-0.00000063,0.00131264,-0.00182298,0.00106901,-0.00243606,-
 0.00080249,0.13039632,-0.12774431,0.25193226,-0.00004512,0.00000704,0.
 00002915,0.00005191,0.00001160,-0.00000304,-0.00004247,-0.00003408,-0.
 00000352,0.00006186,0.00000067,-0.00004687,-0.00006046,-0.00002405,0.0
 0002750,0.00004895,0.00002725,0.00001349,0.00001095,-0.00000856,-0.000
 05183,0.00004714,0.00004614,0.00003669,-0.00000597,0.00002114,0.000050
 51,0.00002916,0.00001956,0.00000503,0.00000013,0.00000187,0.00000037,-
 0.00000384,0.00000085,0.00000011,0.00000005,0.00000159,-0.00000180,-0.
 00000128,0.00000308,0.00000011,-0.00032811,-0.00016793,0.00005423,0.00
 000926,-0.00001670,-0.00000207,-0.00000474,0.00001481,0.00000460,0.000
 01382,-0.00002102,-0.00001587,-0.00001089,0.00004335,0.00004067,0.0000
 2155,-0.00004430,-0.00002992,-0.00001257,0.00000981,0.00001679,-0.0000
 2219,0.00004006,0.00005829,0.00000771,0.00005783,-0.00008444,0.0000092
 1,-0.00001866,0.00000193,0.00007597,0.00001559,0.00001678,0.00000099,0
 .00000025,0.00000036,0.00000236,0.00000016,-0.00000056,-0.00000421,0.0
 0000010,-0.00000142,-0.00000188,-0.00000054,-0.00000059,0.00498355,-0.
 00335613,0.00238429,-0.01134103,0.00158898,-0.00821678,-0.35566858,-0.
 08672883,-0.07471212,-0.00562010,-0.00649469,0.00311627,-0.00111454,-0
 .00085819,-0.00298112,0.00088389,0.00231695,-0.00195159,-0.00046827,-0
 .00049673,0.00109944,0.00028113,0.00028680,-0.00027391,-0.00025569,0.0
 0013113,-0.00042007,-0.00036643,-0.00059159,0.00197926,-0.00039499,-0.
 00047019,-0.00055379,0.00054647,0.00164258,0.00151250,0.36900862,0.000
 06801,-0.00001060,-0.00004820,-0.00008469,-0.00002006,0.00000175,0.000
 07146,0.00006516,0.00000638,-0.00008866,0.00001473,0.00005885,0.000105
 71,0.00003347,-0.00004536,-0.00007369,-0.00003958,-0.00002217,-0.00003
 577,0.00004488,0.00009477,0.00002286,-0.00010483,-0.00002680,0.0000241
 2,-0.00003643,-0.00008524,-0.00002026,0.00001239,-0.00000082,-0.000000
 30,-0.00000256,-0.00000076,0.00000629,-0.00000098,-0.00000015,0.000000
 90,-0.00000152,0.00000214,0.00000137,-0.00000380,-0.00000038,0.0002625
 1,0.00023628,-0.00037167,-0.00001353,0.00002017,0.00001382,0.00001842,
 -0.00002442,-0.00004439,-0.00003673,0.00004733,0.00006595,0.00003432,-
 0.00005951,-0.00009940,-0.00002986,0.00005608,0.00006649,0.00001578,-0
 .00001989,-0.00004666,0.00004657,-0.00005624,-0.00007185,-0.00003145,-
 0.00004868,0.00011366,-0.00001216,0.00001875,-0.00000003,-0.00005816,-
 0.00001155,0.00004777,0.00000018,-0.00000047,-0.00000112,0.00000023,0.
 00000156,0.00000149,0.00000165,-0.00000612,0.00000060,0.00000099,-0.00
 000126,0.00000177,-0.00118900,0.00181126,0.00663163,-0.02337009,-0.003
 34095,-0.00868823,-0.08553232,-0.06909868,-0.00215673,0.01655274,0.007
 32551,0.00370968,-0.00079239,0.00137575,0.00527197,0.00040326,-0.00050
 155,0.00009582,0.00079048,0.00000126,-0.00121485,-0.00023318,-0.000162
 78,0.00022504,0.00026441,-0.00000473,0.00043462,-0.00044960,-0.0004028
 1,-0.00295059,-0.00153958,0.00062689,0.00036919,0.00185992,-0.00223059
 ,-0.00320579,0.09281479,0.06498978,0.00000091,-0.00000144,0.00000537,0
 .00004428,0.00002722,0.00001805,-0.00004416,-0.00005319,0.00001043,0.0
 0005986,0.00002077,-0.00005240,-0.00000722,0.00000612,0.00003141,0.000
 01451,-0.00000133,-0.00000388,-0.00007457,-0.00004905,-0.00002088,0.00
 009699,0.00004821,0.00002454,0.00002331,0.00003436,0.00001400,0.000104
 04,0.00002656,0.00004763,0.00000197,-0.00000041,-0.00000093,-0.0000001
 5,0.00000226,-0.00000048,0.00000636,0.00000747,-0.00000854,-0.00000367
 ,-0.00000253,-0.00000080,-0.00046095,-0.00056851,0.00028594,0.00000396
 ,-0.00000696,-0.00000094,0.00001737,-0.00000762,-0.00003555,0.00001470
 ,-0.00001199,0.00002502,-0.00005254,0.00004542,0.00007283,0.00003004,-
 0.00004448,-0.00002423,0.00000182,0.00000519,-0.00000967,-0.00005336,0
 .00005699,0.00011416,0.00003725,0.00013300,-0.00018272,0.00001932,-0.0
 0003938,0.00000038,0.00013382,-0.00007572,-0.00013569,0.00000113,-0.00
 000168,-0.00000129,0.00000196,-0.00000254,-0.00000313,-0.00000198,-0.0
 0001083,-0.00000208,0.00000009,-0.00000091,-0.00000134,-0.00018748,0.0
 0545838,0.00127327,0.02168677,0.00504623,0.00603450,-0.07628809,-0.002
 82669,-0.07013684,-0.02438357,-0.00900007,0.00015012,-0.00307909,0.005
 24166,-0.00182067,0.00035167,0.00112906,-0.00176350,-0.00043353,-0.001
 92324,0.00068166,0.00034327,0.00049730,-0.00028628,-0.00059004,0.00037
 412,-0.00049271,0.00179804,-0.00302886,0.00193872,0.00072909,0.0009536
 6,0.00089351,0.00124287,-0.00332581,-0.00110339,0.07874229,0.00247149,
 0.06475944,-0.00002771,-0.00000751,0.00000362,0.00001628,0.00000759,0.
 00000254,-0.00003927,-0.00002317,-0.00000501,0.00005528,0.00007861,0.0
 0004425,-0.00002465,-0.00003419,-0.00002393,0.00002623,0.00002319,0.00
 001483,0.00003363,0.00006567,0.00004177,-0.00002844,-0.00011163,-0.000
 02492,0.00001093,-0.00002639,-0.00002475,-0.00003542,-0.00010220,0.000
 00269,-0.00000199,-0.00000076,-0.00000052,-0.00000403,-0.00000109,-0.0
 0000053,-0.00000037,-0.00000016,-0.00000113,0.00000108,-0.00000051,-0.
 00000112,0.00026210,0.00047738,-0.00051969,-0.00000453,0.00001293,0.00
 000529,-0.00000381,0.00000466,0.00003863,0.00000903,0.00002706,-0.0000
 2117,0.00002235,-0.00004087,-0.00008256,-0.00001198,0.00002312,0.00002
 545,0.00000726,-0.00000535,0.00001170,0.00002929,-0.00004498,-0.000129
 50,-0.00001273,-0.00012553,0.00022056,-0.00000464,0.00001120,0.0000210
 0,-0.00006299,0.00006395,0.00012650,-0.00000228,0.00000080,0.00000521,
 -0.00000537,0.00000212,0.00000393,-0.00000155,-0.00000037,0.00000004,-
 0.00000021,-0.00000014,0.00000336,-0.00776408,-0.00729031,0.00312390,0
 .00261285,0.00089966,-0.00335101,0.00090796,-0.00029022,0.00119320,0.0
 0115939,-0.00309971,-0.00103306,-0.01014555,-0.00266272,-0.00416424,-0
 .34680604,-0.07494028,-0.07717994,-0.00099043,0.00229781,-0.00039382,-
 0.00056056,-0.00068384,0.00022074,-0.00017148,0.00028533,-0.00020750,-
 0.00082611,-0.00028879,0.00047235,0.00064341,0.00120193,0.00125399,-0.
 00045061,-0.00027709,-0.00020326,-0.00032132,0.00022445,0.00015266,0.3
 6251109,-0.00002203,-0.00000235,0.00000730,0.00002609,0.00001047,0.000
 00249,-0.00003947,-0.00002229,-0.00000389,0.00007503,0.00006353,0.0000
 1617,-0.00001740,-0.00001618,-0.00000291,0.00002605,0.00001534,0.00000
 624,-0.00000362,0.00004988,0.00003213,0.00008555,-0.00007584,0.0000087
 3,0.00002428,-0.00000124,-0.00000419,0.00000574,-0.00006958,0.00005379
 ,0.00000023,0.00000030,0.00000044,-0.00000178,0.00000001,-0.00000003,0
 .00000127,0.00000064,-0.00000196,-0.00000160,-0.00000043,-0.00000067,-
 0.00061456,0.00035340,-0.00073292,-0.00001660,0.00004160,-0.00000983,0
 .00001018,-0.00002750,0.00002042,-0.00000311,0.00001544,-0.00000035,0.
 00000654,-0.00002480,0.00000906,0.00000888,-0.00000167,-0.00001585,0.0
 0001108,-0.00002591,-0.00000144,-0.00000379,0.00000331,0.00000439,0.00
 004794,0.00002191,0.00003920,0.00001808,-0.00002781,0.00002524,0.00002
 643,0.00003336,0.00008720,0.00000048,-0.00000006,0.00000132,-0.0000010
 9,-0.00000045,0.00000072,0.00000273,-0.00000464,0.00000106,0.,0.000001
 16,0.00000039,0.01640938,0.00629975,0.00440553,-0.00101403,0.00207140,
 0.00513011,0.00010484,-0.00054133,-0.00006948,-0.00170210,0.00266286,0
 .00769272,-0.02329560,-0.00122317,-0.00725934,-0.07580034,-0.07004622,
 -0.00624591,-0.00196583,-0.00343277,-0.00315307,0.00091331,0.00118536,
 -0.00023537,0.00169571,0.00196911,-0.00200431,-0.00118058,-0.00125672,
 -0.00045792,0.00094723,-0.00162233,-0.00269578,0.00065795,0.00054657,0
 .00034223,0.00022821,-0.00049065,-0.00060223,0.08435032,0.06356853,0.0
 0001750,-0.00000105,-0.00000822,-0.00002446,-0.00001000,-0.00000080,0.
 00002504,0.00001319,0.00000221,-0.00004553,0.00000143,0.00001378,0.000
 02645,0.00000381,-0.00000930,-0.00002182,-0.00001288,-0.00000254,-0.00
 001178,-0.00000574,0.00001265,-0.00008233,0.00001589,-0.00006059,0.000
 00414,-0.00001489,-0.00002516,-0.00007162,0.00002292,-0.00003422,-0.00
 000120,-0.00000105,-0.00000100,0.00000050,-0.00000070,-0.00000063,-0.0
 0000129,-0.00000039,0.00000078,0.00000094,-0.00000095,-0.00000009,0.00
 074999,0.00004021,0.00055340,-0.00000946,0.00000481,0.00002465,0.00001
 548,-0.00001808,-0.00007809,-0.00004056,0.00005293,0.00009377,0.000048
 59,-0.00008368,-0.00011368,-0.00006804,0.00012037,0.00012410,0.0000176
 1,-0.00001197,-0.00008312,0.00008105,-0.00011361,-0.00018465,-0.000048
 86,-0.00013593,0.00016024,-0.00002616,0.00006195,-0.00001263,-0.000095
 18,-0.00004644,0.00000774,-0.00000038,-0.00000012,-0.00000429,-0.00000
 240,0.00000086,0.00000039,0.00000249,0.00000075,0.00000175,0.00000161,
 -0.00000247,0.00000119,-0.02527323,-0.00854003,-0.00106282,-0.00104862
 ,0.00625418,-0.00119216,0.00067963,-0.00038054,0.00018964,-0.00273436,
 0.00696510,0.00004200,0.02044036,0.00394456,0.00971348,-0.07605336,-0.
 00576833,-0.07538686,0.00463398,-0.00089756,-0.00182034,-0.00169252,-0
 .00094935,0.00109493,-0.00174596,-0.00277440,0.00174420,0.00155318,-0.
 00001306,-0.00021939,0.00158112,-0.00255090,-0.00041537,-0.00132064,-0
 .00017576,0.00000717,0.00016066,-0.00060367,-0.00029303,0.08037943,0.0
 0561058,0.06722092\\0.00000006,0.00000012,-0.00000024,0.00000027,-0.00
 000020,-0.00000011,-0.00000004,-0.00000032,0.00000010,0.00000027,-0.00
 000002,0.,0.00000003,0.00000037,-0.00000006,0.00000042,0.00000039,-0.0
 0000034,0.00000006,0.00000073,-0.00000004,0.00000018,0.00000060,-0.000
 00003,0.00000038,0.00000073,-0.00000042,-0.00000003,-0.00000014,0.0000
 0037,0.00000034,0.00000032,-0.00000066,-0.00000002,-0.00000021,-0.0000
 0041,-0.00000013,-0.00000035,-0.00000002,0.00000037,0.00000067,-0.0000
 0047,-0.00000057,0.00000013,0.00000006,0.00000073,-0.00000002,0.000000
 80,0.00000028,-0.00000022,0.00000094,-0.00000017,-0.00000005,0.0000007
 2,0.00000003,-0.00000015,0.00000049,0.00000049,0.00000001,0.00000028,0
 .00000096,-0.00000026,0.00000053,0.00000052,0.00000022,0.00000027,0.00
 000006,0.00000022,-0.00000021,0.00000105,-0.00000011,0.00000012,-0.000
 00040,0.00000019,0.00000048,0.00000074,-0.00000016,0.00000081,0.000000
 03,-0.00000006,0.00000095,-0.00000051,0.,0.00000070,0.00000088,-0.0000
 0011,0.00000042,0.00000036,-0.00000052,-0.00000040,-0.00000092,0.00000
 008,-0.00000144,-0.00000120,-0.00000133,0.00000075,-0.00000059,0.00000
 057,-0.00000063,-0.00000034,-0.00000022,-0.00000002,-0.00000030,0.0000
 0069,-0.00000170,0.00000019,0.00000154,-0.00000120,-0.00000203,-0.0000
 0129,0.00000180,0.00000033,0.00000111,-0.00000057,-0.00000168,-0.00000
 113,0.00000129,0.00000070,-0.00000008,-0.00000162,-0.00000011,-0.00000
 090,-0.00000056,-0.00000129,-0.00000073,0.,0.00000057,-0.00000012,-0.0
 0000071\\\@
 The archive entry for this job was punched.


 Not by the face shall a man be known, but by the mask.
                               -- Karen Blixen
 Job cpu time:       0 days  0 hours 44 minutes 13.0 seconds.
 Elapsed time:       0 days  0 hours  0 minutes 24.8 seconds.
 File lengths (MBytes):  RWF=    406 Int=      0 D2E=      0 Chk=     32 Scr=      1
 Normal termination of Gaussian 16 at Thu Sep 26 11:21:22 2024.
