 Entering Gaussian System, Link 0=g16
 Input=V_2_PBE0.com
 Output=V_2_PBE0.log
 Initial command:
 /gpfs/fs1/soft/improv/software/custom-built/gaussian/g16/l1.exe "/scratch/Gau-207166.inp" -scrdir="/scratch/"
 Default CPUs for threads: 0-127
 Default linda workers: i813.lcrc.anl.gov
 Default is to use 128 SMP processors on each worker.
 Entering Link 1 = /gpfs/fs1/soft/improv/software/custom-built/gaussian/g16/l1.exe PID=    207167.
  
 Copyright (c) 1988-2021, Gaussian, Inc.  All Rights Reserved.
  
 This is part of the Gaussian(R) 16 program.  It is based on
 the Gaussian(R) 09 system (copyright 2009, Gaussian, Inc.),
 the Gaussian(R) 03 system (copyright 2003, Gaussian, Inc.),
 the Gaussian(R) 98 system (copyright 1998, Gaussian, Inc.),
 the Gaussian(R) 94 system (copyright 1995, Gaussian, Inc.),
 the Gaussian 92(TM) system (copyright 1992, Gaussian, Inc.),
 the Gaussian 90(TM) system (copyright 1990, Gaussian, Inc.),
 the Gaussian 88(TM) system (copyright 1988, Gaussian, Inc.),
 the Gaussian 86(TM) system (copyright 1986, Carnegie Mellon
 University), and the Gaussian 82(TM) system (copyright 1983,
 Carnegie Mellon University). Gaussian is a federally registered
 trademark of Gaussian, Inc.
  
 This software contains proprietary and confidential information,
 including trade secrets, belonging to Gaussian, Inc.
  
 This software is provided under written license and may be
 used, copied, transmitted, or stored only in accord with that
 written license.
  
 The following legend is applicable only to US Government
 contracts under FAR:
  
                    RESTRICTED RIGHTS LEGEND
  
 Use, reproduction and disclosure by the US Government is
 subject to restrictions as set forth in subparagraphs (a)
 and (c) of the Commercial Computer Software - Restricted
 Rights clause in FAR 52.227-19.
  
 Gaussian, Inc.
 340 Quinnipiac St., Bldg. 40, Wallingford CT 06492
  
  
 ---------------------------------------------------------------
 Warning -- This program may not be used in any manner that
 competes with the business of Gaussian, Inc. or will provide
 assistance to any competitor of Gaussian, Inc.  The licensee
 of this program is prohibited from giving any competitor of
 Gaussian, Inc. access to this program.  By using this program,
 the user acknowledges that Gaussian, Inc. is engaged in the
 business of creating and licensing software in the field of
 computational chemistry and represents and warrants to the
 licensee that it is not a competitor of Gaussian, Inc. and that
 it will not use this program in any manner prohibited above.
 ---------------------------------------------------------------
  

 Cite this work as:
 Gaussian 16, Revision C.02,
 M. J. Frisch, G. W. Trucks, H. B. Schlegel, G. E. Scuseria, 
 M. A. Robb, J. R. Cheeseman, G. Scalmani, V. Barone, 
 G. A. Petersson, H. Nakatsuji, X. Li, M. Caricato, A. V. Marenich, 
 J. Bloino, B. G. Janesko, R. Gomperts, B. Mennucci, H. P. Hratchian, 
 J. V. Ortiz, A. F. Izmaylov, J. L. Sonnenberg, D. Williams-Young, 
 F. Ding, F. Lipparini, F. Egidi, J. Goings, B. Peng, A. Petrone, 
 T. Henderson, D. Ranasinghe, V. G. Zakrzewski, J. Gao, N. Rega, 
 G. Zheng, W. Liang, M. Hada, M. Ehara, K. Toyota, R. Fukuda, 
 J. Hasegawa, M. Ishida, T. Nakajima, Y. Honda, O. Kitao, H. Nakai, 
 T. Vreven, K. Throssell, J. A. Montgomery, Jr., J. E. Peralta, 
 F. Ogliaro, M. J. Bearpark, J. J. Heyd, E. N. Brothers, K. N. Kudin, 
 V. N. Staroverov, T. A. Keith, R. Kobayashi, J. Normand, 
 K. Raghavachari, A. P. Rendell, J. C. Burant, S. S. Iyengar, 
 J. Tomasi, M. Cossi, J. M. Millam, M. Klene, C. Adamo, R. Cammi, 
 J. W. Ochterski, R. L. Martin, K. Morokuma, O. Farkas, 
 J. B. Foresman, and D. J. Fox, Gaussian, Inc., Wallingford CT, 2019.
 
 ******************************************
 Gaussian 16:  ES64L-G16RevC.02  7-Dec-2021
                23-May-2024 
 ******************************************
 %chk=V_2_PBE0.chk
 SetSPE:  set environment variable "OMP_PROC_BIND" = "true"
 SetSPE:  set environment variable "OMP_PLACES" = "{0},{1},{2},{3},{4},{5},{6},{7},{8},{9},{10},{11},{12},{13},{14},{15},{16},{17},{18},{19},{20},{21},{22},{23},{24},{25},{26},{27},{28},{29},{30},{31},{32},{33},{34},{35},{36},{37},{38},{39},{40},{41},{42},{43},{44},{45},{46},{47},{48},{49},{50},{51},{52},{53},{54},{55},{56},{57},{58},{59},{60},{61},{62},{63},{64},{65},{66},{67},{68},{69},{70},{71},{72},{73},{74},{75},{76},{77},{78},{79},{80},{81},{82},{83},{84},{85},{86},{87},{88},{89},{90},{91},{92},{93},{94},{95},{96},{97},{98},{99},{100},{101},{102},{103},{104},{105},{106},{107},{108},{109},{110},{111},{112},{113},{114},{115},{116},{117},{118},{119},{120},{121},{122},{123},{124},{125},{126},{127}"
 SetLPE:    new flags="-opt 'Tsnet.Node.lindarsharg: ssh'  -nodelist 'i813.lcrc.anl.gov' -env GAUSS_MDEF=26843545600 -env GAUSS_EXEDIR="/gpfs/fs1/soft/improv/software/custom-built/gaussian/g16/bsd:/gpfs/fs1/soft/improv/software/custom-built/gaussian/g16" -env "OMP_PROC_BIND=true" -env "OMP_PLACES={0},{1},{2},{3},{4},{5},{6},{7},{8},{9},{10},{11},{12},{13},{14},{15},{16},{17},{18},{19},{20},{21},{22},{23},{24},{25},{26},{27},{28},{29},{30},{31},{32},{33},{34},{35},{36},{37},{38},{39},{40},{41},{42},{43},{44},{45},{46},{47},{48},{49},{50},{51},{52},{53},{54},{55},{56},{57},{58},{59},{60},{61},{62},{63},{64},{65},{66},{67},{68},{69},{70},{71},{72},{73},{74},{75},{76},{77},{78},{79},{80},{81},{82},{83},{84},{85},{86},{87},{88},{89},{90},{91},{92},{93},{94},{95},{96},{97},{98},{99},{100},{101},{102},{103},{104},{105},{106},{107},{108},{109},{110},{111},{112},{113},{114},{115},{116},{117},{118},{119},{120},{121},{122},{123},{124},{125},{126},{127}" -env GAUSS_ADEF="0,1,2,3,4,5,6,7,8,9,10,11,12,13,14,15,16,17,18,19,20,21,22,23,24,25,26,27,28,29,30,31,32,33,34,35,36,37,38,39,40,41,42,43,44,45,46,47,48,49,50,51,52,53,54,55,56,57,58,59,60,61,62,63,64,65,66,67,68,69,70,71,72,73,74,75,76,77,78,79,80,81,82,83,84,85,86,87,88,89,90,91,92,93,94,95,96,97,98,99,100,101,102,103,104,105,106,107,108,109,110,111,112,113,114,115,116,117,118,119,120,121,122,123,124,125,126,127""
 Will use up to    1 processors via Linda.
 ----------------------------------------------------------------------
 #p PBE1PBE empiricaldispersion=gd3 6-31+G(2df,p) opt=(cartesian,calcal
 l,maxcycles=500) freq scf=(maxcycles=500,xqc,maxconventional=50)
 ----------------------------------------------------------------------
 1/6=500,10=4,18=10,26=3,38=1/1,3;
 2/12=2,17=6,18=5,29=2,40=1/2;
 3/5=1,6=6,7=114,11=2,25=1,30=1,71=2,74=-13,124=31,140=1/1,2,3;
 4//1;
 5/5=2,7=500,8=3,13=1,38=5,85=50/2,8;
 8/6=4,10=90,11=11/1;
 11/6=1,8=1,9=11,15=111,16=1/1,2,10;
 10/6=1/2;
 6/7=2,8=2,9=2,10=2,18=1,28=1/1;
 7/7=1,10=1,25=1/1,2,3,16;
 1/6=500,10=4,18=10,26=3/3(3);
 2/29=1/2;
 7/7=1,8=1,9=1,25=1,44=-1/16;
 99/12=1/99;
 2/29=1/2;
 3/5=1,6=6,7=114,11=2,25=1,30=1,71=2,74=-13,124=31,140=1/1,2,3;
 4/5=5,16=3,69=1/1;
 5/5=2,7=500,8=3,13=1,38=5,85=50/2,8;
 8/6=4,10=90,11=11/1;
 11/6=1,8=1,9=11,15=111,16=1/1,2,10;
 10/6=1/2;
 7/7=1,10=1,25=1/1,2,3,16;
 1/6=500,10=4,18=10,26=3/3(-8);
 2/29=1/2;
 6/7=2,8=2,9=2,10=2,18=1,19=2,28=1/1;
 7/7=1,8=1,9=1,25=1,44=-1/16;
 99/12=1/99;
 Leave Link    1 at Thu May 23 17:10:33 2024, MaxMem=           0 cpu:               6.3 elap:               0.1
 (Enter /gpfs/fs1/soft/improv/software/custom-built/gaussian/g16/l101.exe)
 -----
 Title
 -----
 Symbolic Z-matrix:
 Charge =  2 Multiplicity = 4
 V                    -0.79304   0.81881  -0.09491 
 O                    -1.20497   2.57394  -0.35687 
 H                    -2.12106   2.64974  -0.63312 
 O                     0.99012   1.19063  -0.05794 
 H                     1.42696   0.5998    0.55971 
 O                    -0.81752   1.03069   1.71365 
 H                    -1.02108   0.1906    2.13133 
 O                    -0.38507  -0.93351   0.17118 
 H                    -1.15682  -1.47369  -0.01433 
 O                    -2.57341   0.45178  -0.12186 
 H                    -2.77756  -0.08744  -0.88929 
 O                    -0.76966   0.60461  -1.90111 
 H                     0.09872   0.83457  -2.23949 
 H                    -0.96534  -0.30999  -2.11742 
 H                     1.12208   2.09943   0.22124 
 H                    -1.07671   3.0584    0.46184 
 H                    -2.81407  -0.02398   0.6765 
 H                     0.0422    1.33615   2.01181 
 H                    -0.11532  -1.06446   1.08312 
 
 ITRead=  0  0  0  0  0  0  0  0  0  0  0  0  0  0  0  0  0  0  0
 MicOpt= -1 -1 -1 -1 -1 -1 -1 -1 -1 -1 -1 -1 -1 -1 -1 -1 -1 -1 -1
 NAtoms=     19 NQM=       19 NQMF=       0 NMMI=      0 NMMIF=      0
                NMic=       0 NMicF=      0.
                    Isotopes and Nuclear Properties:
 (Nuclear quadrupole moments (NQMom) in fm**2, nuclear magnetic moments (NMagM)
  in nuclear magnetons)

  Atom         1           2           3           4           5           6           7           8           9          10
 IAtWgt=          51          16           1          16           1          16           1          16           1          16
 AtmWgt=  50.9439625  15.9949146   1.0078250  15.9949146   1.0078250  15.9949146   1.0078250  15.9949146   1.0078250  15.9949146
 NucSpn=           7           0           1           0           1           0           1           0           1           0
 AtZEff=  -0.0000000  -0.0000000  -0.0000000  -0.0000000  -0.0000000  -0.0000000  -0.0000000  -0.0000000  -0.0000000  -0.0000000
 NQMom=   -5.2000000   0.0000000   0.0000000   0.0000000   0.0000000   0.0000000   0.0000000   0.0000000   0.0000000   0.0000000
 NMagM=    5.1514000   0.0000000   2.7928460   0.0000000   2.7928460   0.0000000   2.7928460   0.0000000   2.7928460   0.0000000
 AtZNuc=  23.0000000   8.0000000   1.0000000   8.0000000   1.0000000   8.0000000   1.0000000   8.0000000   1.0000000   8.0000000

  Atom        11          12          13          14          15          16          17          18          19
 IAtWgt=           1          16           1           1           1           1           1           1           1
 AtmWgt=   1.0078250  15.9949146   1.0078250   1.0078250   1.0078250   1.0078250   1.0078250   1.0078250   1.0078250
 NucSpn=           1           0           1           1           1           1           1           1           1
 AtZEff=  -0.0000000  -0.0000000  -0.0000000  -0.0000000  -0.0000000  -0.0000000  -0.0000000  -0.0000000  -0.0000000
 NQMom=    0.0000000   0.0000000   0.0000000   0.0000000   0.0000000   0.0000000   0.0000000   0.0000000   0.0000000
 NMagM=    2.7928460   0.0000000   2.7928460   2.7928460   2.7928460   2.7928460   2.7928460   2.7928460   2.7928460
 AtZNuc=   1.0000000   8.0000000   1.0000000   1.0000000   1.0000000   1.0000000   1.0000000   1.0000000   1.0000000
 Leave Link  101 at Thu May 23 17:10:33 2024, MaxMem= 26843545600 cpu:               0.4 elap:               0.0
 (Enter /gpfs/fs1/soft/improv/software/custom-built/gaussian/g16/l103.exe)

 GradGradGradGradGradGradGradGradGradGradGradGradGradGradGradGradGradGrad
 Berny optimization.
 Initialization pass.
 No Z-matrix variables, so optimization will use Cartesian coordinates.
 Trust Radius=3.00D-01 FncErr=1.00D-07 GrdErr=1.00D-06 EigMax=2.50D+02 EigMin=1.00D-04
 Number of steps in this run=    114 maximum allowed number of steps=    114.
 GradGradGradGradGradGradGradGradGradGradGradGradGradGradGradGradGradGrad

 Leave Link  103 at Thu May 23 17:10:33 2024, MaxMem= 26843545600 cpu:               0.4 elap:               0.0
 (Enter /gpfs/fs1/soft/improv/software/custom-built/gaussian/g16/l202.exe)
 ---------------------------------------------------------------------------------------------------
                            Z-MATRIX (ANGSTROMS AND DEGREES)
   CD    Cent   Atom    N1       Length/X        N2       Alpha/Y        N3        Beta/Z          J
 ---------------------------------------------------------------------------------------------------
      1      1  V        0  -0.793037          0.818805         -0.094905
      2      2  O        0  -1.204971          2.573941         -0.356874
      3      3  H        0  -2.121063          2.649743         -0.633122
      4      4  O        0   0.990122          1.190635         -0.057941
      5      5  H        0   1.426962          0.599798          0.559707
      6      6  O        0  -0.817519          1.030691          1.713650
      7      7  H        0  -1.021079          0.190602          2.131326
      8      8  O        0  -0.385068         -0.933506          0.171177
      9      9  H        0  -1.156817         -1.473692         -0.014327
     10     10  O        0  -2.573405          0.451778         -0.121857
     11     11  H        0  -2.777557         -0.087440         -0.889285
     12     12  O        0  -0.769659          0.604612         -1.901109
     13     13  H        0   0.098725          0.834573         -2.239490
     14     14  H        0  -0.965336         -0.309994         -2.117418
     15     15  H        0   1.122081          2.099426          0.221242
     16     16  H        0  -1.076711          3.058396          0.461841
     17     17  H        0  -2.814074         -0.023981          0.676500
     18     18  H        0   0.042204          1.336153          2.011809
     19     19  H        0  -0.115315         -1.064459          1.083123
 ---------------------------------------------------------------------------------------------------
                         Z-Matrix orientation:                         
 ---------------------------------------------------------------------
 Center     Atomic      Atomic             Coordinates (Angstroms)
 Number     Number       Type             X           Y           Z
 ---------------------------------------------------------------------
      1         23           0       -0.793037    0.818805   -0.094905
      2          8           0       -1.204971    2.573941   -0.356874
      3          1           0       -2.121063    2.649743   -0.633122
      4          8           0        0.990122    1.190635   -0.057941
      5          1           0        1.426962    0.599798    0.559707
      6          8           0       -0.817519    1.030691    1.713650
      7          1           0       -1.021079    0.190602    2.131326
      8          8           0       -0.385068   -0.933506    0.171177
      9          1           0       -1.156817   -1.473692   -0.014327
     10          8           0       -2.573405    0.451778   -0.121857
     11          1           0       -2.777557   -0.087440   -0.889285
     12          8           0       -0.769659    0.604612   -1.901109
     13          1           0        0.098725    0.834573   -2.239490
     14          1           0       -0.965336   -0.309994   -2.117418
     15          1           0        1.122081    2.099426    0.221242
     16          1           0       -1.076711    3.058396    0.461841
     17          1           0       -2.814074   -0.023981    0.676500
     18          1           0        0.042204    1.336153    2.011809
     19          1           0       -0.115315   -1.064459    1.083123
 ---------------------------------------------------------------------
                    Distance matrix (angstroms):
                    1          2          3          4          5
     1  V    0.000000
     2  O    1.821762   0.000000
     3  H    2.325008   0.959835   0.000000
     4  O    1.821889   2.611767   3.484150   0.000000
     5  H    2.324839   3.415322   4.267739   0.959899   0.000000
     6  O    1.821090   2.611285   3.134947   2.536076   2.560263
     7  H    2.324381   3.450400   3.859988   3.136540   2.937743
     8  O    1.818745   3.640503   4.062050   2.540791   2.405292
     9  H    2.322579   4.062387   4.279649   3.421971   3.362259
    10  O    1.818006   2.536025   2.301533   3.639880   4.060711
    11  H    2.321775   3.136788   2.826442   4.064482   4.499984
    12  O    1.819010   2.540161   2.759827   2.614866   3.298603
    13  H    2.322657   2.875634   3.286750   2.383386   3.107223
    14  H    2.322591   3.387332   3.506977   3.212032   3.703756
    15  H    2.325429   2.444290   3.398642   0.959822   1.567289
    16  H    2.325125   0.959918   1.567358   2.833814   3.510364
    17  H    2.321626   3.225876   3.056824   4.060370   4.288255
    18  H    2.324547   2.949275   3.660724   2.281137   2.137375
    19  H    2.322443   4.061883   4.556733   2.758526   2.328591
                    6          7          8          9         10
     6  O    0.000000
     7  H    0.960021   0.000000
     8  O    2.534622   2.347406   0.000000
     9  H    3.061530   2.718847   0.960108   0.000000
    10  O    2.605257   2.748593   2.606473   2.392848   0.000000
    11  H    3.444886   3.505227   2.750347   2.305222   0.959885
    12  O    3.640099   4.061422   2.609231   2.833582   2.538227
    13  H    4.062670   4.557707   3.028445   3.443229   3.430916
    14  H    4.061572   4.278496   2.441955   2.411193   2.673658
    15  H    2.670492   3.447487   3.387136   4.244531   4.060675
    16  H    2.397039   3.318813   4.061790   4.557738   3.061904
    17  H    2.484803   2.318921   2.642472   2.307685   0.960023
    18  H    0.959858   1.567527   2.953276   3.665802   3.489421
    19  H    2.297892   1.869309   0.959980   1.567353   3.129403
                   11         12         13         14         15
    11  H    0.000000
    12  O    2.352526   0.000000
    13  H    3.308498   0.959935   0.000000
    14  H    2.200452   0.959991   1.567533   0.000000
    15  H    4.606825   3.212091   2.949969   3.953725   0.000000
    16  H    3.822919   3.420362   3.691102   4.243941   2.410850
    17  H    1.567497   3.349453   4.210050   3.362383   4.495491
    18  H    4.288824   4.062660   4.281159   4.558009   2.225950
    19  H    3.454344   3.481323   3.833001   3.396353   3.504877
                   16         17         18         19
    16  H    0.000000
    17  H    3.544793   0.000000
    18  H    2.573032   3.433851   0.000000
    19  H    4.278809   2.920828   2.578800   0.000000
 Stoichiometry    H12O6V(2+,4)
 Framework group  C1[X(H12O6V)]
 Deg. of freedom    51
 Full point group                 C1      NOp   1
 Largest Abelian subgroup         C1      NOp   1
 Largest concise Abelian subgroup C1      NOp   1
                         Standard orientation:                         
 ---------------------------------------------------------------------
 Center     Atomic      Atomic             Coordinates (Angstroms)
 Number     Number       Type             X           Y           Z
 ---------------------------------------------------------------------
      1         23           0       -0.020930   -0.030851    0.010117
      2          8           0       -0.320881   -1.688468   -0.683537
      3          1           0       -1.137136   -1.681045   -1.188468
      4          8           0        1.254385   -0.678558    1.138536
      5          1           0        1.942922   -0.019835    1.254320
      6          8           0        1.297591    0.293740   -1.203355
      7          1           0        1.381168    1.240413   -1.339237
      8          8           0        0.279591    1.625972    0.697472
      9          1           0       -0.432419    2.214852    0.436571
     10          8           0       -1.286602    0.614727   -1.124100
     11          1           0       -2.035606    0.937335   -0.617843
     12          8           0       -1.338715   -0.352402    1.222076
     13          1           0       -0.971940   -0.816344    1.978190
     14          1           0       -1.717839    0.480834    1.511152
     15          1           0        1.635326   -1.477232    0.766701
     16          1           0        0.408485   -1.931629   -1.258289
     17          1           0       -0.916150    1.334035   -1.640826
     18          1           0        2.128491   -0.056823   -0.874663
     19          1           0        1.113128    1.964930    0.362980
 ---------------------------------------------------------------------
 Rotational constants (GHZ):           2.0397021           1.9739483           1.9252864
 Leave Link  202 at Thu May 23 17:10:33 2024, MaxMem= 26843545600 cpu:               0.5 elap:               0.0
 (Enter /gpfs/fs1/soft/improv/software/custom-built/gaussian/g16/l301.exe)
 Standard basis: 6-31+G(2df,p) (6D, 7F)
 Ernie: Thresh=  0.10000D-02 Tol=  0.10000D-05 Strict=F.
 There are   347 symmetry adapted cartesian basis functions of A   symmetry.
 There are   317 symmetry adapted basis functions of A   symmetry.
   317 basis functions,   514 primitive gaussians,   347 cartesian basis functions
    42 alpha electrons       39 beta electrons
       nuclear repulsion energy       717.7225235776 Hartrees.
 IExCor= 1009 DFT=T Ex+Corr=PBE1PBE ExCW=0 ScaHFX=  0.250000
 ScaDFX=  0.750000  0.750000  1.000000  1.000000 ScalE2=  1.000000  1.000000
 IRadAn=      5 IRanWt=     -1 IRanGd=            0 ICorTp=0 IEmpDi=131
 NAtoms=   19 NActive=   19 NUniq=   19 SFac= 1.00D+00 NAtFMM=   60 NAOKFM=F Big=F
 Integral buffers will be    131072 words long.
 Raffenetti 2 integral format.
 Two-electron integral symmetry is turned on.
 R6Disp:  Grimme-D3 Dispersion energy=       -0.0131874161 Hartrees.
 Nuclear repulsion after empirical dispersion term =      717.7093361615 Hartrees.
 Leave Link  301 at Thu May 23 17:10:34 2024, MaxMem= 26843545600 cpu:               0.4 elap:               0.0
 (Enter /gpfs/fs1/soft/improv/software/custom-built/gaussian/g16/l302.exe)
 NPDir=0 NMtPBC=     1 NCelOv=     1 NCel=       1 NClECP=     1 NCelD=      1
         NCelK=      1 NCelE2=     1 NClLst=     1 CellRange=     0.0.
 One-electron integrals computed using PRISM.
 One-electron integral symmetry used in STVInt
 NBasis=   317 RedAO= T EigKep=  3.17D-05  NBF=   317
 NBsUse=   317 1.00D-06 EigRej= -1.00D+00 NBFU=   317
 Precomputing XC quadrature grid using
 IXCGrd= 4 IRadAn=           5 IRanWt=          -1 IRanGd=           0 AccXCQ= 0.00D+00.
 Generated NRdTot=       0 NPtTot=           0 NUsed=           0 NTot=          32
 NSgBfM=   347   347   347   347   347 MxSgAt=    19 MxSgA2=    19.
 Leave Link  302 at Thu May 23 17:10:34 2024, MaxMem= 26843545600 cpu:              21.7 elap:               0.3
 (Enter /gpfs/fs1/soft/improv/software/custom-built/gaussian/g16/l303.exe)
 DipDrv:  MaxL=1.
 Leave Link  303 at Thu May 23 17:10:34 2024, MaxMem= 26843545600 cpu:               1.0 elap:               0.0
 (Enter /gpfs/fs1/soft/improv/software/custom-built/gaussian/g16/l401.exe)
 ExpMin= 1.07D-02 ExpMax= 4.74D+04 ExpMxC= 7.11D+03 IAcc=3 IRadAn=         5 AccDes= 0.00D+00
 Harris functional with IExCor= 1009 and IRadAn=       5 diagonalized for initial guess.
 HarFok:  IExCor= 1009 AccDes= 0.00D+00 IRadAn=         5 IDoV= 1 UseB2=F ITyADJ=14
 ICtDFT=  3500011 ScaDFX=  1.000000  1.000000  1.000000  1.000000
 FoFCou: FMM=F IPFlag=           0 FMFlag=      100000 FMFlg1=           0
         NFxFlg=           0 DoJE=T BraDBF=F KetDBF=T FulRan=T
         wScrn=  0.000000 ICntrl=       500 IOpCl=  0 I1Cent=   200000004 NGrid=           0
         NMat0=    1 NMatS0=      1 NMatT0=    0 NMatD0=    1 NMtDS0=    0 NMtDT0=    0
 Petite list used in FoFCou.
 Harris En= -1401.42989679637    
 JPrj=0 DoOrth=F DoCkMO=F.
 Initial guess <Sx>= 0.0000 <Sy>= 0.0000 <Sz>= 1.5000 <S**2>= 3.7500 S= 1.5000
 Leave Link  401 at Thu May 23 17:10:35 2024, MaxMem= 26843545600 cpu:              37.0 elap:               0.4
 (Enter /gpfs/fs1/soft/improv/software/custom-built/gaussian/g16/l502.exe)
 Integral symmetry usage will be decided dynamically.
 UHF open shell SCF:
 Using DIIS extrapolation, IDIIS=  1040.
 NGot= 26843545600 LenX= 26843256607 LenY= 26843135757
 Requested convergence on RMS density matrix=1.00D-08 within  50 cycles.
 Requested convergence on MAX density matrix=1.00D-06.
 Requested convergence on             energy=1.00D-06.
 No special actions if energy rises.
 Fock matrices will be formed incrementally for  20 cycles.

 Cycle   1  Pass 1  IDiag  1:
 FoFJK:  IHMeth= 1 ICntrl=       0 DoSepK=F KAlg= 0 I1Cent=           0 FoldK=F
 IRaf= 990000000 NMat=       1 IRICut=       1 DoRegI=T DoRafI=F ISym2E= 0 IDoP0=0 IntGTp=1.
 FoFCou: FMM=F IPFlag=           0 FMFlag=      100000 FMFlg1=           0
         NFxFlg=           0 DoJE=F BraDBF=F KetDBF=F FulRan=T
         wScrn=  0.000000 ICntrl=         0 IOpCl=  1 I1Cent=           0 NGrid=           0
         NMat0=    1 NMatS0=      1 NMatT0=    0 NMatD0=    1 NMtDS0=    0 NMtDT0=    0
 Symmetry not used in FoFCou.
 E= -1400.81290243950    
 DIIS: error= 4.54D-02 at cycle   1 NSaved=   1.
 NSaved= 1 IEnMin= 1 EnMin= -1400.81290243950     IErMin= 1 ErrMin= 4.54D-02
 ErrMax= 4.54D-02  0.00D+00 EMaxC= 1.00D-01 BMatC= 2.47D+00 BMatP= 2.47D+00
 IDIUse=3 WtCom= 5.46D-01 WtEn= 4.54D-01
 Coeff-Com:  0.100D+01
 Coeff-En:   0.100D+01
 Coeff:      0.100D+01
 Gap=    -0.020 Goal=   None    Shift=    0.000
 Gap=     0.416 Goal=   None    Shift=    0.000
 GapD=   -0.020 DampG=0.250 DampE=0.250 DampFc=0.1250 IDamp=-1.
 Damping current iteration by 1.25D-01
 RMSDP=2.18D-02 MaxDP=2.79D+00              OVMax= 8.54D-01

 Cycle   2  Pass 1  IDiag  1:
 RMSU=  2.73D-03    CP:  9.96D-01
 E= -1400.90954646534     Delta-E=       -0.096644025838 Rises=F Damp=T
 DIIS: error= 4.01D-02 at cycle   2 NSaved=   2.
 NSaved= 2 IEnMin= 2 EnMin= -1400.90954646534     IErMin= 2 ErrMin= 4.01D-02
 ErrMax= 4.01D-02  0.00D+00 EMaxC= 1.00D-01 BMatC= 1.27D+00 BMatP= 2.47D+00
 IDIUse=3 WtCom= 5.99D-01 WtEn= 4.01D-01
 Coeff-Com: -0.215D+01 0.315D+01
 Coeff-En:   0.000D+00 0.100D+01
 Coeff:     -0.129D+01 0.229D+01
 Gap=     0.051 Goal=   None    Shift=    0.000
 Gap=     0.325 Goal=   None    Shift=    0.000
 RMSDP=5.00D-03 MaxDP=2.84D-01 DE=-9.66D-02 OVMax= 8.76D-01

 Cycle   3  Pass 1  IDiag  1:
 RMSU=  4.75D-03    CP:  9.46D-01  5.61D-01
 E= -1401.12671145268     Delta-E=       -0.217164987338 Rises=F Damp=F
 DIIS: error= 1.43D-02 at cycle   3 NSaved=   3.
 NSaved= 3 IEnMin= 3 EnMin= -1401.12671145268     IErMin= 3 ErrMin= 1.43D-02
 ErrMax= 1.43D-02  0.00D+00 EMaxC= 1.00D-01 BMatC= 6.44D-01 BMatP= 1.27D+00
 IDIUse=3 WtCom= 8.57D-01 WtEn= 1.43D-01
 EnCoef did   100 forward-backward iterations
 Coeff-Com: -0.105D+01 0.167D+01 0.379D+00
 Coeff-En:   0.118D+00 0.268D-02 0.879D+00
 Coeff:     -0.885D+00 0.143D+01 0.450D+00
 Gap=     0.060 Goal=   None    Shift=    0.000
 Gap=     0.355 Goal=   None    Shift=    0.000
 RMSDP=3.02D-03 MaxDP=1.29D-01 DE=-2.17D-01 OVMax= 1.37D-01

 Cycle   4  Pass 1  IDiag  1:
 RMSU=  2.03D-03    CP:  9.60D-01  8.80D-01  5.71D-01
 E= -1401.22441583806     Delta-E=       -0.097704385382 Rises=F Damp=F
 DIIS: error= 3.89D-03 at cycle   4 NSaved=   4.
 NSaved= 4 IEnMin= 4 EnMin= -1401.22441583806     IErMin= 4 ErrMin= 3.89D-03
 ErrMax= 3.89D-03  0.00D+00 EMaxC= 1.00D-01 BMatC= 3.62D-02 BMatP= 6.44D-01
 IDIUse=3 WtCom= 9.61D-01 WtEn= 3.89D-02
 Coeff-Com: -0.935D-01 0.106D+00 0.173D+00 0.815D+00
 Coeff-En:   0.000D+00 0.000D+00 0.000D+00 0.100D+01
 Coeff:     -0.899D-01 0.102D+00 0.166D+00 0.822D+00
 Gap=     0.095 Goal=   None    Shift=    0.000
 Gap=     0.341 Goal=   None    Shift=    0.000
 RMSDP=1.01D-03 MaxDP=6.75D-02 DE=-9.77D-02 OVMax= 5.33D-02

 Cycle   5  Pass 1  IDiag  1:
 RMSU=  4.03D-04    CP:  9.54D-01  7.01D-01  6.85D-01  7.23D-01
 E= -1401.23053955836     Delta-E=       -0.006123720295 Rises=F Damp=F
 DIIS: error= 8.40D-04 at cycle   5 NSaved=   5.
 NSaved= 5 IEnMin= 5 EnMin= -1401.23053955836     IErMin= 5 ErrMin= 8.40D-04
 ErrMax= 8.40D-04  0.00D+00 EMaxC= 1.00D-01 BMatC= 1.84D-03 BMatP= 3.62D-02
 IDIUse=3 WtCom= 9.92D-01 WtEn= 8.40D-03
 Coeff-Com: -0.643D-01 0.686D-01 0.305D-01 0.298D+00 0.667D+00
 Coeff-En:   0.000D+00 0.000D+00 0.000D+00 0.000D+00 0.100D+01
 Coeff:     -0.638D-01 0.680D-01 0.302D-01 0.296D+00 0.670D+00
 Gap=     0.096 Goal=   None    Shift=    0.000
 Gap=     0.343 Goal=   None    Shift=    0.000
 RMSDP=1.26D-04 MaxDP=5.61D-03 DE=-6.12D-03 OVMax= 7.02D-03

 Cycle   6  Pass 1  IDiag  1:
 RMSU=  1.02D-04    CP:  9.54D-01  6.86D-01  6.75D-01  7.35D-01  1.08D+00
 E= -1401.23080836004     Delta-E=       -0.000268801686 Rises=F Damp=F
 DIIS: error= 3.39D-04 at cycle   6 NSaved=   6.
 NSaved= 6 IEnMin= 6 EnMin= -1401.23080836004     IErMin= 6 ErrMin= 3.39D-04
 ErrMax= 3.39D-04  0.00D+00 EMaxC= 1.00D-01 BMatC= 4.59D-04 BMatP= 1.84D-03
 IDIUse=3 WtCom= 9.97D-01 WtEn= 3.39D-03
 Coeff-Com: -0.480D-01 0.538D-01-0.239D-01 0.175D-01 0.353D+00 0.647D+00
 Coeff-En:   0.000D+00 0.000D+00 0.000D+00 0.000D+00 0.000D+00 0.100D+01
 Coeff:     -0.478D-01 0.536D-01-0.238D-01 0.175D-01 0.352D+00 0.648D+00
 Gap=     0.096 Goal=   None    Shift=    0.000
 Gap=     0.342 Goal=   None    Shift=    0.000
 RMSDP=1.07D-04 MaxDP=8.57D-03 DE=-2.69D-04 OVMax= 8.07D-03

 Cycle   7  Pass 1  IDiag  1:
 RMSU=  5.06D-05    CP:  9.54D-01  6.64D-01  6.75D-01  7.21D-01  1.22D+00
                    CP:  1.31D+00
 E= -1401.23088561658     Delta-E=       -0.000077256540 Rises=F Damp=F
 DIIS: error= 2.21D-04 at cycle   7 NSaved=   7.
 NSaved= 7 IEnMin= 7 EnMin= -1401.23088561658     IErMin= 7 ErrMin= 2.21D-04
 ErrMax= 2.21D-04  0.00D+00 EMaxC= 1.00D-01 BMatC= 1.19D-04 BMatP= 4.59D-04
 IDIUse=3 WtCom= 9.98D-01 WtEn= 2.21D-03
 Coeff-Com: -0.314D-01 0.365D-01-0.182D-01-0.213D-01 0.454D-01 0.210D+00
 Coeff-Com:  0.779D+00
 Coeff-En:   0.000D+00 0.000D+00 0.000D+00 0.000D+00 0.000D+00 0.000D+00
 Coeff-En:   0.100D+01
 Coeff:     -0.313D-01 0.364D-01-0.182D-01-0.212D-01 0.453D-01 0.210D+00
 Coeff:      0.779D+00
 Gap=     0.096 Goal=   None    Shift=    0.000
 Gap=     0.341 Goal=   None    Shift=    0.000
 RMSDP=6.98D-05 MaxDP=4.81D-03 DE=-7.73D-05 OVMax= 5.37D-03

 Cycle   8  Pass 1  IDiag  1:
 RMSU=  1.87D-05    CP:  9.54D-01  6.52D-01  6.75D-01  7.15D-01  1.32D+00
                    CP:  1.62D+00  1.49D+00
 E= -1401.23090837160     Delta-E=       -0.000022755015 Rises=F Damp=F
 DIIS: error= 1.34D-04 at cycle   8 NSaved=   8.
 NSaved= 8 IEnMin= 8 EnMin= -1401.23090837160     IErMin= 8 ErrMin= 1.34D-04
 ErrMax= 1.34D-04  0.00D+00 EMaxC= 1.00D-01 BMatC= 3.62D-05 BMatP= 1.19D-04
 IDIUse=3 WtCom= 9.99D-01 WtEn= 1.34D-03
 Coeff-Com: -0.117D-01 0.137D-01-0.402D-02-0.339D-02-0.509D-01-0.702D-01
 Coeff-Com:  0.186D-01 0.111D+01
 Coeff-En:   0.000D+00 0.000D+00 0.000D+00 0.000D+00 0.000D+00 0.000D+00
 Coeff-En:   0.000D+00 0.100D+01
 Coeff:     -0.117D-01 0.137D-01-0.401D-02-0.339D-02-0.509D-01-0.701D-01
 Coeff:      0.186D-01 0.111D+01
 Gap=     0.096 Goal=   None    Shift=    0.000
 Gap=     0.341 Goal=   None    Shift=    0.000
 RMSDP=5.85D-05 MaxDP=4.18D-03 DE=-2.28D-05 OVMax= 4.91D-03

 Cycle   9  Pass 1  IDiag  1:
 RMSU=  8.41D-06    CP:  9.54D-01  6.42D-01  6.74D-01  7.09D-01  1.39D+00
                    CP:  1.91D+00  1.96D+00  1.64D+00
 E= -1401.23091830884     Delta-E=       -0.000009937241 Rises=F Damp=F
 DIIS: error= 4.12D-05 at cycle   9 NSaved=   9.
 NSaved= 9 IEnMin= 9 EnMin= -1401.23091830884     IErMin= 9 ErrMin= 4.12D-05
 ErrMax= 4.12D-05  0.00D+00 EMaxC= 1.00D-01 BMatC= 3.66D-06 BMatP= 3.62D-05
 IDIUse=1 WtCom= 1.00D+00 WtEn= 0.00D+00
 Coeff-Com: -0.303D-03 0.296D-03 0.118D-02 0.420D-02-0.137D-01-0.415D-01
 Coeff-Com: -0.177D+00 0.140D+00 0.109D+01
 Coeff:     -0.303D-03 0.296D-03 0.118D-02 0.420D-02-0.137D-01-0.415D-01
 Coeff:     -0.177D+00 0.140D+00 0.109D+01
 Gap=     0.096 Goal=   None    Shift=    0.000
 Gap=     0.341 Goal=   None    Shift=    0.000
 RMSDP=3.27D-05 MaxDP=2.38D-03 DE=-9.94D-06 OVMax= 2.84D-03

 Cycle  10  Pass 1  IDiag  1:
 RMSU=  2.50D-06    CP:  9.54D-01  6.36D-01  6.74D-01  7.04D-01  1.43D+00
                    CP:  2.07D+00  2.22D+00  2.03D+00  1.67D+00
 E= -1401.23091984207     Delta-E=       -0.000001533235 Rises=F Damp=F
 DIIS: error= 5.77D-06 at cycle  10 NSaved=  10.
 NSaved=10 IEnMin=10 EnMin= -1401.23091984207     IErMin=10 ErrMin= 5.77D-06
 ErrMax= 5.77D-06  0.00D+00 EMaxC= 1.00D-01 BMatC= 4.94D-08 BMatP= 3.66D-06
 IDIUse=1 WtCom= 1.00D+00 WtEn= 0.00D+00
 Coeff-Com:  0.721D-03-0.822D-03 0.331D-03 0.652D-03 0.464D-02 0.508D-02
 Coeff-Com: -0.283D-01-0.106D+00 0.214D+00 0.910D+00
 Coeff:      0.721D-03-0.822D-03 0.331D-03 0.652D-03 0.464D-02 0.508D-02
 Coeff:     -0.283D-01-0.106D+00 0.214D+00 0.910D+00
 Gap=     0.096 Goal=   None    Shift=    0.000
 Gap=     0.341 Goal=   None    Shift=    0.000
 RMSDP=7.91D-06 MaxDP=5.78D-04 DE=-1.53D-06 OVMax= 7.22D-04

 Cycle  11  Pass 1  IDiag  1:
 RMSU=  1.17D-06    CP:  9.54D-01  6.35D-01  6.75D-01  7.03D-01  1.44D+00
                    CP:  2.11D+00  2.28D+00  2.12D+00  1.86D+00  1.34D+00
 E= -1401.23091991441     Delta-E=       -0.000000072334 Rises=F Damp=F
 DIIS: error= 2.70D-06 at cycle  11 NSaved=  11.
 NSaved=11 IEnMin=11 EnMin= -1401.23091991441     IErMin=11 ErrMin= 2.70D-06
 ErrMax= 2.70D-06  0.00D+00 EMaxC= 1.00D-01 BMatC= 1.89D-08 BMatP= 4.94D-08
 IDIUse=1 WtCom= 1.00D+00 WtEn= 0.00D+00
 Coeff-Com:  0.361D-03-0.403D-03-0.161D-04-0.283D-03 0.408D-02 0.814D-02
 Coeff-Com:  0.113D-01-0.655D-01-0.605D-01 0.422D+00 0.680D+00
 Coeff:      0.361D-03-0.403D-03-0.161D-04-0.283D-03 0.408D-02 0.814D-02
 Coeff:      0.113D-01-0.655D-01-0.605D-01 0.422D+00 0.680D+00
 Gap=     0.096 Goal=   None    Shift=    0.000
 Gap=     0.341 Goal=   None    Shift=    0.000
 RMSDP=2.61D-06 MaxDP=1.86D-04 DE=-7.23D-08 OVMax= 2.43D-04

 Cycle  12  Pass 1  IDiag  1:
 RMSU=  3.54D-07    CP:  9.54D-01  6.34D-01  6.75D-01  7.03D-01  1.44D+00
                    CP:  2.12D+00  2.30D+00  2.14D+00  1.92D+00  1.50D+00
                    CP:  1.30D+00
 E= -1401.23091992667     Delta-E=       -0.000000012260 Rises=F Damp=F
 DIIS: error= 1.02D-06 at cycle  12 NSaved=  12.
 NSaved=12 IEnMin=12 EnMin= -1401.23091992667     IErMin=12 ErrMin= 1.02D-06
 ErrMax= 1.02D-06  0.00D+00 EMaxC= 1.00D-01 BMatC= 3.39D-09 BMatP= 1.89D-08
 IDIUse=1 WtCom= 1.00D+00 WtEn= 0.00D+00
 Coeff-Com: -0.337D-04 0.368D-04-0.703D-04-0.191D-03 0.287D-03 0.141D-02
 Coeff-Com:  0.101D-01 0.402D-02-0.846D-01-0.107D+00 0.250D+00 0.926D+00
 Coeff:     -0.337D-04 0.368D-04-0.703D-04-0.191D-03 0.287D-03 0.141D-02
 Coeff:      0.101D-01 0.402D-02-0.846D-01-0.107D+00 0.250D+00 0.926D+00
 Gap=     0.096 Goal=   None    Shift=    0.000
 Gap=     0.341 Goal=   None    Shift=    0.000
 RMSDP=2.00D-06 MaxDP=1.43D-04 DE=-1.23D-08 OVMax= 1.87D-04

 Cycle  13  Pass 1  IDiag  1:
 RMSU=  1.51D-07    CP:  9.54D-01  6.34D-01  6.75D-01  7.02D-01  1.44D+00
                    CP:  2.13D+00  2.31D+00  2.16D+00  1.97D+00  1.63D+00
                    CP:  1.55D+00  1.17D+00
 E= -1401.23091992994     Delta-E=       -0.000000003273 Rises=F Damp=F
 DIIS: error= 4.07D-07 at cycle  13 NSaved=  13.
 NSaved=13 IEnMin=13 EnMin= -1401.23091992994     IErMin=13 ErrMin= 4.07D-07
 ErrMax= 4.07D-07  0.00D+00 EMaxC= 1.00D-01 BMatC= 4.28D-10 BMatP= 3.39D-09
 IDIUse=1 WtCom= 1.00D+00 WtEn= 0.00D+00
 Coeff-Com: -0.503D-04 0.565D-04-0.201D-04-0.787D-05-0.135D-03-0.995D-04
 Coeff-Com:  0.643D-03 0.341D-02-0.108D-01-0.429D-01 0.473D-02 0.162D+00
 Coeff-Com:  0.883D+00
 Coeff:     -0.503D-04 0.565D-04-0.201D-04-0.787D-05-0.135D-03-0.995D-04
 Coeff:      0.643D-03 0.341D-02-0.108D-01-0.429D-01 0.473D-02 0.162D+00
 Coeff:      0.883D+00
 Gap=     0.096 Goal=   None    Shift=    0.000
 Gap=     0.341 Goal=   None    Shift=    0.000
 RMSDP=3.11D-07 MaxDP=2.09D-05 DE=-3.27D-09 OVMax= 2.69D-05

 Cycle  14  Pass 1  IDiag  1:
 RMSU=  4.25D-08    CP:  9.54D-01  6.34D-01  6.75D-01  7.02D-01  1.44D+00
                    CP:  2.13D+00  2.31D+00  2.17D+00  1.97D+00  1.64D+00
                    CP:  1.59D+00  1.24D+00  1.28D+00
 E= -1401.23091993005     Delta-E=       -0.000000000114 Rises=F Damp=F
 DIIS: error= 1.88D-07 at cycle  14 NSaved=  14.
 NSaved=14 IEnMin=14 EnMin= -1401.23091993005     IErMin=14 ErrMin= 1.88D-07
 ErrMax= 1.88D-07  0.00D+00 EMaxC= 1.00D-01 BMatC= 1.01D-10 BMatP= 4.28D-10
 IDIUse=1 WtCom= 1.00D+00 WtEn= 0.00D+00
 Coeff-Com: -0.313D-04 0.356D-04-0.537D-05 0.224D-04-0.761D-04-0.164D-03
 Coeff-Com: -0.102D-02 0.721D-03 0.591D-02-0.574D-02-0.298D-01-0.430D-01
 Coeff-Com:  0.419D+00 0.654D+00
 Coeff:     -0.313D-04 0.356D-04-0.537D-05 0.224D-04-0.761D-04-0.164D-03
 Coeff:     -0.102D-02 0.721D-03 0.591D-02-0.574D-02-0.298D-01-0.430D-01
 Coeff:      0.419D+00 0.654D+00
 Gap=     0.096 Goal=   None    Shift=    0.000
 Gap=     0.341 Goal=   None    Shift=    0.000
 RMSDP=6.20D-08 MaxDP=3.89D-06 DE=-1.14D-10 OVMax= 3.97D-06

 Cycle  15  Pass 1  IDiag  1:
 RMSU=  1.98D-08    CP:  9.54D-01  6.34D-01  6.75D-01  7.02D-01  1.44D+00
                    CP:  2.13D+00  2.31D+00  2.17D+00  1.98D+00  1.64D+00
                    CP:  1.60D+00  1.26D+00  1.44D+00  1.13D+00
 E= -1401.23091993007     Delta-E=       -0.000000000018 Rises=F Damp=F
 DIIS: error= 7.12D-08 at cycle  15 NSaved=  15.
 NSaved=15 IEnMin=15 EnMin= -1401.23091993007     IErMin=15 ErrMin= 7.12D-08
 ErrMax= 7.12D-08  0.00D+00 EMaxC= 1.00D-01 BMatC= 1.75D-11 BMatP= 1.01D-10
 IDIUse=1 WtCom= 1.00D+00 WtEn= 0.00D+00
 Coeff-Com: -0.967D-05 0.112D-04-0.971D-06 0.124D-04 0.146D-04-0.765D-05
 Coeff-Com: -0.540D-03-0.635D-03 0.464D-02 0.735D-02-0.131D-01-0.526D-01
 Coeff-Com: -0.475D-02 0.294D+00 0.765D+00
 Coeff:     -0.967D-05 0.112D-04-0.971D-06 0.124D-04 0.146D-04-0.765D-05
 Coeff:     -0.540D-03-0.635D-03 0.464D-02 0.735D-02-0.131D-01-0.526D-01
 Coeff:     -0.475D-02 0.294D+00 0.765D+00
 Gap=     0.096 Goal=   None    Shift=    0.000
 Gap=     0.341 Goal=   None    Shift=    0.000
 RMSDP=2.22D-08 MaxDP=1.42D-06 DE=-1.82D-11 OVMax= 1.60D-06

 Cycle  16  Pass 1  IDiag  1:
 RMSU=  8.20D-09    CP:  9.54D-01  6.34D-01  6.75D-01  7.02D-01  1.44D+00
                    CP:  2.13D+00  2.31D+00  2.17D+00  1.98D+00  1.64D+00
                    CP:  1.60D+00  1.27D+00  1.52D+00  1.36D+00  1.29D+00
 E= -1401.23091993008     Delta-E=       -0.000000000012 Rises=F Damp=F
 DIIS: error= 1.97D-08 at cycle  16 NSaved=  16.
 NSaved=16 IEnMin=16 EnMin= -1401.23091993008     IErMin=16 ErrMin= 1.97D-08
 ErrMax= 1.97D-08  0.00D+00 EMaxC= 1.00D-01 BMatC= 7.74D-13 BMatP= 1.75D-11
 IDIUse=1 WtCom= 1.00D+00 WtEn= 0.00D+00
 Coeff-Com: -0.241D-06 0.281D-06-0.515D-06-0.262D-06 0.174D-04 0.290D-04
 Coeff-Com:  0.670D-04-0.227D-03-0.152D-03 0.200D-02 0.182D-02-0.267D-02
 Coeff-Com: -0.425D-01-0.229D-01 0.113D+00 0.951D+00
 Coeff:     -0.241D-06 0.281D-06-0.515D-06-0.262D-06 0.174D-04 0.290D-04
 Coeff:      0.670D-04-0.227D-03-0.152D-03 0.200D-02 0.182D-02-0.267D-02
 Coeff:     -0.425D-01-0.229D-01 0.113D+00 0.951D+00
 Gap=     0.096 Goal=   None    Shift=    0.000
 Gap=     0.341 Goal=   None    Shift=    0.000
 RMSDP=1.50D-08 MaxDP=1.07D-06 DE=-1.18D-11 OVMax= 1.17D-06

 Cycle  17  Pass 1  IDiag  1:
 RMSU=  3.34D-09    CP:  9.54D-01  6.34D-01  6.75D-01  7.02D-01  1.44D+00
                    CP:  2.13D+00  2.31D+00  2.17D+00  1.98D+00  1.64D+00
                    CP:  1.60D+00  1.27D+00  1.55D+00  1.48D+00  1.52D+00
                    CP:  1.29D+00
 E= -1401.23091993009     Delta-E=       -0.000000000002 Rises=F Damp=F
 DIIS: error= 4.23D-09 at cycle  17 NSaved=  17.
 NSaved=17 IEnMin=17 EnMin= -1401.23091993009     IErMin=17 ErrMin= 4.23D-09
 ErrMax= 4.23D-09  0.00D+00 EMaxC= 1.00D-01 BMatC= 6.04D-14 BMatP= 7.74D-13
 IDIUse=1 WtCom= 1.00D+00 WtEn= 0.00D+00
 Coeff-Com:  0.872D-06-0.100D-05-0.135D-06-0.177D-05 0.321D-05 0.949D-05
 Coeff-Com:  0.879D-04 0.128D-04-0.555D-03-0.221D-03 0.194D-02 0.495D-02
 Coeff-Com: -0.104D-01-0.397D-01-0.581D-01 0.273D+00 0.829D+00
 Coeff:      0.872D-06-0.100D-05-0.135D-06-0.177D-05 0.321D-05 0.949D-05
 Coeff:      0.879D-04 0.128D-04-0.555D-03-0.221D-03 0.194D-02 0.495D-02
 Coeff:     -0.104D-01-0.397D-01-0.581D-01 0.273D+00 0.829D+00
 Gap=     0.096 Goal=   None    Shift=    0.000
 Gap=     0.341 Goal=   None    Shift=    0.000
 RMSDP=5.78D-09 MaxDP=4.37D-07 DE=-1.82D-12 OVMax= 4.34D-07

 SCF Done:  E(UPBE1PBE) =  -1401.23091993     A.U. after   17 cycles
            NFock= 17  Conv=0.58D-08     -V/T= 2.0007
 <Sx>= 0.0000 <Sy>= 0.0000 <Sz>= 1.5000 <S**2>= 3.7546 S= 1.5012
 <L.S>=  0.00000000000    
 KE= 1.400290123576D+03 PE=-4.728837627001D+03 EE= 1.209607247334D+03
 Annihilation of the first spin contaminant:
 S**2 before annihilation     3.7546,   after     3.7500
 Leave Link  502 at Thu May 23 17:11:03 2024, MaxMem= 26843545600 cpu:            3202.1 elap:              28.1
 (Enter /gpfs/fs1/soft/improv/software/custom-built/gaussian/g16/l508.exe)
 QCSCF skips out because SCF is already converged.
 Leave Link  508 at Thu May 23 17:11:03 2024, MaxMem= 26843545600 cpu:               0.2 elap:               0.0
 (Enter /gpfs/fs1/soft/improv/software/custom-built/gaussian/g16/l801.exe)
 DoSCS=F DFT=T ScalE2(SS,OS)=  1.000000  1.000000
 Range of M.O.s used for correlation:     1   317
 NBasis=   317 NAE=    42 NBE=    39 NFC=     0 NFV=     0
 NROrb=    317 NOA=    42 NOB=    39 NVA=   275 NVB=   278

 **** Warning!!: The largest alpha MO coefficient is  0.64829574D+02


 **** Warning!!: The smallest alpha delta epsilon is  0.96112320D-01


 **** Warning!!: The largest beta MO coefficient is  0.64819825D+02

 Leave Link  801 at Thu May 23 17:11:03 2024, MaxMem= 26843545600 cpu:               0.4 elap:               0.0
 (Enter /gpfs/fs1/soft/improv/software/custom-built/gaussian/g16/l1101.exe)
 Using compressed storage, NAtomX=    19.
 Will process     20 centers per pass.
 R6Disp: Adding Grimme-D3 dispersion energy 1st derivatives to the gradient.
 Leave Link 1101 at Thu May 23 17:11:04 2024, MaxMem= 26843545600 cpu:              51.3 elap:               0.5
 (Enter /gpfs/fs1/soft/improv/software/custom-built/gaussian/g16/l1102.exe)
 Symmetrizing basis deriv contribution to polar:
 IMax=3 JMax=2 DiffMx= 0.00D+00
 Leave Link 1102 at Thu May 23 17:11:04 2024, MaxMem= 26843545600 cpu:               0.9 elap:               0.0
 (Enter /gpfs/fs1/soft/improv/software/custom-built/gaussian/g16/l1110.exe)
 Forming Gx(P) for the SCF density, NAtomX=    19.
 Integral derivatives from FoFJK, PRISM(SPDF).
 Do as many integral derivatives as possible in FoFJK.
 G2DrvN: MDV=   26843543431.
 G2DrvN: will do    20 centers at a time, making    1 passes.
 Calling FoFCou, ICntrl=  3107 FMM=F I1Cent=   0 AccDes= 0.00D+00.
 FoFJK:  IHMeth= 1 ICntrl=    3107 DoSepK=F KAlg= 0 I1Cent=           0 FoldK=F
 IRaf=         0 NMat=       1 IRICut=       1 DoRegI=T DoRafI=F ISym2E= 0 IDoP0=0 IntGTp=1.
 FoFCou: FMM=F IPFlag=           0 FMFlag=      100000 FMFlg1=           0
         NFxFlg=           0 DoJE=F BraDBF=F KetDBF=F FulRan=T
         wScrn=  0.000000 ICntrl=      3107 IOpCl=  1 I1Cent=           0 NGrid=           0
         NMat0=    1 NMatS0=      1 NMatT0=    0 NMatD0=    1 NMtDS0=    0 NMtDT0=    0
 Symmetry not used in FoFCou.
 End of G2Drv F.D. properties file   721 does not exist.
 End of G2Drv F.D. properties file   722 does not exist.
 End of G2Drv F.D. properties file   788 does not exist.
 Leave Link 1110 at Thu May 23 17:11:19 2024, MaxMem= 26843545600 cpu:            1863.8 elap:              14.9
 (Enter /gpfs/fs1/soft/improv/software/custom-built/gaussian/g16/l1002.exe)
 Minotr:  UHF open shell wavefunction.
          IDoAtm=1111111111111111111
          Direct CPHF calculation.
          Differentiating once with respect to electric field.
                with respect to dipole field.
          Differentiating once with respect to nuclear coordinates.
          Requested convergence is 1.0D-08 RMS, and 1.0D-07 maximum.
          Secondary convergence is 1.0D-12 RMS, and 1.0D-12 maximum.
          NewPWx=T KeepS1=F KeepF1=F KeepIn=T MapXYZ=F SortEE=F KeepMc=T.
         6034 words used for storage of precomputed grid.
 Two-electron integrals replicated using symmetry.
          MDV=   26843545600 using IRadAn=       1.
          Solving linear equations simultaneously, MaxMat=     384.
 FoF2E skips out because all densities are zero.
 CalDSu exits because no D1Ps are significant.
 FoFJK:  IHMeth= 1 ICntrl=       0 DoSepK=F KAlg= 0 I1Cent=           0 FoldK=F
 IRaf= 990000000 NMat=      57 IRICut=     142 DoRegI=T DoRafI=T ISym2E= 2 IDoP0=3 IntGTp=2.
 FoFCou: FMM=F IPFlag=           0 FMFlag=      100000 FMFlg1=           0
         NFxFlg=           0 DoJE=F BraDBF=F KetDBF=F FulRan=T
         wScrn=  0.000000 ICntrl=         0 IOpCl=  1 I1Cent=           0 NGrid=           0
         NMat0=   57 NMatS0=     57 NMatT0=    0 NMatD0=   57 NMtDS0=    0 NMtDT0=    0
 Integrals replicated using symmetry in FoFCou.
 Raff kept on since  98.06% of shell-pairs survive, threshold=   0.20 IRatSp=98.
          There are    60 degrees of freedom in the 1st order CPHF.  IDoFFX=6 NUNeed=     3.
     57 vectors produced by pass  0 Test12= 3.73D-14 1.67D-09 XBig12= 9.57D+01 4.70D+00.
 AX will form    57 AO Fock derivatives at one time.
     57 vectors produced by pass  1 Test12= 3.73D-14 1.67D-09 XBig12= 7.29D+00 6.90D-01.
     57 vectors produced by pass  2 Test12= 3.73D-14 1.67D-09 XBig12= 3.06D-01 1.40D-01.
     57 vectors produced by pass  3 Test12= 3.73D-14 1.67D-09 XBig12= 3.70D-03 6.41D-03.
     57 vectors produced by pass  4 Test12= 3.73D-14 1.67D-09 XBig12= 3.22D-05 7.27D-04.
     57 vectors produced by pass  5 Test12= 3.73D-14 1.67D-09 XBig12= 2.04D-07 5.39D-05.
     55 vectors produced by pass  6 Test12= 3.73D-14 1.67D-09 XBig12= 1.16D-09 3.38D-06.
     19 vectors produced by pass  7 Test12= 3.73D-14 1.67D-09 XBig12= 4.27D-12 1.84D-07.
      3 vectors produced by pass  8 Test12= 3.73D-14 1.67D-09 XBig12= 1.44D-14 1.05D-08.
 InvSVY:  IOpt=1 It=  1 EMax= 3.55D-15
 Solved reduced A of dimension   419 with    60 vectors.
 FullF1:  Do perturbations      1 to       3.
 Isotropic polarizability for W=    0.000000       59.64 Bohr**3.
 End of Minotr F.D. properties file   721 does not exist.
 End of Minotr F.D. properties file   722 does not exist.
 End of Minotr F.D. properties file   788 does not exist.
 Leave Link 1002 at Thu May 23 17:12:27 2024, MaxMem= 26843545600 cpu:            8314.1 elap:              68.6
 (Enter /gpfs/fs1/soft/improv/software/custom-built/gaussian/g16/l601.exe)
 Copying SCF densities to generalized density rwf, IOpCl= 1 IROHF=0.

 **********************************************************************

            Population analysis using the SCF Density.

 **********************************************************************

 Orbital symmetries:
 Alpha Orbitals:
       Occupied  (A) (A) (A) (A) (A) (A) (A) (A) (A) (A) (A) (A)
                 (A) (A) (A) (A) (A) (A) (A) (A) (A) (A) (A) (A)
                 (A) (A) (A) (A) (A) (A) (A) (A) (A) (A) (A) (A)
                 (A) (A) (A) (A) (A) (A)
       Virtual   (A) (A) (A) (A) (A) (A) (A) (A) (A) (A) (A) (A)
                 (A) (A) (A) (A) (A) (A) (A) (A) (A) (A) (A) (A)
                 (A) (A) (A) (A) (A) (A) (A) (A) (A) (A) (A) (A)
                 (A) (A) (A) (A) (A) (A) (A) (A) (A) (A) (A) (A)
                 (A) (A) (A) (A) (A) (A) (A) (A) (A) (A) (A) (A)
                 (A) (A) (A) (A) (A) (A) (A) (A) (A) (A) (A) (A)
                 (A) (A) (A) (A) (A) (A) (A) (A) (A) (A) (A) (A)
                 (A) (A) (A) (A) (A) (A) (A) (A) (A) (A) (A) (A)
                 (A) (A) (A) (A) (A) (A) (A) (A) (A) (A) (A) (A)
                 (A) (A) (A) (A) (A) (A) (A) (A) (A) (A) (A) (A)
                 (A) (A) (A) (A) (A) (A) (A) (A) (A) (A) (A) (A)
                 (A) (A) (A) (A) (A) (A) (A) (A) (A) (A) (A) (A)
                 (A) (A) (A) (A) (A) (A) (A) (A) (A) (A) (A) (A)
                 (A) (A) (A) (A) (A) (A) (A) (A) (A) (A) (A) (A)
                 (A) (A) (A) (A) (A) (A) (A) (A) (A) (A) (A) (A)
                 (A) (A) (A) (A) (A) (A) (A) (A) (A) (A) (A) (A)
                 (A) (A) (A) (A) (A) (A) (A) (A) (A) (A) (A) (A)
                 (A) (A) (A) (A) (A) (A) (A) (A) (A) (A) (A) (A)
                 (A) (A) (A) (A) (A) (A) (A) (A) (A) (A) (A) (A)
                 (A) (A) (A) (A) (A) (A) (A) (A) (A) (A) (A) (A)
                 (A) (A) (A) (A) (A) (A) (A) (A) (A) (A) (A) (A)
                 (A) (A) (A) (A) (A) (A) (A) (A) (A) (A) (A) (A)
                 (A) (A) (A) (A) (A) (A) (A) (A) (A) (A) (A)
 Beta  Orbitals:
       Occupied  (A) (A) (A) (A) (A) (A) (A) (A) (A) (A) (A) (A)
                 (A) (A) (A) (A) (A) (A) (A) (A) (A) (A) (A) (A)
                 (A) (A) (A) (A) (A) (A) (A) (A) (A) (A) (A) (A)
                 (A) (A) (A)
       Virtual   (A) (A) (A) (A) (A) (A) (A) (A) (A) (A) (A) (A)
                 (A) (A) (A) (A) (A) (A) (A) (A) (A) (A) (A) (A)
                 (A) (A) (A) (A) (A) (A) (A) (A) (A) (A) (A) (A)
                 (A) (A) (A) (A) (A) (A) (A) (A) (A) (A) (A) (A)
                 (A) (A) (A) (A) (A) (A) (A) (A) (A) (A) (A) (A)
                 (A) (A) (A) (A) (A) (A) (A) (A) (A) (A) (A) (A)
                 (A) (A) (A) (A) (A) (A) (A) (A) (A) (A) (A) (A)
                 (A) (A) (A) (A) (A) (A) (A) (A) (A) (A) (A) (A)
                 (A) (A) (A) (A) (A) (A) (A) (A) (A) (A) (A) (A)
                 (A) (A) (A) (A) (A) (A) (A) (A) (A) (A) (A) (A)
                 (A) (A) (A) (A) (A) (A) (A) (A) (A) (A) (A) (A)
                 (A) (A) (A) (A) (A) (A) (A) (A) (A) (A) (A) (A)
                 (A) (A) (A) (A) (A) (A) (A) (A) (A) (A) (A) (A)
                 (A) (A) (A) (A) (A) (A) (A) (A) (A) (A) (A) (A)
                 (A) (A) (A) (A) (A) (A) (A) (A) (A) (A) (A) (A)
                 (A) (A) (A) (A) (A) (A) (A) (A) (A) (A) (A) (A)
                 (A) (A) (A) (A) (A) (A) (A) (A) (A) (A) (A) (A)
                 (A) (A) (A) (A) (A) (A) (A) (A) (A) (A) (A) (A)
                 (A) (A) (A) (A) (A) (A) (A) (A) (A) (A) (A) (A)
                 (A) (A) (A) (A) (A) (A) (A) (A) (A) (A) (A) (A)
                 (A) (A) (A) (A) (A) (A) (A) (A) (A) (A) (A) (A)
                 (A) (A) (A) (A) (A) (A) (A) (A) (A) (A) (A) (A)
                 (A) (A) (A) (A) (A) (A) (A) (A) (A) (A) (A) (A)
                 (A) (A)
 The electronic state is 4-A.
 Alpha  occ. eigenvalues -- -197.28111 -22.53982 -19.63057 -19.63044 -19.62194
 Alpha  occ. eigenvalues --  -19.61817 -19.59592 -19.58792 -19.00740 -19.00703
 Alpha  occ. eigenvalues --  -19.00681  -2.93384  -1.97260  -1.97043  -1.96809
 Alpha  occ. eigenvalues --   -1.47812  -1.45632  -1.45308  -1.44311  -1.42575
 Alpha  occ. eigenvalues --   -1.41770  -0.99907  -0.98369  -0.96546  -0.95867
 Alpha  occ. eigenvalues --   -0.94003  -0.92715  -0.86772  -0.85359  -0.84621
 Alpha  occ. eigenvalues --   -0.82751  -0.81746  -0.79042  -0.78635  -0.75835
 Alpha  occ. eigenvalues --   -0.75163  -0.73552  -0.71787  -0.70662  -0.48363
 Alpha  occ. eigenvalues --   -0.47673  -0.46065
 Alpha virt. eigenvalues --   -0.36454  -0.31386  -0.29106  -0.27849  -0.24517
 Alpha virt. eigenvalues --   -0.24009  -0.22217  -0.21918  -0.19268  -0.17938
 Alpha virt. eigenvalues --   -0.17480  -0.16894  -0.15957  -0.15236  -0.14689
 Alpha virt. eigenvalues --   -0.14455  -0.14102  -0.13427  -0.12520  -0.11249
 Alpha virt. eigenvalues --   -0.10760  -0.10110  -0.08915  -0.08353  -0.07483
 Alpha virt. eigenvalues --   -0.06461  -0.06212  -0.05208  -0.03864  -0.02368
 Alpha virt. eigenvalues --   -0.01681  -0.01564  -0.00706  -0.00038   0.00317
 Alpha virt. eigenvalues --    0.00817   0.02473   0.03730   0.05473   0.06053
 Alpha virt. eigenvalues --    0.06485   0.07045   0.09163   0.10096   0.10790
 Alpha virt. eigenvalues --    0.11290   0.12269   0.15343   0.16545   0.20822
 Alpha virt. eigenvalues --    0.21528   0.23391   0.23562   0.26769   0.28265
 Alpha virt. eigenvalues --    0.42931   0.43366   0.44488   0.47017   0.48145
 Alpha virt. eigenvalues --    0.48538   0.49699   0.50656   0.52557   0.53597
 Alpha virt. eigenvalues --    0.54393   0.54836   0.57463   0.58441   0.58818
 Alpha virt. eigenvalues --    0.59794   0.60150   0.61319   0.63024   0.64441
 Alpha virt. eigenvalues --    0.67664   0.70371   0.71650   0.71984   0.73547
 Alpha virt. eigenvalues --    0.73975   0.75275   0.75891   0.77589   0.78436
 Alpha virt. eigenvalues --    0.79391   0.81432   0.83391   0.84648   0.89220
 Alpha virt. eigenvalues --    0.89642   0.89783   0.92690   0.94396   0.97439
 Alpha virt. eigenvalues --    0.98587   1.00449   1.02769   1.04146   1.04371
 Alpha virt. eigenvalues --    1.05338   1.08915   1.09755   1.09994   1.15980
 Alpha virt. eigenvalues --    1.18503   1.20238   1.26281   1.27695   1.30755
 Alpha virt. eigenvalues --    1.38317   1.39309   1.40009   1.42090   1.44756
 Alpha virt. eigenvalues --    1.45268   1.48699   1.52311   1.53997   1.57391
 Alpha virt. eigenvalues --    1.60373   1.62231   1.64285   1.70283   1.73939
 Alpha virt. eigenvalues --    1.89705   1.91603   1.92424   1.93709   1.96622
 Alpha virt. eigenvalues --    1.96889   1.97893   2.00050   2.03927   2.07067
 Alpha virt. eigenvalues --    2.09947   2.12423   2.15801   2.19935   2.21522
 Alpha virt. eigenvalues --    2.25295   2.27208   2.31265   2.36835   2.42178
 Alpha virt. eigenvalues --    2.43324   2.44055   2.49998   2.51540   2.55093
 Alpha virt. eigenvalues --    2.55490   2.57245   2.59332   2.61276   2.63181
 Alpha virt. eigenvalues --    2.64359   2.67008   2.67464   2.69437   2.71609
 Alpha virt. eigenvalues --    2.73089   2.74287   2.78079   2.82534   2.83321
 Alpha virt. eigenvalues --    2.84634   2.85275   2.88997   2.91098   2.91928
 Alpha virt. eigenvalues --    3.04189   3.10298   3.12127   3.13729   3.17107
 Alpha virt. eigenvalues --    3.17952   3.20309   3.21359   3.22279   3.28485
 Alpha virt. eigenvalues --    3.44086   3.50466   3.73866   3.76936   3.78327
 Alpha virt. eigenvalues --    3.84165   3.85009   3.88482   3.89420   3.91636
 Alpha virt. eigenvalues --    3.91977   3.92399   3.96269   3.97953   4.02916
 Alpha virt. eigenvalues --    4.04877   4.10723   4.10835   4.13546   4.15642
 Alpha virt. eigenvalues --    4.20383   4.23234   4.26993   4.30051   4.33954
 Alpha virt. eigenvalues --    4.34244   4.38666   4.42644   4.44035   4.44932
 Alpha virt. eigenvalues --    4.47876   4.48168   4.57751   4.59706   4.60703
 Alpha virt. eigenvalues --    4.63549   4.64805   4.65833   4.75740   4.80703
 Alpha virt. eigenvalues --    4.84854   4.90705   4.92389   4.95929   4.98303
 Alpha virt. eigenvalues --    5.03407   5.08362   5.09909   5.12539   5.13101
 Alpha virt. eigenvalues --    5.13781   5.14730   5.17173   5.20124   5.21445
 Alpha virt. eigenvalues --    5.26915   5.29786   5.30288   5.32670   5.33835
 Alpha virt. eigenvalues --    5.36740   5.39256   5.42415   5.45305   5.47892
 Alpha virt. eigenvalues --    5.49628   5.50868   5.51179   5.53154   5.53899
 Alpha virt. eigenvalues --    5.56611   5.57357   5.57601   5.60173   5.62799
 Alpha virt. eigenvalues --    5.63463   5.63596   5.65132   5.65613   5.98978
 Alpha virt. eigenvalues --    6.01006   6.47470   7.14009   7.16840   7.17815
 Alpha virt. eigenvalues --    7.26977   7.32105   7.40158  13.45581  13.46661
 Alpha virt. eigenvalues --   13.47729  13.91999  13.97393  14.04976  36.81315
  Beta  occ. eigenvalues -- -197.28103 -22.50596 -19.63104 -19.63086 -19.62229
  Beta  occ. eigenvalues --  -19.61851 -19.59596 -19.58797 -18.97900 -18.97811
  Beta  occ. eigenvalues --  -18.97768  -2.82305  -1.85623  -1.85237  -1.84967
  Beta  occ. eigenvalues --   -1.47570  -1.45451  -1.45168  -1.43956  -1.42249
  Beta  occ. eigenvalues --   -1.41464  -0.99374  -0.97875  -0.96267  -0.95562
  Beta  occ. eigenvalues --   -0.93681  -0.92465  -0.86079  -0.84863  -0.84107
  Beta  occ. eigenvalues --   -0.81952  -0.81368  -0.78630  -0.78061  -0.75388
  Beta  occ. eigenvalues --   -0.74705  -0.73112  -0.71276  -0.70280
  Beta virt. eigenvalues --   -0.36226  -0.31248  -0.29308  -0.27576  -0.26471
  Beta virt. eigenvalues --   -0.25549  -0.23522  -0.23059  -0.22983  -0.20786
  Beta virt. eigenvalues --   -0.20560  -0.18108  -0.17439  -0.16742  -0.16317
  Beta virt. eigenvalues --   -0.15393  -0.14161  -0.13894  -0.13698  -0.12512
  Beta virt. eigenvalues --   -0.11766  -0.11275  -0.10833  -0.09696  -0.09210
  Beta virt. eigenvalues --   -0.07571  -0.07516  -0.06952  -0.05762  -0.05648
  Beta virt. eigenvalues --   -0.04336  -0.03402  -0.01967  -0.01172  -0.00304
  Beta virt. eigenvalues --    0.00070   0.00508   0.01019   0.01329   0.02923
  Beta virt. eigenvalues --    0.04365   0.05976   0.06567   0.06971   0.07596
  Beta virt. eigenvalues --    0.09960   0.10926   0.11391   0.12172   0.13389
  Beta virt. eigenvalues --    0.16555   0.17386   0.22852   0.23305   0.24360
  Beta virt. eigenvalues --    0.24539   0.28611   0.30049   0.43995   0.44714
  Beta virt. eigenvalues --    0.45817   0.48523   0.49527   0.49980   0.50788
  Beta virt. eigenvalues --    0.52348   0.53516   0.54290   0.55510   0.55949
  Beta virt. eigenvalues --    0.58014   0.59300   0.59634   0.60349   0.60781
  Beta virt. eigenvalues --    0.61930   0.63770   0.64996   0.68122   0.71344
  Beta virt. eigenvalues --    0.72383   0.72476   0.73917   0.74628   0.75926
  Beta virt. eigenvalues --    0.76359   0.78404   0.79013   0.80136   0.82189
  Beta virt. eigenvalues --    0.84202   0.85544   0.89760   0.90095   0.91025
  Beta virt. eigenvalues --    0.93204   0.94792   0.98288   1.00054   1.00875
  Beta virt. eigenvalues --    1.03358   1.05342   1.06088   1.07584   1.09959
  Beta virt. eigenvalues --    1.10290   1.11240   1.16359   1.20193   1.21826
  Beta virt. eigenvalues --    1.28032   1.29362   1.32781   1.42245   1.43108
  Beta virt. eigenvalues --    1.44122   1.45897   1.47966   1.49244   1.50804
  Beta virt. eigenvalues --    1.55233   1.55465   1.59198   1.62634   1.63810
  Beta virt. eigenvalues --    1.65921   1.72494   1.75889   1.90424   1.92353
  Beta virt. eigenvalues --    1.93103   1.94369   1.97329   1.97700   1.98750
  Beta virt. eigenvalues --    2.01094   2.04821   2.07684   2.10527   2.13362
  Beta virt. eigenvalues --    2.16663   2.20835   2.22628   2.26594   2.28503
  Beta virt. eigenvalues --    2.32479   2.38162   2.44333   2.45075   2.45513
  Beta virt. eigenvalues --    2.51279   2.52941   2.56190   2.56302   2.58212
  Beta virt. eigenvalues --    2.60527   2.62647   2.64599   2.65449   2.68273
  Beta virt. eigenvalues --    2.69058   2.70417   2.72438   2.74413   2.75606
  Beta virt. eigenvalues --    2.79634   2.83449   2.83932   2.85724   2.86180
  Beta virt. eigenvalues --    2.89951   2.91713   2.92604   3.06008   3.14119
  Beta virt. eigenvalues --    3.15022   3.17777   3.21808   3.22237   3.25040
  Beta virt. eigenvalues --    3.26222   3.27893   3.32743   3.48333   3.54256
  Beta virt. eigenvalues --    3.73949   3.77039   3.78430   3.84483   3.85164
  Beta virt. eigenvalues --    3.88696   3.89979   3.91949   3.92190   3.93212
  Beta virt. eigenvalues --    3.97117   3.98419   4.03266   4.05094   4.11079
  Beta virt. eigenvalues --    4.11655   4.13827   4.16219   4.21002   4.23969
  Beta virt. eigenvalues --    4.28304   4.35309   4.36974   4.39882   4.40901
  Beta virt. eigenvalues --    4.45520   4.46552   4.48220   4.49732   4.52110
  Beta virt. eigenvalues --    4.59568   4.60749   4.61563   4.65240   4.66200
  Beta virt. eigenvalues --    4.67731   4.78514   4.83239   4.85407   4.91586
  Beta virt. eigenvalues --    4.93262   4.96671   4.99336   5.05384   5.08564
  Beta virt. eigenvalues --    5.10029   5.12703   5.13375   5.14132   5.15149
  Beta virt. eigenvalues --    5.17952   5.20836   5.22167   5.28482   5.30867
  Beta virt. eigenvalues --    5.31310   5.33829   5.34740   5.37713   5.39985
  Beta virt. eigenvalues --    5.43801   5.46052   5.48444   5.50063   5.51694
  Beta virt. eigenvalues --    5.52259   5.54106   5.54655   5.57100   5.58106
  Beta virt. eigenvalues --    5.58604   5.61019   5.63680   5.63945   5.64563
  Beta virt. eigenvalues --    5.65506   5.66233   5.99240   6.01266   6.49492
  Beta virt. eigenvalues --    7.14438   7.17271   7.18270   7.27223   7.32365
  Beta virt. eigenvalues --    7.40551  13.45837  13.46908  13.47982  13.92124
  Beta virt. eigenvalues --   13.97502  14.05084  36.84216
          Condensed to atoms (all electrons):
               1          2          3          4          5          6
     1  V   22.987686  -0.147201  -0.031565  -0.113140  -0.041438  -0.121156
     2  O   -0.147201   8.436036   0.325668  -0.109849  -0.002511  -0.033961
     3  H   -0.031565   0.325668   0.279605  -0.001179   0.000016   0.001987
     4  O   -0.113140  -0.109849  -0.001179   8.632040   0.323478  -0.168894
     5  H   -0.041438  -0.002511   0.000016   0.323478   0.313361   0.003672
     6  O   -0.121156  -0.033961   0.001987  -0.168894   0.003672   8.480715
     7  H   -0.027351  -0.007688   0.000011   0.004071  -0.000273   0.307803
     8  O   -0.119249   0.045913  -0.000429  -0.103195   0.004733  -0.113201
     9  H   -0.030366  -0.000421  -0.000057  -0.005577  -0.000377   0.003763
    10  O   -0.124105  -0.082624   0.001575   0.066829  -0.001120  -0.116447
    11  H   -0.027850   0.001406  -0.000219   0.000383   0.000012  -0.004520
    12  O   -0.172743   0.045687   0.004760  -0.121132  -0.001125   0.059369
    13  H   -0.038516  -0.001551  -0.000051   0.001320  -0.000205   0.000342
    14  H   -0.020786  -0.002623  -0.000083   0.003826  -0.000015  -0.000936
    15  H   -0.032120   0.004008  -0.000219   0.326887  -0.028226  -0.007136
    16  H   -0.036093   0.328712  -0.017100   0.001032  -0.000101  -0.004827
    17  H   -0.043870  -0.002496  -0.000082  -0.001037  -0.000045   0.004801
    18  H   -0.026264   0.005750   0.000052   0.001341   0.001203   0.307535
    19  H   -0.024970  -0.001989   0.000023   0.008451   0.002296  -0.005071
               7          8          9         10         11         12
     1  V   -0.027351  -0.119249  -0.030366  -0.124105  -0.027850  -0.172743
     2  O   -0.007688   0.045913  -0.000421  -0.082624   0.001406   0.045687
     3  H    0.000011  -0.000429  -0.000057   0.001575  -0.000219   0.004760
     4  O    0.004071  -0.103195  -0.005577   0.066829   0.000383  -0.121132
     5  H   -0.000273   0.004733  -0.000377  -0.001120   0.000012  -0.001125
     6  O    0.307803  -0.113201   0.003763  -0.116447  -0.004520   0.059369
     7  H    0.330488  -0.007485  -0.000170   0.008935  -0.000034  -0.001870
     8  O   -0.007485   8.420160   0.318622  -0.096794  -0.005548  -0.004395
     9  H   -0.000170   0.318622   0.304878  -0.004323   0.002073   0.004384
    10  O    0.008935  -0.096794  -0.004323   8.594632   0.322333  -0.164024
    11  H   -0.000034  -0.005548   0.002073   0.322333   0.309818  -0.001523
    12  O   -0.001870  -0.004395   0.004384  -0.164024  -0.001523   8.489247
    13  H    0.000020  -0.000313  -0.000004  -0.000445  -0.000349   0.338464
    14  H   -0.000082  -0.005418   0.001521   0.002628   0.003758   0.308027
    15  H    0.000187  -0.002831   0.000022   0.000163   0.000009  -0.000197
    16  H   -0.000457  -0.000007   0.000017   0.004943   0.000007  -0.004153
    17  H    0.002589   0.002129   0.000012   0.328390  -0.028036  -0.001322
    18  H   -0.020547   0.004485   0.000061  -0.005580   0.000034  -0.001153
    19  H    0.010275   0.301778  -0.020582   0.003683   0.000230  -0.007204
              13         14         15         16         17         18
     1  V   -0.038516  -0.020786  -0.032120  -0.036093  -0.043870  -0.026264
     2  O   -0.001551  -0.002623   0.004008   0.328712  -0.002496   0.005750
     3  H   -0.000051  -0.000083  -0.000219  -0.017100  -0.000082   0.000052
     4  O    0.001320   0.003826   0.326887   0.001032  -0.001037   0.001341
     5  H   -0.000205  -0.000015  -0.028226  -0.000101  -0.000045   0.001203
     6  O    0.000342  -0.000936  -0.007136  -0.004827   0.004801   0.307535
     7  H    0.000020  -0.000082   0.000187  -0.000457   0.002589  -0.020547
     8  O   -0.000313  -0.005418  -0.002831  -0.000007   0.002129   0.004485
     9  H   -0.000004   0.001521   0.000022   0.000017   0.000012   0.000061
    10  O   -0.000445   0.002628   0.000163   0.004943   0.328390  -0.005580
    11  H   -0.000349   0.003758   0.000009   0.000007  -0.028036   0.000034
    12  O    0.338464   0.308027  -0.000197  -0.004153  -0.001322  -0.001153
    13  H    0.272536  -0.018392  -0.000188  -0.000029   0.000003  -0.000059
    14  H   -0.018392   0.322734   0.000024   0.000002  -0.000256   0.000021
    15  H   -0.000188   0.000024   0.296686   0.001144   0.000011   0.001563
    16  H   -0.000029   0.000002   0.001144   0.305084  -0.000042   0.000235
    17  H    0.000003  -0.000256   0.000011  -0.000042   0.309504  -0.000380
    18  H   -0.000059   0.000021   0.001563   0.000235  -0.000380   0.304365
    19  H   -0.000004  -0.000423  -0.000003  -0.000088  -0.000173   0.000561
              19
     1  V   -0.024970
     2  O   -0.001989
     3  H    0.000023
     4  O    0.008451
     5  H    0.002296
     6  O   -0.005071
     7  H    0.010275
     8  O    0.301778
     9  H   -0.020582
    10  O    0.003683
    11  H    0.000230
    12  O   -0.007204
    13  H   -0.000004
    14  H   -0.000423
    15  H   -0.000003
    16  H   -0.000088
    17  H   -0.000173
    18  H    0.000561
    19  H    0.330814
          Atomic-Atomic Spin Densities.
               1          2          3          4          5          6
     1  V    3.608287  -0.079949  -0.019830  -0.062191  -0.028470  -0.095814
     2  O   -0.079949   0.004422   0.009406   0.008344  -0.001746   0.019989
     3  H   -0.019830   0.009406   0.019399  -0.000209   0.000044  -0.001377
     4  O   -0.062191   0.008344  -0.000209   0.001477   0.014949  -0.006436
     5  H   -0.028470  -0.001746   0.000044   0.014949   0.027245   0.002909
     6  O   -0.095814   0.019989  -0.001377  -0.006436   0.002909   0.045614
     7  H   -0.022470  -0.004717   0.000026  -0.002046  -0.000053   0.000578
     8  O   -0.075841  -0.002755  -0.000256   0.008559   0.005295  -0.003512
     9  H   -0.021749  -0.000473  -0.000046  -0.002563  -0.000445  -0.003189
    10  O   -0.068864   0.008348   0.008189  -0.002952  -0.000932   0.011643
    11  H   -0.017479  -0.000569  -0.000150   0.000136   0.000005  -0.003365
    12  O   -0.091609   0.013342   0.001858   0.011789  -0.002156  -0.000033
    13  H   -0.021671  -0.000299  -0.000030   0.006344  -0.000223   0.000112
    14  H   -0.027896  -0.000641  -0.000101  -0.002547  -0.000035  -0.000681
    15  H   -0.018726   0.006503  -0.000260   0.008587  -0.006178  -0.000538
    16  H   -0.028732   0.017009  -0.003877  -0.000528  -0.000136   0.007356
    17  H   -0.028849  -0.002553  -0.000240  -0.001022  -0.000032   0.005891
    18  H   -0.015079   0.000952   0.000032   0.016476   0.002075  -0.008868
    19  H   -0.019896  -0.001289   0.000019   0.002786   0.002083   0.008931
               7          8          9         10         11         12
     1  V   -0.022470  -0.075841  -0.021749  -0.068864  -0.017479  -0.091609
     2  O   -0.004717  -0.002755  -0.000473   0.008348  -0.000569   0.013342
     3  H    0.000026  -0.000256  -0.000046   0.008189  -0.000150   0.001858
     4  O   -0.002046   0.008559  -0.002563  -0.002952   0.000136   0.011789
     5  H   -0.000053   0.005295  -0.000445  -0.000932   0.000005  -0.002156
     6  O    0.000578  -0.003512  -0.003189   0.011643  -0.003365  -0.000033
     7  H    0.041502   0.007405  -0.000207   0.002106  -0.000112  -0.001213
     8  O    0.007405   0.017930   0.005364   0.003292   0.001146   0.022647
     9  H   -0.000207   0.005364   0.032538   0.012271   0.001565  -0.000698
    10  O    0.002106   0.003292   0.012271  -0.002527   0.006677   0.006563
    11  H   -0.000112   0.001146   0.001565   0.006677   0.032234   0.001785
    12  O   -0.001213   0.022647  -0.000698   0.006563   0.001785   0.010550
    13  H    0.000015  -0.001442  -0.000029  -0.000663  -0.000349   0.016243
    14  H   -0.000065   0.005701   0.001197   0.000457   0.002245   0.012518
    15  H    0.000013  -0.001952   0.000063   0.000031   0.000016  -0.002093
    16  H   -0.000485  -0.000370   0.000014  -0.002278   0.000033  -0.001021
    17  H    0.002044   0.003248   0.000773   0.015878  -0.006550  -0.001274
    18  H   -0.005116  -0.001534   0.000040  -0.002198   0.000068  -0.001300
    19  H    0.008577  -0.005063  -0.005836  -0.001768   0.000059  -0.005370
              13         14         15         16         17         18
     1  V   -0.021671  -0.027896  -0.018726  -0.028732  -0.028849  -0.015079
     2  O   -0.000299  -0.000641   0.006503   0.017009  -0.002553   0.000952
     3  H   -0.000030  -0.000101  -0.000260  -0.003877  -0.000240   0.000032
     4  O    0.006344  -0.002547   0.008587  -0.000528  -0.001022   0.016476
     5  H   -0.000223  -0.000035  -0.006178  -0.000136  -0.000032   0.002075
     6  O    0.000112  -0.000681  -0.000538   0.007356   0.005891  -0.008868
     7  H    0.000015  -0.000065   0.000013  -0.000485   0.002044  -0.005116
     8  O   -0.001442   0.005701  -0.001952  -0.000370   0.003248  -0.001534
     9  H   -0.000029   0.001197   0.000063   0.000014   0.000773   0.000040
    10  O   -0.000663   0.000457   0.000031  -0.002278   0.015878  -0.002198
    11  H   -0.000349   0.002245   0.000016   0.000033  -0.006550   0.000068
    12  O    0.016243   0.012518  -0.002093  -0.001021  -0.001274  -0.001300
    13  H    0.016356  -0.004561  -0.000170  -0.000046   0.000042  -0.000046
    14  H   -0.004561   0.023961   0.000046   0.000046  -0.000260   0.000020
    15  H   -0.000170   0.000046   0.025488   0.000761   0.000002   0.001327
    16  H   -0.000046   0.000046   0.000761   0.019732  -0.000057   0.000294
    17  H    0.000042  -0.000260   0.000002  -0.000057   0.022938  -0.000397
    18  H   -0.000046   0.000020   0.001327   0.000294  -0.000397   0.038731
    19  H    0.000014  -0.000422  -0.000082  -0.000065  -0.000006   0.000459
              19
     1  V   -0.019896
     2  O   -0.001289
     3  H    0.000019
     4  O    0.002786
     5  H    0.002083
     6  O    0.008931
     7  H    0.008577
     8  O   -0.005063
     9  H   -0.005836
    10  O   -0.001768
    11  H    0.000059
    12  O   -0.005370
    13  H    0.000014
    14  H   -0.000422
    15  H   -0.000082
    16  H   -0.000065
    17  H   -0.000006
    18  H    0.000459
    19  H    0.047394
 Mulliken charges and spin densities:
               1          2
     1  V    1.191096   2.863171
     2  O   -0.800265  -0.006675
     3  H    0.437289   0.012595
     4  O   -0.745657  -0.001045
     5  H    0.426663   0.014199
     6  O   -0.593839  -0.020788
     7  H    0.401578   0.025783
     8  O   -0.638957  -0.012137
     9  H    0.426521   0.018591
    10  O   -0.738649  -0.006726
    11  H    0.428017   0.017394
    12  O   -0.769099  -0.009472
    13  H    0.447421   0.009600
    14  H    0.406473   0.008982
    15  H    0.440216   0.012840
    16  H    0.421721   0.007651
    17  H    0.430301   0.009576
    18  H    0.426775   0.025936
    19  H    0.402396   0.030526
 Sum of Mulliken charges =   2.00000   3.00000
 Mulliken charges and spin densities with hydrogens summed into heavy atoms:
               1          2
     1  V    1.191096   2.863171
     2  O    0.058744   0.013571
     4  O    0.121221   0.025994
     6  O    0.234514   0.030931
     8  O    0.189960   0.036979
    10  O    0.119669   0.020243
    12  O    0.084796   0.009110
 APT charges:
               1
     1  V    0.853653
     2  O   -0.493271
     3  H    0.351305
     4  O   -0.385704
     5  H    0.275563
     6  O   -0.221293
     7  H    0.188571
     8  O   -0.231052
     9  H    0.253181
    10  O   -0.390225
    11  H    0.288499
    12  O   -0.491670
    13  H    0.357108
    14  H    0.314137
    15  H    0.308429
    16  H    0.327221
    17  H    0.286240
    18  H    0.236777
    19  H    0.172532
 Sum of APT charges =   2.00000
 APT charges with hydrogens summed into heavy atoms:
               1
     1  V    0.853653
     2  O    0.185255
     4  O    0.198288
     6  O    0.204055
     8  O    0.194661
    10  O    0.184514
    12  O    0.179575
 Electronic spatial extent (au):  <R**2>=            859.5274
 Charge=              2.0000 electrons
 Dipole moment (field-independent basis, Debye):
    X=              2.0488    Y=              3.4044    Z=             -0.9071  Tot=              4.0756
 Quadrupole moment (field-independent basis, Debye-Ang):
   XX=            -21.9783   YY=            -25.2455   ZZ=            -34.5151
   XY=             -4.4351   XZ=             -1.4701   YZ=             -0.8104
 Traceless Quadrupole moment (field-independent basis, Debye-Ang):
   XX=              5.2680   YY=              2.0008   ZZ=             -7.2688
   XY=             -4.4351   XZ=             -1.4701   YZ=             -0.8104
 Octapole moment (field-independent basis, Debye-Ang**2):
  XXX=             15.6257  YYY=             14.9628  ZZZ=              4.6767  XYY=              3.5188
  XXY=              7.9870  XXZ=              3.1846  XZZ=             -7.5595  YZZ=             -3.0663
  YYZ=            -13.1995  XYZ=             -2.8201
 Hexadecapole moment (field-independent basis, Debye-Ang**3):
 XXXX=           -218.4289 YYYY=           -227.7481 ZZZZ=           -245.9584 XXXY=            -20.4053
 XXXZ=              3.7011 YYYX=            -12.3041 YYYZ=              5.9074 ZZZX=            -14.5196
 ZZZY=            -12.8523 XXYY=            -62.5625 XXZZ=            -73.6633 YYZZ=            -65.2616
 XXYZ=              3.9414 YYXZ=              1.3027 ZZXY=              1.9302
 N-N= 7.177093361615D+02 E-N=-4.728837625870D+03  KE= 1.400290123576D+03
  Exact polarizability:      64.400       2.176      63.070      -1.564      -2.392      51.439
 Approx polarizability:      81.084       1.659      79.238      -2.234      -2.497      66.026
                          Isotropic Fermi Contact Couplings
        Atom                 a.u.       MegaHertz       Gauss      10(-4) cm-1
     1  V(51)             -0.28079    -110.24064     -39.33660     -36.77232
     2  O(17)             -0.01804       3.64585       1.30093       1.21612
     3  H(1)               0.00751      11.18706       3.99182       3.73160
     4  O(17)             -0.00888       1.79507       0.64053       0.59877
     5  H(1)               0.00784      11.67470       4.16582       3.89426
     6  O(17)              0.01710      -3.45562      -1.23305      -1.15267
     7  H(1)               0.00977      14.56354       5.19663       4.85787
     8  O(17)              0.00886      -1.79080      -0.63900      -0.59735
     9  H(1)               0.00917      13.66796       4.87707       4.55914
    10  O(17)             -0.01370       2.76813       0.98774       0.92335
    11  H(1)               0.00925      13.77963       4.91692       4.59639
    12  O(17)             -0.02383       4.81609       1.71850       1.60647
    13  H(1)               0.00668       9.94789       3.54966       3.31826
    14  H(1)               0.00680      10.13543       3.61657       3.38082
    15  H(1)               0.00805      11.98917       4.27804       3.99916
    16  H(1)               0.00640       9.53354       3.40180       3.18005
    17  H(1)               0.00711      10.59436       3.78033       3.53390
    18  H(1)               0.01077      16.05092       5.72737       5.35401
    19  H(1)               0.01044      15.55963       5.55206       5.19013
 --------------------------------------------------------
       Center         ----  Spin Dipole Couplings  ----
                      3XX-RR        3YY-RR        3ZZ-RR
 --------------------------------------------------------
     1   Atom       -0.064637      0.018619      0.046018
     2   Atom       -0.061116      0.058211      0.002904
     3   Atom       -0.008546      0.014988     -0.006442
     4   Atom       -0.017722     -0.031329      0.049051
     5   Atom        0.033923     -0.031211     -0.002711
     6   Atom       -0.006842     -0.059580      0.066422
     7   Atom        0.004966     -0.006846      0.001880
     8   Atom       -0.056552      0.034411      0.022141
     9   Atom       -0.028038      0.054195     -0.026157
    10   Atom        0.002497     -0.024881      0.022384
    11   Atom        0.037222     -0.013919     -0.023303
    12   Atom        0.031315     -0.015270     -0.016045
    13   Atom       -0.015073     -0.019332      0.034405
    14   Atom        0.018526     -0.025638      0.007112
    15   Atom        0.016027      0.003141     -0.019168
    16   Atom       -0.026090      0.029985     -0.003895
    17   Atom       -0.015673      0.000632      0.015041
    18   Atom        0.043938     -0.028881     -0.015057
    19   Atom       -0.012907      0.037416     -0.024509
 --------------------------------------------------------
                        XY            XZ            YZ
 --------------------------------------------------------
     1   Atom       -0.024256      0.011437     -0.008351
     2   Atom        0.023920     -0.011161     -0.032227
     3   Atom        0.030815      0.022280      0.032480
     4   Atom       -0.024601      0.035876     -0.029853
     5   Atom       -0.001073      0.039507     -0.000985
     6   Atom        0.003822     -0.069708     -0.008004
     7   Atom        0.030077     -0.031573     -0.024809
     8   Atom        0.014421      0.028091      0.067869
     9   Atom       -0.012706     -0.003381      0.016833
    10   Atom       -0.001792      0.058137      0.003690
    11   Atom       -0.031676      0.023115     -0.010265
    12   Atom        0.066422     -0.005534      0.019785
    13   Atom        0.012053     -0.031080     -0.026815
    14   Atom       -0.016001     -0.043245      0.012230
    15   Atom       -0.039143      0.021257     -0.019322
    16   Atom       -0.014000     -0.009420      0.041133
    17   Atom       -0.020944      0.026080     -0.037184
    18   Atom        0.001927     -0.032735      0.000793
    19   Atom        0.035826      0.007158      0.011960
 --------------------------------------------------------


 ---------------------------------------------------------------------------------
              Anisotropic Spin Dipole Couplings in Principal Axis System
 ---------------------------------------------------------------------------------

       Atom             a.u.   MegaHertz   Gauss  10(-4) cm-1        Axes

              Baa    -0.0719   -10.103    -3.605    -3.370  0.9648  0.2517 -0.0758
     1 V(51)  Bbb     0.0205     2.888     1.030     0.963 -0.2042  0.8994  0.3865
              Bcc     0.0513     7.216     2.575     2.407  0.1654 -0.3574  0.9192
 
              Baa    -0.0661     4.785     1.707     1.596  0.9825 -0.1682  0.0803
     2 O(17)  Bbb    -0.0119     0.862     0.307     0.287 -0.0027  0.4184  0.9083
              Bcc     0.0780    -5.646    -2.015    -1.883  0.1864  0.8926 -0.4106
 
              Baa    -0.0299   -15.969    -5.698    -5.327  0.0084 -0.5897  0.8075
     3 H(1)   Bbb    -0.0297   -15.869    -5.662    -5.293  0.8734 -0.3889 -0.2931
              Bcc     0.0597    31.838    11.361    10.620  0.4869  0.7078  0.5118
 
              Baa    -0.0501     3.627     1.294     1.210  0.5789  0.8146  0.0358
     4 O(17)  Bbb    -0.0274     1.981     0.707     0.661  0.7072 -0.4797 -0.5193
              Bcc     0.0775    -5.608    -2.001    -1.871  0.4059 -0.3260  0.8538
 
              Baa    -0.0313   -16.675    -5.950    -5.562 -0.0276  0.9970  0.0727
     5 H(1)   Bbb    -0.0279   -14.898    -5.316    -4.969 -0.5377 -0.0761  0.8397
              Bcc     0.0592    31.573    11.266    10.532  0.8427 -0.0159  0.5382
 
              Baa    -0.0601     4.349     1.552     1.451  0.0393  0.9956  0.0846
     6 O(17)  Bbb    -0.0489     3.538     1.262     1.180  0.8556 -0.0773  0.5119
              Bcc     0.1090    -7.887    -2.814    -2.631 -0.5162 -0.0523  0.8549
 
              Baa    -0.0317   -16.915    -6.036    -5.642 -0.6899  0.7137 -0.1214
     7 H(1)   Bbb    -0.0266   -14.184    -5.061    -4.731  0.3516  0.4769  0.8056
              Bcc     0.0583    31.099    11.097    10.373  0.6328  0.5131 -0.5799
 
              Baa    -0.0665     4.811     1.717     1.605  0.9113  0.1321 -0.3900
[...]
    17  H   -0.000003  -0.000002   0.000000   0.000015   0.295093  -0.000007
    18  H    0.000000   0.000001  -0.000012  -0.000012  -0.000007   0.297857
    19  H   -0.000003  -0.000055  -0.000007   0.000000  -0.000003   0.000015
              19
     1  V   -0.005792
     2  O   -0.000247
     3  H    0.000000
     4  O    0.001459
     5  H   -0.000075
     6  O    0.001344
     7  H   -0.000009
     8  O    0.298571
     9  H   -0.016785
    10  O    0.000775
    11  H   -0.000002
    12  O    0.001415
    13  H   -0.000003
    14  H   -0.000055
    15  H   -0.000007
    16  H    0.000000
    17  H   -0.000003
    18  H    0.000015
    19  H    0.295092
          Atomic-Atomic Spin Densities.
               1          2          3          4          5          6
     1  V    3.200093  -0.009800  -0.003757  -0.009773  -0.003753  -0.009780
     2  O   -0.009800  -0.030188   0.003760   0.003797  -0.000310   0.003801
     3  H   -0.003757   0.003760   0.003004  -0.000191   0.000001  -0.000311
     4  O   -0.009773   0.003797  -0.000191  -0.030238   0.003763   0.003807
     5  H   -0.003753  -0.000310   0.000001   0.003763   0.002998  -0.000190
     6  O   -0.009780   0.003801  -0.000311   0.003807  -0.000190  -0.030215
     7  H   -0.003756  -0.000190   0.000001  -0.000310   0.000001   0.003762
     8  O   -0.009831  -0.001490  -0.000012   0.003109   0.000085   0.003664
     9  H   -0.005037  -0.000017  -0.000000  -0.000086  -0.000005   0.000016
    10  O   -0.009780   0.003672   0.000058  -0.001497  -0.000012   0.003111
    11  H   -0.005043   0.000014   0.000005  -0.000017  -0.000000  -0.000086
    12  O   -0.009772   0.003101   0.000087   0.003680   0.000056  -0.001497
    13  H   -0.003755   0.000087   0.000057   0.000058  -0.000001  -0.000012
    14  H   -0.005053  -0.000086  -0.000005   0.000013   0.000004  -0.000017
    15  H   -0.005053   0.001221  -0.000017   0.003700  -0.001347   0.000207
    16  H   -0.005053   0.003697  -0.001347   0.000208   0.000001   0.001225
    17  H   -0.003757   0.000057  -0.000001  -0.000012   0.000000   0.000087
    18  H   -0.005043   0.000206   0.000001   0.001221  -0.000016   0.003691
    19  H   -0.003749  -0.000012   0.000000   0.000086   0.000058   0.000054
               7          8          9         10         11         12
     1  V   -0.003756  -0.009831  -0.005037  -0.009780  -0.005043  -0.009772
     2  O   -0.000190  -0.001490  -0.000017   0.003672   0.000014   0.003101
     3  H    0.000001  -0.000012  -0.000000   0.000058   0.000005   0.000087
     4  O   -0.000310   0.003109  -0.000086  -0.001497  -0.000017   0.003680
     5  H    0.000001   0.000085  -0.000005  -0.000012  -0.000000   0.000056
     6  O    0.003762   0.003664   0.000016   0.003111  -0.000086  -0.001497
     7  H    0.002999   0.000054   0.000005   0.000088  -0.000005  -0.000012
     8  O    0.000054  -0.030124   0.003696   0.003816   0.000211   0.003812
     9  H    0.000005   0.003696   0.003959   0.001215  -0.000006   0.000206
    10  O    0.000088   0.003816   0.001215  -0.030231   0.003695   0.003803
    11  H   -0.000005   0.000211  -0.000006   0.003695   0.003966   0.001217
    12  O   -0.000012   0.003812   0.000206   0.003803   0.001217  -0.030224
    13  H    0.000000  -0.000311   0.000001  -0.000190  -0.000017   0.003760
    14  H   -0.000000   0.001222  -0.000006   0.000209  -0.000006   0.003704
    15  H    0.000001  -0.000085   0.000001  -0.000017   0.000000   0.000012
    16  H   -0.000017  -0.000017   0.000000   0.000012  -0.000002  -0.000085
    17  H    0.000058  -0.000192  -0.000016   0.003767  -0.001346  -0.000310
    18  H   -0.001346   0.000015  -0.000002  -0.000085   0.000001  -0.000017
    19  H   -0.000001   0.003758  -0.001345  -0.000310   0.000001  -0.000189
              13         14         15         16         17         18
     1  V   -0.003755  -0.005053  -0.005053  -0.005053  -0.003757  -0.005043
     2  O    0.000087  -0.000086   0.001221   0.003697   0.000057   0.000206
     3  H    0.000057  -0.000005  -0.000017  -0.001347  -0.000001   0.000001
     4  O    0.000058   0.000013   0.003700   0.000208  -0.000012   0.001221
     5  H   -0.000001   0.000004  -0.001347   0.000001   0.000000  -0.000016
     6  O   -0.000012  -0.000017   0.000207   0.001225   0.000087   0.003691
     7  H    0.000000  -0.000000   0.000001  -0.000017   0.000058  -0.001346
     8  O   -0.000311   0.001222  -0.000085  -0.000017  -0.000192   0.000015
     9  H    0.000001  -0.000006   0.000001   0.000000  -0.000016  -0.000002
    10  O   -0.000190   0.000209  -0.000017   0.000012   0.003767  -0.000085
    11  H   -0.000017  -0.000006   0.000000  -0.000002  -0.001346   0.000001
    12  O    0.003760   0.003704   0.000012  -0.000085  -0.000310  -0.000017
    13  H    0.003004  -0.001348   0.000005  -0.000005   0.000001  -0.000000
    14  H   -0.001348   0.003965  -0.000002   0.000001   0.000001   0.000000
    15  H    0.000005  -0.000002   0.003967  -0.000006  -0.000000  -0.000006
    16  H   -0.000005   0.000001  -0.000006   0.003968   0.000004  -0.000006
    17  H    0.000001   0.000001  -0.000000   0.000004   0.002997  -0.000005
    18  H   -0.000000   0.000000  -0.000006  -0.000006  -0.000005   0.003967
    19  H    0.000001  -0.000017  -0.000005  -0.000000   0.000001   0.000004
              19
     1  V   -0.003749
     2  O   -0.000012
     3  H    0.000000
     4  O    0.000086
     5  H    0.000058
     6  O    0.000054
     7  H   -0.000001
     8  O    0.003758
     9  H   -0.001345
    10  O   -0.000310
    11  H    0.000001
    12  O   -0.000189
    13  H    0.000001
    14  H   -0.000017
    15  H   -0.000005
    16  H   -0.000000
    17  H    0.000001
    18  H    0.000004
    19  H    0.002997
 Mulliken charges and spin densities:
               1          2
     1  V    1.414156   3.088547
     2  O   -0.746135  -0.018679
     3  H    0.424249   0.001333
     4  O   -0.746211  -0.018682
     5  H    0.424322   0.001331
     6  O   -0.746133  -0.018683
     7  H    0.424300   0.001332
     8  O   -0.746254  -0.018621
     9  H    0.419518   0.002577
    10  O   -0.746219  -0.018677
    11  H    0.419600   0.002582
    12  O   -0.746082  -0.018667
    13  H    0.424203   0.001334
    14  H    0.419557   0.002579
    15  H    0.419484   0.002575
    16  H    0.419593   0.002577
    17  H    0.424248   0.001332
    18  H    0.419497   0.002578
    19  H    0.424308   0.001331
 Sum of Mulliken charges =   2.00000   3.00000
 Mulliken charges and spin densities with hydrogens summed into heavy atoms:
               1          2
     1  V    1.414156   3.088547
     2  O    0.097708  -0.014768
     4  O    0.097595  -0.014776
     6  O    0.097664  -0.014773
     8  O    0.097571  -0.014713
    10  O    0.097628  -0.014763
    12  O    0.097678  -0.014754
 Electronic spatial extent (au):  <R**2>=           1167.9362
 Charge=              2.0000 electrons
 Dipole moment (field-independent basis, Debye):
    X=             -0.0002    Y=             -0.0014    Z=             -0.0002  Tot=              0.0014
 Quadrupole moment (field-independent basis, Debye-Ang):
   XX=            -17.7855   YY=            -16.2500   ZZ=            -16.2286
   XY=             -0.0011   XZ=              0.0000   YZ=              0.0136
 Traceless Quadrupole moment (field-independent basis, Debye-Ang):
   XX=             -1.0308   YY=              0.5046   ZZ=              0.5261
   XY=             -0.0011   XZ=              0.0000   YZ=              0.0136
 Octapole moment (field-independent basis, Debye-Ang**2):
  XXX=              0.0013  YYY=              5.5841  ZZZ=              1.0270  XYY=             -0.0005
  XXY=             -0.0142  XXZ=             -0.0264  XZZ=              0.0041  YZZ=             -5.5976
  YYZ=             -1.0218  XYZ=             -0.0018
 Hexadecapole moment (field-independent basis, Debye-Ang**3):
 XXXX=           -324.5357 YYYY=           -190.2328 ZZZZ=           -190.0418 XXXY=              0.0163
 XXXZ=             -0.0434 YYYX=              9.0381 YYYZ=             -0.0235 ZZZX=            -49.0667
 ZZZY=              0.1054 XXYY=            -55.2780 XXZZ=            -55.1854 YYZZ=            -63.1822
 XXYZ=              0.0636 YYXZ=             49.1252 ZZXY=             -9.0471
 N-N= 6.127168108534D+02 E-N=-4.519390915736D+03  KE= 1.397707744554D+03
                          Isotropic Fermi Contact Couplings
        Atom                 a.u.       MegaHertz       Gauss      10(-4) cm-1
     1  V(51)             -0.12185     -47.83771     -17.06969     -15.95694
     2  O(17)             -0.02153       4.35078       1.55246       1.45126
     3  H(1)               0.00136       2.02371       0.72211       0.67504
     4  O(17)             -0.02156       4.35630       1.55444       1.45311
     5  H(1)               0.00136       2.02360       0.72207       0.67500
     6  O(17)             -0.02153       4.35070       1.55244       1.45124
     7  H(1)               0.00136       2.02279       0.72178       0.67473
     8  O(17)             -0.02150       4.34383       1.54999       1.44895
     9  H(1)               0.00176       2.61726       0.93390       0.87303
    10  O(17)             -0.02150       4.34424       1.55013       1.44908
    11  H(1)               0.00176       2.62054       0.93507       0.87412
    12  O(17)             -0.02151       4.34700       1.55112       1.45000
    13  H(1)               0.00136       2.02471       0.72247       0.67537
    14  H(1)               0.00176       2.61672       0.93371       0.87284
    15  H(1)               0.00175       2.61403       0.93275       0.87194
    16  H(1)               0.00176       2.61573       0.93336       0.87252
    17  H(1)               0.00136       2.02296       0.72184       0.67479
    18  H(1)               0.00176       2.61651       0.93364       0.87277
    19  H(1)               0.00136       2.02278       0.72178       0.67473
 --------------------------------------------------------
       Center         ----  Spin Dipole Couplings  ----
                      3XX-RR        3YY-RR        3ZZ-RR
 --------------------------------------------------------
     1   Atom       -0.116065      0.058085      0.057981
     2   Atom       -0.005635     -0.008314      0.013949
     3   Atom       -0.009451      0.021939     -0.012488
     4   Atom       -0.005501     -0.003312      0.008813
     5   Atom       -0.009389     -0.016457      0.025846
     6   Atom       -0.005565      0.019924     -0.014359
     7   Atom       -0.009431      0.008649      0.000782
     8   Atom       -0.005462      0.018799     -0.013337
     9   Atom        0.013980      0.006282     -0.020262
    10   Atom       -0.005574      0.000896      0.004678
    11   Atom        0.014028     -0.015332      0.001304
    12   Atom       -0.005675     -0.011151      0.016826
    13   Atom       -0.009457      0.017946     -0.008489
    14   Atom        0.014023     -0.011923     -0.002100
    15   Atom        0.014026     -0.017610      0.003584
    16   Atom        0.014029     -0.008794     -0.005235
    17   Atom       -0.009421     -0.017692      0.027113
    18   Atom        0.013972      0.005428     -0.019400
    19   Atom       -0.009385      0.013799     -0.004414
 --------------------------------------------------------
                        XY            XZ            YZ
 --------------------------------------------------------
     1   Atom        0.000053      0.000043     -0.000078
     2   Atom        0.028113     -0.016215      0.013210
     3   Atom        0.019846      0.006626      0.014550
     4   Atom       -0.028109     -0.016128     -0.016291
     5   Atom       -0.004226     -0.020534      0.007683
     6   Atom        0.000111      0.032391      0.002888
     7   Atom       -0.015647      0.013903     -0.022180
     8   Atom        0.003816      0.032109     -0.006866
     9   Atom        0.029576      0.002793      0.001956
    10   Atom        0.025841     -0.019474      0.017245
    11   Atom       -0.012355     -0.027011      0.010492
    12   Atom       -0.029841     -0.012660     -0.010182
    13   Atom       -0.018894      0.008975     -0.018258
    14   Atom       -0.017235      0.024197     -0.012459
    15   Atom        0.008995     -0.028306     -0.008186
    16   Atom        0.020032      0.021936      0.013269
    17   Atom        0.001683     -0.020880     -0.002329
    18   Atom       -0.029024      0.006372     -0.005103
    19   Atom        0.017231      0.011939      0.020575
 --------------------------------------------------------


 ---------------------------------------------------------------------------------
              Anisotropic Spin Dipole Couplings in Principal Axis System
 ---------------------------------------------------------------------------------

       Atom             a.u.   MegaHertz   Gauss  10(-4) cm-1        Axes

              Baa    -0.1161   -16.318    -5.823    -5.443  1.0000 -0.0003 -0.0002
     1 V(51)  Bbb     0.0579     8.146     2.907     2.717  0.0004  0.4711  0.8821
              Bcc     0.0581     8.172     2.916     2.726  0.0002  0.8821 -0.4711
 
              Baa    -0.0427     3.092     1.103     1.031 -0.6580  0.6697 -0.3443
     2 O(17)  Bbb     0.0189    -1.368    -0.488    -0.456  0.3619  0.6822  0.6353
              Bcc     0.0238    -1.724    -0.615    -0.575 -0.6603 -0.2934  0.6913
 
              Baa    -0.0191   -10.215    -3.645    -3.407  0.8435 -0.4874  0.2257
     3 H(1)   Bbb    -0.0176    -9.385    -3.349    -3.131 -0.3439 -0.1674  0.9239
              Bcc     0.0367    19.601     6.994     6.538  0.4125  0.8570  0.3088
 
              Baa    -0.0427     3.092     1.103     1.031  0.6562  0.6359  0.4063
     4 O(17)  Bbb     0.0189    -1.371    -0.489    -0.457 -0.3654 -0.2034  0.9084
              Bcc     0.0238    -1.721    -0.614    -0.574 -0.6602  0.7445 -0.0989
 
              Baa    -0.0191   -10.212    -3.644    -3.406  0.8421  0.4420  0.3089
     5 H(1)   Bbb    -0.0176    -9.382    -3.348    -3.129 -0.3458  0.8822 -0.3196
              Bcc     0.0367    19.594     6.991     6.536 -0.4138  0.1623  0.8958
 
              Baa    -0.0427     3.091     1.103     1.031 -0.6567 -0.0336  0.7534
     6 O(17)  Bbb     0.0190    -1.371    -0.489    -0.457 -0.3701  0.8848 -0.2832
              Bcc     0.0238    -1.720    -0.614    -0.574  0.6571  0.4648  0.5934
 
              Baa    -0.0191   -10.213    -3.644    -3.407  0.8426  0.0463 -0.5365
     7 H(1)   Bbb    -0.0176    -9.382    -3.348    -3.130  0.3457  0.7175  0.6048
              Bcc     0.0367    19.596     6.992     6.536 -0.4129  0.6950 -0.5886
 
              Baa    -0.0427     3.090     1.103     1.031 -0.6552  0.1238  0.7453
     8 O(17)  Bbb     0.0190    -1.377    -0.491    -0.459  0.3714  0.9118  0.1750
              Bcc     0.0237    -1.713    -0.611    -0.571  0.6579 -0.3915  0.6434
 
              Baa    -0.0206   -10.994    -3.923    -3.667 -0.2888  0.2505  0.9240
     9 H(1)   Bbb    -0.0195   -10.426    -3.720    -3.478 -0.5945  0.7096 -0.3782
              Bcc     0.0401    21.420     7.643     7.145  0.7504  0.6586  0.0560
 
              Baa    -0.0427     3.088     1.102     1.030  0.6569 -0.5802  0.4815
    10 O(17)  Bbb     0.0190    -1.372    -0.490    -0.458 -0.3662  0.3127  0.8764
              Bcc     0.0237    -1.715    -0.612    -0.572  0.6590  0.7521  0.0071
 
              Baa    -0.0206   -10.995    -3.923    -3.667  0.2913 -0.6720  0.6809
    11 H(1)   Bbb    -0.0195   -10.426    -3.720    -3.478  0.5927  0.6854  0.4230
              Bcc     0.0401    21.420     7.643     7.145  0.7509 -0.2803 -0.5979
 
              Baa    -0.0427     3.091     1.103     1.031  0.6581  0.7063  0.2607
    12 O(17)  Bbb     0.0189    -1.371    -0.489    -0.457  0.3661 -0.6028  0.7089
              Bcc     0.0238    -1.720    -0.614    -0.574  0.6579 -0.3711 -0.6553
 
              Baa    -0.0191   -10.215    -3.645    -3.407  0.8438  0.5108  0.1646
    13 H(1)   Bbb    -0.0176    -9.385    -3.349    -3.130 -0.3435  0.2783  0.8970
              Bcc     0.0367    19.600     6.994     6.538 -0.4124  0.8134 -0.4102
 
              Baa    -0.0206   -10.996    -3.924    -3.668  0.2927  0.9255  0.2403
    14 H(1)   Bbb    -0.0195   -10.427    -3.720    -3.478 -0.5920 -0.0219  0.8056
              Bcc     0.0402    21.423     7.644     7.146  0.7509 -0.3781  0.5415
 
              Baa    -0.0206   -10.994    -3.923    -3.667  0.2904  0.7504  0.5937
    15 H(1)   Bbb    -0.0195   -10.425    -3.720    -3.477 -0.5931  0.6281 -0.5037
              Bcc     0.0401    21.420     7.643     7.145  0.7509  0.2059 -0.6275
 
              Baa    -0.0206   -10.996    -3.924    -3.668 -0.2928  0.8898 -0.3501
    16 H(1)   Bbb    -0.0195   -10.426    -3.720    -3.478 -0.5919  0.1189  0.7972
              Bcc     0.0401    21.422     7.644     7.146  0.7510  0.4407  0.4918
 
              Baa    -0.0191   -10.215    -3.645    -3.407  0.8432 -0.3988  0.3605
    17 H(1)   Bbb    -0.0176    -9.385    -3.349    -3.130  0.3439  0.9156  0.2083
              Bcc     0.0367    19.599     6.994     6.538 -0.4132 -0.0517  0.9092
 
              Baa    -0.0206   -10.996    -3.924    -3.668 -0.2904 -0.1381  0.9469
    18 H(1)   Bbb    -0.0195   -10.428    -3.721    -3.478  0.5939  0.7499  0.2915
              Bcc     0.0402    21.424     7.645     7.146  0.7503 -0.6470  0.1357
 
              Baa    -0.0191   -10.211    -3.643    -3.406  0.8417 -0.1101 -0.5286
    19 H(1)   Bbb    -0.0176    -9.380    -3.347    -3.129  0.3469 -0.6400  0.6856
              Bcc     0.0367    19.591     6.991     6.535  0.4138  0.7604  0.5005
 

 ---------------------------------------------------------------------------------

 No NMR shielding tensors so no spin-rotation constants.
 Leave Link  601 at Thu May 23 18:42:23 2024, MaxMem= 26843545600 cpu:              28.8 elap:               0.3
 (Enter /gpfs/fs1/soft/improv/software/custom-built/gaussian/g16/l9999.exe)
 Unable to Open any file for archive entry.
 1\1\GINC-I813\SP\UPBE1PBE\Gen\H12O6V1(2+,4)\HHARB\23-May-2024\0\\#p PB
 E1PBE empiricaldispersion=gd3 scf=(maxcycles=500,xqc,maxconventional=5
 0) scrf=(cpcm,solvent=water) geom=allcheck guess=read chkbasis\\Title\
 \2,4\V,-0.7847044901,0.7129514843,0.0318341696\O,-1.2213581433,2.80996
 85851,-0.1497379268\H,-1.5766433962,3.2962995898,-0.902476842\O,1.2620
 762032,1.3532389386,0.1814196668\H,2.0715018152,0.8467217369,0.0486674
 625\O,-0.8488951955,1.0835192022,2.1484067749\H,-1.4759338657,0.761116
 1557,2.8058536376\O,-0.3538860032,-1.3850992416,0.2171392513\H,-1.0764
 659404,-2.0168043233,0.3188420295\O,-2.8324734176,0.0771410682,-0.1227
 598547\H,-3.2256264418,-0.0697681405,-0.9918791599\O,-0.7147767306,0.3
 392260647,-2.0839594877\H,-0.5955284237,0.9621035276,-2.8100208004\H,-
 0.4143598689,-0.5177536205,-2.4108412352\H,1.4903061782,2.2760925228,0
 .0147782787\H,-1.4485929518,3.3232514495,0.6353873352\H,-3.566430358,0
 .23060021,0.4831412945\H,-0.0340939059,1.2816367136,2.6262841942\H,0.4
 343673661,-1.8183621533,0.5639666218\\Version=ES64L-G16RevC.02\State=4
 -A\HF=-1401.7666415\S2=3.753711\S2-1=0.\S2A=3.750007\RMSD=1.279e-09\Di
 pole=0.0001203,-0.0004208,0.0003527\Quadrupole=0.2250007,-0.2949068,0.
 0699061,-0.3437699,-0.2232101,-0.4487648\PG=C01 [X(H12O6V1)]\\@
 The archive entry for this job was punched.


 THE ONLY EXISTING THINGS ARE ATOMS AND EMPTY SPACE;
 ALL ELSE IS MERE OPINION. -- DEMOCRITUS OF ABDERA D. 370 B.C.
 EXPERIMENTS ARE THE ONLY MEANS OF KNOWLEDGE AT OUR DISPOSAL
 THE REST IS POETRY, IMAGINATION. -- MAX PLANCK
 Job cpu time:       0 days  0 hours 39 minutes 29.5 seconds.
 Elapsed time:       0 days  0 hours  0 minutes 21.7 seconds.
 File lengths (MBytes):  RWF=    122 Int=      0 D2E=      0 Chk=     32 Scr=      1
 Normal termination of Gaussian 16 at Thu May 23 18:42:23 2024.
