 Entering Gaussian System, Link 0=g16
 Input=V_2_B3LYP.com
 Output=V_2_B3LYP.log
 Initial command:
 /gpfs/fs1/soft/improv/software/custom-built/gaussian/g16/l1.exe "/scratch/Gau-353578.inp" -scrdir="/scratch/"
 Default CPUs for threads: 0-127
 Default linda workers: i256.lcrc.anl.gov
 Default is to use 128 SMP processors on each worker.
 Entering Link 1 = /gpfs/fs1/soft/improv/software/custom-built/gaussian/g16/l1.exe PID=    353579.
  
 Copyright (c) 1988-2021, Gaussian, Inc.  All Rights Reserved.
  
 This is part of the Gaussian(R) 16 program.  It is based on
 the Gaussian(R) 09 system (copyright 2009, Gaussian, Inc.),
 the Gaussian(R) 03 system (copyright 2003, Gaussian, Inc.),
 the Gaussian(R) 98 system (copyright 1998, Gaussian, Inc.),
 the Gaussian(R) 94 system (copyright 1995, Gaussian, Inc.),
 the Gaussian 92(TM) system (copyright 1992, Gaussian, Inc.),
 the Gaussian 90(TM) system (copyright 1990, Gaussian, Inc.),
 the Gaussian 88(TM) system (copyright 1988, Gaussian, Inc.),
 the Gaussian 86(TM) system (copyright 1986, Carnegie Mellon
 University), and the Gaussian 82(TM) system (copyright 1983,
 Carnegie Mellon University). Gaussian is a federally registered
 trademark of Gaussian, Inc.
  
 This software contains proprietary and confidential information,
 including trade secrets, belonging to Gaussian, Inc.
  
 This software is provided under written license and may be
 used, copied, transmitted, or stored only in accord with that
 written license.
  
 The following legend is applicable only to US Government
 contracts under FAR:
  
                    RESTRICTED RIGHTS LEGEND
  
 Use, reproduction and disclosure by the US Government is
 subject to restrictions as set forth in subparagraphs (a)
 and (c) of the Commercial Computer Software - Restricted
 Rights clause in FAR 52.227-19.
  
 Gaussian, Inc.
 340 Quinnipiac St., Bldg. 40, Wallingford CT 06492
  
  
 ---------------------------------------------------------------
 Warning -- This program may not be used in any manner that
 competes with the business of Gaussian, Inc. or will provide
 assistance to any competitor of Gaussian, Inc.  The licensee
 of this program is prohibited from giving any competitor of
 Gaussian, Inc. access to this program.  By using this program,
 the user acknowledges that Gaussian, Inc. is engaged in the
 business of creating and licensing software in the field of
 computational chemistry and represents and warrants to the
 licensee that it is not a competitor of Gaussian, Inc. and that
 it will not use this program in any manner prohibited above.
 ---------------------------------------------------------------
  

 Cite this work as:
 Gaussian 16, Revision C.02,
 M. J. Frisch, G. W. Trucks, H. B. Schlegel, G. E. Scuseria, 
 M. A. Robb, J. R. Cheeseman, G. Scalmani, V. Barone, 
 G. A. Petersson, H. Nakatsuji, X. Li, M. Caricato, A. V. Marenich, 
 J. Bloino, B. G. Janesko, R. Gomperts, B. Mennucci, H. P. Hratchian, 
 J. V. Ortiz, A. F. Izmaylov, J. L. Sonnenberg, D. Williams-Young, 
 F. Ding, F. Lipparini, F. Egidi, J. Goings, B. Peng, A. Petrone, 
 T. Henderson, D. Ranasinghe, V. G. Zakrzewski, J. Gao, N. Rega, 
 G. Zheng, W. Liang, M. Hada, M. Ehara, K. Toyota, R. Fukuda, 
 J. Hasegawa, M. Ishida, T. Nakajima, Y. Honda, O. Kitao, H. Nakai, 
 T. Vreven, K. Throssell, J. A. Montgomery, Jr., J. E. Peralta, 
 F. Ogliaro, M. J. Bearpark, J. J. Heyd, E. N. Brothers, K. N. Kudin, 
 V. N. Staroverov, T. A. Keith, R. Kobayashi, J. Normand, 
 K. Raghavachari, A. P. Rendell, J. C. Burant, S. S. Iyengar, 
 J. Tomasi, M. Cossi, J. M. Millam, M. Klene, C. Adamo, R. Cammi, 
 J. W. Ochterski, R. L. Martin, K. Morokuma, O. Farkas, 
 J. B. Foresman, and D. J. Fox, Gaussian, Inc., Wallingford CT, 2019.
 
 ******************************************
 Gaussian 16:  ES64L-G16RevC.02  7-Dec-2021
                23-May-2024 
 ******************************************
 %chk=V_2_B3LYP.chk
 SetSPE:  set environment variable "OMP_PROC_BIND" = "true"
 SetSPE:  set environment variable "OMP_PLACES" = "{0},{1},{2},{3},{4},{5},{6},{7},{8},{9},{10},{11},{12},{13},{14},{15},{16},{17},{18},{19},{20},{21},{22},{23},{24},{25},{26},{27},{28},{29},{30},{31},{32},{33},{34},{35},{36},{37},{38},{39},{40},{41},{42},{43},{44},{45},{46},{47},{48},{49},{50},{51},{52},{53},{54},{55},{56},{57},{58},{59},{60},{61},{62},{63},{64},{65},{66},{67},{68},{69},{70},{71},{72},{73},{74},{75},{76},{77},{78},{79},{80},{81},{82},{83},{84},{85},{86},{87},{88},{89},{90},{91},{92},{93},{94},{95},{96},{97},{98},{99},{100},{101},{102},{103},{104},{105},{106},{107},{108},{109},{110},{111},{112},{113},{114},{115},{116},{117},{118},{119},{120},{121},{122},{123},{124},{125},{126},{127}"
 SetLPE:    new flags="-opt 'Tsnet.Node.lindarsharg: ssh'  -nodelist 'i256.lcrc.anl.gov' -env GAUSS_MDEF=26843545600 -env GAUSS_EXEDIR="/gpfs/fs1/soft/improv/software/custom-built/gaussian/g16/bsd:/gpfs/fs1/soft/improv/software/custom-built/gaussian/g16" -env "OMP_PROC_BIND=true" -env "OMP_PLACES={0},{1},{2},{3},{4},{5},{6},{7},{8},{9},{10},{11},{12},{13},{14},{15},{16},{17},{18},{19},{20},{21},{22},{23},{24},{25},{26},{27},{28},{29},{30},{31},{32},{33},{34},{35},{36},{37},{38},{39},{40},{41},{42},{43},{44},{45},{46},{47},{48},{49},{50},{51},{52},{53},{54},{55},{56},{57},{58},{59},{60},{61},{62},{63},{64},{65},{66},{67},{68},{69},{70},{71},{72},{73},{74},{75},{76},{77},{78},{79},{80},{81},{82},{83},{84},{85},{86},{87},{88},{89},{90},{91},{92},{93},{94},{95},{96},{97},{98},{99},{100},{101},{102},{103},{104},{105},{106},{107},{108},{109},{110},{111},{112},{113},{114},{115},{116},{117},{118},{119},{120},{121},{122},{123},{124},{125},{126},{127}" -env GAUSS_ADEF="0,1,2,3,4,5,6,7,8,9,10,11,12,13,14,15,16,17,18,19,20,21,22,23,24,25,26,27,28,29,30,31,32,33,34,35,36,37,38,39,40,41,42,43,44,45,46,47,48,49,50,51,52,53,54,55,56,57,58,59,60,61,62,63,64,65,66,67,68,69,70,71,72,73,74,75,76,77,78,79,80,81,82,83,84,85,86,87,88,89,90,91,92,93,94,95,96,97,98,99,100,101,102,103,104,105,106,107,108,109,110,111,112,113,114,115,116,117,118,119,120,121,122,123,124,125,126,127""
 Will use up to    1 processors via Linda.
 ----------------------------------------------------------------------
 #p B3LYP empiricaldispersion=gd3 6-31+G(2df,p) opt=(cartesian,calcall,
 maxcycles=500) freq scf=(maxcycles=500,xqc,maxconventional=50)
 ----------------------------------------------------------------------
 1/6=500,10=4,18=10,26=3,38=1/1,3;
 2/12=2,17=6,18=5,29=2,40=1/2;
 3/5=1,6=6,7=114,11=2,25=1,30=1,71=2,74=-5,124=31,140=1/1,2,3;
 4//1;
 5/5=2,7=500,8=3,13=1,38=5,85=50/2,8;
 8/6=4,10=90,11=11/1;
 11/6=1,8=1,9=11,15=111,16=1/1,2,10;
 10/6=1/2;
 6/7=2,8=2,9=2,10=2,18=1,28=1/1;
 7/7=1,10=1,25=1/1,2,3,16;
 1/6=500,10=4,18=10,26=3/3(3);
 2/29=1/2;
 7/7=1,8=1,9=1,25=1,44=-1/16;
 99/12=1/99;
 2/29=1/2;
 3/5=1,6=6,7=114,11=2,25=1,30=1,71=2,74=-5,124=31,140=1/1,2,3;
 4/5=5,16=3,69=1/1;
 5/5=2,7=500,8=3,13=1,38=5,85=50/2,8;
 8/6=4,10=90,11=11/1;
 11/6=1,8=1,9=11,15=111,16=1/1,2,10;
 10/6=1/2;
 7/7=1,10=1,25=1/1,2,3,16;
 1/6=500,10=4,18=10,26=3/3(-8);
 2/29=1/2;
 6/7=2,8=2,9=2,10=2,18=1,19=2,28=1/1;
 7/7=1,8=1,9=1,25=1,44=-1/16;
 99/12=1/99;
 Leave Link    1 at Thu May 23 16:48:17 2024, MaxMem=           0 cpu:               3.5 elap:               0.1
 (Enter /gpfs/fs1/soft/improv/software/custom-built/gaussian/g16/l101.exe)
 -----
 Title
 -----
 Symbolic Z-matrix:
 Charge =  2 Multiplicity = 4
 V                    -0.79304   0.81881  -0.09491 
 O                    -1.20497   2.57394  -0.35687 
 H                    -2.12106   2.64974  -0.63312 
 O                     0.99012   1.19063  -0.05794 
 H                     1.42696   0.5998    0.55971 
 O                    -0.81752   1.03069   1.71365 
 H                    -1.02108   0.1906    2.13133 
 O                    -0.38507  -0.93351   0.17118 
 H                    -1.15682  -1.47369  -0.01433 
 O                    -2.57341   0.45178  -0.12186 
 H                    -2.77756  -0.08744  -0.88929 
 O                    -0.76966   0.60461  -1.90111 
 H                     0.09872   0.83457  -2.23949 
 H                    -0.96534  -0.30999  -2.11742 
 H                     1.12208   2.09943   0.22124 
 H                    -1.07671   3.0584    0.46184 
 H                    -2.81407  -0.02398   0.6765 
 H                     0.0422    1.33615   2.01181 
 H                    -0.11532  -1.06446   1.08312 
 
 ITRead=  0  0  0  0  0  0  0  0  0  0  0  0  0  0  0  0  0  0  0
 MicOpt= -1 -1 -1 -1 -1 -1 -1 -1 -1 -1 -1 -1 -1 -1 -1 -1 -1 -1 -1
 NAtoms=     19 NQM=       19 NQMF=       0 NMMI=      0 NMMIF=      0
                NMic=       0 NMicF=      0.
                    Isotopes and Nuclear Properties:
 (Nuclear quadrupole moments (NQMom) in fm**2, nuclear magnetic moments (NMagM)
  in nuclear magnetons)

  Atom         1           2           3           4           5           6           7           8           9          10
 IAtWgt=          51          16           1          16           1          16           1          16           1          16
 AtmWgt=  50.9439625  15.9949146   1.0078250  15.9949146   1.0078250  15.9949146   1.0078250  15.9949146   1.0078250  15.9949146
 NucSpn=           7           0           1           0           1           0           1           0           1           0
 AtZEff=  -0.0000000  -0.0000000  -0.0000000  -0.0000000  -0.0000000  -0.0000000  -0.0000000  -0.0000000  -0.0000000  -0.0000000
 NQMom=   -5.2000000   0.0000000   0.0000000   0.0000000   0.0000000   0.0000000   0.0000000   0.0000000   0.0000000   0.0000000
 NMagM=    5.1514000   0.0000000   2.7928460   0.0000000   2.7928460   0.0000000   2.7928460   0.0000000   2.7928460   0.0000000
 AtZNuc=  23.0000000   8.0000000   1.0000000   8.0000000   1.0000000   8.0000000   1.0000000   8.0000000   1.0000000   8.0000000

  Atom        11          12          13          14          15          16          17          18          19
 IAtWgt=           1          16           1           1           1           1           1           1           1
 AtmWgt=   1.0078250  15.9949146   1.0078250   1.0078250   1.0078250   1.0078250   1.0078250   1.0078250   1.0078250
 NucSpn=           1           0           1           1           1           1           1           1           1
 AtZEff=  -0.0000000  -0.0000000  -0.0000000  -0.0000000  -0.0000000  -0.0000000  -0.0000000  -0.0000000  -0.0000000
 NQMom=    0.0000000   0.0000000   0.0000000   0.0000000   0.0000000   0.0000000   0.0000000   0.0000000   0.0000000
 NMagM=    2.7928460   0.0000000   2.7928460   2.7928460   2.7928460   2.7928460   2.7928460   2.7928460   2.7928460
 AtZNuc=   1.0000000   8.0000000   1.0000000   1.0000000   1.0000000   1.0000000   1.0000000   1.0000000   1.0000000
 Leave Link  101 at Thu May 23 16:48:17 2024, MaxMem= 26843545600 cpu:               0.4 elap:               0.1
 (Enter /gpfs/fs1/soft/improv/software/custom-built/gaussian/g16/l103.exe)

 GradGradGradGradGradGradGradGradGradGradGradGradGradGradGradGradGradGrad
 Berny optimization.
 Initialization pass.
 No Z-matrix variables, so optimization will use Cartesian coordinates.
 Trust Radius=3.00D-01 FncErr=1.00D-07 GrdErr=1.00D-06 EigMax=2.50D+02 EigMin=1.00D-04
 Number of steps in this run=    114 maximum allowed number of steps=    114.
 GradGradGradGradGradGradGradGradGradGradGradGradGradGradGradGradGradGrad

 Leave Link  103 at Thu May 23 16:48:17 2024, MaxMem= 26843545600 cpu:               0.4 elap:               0.0
 (Enter /gpfs/fs1/soft/improv/software/custom-built/gaussian/g16/l202.exe)
 ---------------------------------------------------------------------------------------------------
                            Z-MATRIX (ANGSTROMS AND DEGREES)
   CD    Cent   Atom    N1       Length/X        N2       Alpha/Y        N3        Beta/Z          J
 ---------------------------------------------------------------------------------------------------
      1      1  V        0  -0.793037          0.818805         -0.094905
      2      2  O        0  -1.204971          2.573941         -0.356874
      3      3  H        0  -2.121063          2.649743         -0.633122
      4      4  O        0   0.990122          1.190635         -0.057941
      5      5  H        0   1.426962          0.599798          0.559707
      6      6  O        0  -0.817519          1.030691          1.713650
      7      7  H        0  -1.021079          0.190602          2.131326
      8      8  O        0  -0.385068         -0.933506          0.171177
      9      9  H        0  -1.156817         -1.473692         -0.014327
     10     10  O        0  -2.573405          0.451778         -0.121857
     11     11  H        0  -2.777557         -0.087440         -0.889285
     12     12  O        0  -0.769659          0.604612         -1.901109
     13     13  H        0   0.098725          0.834573         -2.239490
     14     14  H        0  -0.965336         -0.309994         -2.117418
     15     15  H        0   1.122081          2.099426          0.221242
     16     16  H        0  -1.076711          3.058396          0.461841
     17     17  H        0  -2.814074         -0.023981          0.676500
     18     18  H        0   0.042204          1.336153          2.011809
     19     19  H        0  -0.115315         -1.064459          1.083123
 ---------------------------------------------------------------------------------------------------
                         Z-Matrix orientation:                         
 ---------------------------------------------------------------------
 Center     Atomic      Atomic             Coordinates (Angstroms)
 Number     Number       Type             X           Y           Z
 ---------------------------------------------------------------------
      1         23           0       -0.793037    0.818805   -0.094905
      2          8           0       -1.204971    2.573941   -0.356874
      3          1           0       -2.121063    2.649743   -0.633122
      4          8           0        0.990122    1.190635   -0.057941
      5          1           0        1.426962    0.599798    0.559707
      6          8           0       -0.817519    1.030691    1.713650
      7          1           0       -1.021079    0.190602    2.131326
      8          8           0       -0.385068   -0.933506    0.171177
      9          1           0       -1.156817   -1.473692   -0.014327
     10          8           0       -2.573405    0.451778   -0.121857
     11          1           0       -2.777557   -0.087440   -0.889285
     12          8           0       -0.769659    0.604612   -1.901109
     13          1           0        0.098725    0.834573   -2.239490
     14          1           0       -0.965336   -0.309994   -2.117418
     15          1           0        1.122081    2.099426    0.221242
     16          1           0       -1.076711    3.058396    0.461841
     17          1           0       -2.814074   -0.023981    0.676500
     18          1           0        0.042204    1.336153    2.011809
     19          1           0       -0.115315   -1.064459    1.083123
 ---------------------------------------------------------------------
                    Distance matrix (angstroms):
                    1          2          3          4          5
     1  V    0.000000
     2  O    1.821762   0.000000
     3  H    2.325008   0.959835   0.000000
     4  O    1.821889   2.611767   3.484150   0.000000
     5  H    2.324839   3.415322   4.267739   0.959899   0.000000
     6  O    1.821090   2.611285   3.134947   2.536076   2.560263
     7  H    2.324381   3.450400   3.859988   3.136540   2.937743
     8  O    1.818745   3.640503   4.062050   2.540791   2.405292
     9  H    2.322579   4.062387   4.279649   3.421971   3.362259
    10  O    1.818006   2.536025   2.301533   3.639880   4.060711
    11  H    2.321775   3.136788   2.826442   4.064482   4.499984
    12  O    1.819010   2.540161   2.759827   2.614866   3.298603
    13  H    2.322657   2.875634   3.286750   2.383386   3.107223
    14  H    2.322591   3.387332   3.506977   3.212032   3.703756
    15  H    2.325429   2.444290   3.398642   0.959822   1.567289
    16  H    2.325125   0.959918   1.567358   2.833814   3.510364
    17  H    2.321626   3.225876   3.056824   4.060370   4.288255
    18  H    2.324547   2.949275   3.660724   2.281137   2.137375
    19  H    2.322443   4.061883   4.556733   2.758526   2.328591
                    6          7          8          9         10
     6  O    0.000000
     7  H    0.960021   0.000000
     8  O    2.534622   2.347406   0.000000
     9  H    3.061530   2.718847   0.960108   0.000000
    10  O    2.605257   2.748593   2.606473   2.392848   0.000000
    11  H    3.444886   3.505227   2.750347   2.305222   0.959885
    12  O    3.640099   4.061422   2.609231   2.833582   2.538227
    13  H    4.062670   4.557707   3.028445   3.443229   3.430916
    14  H    4.061572   4.278496   2.441955   2.411193   2.673658
    15  H    2.670492   3.447487   3.387136   4.244531   4.060675
    16  H    2.397039   3.318813   4.061790   4.557738   3.061904
    17  H    2.484803   2.318921   2.642472   2.307685   0.960023
    18  H    0.959858   1.567527   2.953276   3.665802   3.489421
    19  H    2.297892   1.869309   0.959980   1.567353   3.129403
                   11         12         13         14         15
    11  H    0.000000
    12  O    2.352526   0.000000
    13  H    3.308498   0.959935   0.000000
    14  H    2.200452   0.959991   1.567533   0.000000
    15  H    4.606825   3.212091   2.949969   3.953725   0.000000
    16  H    3.822919   3.420362   3.691102   4.243941   2.410850
    17  H    1.567497   3.349453   4.210050   3.362383   4.495491
    18  H    4.288824   4.062660   4.281159   4.558009   2.225950
    19  H    3.454344   3.481323   3.833001   3.396353   3.504877
                   16         17         18         19
    16  H    0.000000
    17  H    3.544793   0.000000
    18  H    2.573032   3.433851   0.000000
    19  H    4.278809   2.920828   2.578800   0.000000
 Stoichiometry    H12O6V(2+,4)
 Framework group  C1[X(H12O6V)]
 Deg. of freedom    51
 Full point group                 C1      NOp   1
 Largest Abelian subgroup         C1      NOp   1
 Largest concise Abelian subgroup C1      NOp   1
                         Standard orientation:                         
 ---------------------------------------------------------------------
 Center     Atomic      Atomic             Coordinates (Angstroms)
 Number     Number       Type             X           Y           Z
 ---------------------------------------------------------------------
      1         23           0       -0.020930   -0.030851    0.010117
      2          8           0       -0.320881   -1.688468   -0.683537
      3          1           0       -1.137136   -1.681045   -1.188468
      4          8           0        1.254385   -0.678558    1.138536
      5          1           0        1.942922   -0.019835    1.254320
      6          8           0        1.297591    0.293740   -1.203355
      7          1           0        1.381168    1.240413   -1.339237
      8          8           0        0.279591    1.625972    0.697472
      9          1           0       -0.432419    2.214852    0.436571
     10          8           0       -1.286602    0.614727   -1.124100
     11          1           0       -2.035606    0.937335   -0.617843
     12          8           0       -1.338715   -0.352402    1.222076
     13          1           0       -0.971940   -0.816344    1.978190
     14          1           0       -1.717839    0.480834    1.511152
     15          1           0        1.635326   -1.477232    0.766701
     16          1           0        0.408485   -1.931629   -1.258289
     17          1           0       -0.916150    1.334035   -1.640826
     18          1           0        2.128491   -0.056823   -0.874663
     19          1           0        1.113128    1.964930    0.362980
 ---------------------------------------------------------------------
 Rotational constants (GHZ):           2.0397021           1.9739483           1.9252864
 Leave Link  202 at Thu May 23 16:48:17 2024, MaxMem= 26843545600 cpu:               0.5 elap:               0.0
 (Enter /gpfs/fs1/soft/improv/software/custom-built/gaussian/g16/l301.exe)
 Standard basis: 6-31+G(2df,p) (6D, 7F)
 Ernie: Thresh=  0.10000D-02 Tol=  0.10000D-05 Strict=F.
 There are   347 symmetry adapted cartesian basis functions of A   symmetry.
 There are   317 symmetry adapted basis functions of A   symmetry.
   317 basis functions,   514 primitive gaussians,   347 cartesian basis functions
    42 alpha electrons       39 beta electrons
       nuclear repulsion energy       717.7225235776 Hartrees.
 IExCor=  402 DFT=T Ex+Corr=B3LYP ExCW=0 ScaHFX=  0.200000
 ScaDFX=  0.800000  0.720000  1.000000  0.810000 ScalE2=  1.000000  1.000000
 IRadAn=      5 IRanWt=     -1 IRanGd=            0 ICorTp=0 IEmpDi=131
 NAtoms=   19 NActive=   19 NUniq=   19 SFac= 1.00D+00 NAtFMM=   60 NAOKFM=F Big=F
 Integral buffers will be    131072 words long.
 Raffenetti 2 integral format.
 Two-electron integral symmetry is turned on.
 R6Disp:  Grimme-D3 Dispersion energy=       -0.0217936263 Hartrees.
 Nuclear repulsion after empirical dispersion term =      717.7007299513 Hartrees.
 Leave Link  301 at Thu May 23 16:48:17 2024, MaxMem= 26843545600 cpu:               0.4 elap:               0.0
 (Enter /gpfs/fs1/soft/improv/software/custom-built/gaussian/g16/l302.exe)
 NPDir=0 NMtPBC=     1 NCelOv=     1 NCel=       1 NClECP=     1 NCelD=      1
         NCelK=      1 NCelE2=     1 NClLst=     1 CellRange=     0.0.
 One-electron integrals computed using PRISM.
 One-electron integral symmetry used in STVInt
 NBasis=   317 RedAO= T EigKep=  3.17D-05  NBF=   317
 NBsUse=   317 1.00D-06 EigRej= -1.00D+00 NBFU=   317
 Precomputing XC quadrature grid using
 IXCGrd= 4 IRadAn=           5 IRanWt=          -1 IRanGd=           0 AccXCQ= 0.00D+00.
 Generated NRdTot=       0 NPtTot=           0 NUsed=           0 NTot=          32
 NSgBfM=   347   347   347   347   347 MxSgAt=    19 MxSgA2=    19.
 Leave Link  302 at Thu May 23 16:48:18 2024, MaxMem= 26843545600 cpu:              21.9 elap:               0.3
 (Enter /gpfs/fs1/soft/improv/software/custom-built/gaussian/g16/l303.exe)
 DipDrv:  MaxL=1.
 Leave Link  303 at Thu May 23 16:48:18 2024, MaxMem= 26843545600 cpu:               1.0 elap:               0.0
 (Enter /gpfs/fs1/soft/improv/software/custom-built/gaussian/g16/l401.exe)
 ExpMin= 1.07D-02 ExpMax= 4.74D+04 ExpMxC= 7.11D+03 IAcc=3 IRadAn=         5 AccDes= 0.00D+00
 Harris functional with IExCor=  402 and IRadAn=       5 diagonalized for initial guess.
 HarFok:  IExCor=  402 AccDes= 0.00D+00 IRadAn=         5 IDoV= 1 UseB2=F ITyADJ=14
 ICtDFT=  3500011 ScaDFX=  1.000000  1.000000  1.000000  1.000000
 FoFCou: FMM=F IPFlag=           0 FMFlag=      100000 FMFlg1=           0
         NFxFlg=           0 DoJE=T BraDBF=F KetDBF=T FulRan=T
         wScrn=  0.000000 ICntrl=       500 IOpCl=  0 I1Cent=   200000004 NGrid=           0
         NMat0=    1 NMatS0=      1 NMatT0=    0 NMatD0=    1 NMtDS0=    0 NMtDT0=    0
 Petite list used in FoFCou.
 Harris En= -1402.17787059184    
 JPrj=0 DoOrth=F DoCkMO=F.
 Initial guess <Sx>= 0.0000 <Sy>= 0.0000 <Sz>= 1.5000 <S**2>= 3.7500 S= 1.5000
 Leave Link  401 at Thu May 23 16:48:18 2024, MaxMem= 26843545600 cpu:              38.1 elap:               0.4
 (Enter /gpfs/fs1/soft/improv/software/custom-built/gaussian/g16/l502.exe)
 Integral symmetry usage will be decided dynamically.
 UHF open shell SCF:
 Using DIIS extrapolation, IDIIS=  1040.
 NGot= 26843545600 LenX= 26843256607 LenY= 26843135757
 Requested convergence on RMS density matrix=1.00D-08 within  50 cycles.
 Requested convergence on MAX density matrix=1.00D-06.
 Requested convergence on             energy=1.00D-06.
 No special actions if energy rises.
 Fock matrices will be formed incrementally for  20 cycles.

 Cycle   1  Pass 1  IDiag  1:
 FoFJK:  IHMeth= 1 ICntrl=       0 DoSepK=F KAlg= 0 I1Cent=           0 FoldK=F
 IRaf= 990000000 NMat=       1 IRICut=       1 DoRegI=T DoRafI=F ISym2E= 0 IDoP0=0 IntGTp=1.
 FoFCou: FMM=F IPFlag=           0 FMFlag=      100000 FMFlg1=           0
         NFxFlg=           0 DoJE=F BraDBF=F KetDBF=F FulRan=T
         wScrn=  0.000000 ICntrl=         0 IOpCl=  1 I1Cent=           0 NGrid=           0
         NMat0=    1 NMatS0=      1 NMatT0=    0 NMatD0=    1 NMtDS0=    0 NMtDT0=    0
 Symmetry not used in FoFCou.
 E= -1401.46311587109    
 DIIS: error= 3.85D-02 at cycle   1 NSaved=   1.
 NSaved= 1 IEnMin= 1 EnMin= -1401.46311587109     IErMin= 1 ErrMin= 3.85D-02
 ErrMax= 3.85D-02  0.00D+00 EMaxC= 1.00D-01 BMatC= 2.74D+00 BMatP= 2.74D+00
 IDIUse=3 WtCom= 6.15D-01 WtEn= 3.85D-01
 Coeff-Com:  0.100D+01
 Coeff-En:   0.100D+01
 Coeff:      0.100D+01
 Gap=    -0.048 Goal=   None    Shift=    0.000
 Gap=     0.372 Goal=   None    Shift=    0.000
 GapD=   -0.048 DampG=0.250 DampE=0.250 DampFc=0.1250 IDamp=-1.
 Damping current iteration by 1.25D-01
 RMSDP=2.35D-02 MaxDP=2.91D+00              OVMax= 9.20D-01

 Cycle   2  Pass 1  IDiag  1:
 RMSU=  2.94D-03    CP:  9.96D-01
 E= -1401.57772460058     Delta-E=       -0.114608729481 Rises=F Damp=T
 DIIS: error= 3.43D-02 at cycle   2 NSaved=   2.
 NSaved= 2 IEnMin= 2 EnMin= -1401.57772460058     IErMin= 2 ErrMin= 3.43D-02
 ErrMax= 3.43D-02  0.00D+00 EMaxC= 1.00D-01 BMatC= 1.31D+00 BMatP= 2.74D+00
 IDIUse=3 WtCom= 6.57D-01 WtEn= 3.43D-01
 Coeff-Com: -0.192D+01 0.292D+01
 Coeff-En:   0.000D+00 0.100D+01
 Coeff:     -0.126D+01 0.226D+01
 Gap=     0.026 Goal=   None    Shift=    0.000
 Gap=     0.303 Goal=   None    Shift=    0.000
 RMSDP=5.08D-03 MaxDP=3.44D-01 DE=-1.15D-01 OVMax= 9.40D-01

 Cycle   3  Pass 1  IDiag  1:
 RMSU=  4.65D-03    CP:  9.47D-01  3.82D-01
 E= -1401.77571878957     Delta-E=       -0.197994188994 Rises=F Damp=F
 DIIS: error= 1.93D-02 at cycle   3 NSaved=   3.
 NSaved= 3 IEnMin= 3 EnMin= -1401.77571878957     IErMin= 3 ErrMin= 1.93D-02
 ErrMax= 1.93D-02  0.00D+00 EMaxC= 1.00D-01 BMatC= 9.87D-01 BMatP= 1.31D+00
 IDIUse=3 WtCom= 8.07D-01 WtEn= 1.93D-01
 EnCoef did   100 forward-backward iterations
 Coeff-Com: -0.114D+01 0.182D+01 0.316D+00
 Coeff-En:   0.186D+00 0.880D-02 0.805D+00
 Coeff:     -0.883D+00 0.147D+01 0.411D+00
 Gap=     0.036 Goal=   None    Shift=    0.000
 Gap=     0.350 Goal=   None    Shift=    0.000
 RMSDP=4.81D-03 MaxDP=3.19D-01 DE=-1.98D-01 OVMax= 2.59D-01

 Cycle   4  Pass 1  IDiag  1:
 RMSU=  3.14D-03    CP:  9.65D-01  1.17D+00  4.00D-01
 E= -1401.92864422379     Delta-E=       -0.152925434224 Rises=F Damp=F
 DIIS: error= 3.85D-03 at cycle   4 NSaved=   4.
 NSaved= 4 IEnMin= 4 EnMin= -1401.92864422379     IErMin= 4 ErrMin= 3.85D-03
 ErrMax= 3.85D-03  0.00D+00 EMaxC= 1.00D-01 BMatC= 4.82D-02 BMatP= 9.87D-01
 IDIUse=3 WtCom= 9.61D-01 WtEn= 3.85D-02
 Coeff-Com:  0.436D-02-0.608D-02 0.177D+00 0.824D+00
 Coeff-En:   0.000D+00 0.000D+00 0.165D-01 0.984D+00
 Coeff:      0.419D-02-0.585D-02 0.171D+00 0.831D+00
 Gap=     0.074 Goal=   None    Shift=    0.000
 Gap=     0.315 Goal=   None    Shift=    0.000
 RMSDP=1.92D-03 MaxDP=1.93D-01 DE=-1.53D-01 OVMax= 8.24D-02

 Cycle   5  Pass 1  IDiag  1:
 RMSU=  5.87D-04    CP:  9.58D-01  7.70D-01  5.92D-01  6.65D-01
 E= -1401.93689787508     Delta-E=       -0.008253651285 Rises=F Damp=F
 DIIS: error= 9.17D-04 at cycle   5 NSaved=   5.
 NSaved= 5 IEnMin= 5 EnMin= -1401.93689787508     IErMin= 5 ErrMin= 9.17D-04
 ErrMax= 9.17D-04  0.00D+00 EMaxC= 1.00D-01 BMatC= 2.76D-03 BMatP= 4.82D-02
 IDIUse=3 WtCom= 9.91D-01 WtEn= 9.17D-03
 Coeff-Com: -0.559D-02-0.191D-02 0.407D-01 0.329D+00 0.638D+00
 Coeff-En:   0.000D+00 0.000D+00 0.000D+00 0.000D+00 0.100D+01
 Coeff:     -0.554D-02-0.190D-02 0.403D-01 0.326D+00 0.641D+00
 Gap=     0.074 Goal=   None    Shift=    0.000
 Gap=     0.317 Goal=   None    Shift=    0.000
 RMSDP=1.63D-04 MaxDP=7.15D-03 DE=-8.25D-03 OVMax= 4.23D-03

 Cycle   6  Pass 1  IDiag  1:
 RMSU=  1.30D-04    CP:  9.58D-01  7.63D-01  5.75D-01  6.77D-01  1.06D+00
 E= -1401.93727480834     Delta-E=       -0.000376933264 Rises=F Damp=F
 DIIS: error= 3.66D-04 at cycle   6 NSaved=   6.
 NSaved= 6 IEnMin= 6 EnMin= -1401.93727480834     IErMin= 6 ErrMin= 3.66D-04
 ErrMax= 3.66D-04  0.00D+00 EMaxC= 1.00D-01 BMatC= 6.07D-04 BMatP= 2.76D-03
 IDIUse=3 WtCom= 9.96D-01 WtEn= 3.66D-03
 Coeff-Com: -0.268D-01 0.299D-01-0.153D-01 0.372D-01 0.369D+00 0.606D+00
 Coeff-En:   0.000D+00 0.000D+00 0.000D+00 0.000D+00 0.000D+00 0.100D+01
 Coeff:     -0.267D-01 0.298D-01-0.153D-01 0.371D-01 0.368D+00 0.607D+00
 Gap=     0.075 Goal=   None    Shift=    0.000
 Gap=     0.316 Goal=   None    Shift=    0.000
 RMSDP=1.39D-04 MaxDP=1.45D-02 DE=-3.77D-04 OVMax= 9.07D-03

 Cycle   7  Pass 1  IDiag  1:
 RMSU=  6.30D-05    CP:  9.57D-01  7.33D-01  5.76D-01  6.58D-01  1.16D+00
                    CP:  1.24D+00
 E= -1401.93736333151     Delta-E=       -0.000088523167 Rises=F Damp=F
 DIIS: error= 2.57D-04 at cycle   7 NSaved=   7.
 NSaved= 7 IEnMin= 7 EnMin= -1401.93736333151     IErMin= 7 ErrMin= 2.57D-04
 ErrMax= 2.57D-04  0.00D+00 EMaxC= 1.00D-01 BMatC= 1.50D-04 BMatP= 6.07D-04
 IDIUse=3 WtCom= 9.97D-01 WtEn= 2.57D-03
 Coeff-Com: -0.248D-01 0.289D-01-0.121D-01 0.392D-02 0.903D-01 0.204D+00
 Coeff-Com:  0.710D+00
 Coeff-En:   0.000D+00 0.000D+00 0.000D+00 0.000D+00 0.000D+00 0.000D+00
 Coeff-En:   0.100D+01
 Coeff:     -0.248D-01 0.288D-01-0.121D-01 0.391D-02 0.900D-01 0.203D+00
 Coeff:      0.711D+00
 Gap=     0.074 Goal=   None    Shift=    0.000
 Gap=     0.316 Goal=   None    Shift=    0.000
 RMSDP=5.75D-05 MaxDP=4.88D-03 DE=-8.85D-05 OVMax= 3.72D-03

 Cycle   8  Pass 1  IDiag  1:
 RMSU=  2.10D-05    CP:  9.57D-01  7.25D-01  5.77D-01  6.53D-01  1.22D+00
                    CP:  1.43D+00  1.32D+00
 E= -1401.93738565964     Delta-E=       -0.000022328129 Rises=F Damp=F
 DIIS: error= 1.65D-04 at cycle   8 NSaved=   8.
 NSaved= 8 IEnMin= 8 EnMin= -1401.93738565964     IErMin= 8 ErrMin= 1.65D-04
 ErrMax= 1.65D-04  0.00D+00 EMaxC= 1.00D-01 BMatC= 5.49D-05 BMatP= 1.50D-04
 IDIUse=3 WtCom= 9.98D-01 WtEn= 1.65D-03
 Coeff-Com: -0.129D-01 0.150D-01-0.388D-02 0.111D-02-0.375D-01-0.504D-01
 Coeff-Com:  0.447D-02 0.108D+01
 Coeff-En:   0.000D+00 0.000D+00 0.000D+00 0.000D+00 0.000D+00 0.000D+00
 Coeff-En:   0.000D+00 0.100D+01
 Coeff:     -0.129D-01 0.150D-01-0.388D-02 0.111D-02-0.375D-01-0.503D-01
 Coeff:      0.447D-02 0.108D+01
 Gap=     0.074 Goal=   None    Shift=    0.000
 Gap=     0.316 Goal=   None    Shift=    0.000
 RMSDP=5.57D-05 MaxDP=5.07D-03 DE=-2.23D-05 OVMax= 3.89D-03

 Cycle   9  Pass 1  IDiag  1:
 RMSU=  1.02D-05    CP:  9.57D-01  7.17D-01  5.77D-01  6.47D-01  1.26D+00
                    CP:  1.63D+00  1.65D+00  1.82D+00
 E= -1401.93739723262     Delta-E=       -0.000011572984 Rises=F Damp=F
 DIIS: error= 5.78D-05 at cycle   9 NSaved=   9.
 NSaved= 9 IEnMin= 9 EnMin= -1401.93739723262     IErMin= 9 ErrMin= 5.78D-05
 ErrMax= 5.78D-05  0.00D+00 EMaxC= 1.00D-01 BMatC= 7.52D-06 BMatP= 5.49D-05
 IDIUse=1 WtCom= 1.00D+00 WtEn= 0.00D+00
 Coeff-Com: -0.143D-02 0.168D-02 0.174D-03 0.184D-02-0.111D-01-0.273D-01
 Coeff-Com: -0.211D+00 0.978D-01 0.115D+01
 Coeff:     -0.143D-02 0.168D-02 0.174D-03 0.184D-02-0.111D-01-0.273D-01
 Coeff:     -0.211D+00 0.978D-01 0.115D+01
 Gap=     0.074 Goal=   None    Shift=    0.000
 Gap=     0.315 Goal=   None    Shift=    0.000
 RMSDP=3.54D-05 MaxDP=3.20D-03 DE=-1.16D-05 OVMax= 2.53D-03

 Cycle  10  Pass 1  IDiag  1:
 RMSU=  2.91D-06    CP:  9.57D-01  7.11D-01  5.77D-01  6.44D-01  1.29D+00
                    CP:  1.75D+00  1.87D+00  2.38D+00  1.63D+00
 E= -1401.93739929259     Delta-E=       -0.000002059966 Rises=F Damp=F
 DIIS: error= 7.03D-06 at cycle  10 NSaved=  10.
 NSaved=10 IEnMin=10 EnMin= -1401.93739929259     IErMin=10 ErrMin= 7.03D-06
 ErrMax= 7.03D-06  0.00D+00 EMaxC= 1.00D-01 BMatC= 1.44D-07 BMatP= 7.52D-06
 IDIUse=1 WtCom= 1.00D+00 WtEn= 0.00D+00
 Coeff-Com:  0.162D-03-0.169D-03 0.154D-03 0.585D-03 0.182D-02-0.110D-02
 Coeff-Com: -0.744D-01-0.664D-01 0.389D+00 0.751D+00
 Coeff:      0.162D-03-0.169D-03 0.154D-03 0.585D-03 0.182D-02-0.110D-02
 Coeff:     -0.744D-01-0.664D-01 0.389D+00 0.751D+00
 Gap=     0.074 Goal=   None    Shift=    0.000
 Gap=     0.315 Goal=   None    Shift=    0.000
 RMSDP=7.12D-06 MaxDP=6.43D-04 DE=-2.06D-06 OVMax= 5.30D-04

 Cycle  11  Pass 1  IDiag  1:
 RMSU=  1.05D-06    CP:  9.57D-01  7.10D-01  5.77D-01  6.43D-01  1.29D+00
                    CP:  1.77D+00  1.91D+00  2.50D+00  1.79D+00  1.34D+00
 E= -1401.93739936174     Delta-E=       -0.000000069152 Rises=F Damp=F
 DIIS: error= 2.97D-06 at cycle  11 NSaved=  11.
 NSaved=11 IEnMin=11 EnMin= -1401.93739936174     IErMin=11 ErrMin= 2.97D-06
 ErrMax= 2.97D-06  0.00D+00 EMaxC= 1.00D-01 BMatC= 2.59D-08 BMatP= 1.44D-07
 IDIUse=1 WtCom= 1.00D+00 WtEn= 0.00D+00
 Coeff-Com:  0.291D-03-0.324D-03 0.158D-04-0.482D-04 0.337D-02 0.501D-02
 Coeff-Com: -0.145D-03-0.531D-01-0.184D-01 0.403D+00 0.661D+00
 Coeff:      0.291D-03-0.324D-03 0.158D-04-0.482D-04 0.337D-02 0.501D-02
 Coeff:     -0.145D-03-0.531D-01-0.184D-01 0.403D+00 0.661D+00
 Gap=     0.074 Goal=   None    Shift=    0.000
 Gap=     0.315 Goal=   None    Shift=    0.000
 RMSDP=3.20D-06 MaxDP=2.82D-04 DE=-6.92D-08 OVMax= 2.51D-04

 Cycle  12  Pass 1  IDiag  1:
 RMSU=  4.38D-07    CP:  9.57D-01  7.10D-01  5.77D-01  6.42D-01  1.29D+00
                    CP:  1.78D+00  1.93D+00  2.56D+00  1.87D+00  1.57D+00
                    CP:  1.37D+00
 E= -1401.93739937679     Delta-E=       -0.000000015049 Rises=F Damp=F
 DIIS: error= 9.44D-07 at cycle  12 NSaved=  12.
 NSaved=12 IEnMin=12 EnMin= -1401.93739937679     IErMin=12 ErrMin= 9.44D-07
 ErrMax= 9.44D-07  0.00D+00 EMaxC= 1.00D-01 BMatC= 2.47D-09 BMatP= 2.59D-08
 IDIUse=1 WtCom= 1.00D+00 WtEn= 0.00D+00
 Coeff-Com:  0.225D-04-0.248D-04-0.397D-04-0.157D-03 0.534D-03 0.177D-02
 Coeff-Com:  0.178D-01 0.962D-03-0.103D+00-0.770D-01 0.168D+00 0.991D+00
 Coeff:      0.225D-04-0.248D-04-0.397D-04-0.157D-03 0.534D-03 0.177D-02
 Coeff:      0.178D-01 0.962D-03-0.103D+00-0.770D-01 0.168D+00 0.991D+00
 Gap=     0.074 Goal=   None    Shift=    0.000
 Gap=     0.315 Goal=   None    Shift=    0.000
 RMSDP=2.23D-06 MaxDP=1.95D-04 DE=-1.50D-08 OVMax= 1.81D-04

 Cycle  13  Pass 1  IDiag  1:
 RMSU=  1.89D-07    CP:  9.57D-01  7.09D-01  5.77D-01  6.42D-01  1.30D+00
                    CP:  1.79D+00  1.94D+00  2.59D+00  1.93D+00  1.77D+00
                    CP:  1.78D+00  1.42D+00
 E= -1401.93739938044     Delta-E=       -0.000000003654 Rises=F Damp=F
 DIIS: error= 4.63D-07 at cycle  13 NSaved=  13.
 NSaved=13 IEnMin=13 EnMin= -1401.93739938044     IErMin=13 ErrMin= 4.63D-07
 ErrMax= 4.63D-07  0.00D+00 EMaxC= 1.00D-01 BMatC= 6.50D-10 BMatP= 2.47D-09
 IDIUse=1 WtCom= 1.00D+00 WtEn= 0.00D+00
 Coeff-Com: -0.190D-04 0.215D-04-0.174D-04-0.480D-04-0.324D-04 0.297D-03
 Coeff-Com:  0.550D-02 0.274D-02-0.329D-01-0.513D-01 0.578D-02 0.301D+00
 Coeff-Com:  0.769D+00
 Coeff:     -0.190D-04 0.215D-04-0.174D-04-0.480D-04-0.324D-04 0.297D-03
 Coeff:      0.550D-02 0.274D-02-0.329D-01-0.513D-01 0.578D-02 0.301D+00
 Coeff:      0.769D+00
 Gap=     0.074 Goal=   None    Shift=    0.000
 Gap=     0.315 Goal=   None    Shift=    0.000
 RMSDP=5.50D-07 MaxDP=4.83D-05 DE=-3.65D-09 OVMax= 4.23D-05

 Cycle  14  Pass 1  IDiag  1:
 RMSU=  5.78D-08    CP:  9.57D-01  7.09D-01  5.77D-01  6.42D-01  1.30D+00
                    CP:  1.79D+00  1.94D+00  2.60D+00  1.94D+00  1.81D+00
                    CP:  1.89D+00  1.59D+00  1.28D+00
 E= -1401.93739938074     Delta-E=       -0.000000000300 Rises=F Damp=F
 DIIS: error= 2.62D-07 at cycle  14 NSaved=  14.
 NSaved=14 IEnMin=14 EnMin= -1401.93739938074     IErMin=14 ErrMin= 2.62D-07
 ErrMax= 2.62D-07  0.00D+00 EMaxC= 1.00D-01 BMatC= 2.06D-10 BMatP= 6.50D-10
 IDIUse=1 WtCom= 1.00D+00 WtEn= 0.00D+00
 Coeff-Com: -0.202D-04 0.228D-04-0.453D-05 0.606D-05-0.954D-04-0.120D-03
 Coeff-Com: -0.437D-03 0.828D-03 0.114D-02-0.134D-01-0.301D-01-0.271D-01
 Coeff-Com:  0.434D+00 0.635D+00
 Coeff:     -0.202D-04 0.228D-04-0.453D-05 0.606D-05-0.954D-04-0.120D-03
 Coeff:     -0.437D-03 0.828D-03 0.114D-02-0.134D-01-0.301D-01-0.271D-01
 Coeff:      0.434D+00 0.635D+00
 Gap=     0.074 Goal=   None    Shift=    0.000
 Gap=     0.315 Goal=   None    Shift=    0.000
 RMSDP=2.24D-07 MaxDP=1.90D-05 DE=-3.00D-10 OVMax= 1.59D-05

 Cycle  15  Pass 1  IDiag  1:
 RMSU=  2.98D-08    CP:  9.57D-01  7.09D-01  5.77D-01  6.42D-01  1.30D+00
                    CP:  1.79D+00  1.94D+00  2.60D+00  1.95D+00  1.83D+00
                    CP:  1.95D+00  1.66D+00  1.49D+00  1.29D+00
 E= -1401.93739938082     Delta-E=       -0.000000000073 Rises=F Damp=F
 DIIS: error= 9.06D-08 at cycle  15 NSaved=  15.
 NSaved=15 IEnMin=15 EnMin= -1401.93739938082     IErMin=15 ErrMin= 9.06D-08
 ErrMax= 9.06D-08  0.00D+00 EMaxC= 1.00D-01 BMatC= 2.61D-11 BMatP= 2.06D-10
 IDIUse=1 WtCom= 1.00D+00 WtEn= 0.00D+00
 Coeff-Com: -0.829D-05 0.942D-05-0.569D-06 0.143D-04 0.291D-06-0.422D-04
 Coeff-Com: -0.112D-02-0.477D-03 0.602D-02 0.466D-02-0.116D-01-0.620D-01
 Coeff-Com:  0.219D-01 0.232D+00 0.811D+00
 Coeff:     -0.829D-05 0.942D-05-0.569D-06 0.143D-04 0.291D-06-0.422D-04
 Coeff:     -0.112D-02-0.477D-03 0.602D-02 0.466D-02-0.116D-01-0.620D-01
 Coeff:      0.219D-01 0.232D+00 0.811D+00
 Gap=     0.074 Goal=   None    Shift=    0.000
 Gap=     0.315 Goal=   None    Shift=    0.000
 RMSDP=7.20D-08 MaxDP=4.67D-06 DE=-7.32D-11 OVMax= 5.98D-06

 Cycle  16  Pass 1  IDiag  1:
 RMSU=  1.36D-08    CP:  9.57D-01  7.09D-01  5.77D-01  6.42D-01  1.30D+00
                    CP:  1.79D+00  1.94D+00  2.61D+00  1.95D+00  1.84D+00
                    CP:  1.97D+00  1.70D+00  1.62D+00  1.62D+00  1.45D+00
 E= -1401.93739938082     Delta-E=       -0.000000000001 Rises=F Damp=F
 DIIS: error= 2.59D-08 at cycle  16 NSaved=  16.
 NSaved=16 IEnMin=16 EnMin= -1401.93739938082     IErMin=16 ErrMin= 2.59D-08
 ErrMax= 2.59D-08  0.00D+00 EMaxC= 1.00D-01 BMatC= 1.30D-12 BMatP= 2.61D-11
 IDIUse=1 WtCom= 1.00D+00 WtEn= 0.00D+00
 Coeff-Com: -0.242D-06 0.327D-06-0.124D-06 0.326D-05 0.266D-04 0.291D-04
 Coeff-Com: -0.137D-03-0.265D-03 0.889D-03 0.302D-02 0.260D-02-0.599D-02
 Coeff-Com: -0.586D-01-0.540D-01 0.153D+00 0.959D+00
 Coeff:     -0.242D-06 0.327D-06-0.124D-06 0.326D-05 0.266D-04 0.291D-04
 Coeff:     -0.137D-03-0.265D-03 0.889D-03 0.302D-02 0.260D-02-0.599D-02
 Coeff:     -0.586D-01-0.540D-01 0.153D+00 0.959D+00
 Gap=     0.074 Goal=   None    Shift=    0.000
 Gap=     0.315 Goal=   None    Shift=    0.000
 RMSDP=2.91D-08 MaxDP=2.12D-06 DE=-1.36D-12 OVMax= 2.64D-06

 Cycle  17  Pass 1  IDiag  1:
 RMSU=  5.42D-09    CP:  9.57D-01  7.09D-01  5.77D-01  6.42D-01  1.30D+00
                    CP:  1.79D+00  1.94D+00  2.61D+00  1.95D+00  1.84D+00
                    CP:  1.98D+00  1.71D+00  1.68D+00  1.84D+00  1.82D+00
                    CP:  1.36D+00
 E= -1401.93739938081     Delta-E=        0.000000000004 Rises=F Damp=F
 DIIS: error= 9.61D-09 at cycle  17 NSaved=  17.
 NSaved=17 IEnMin=16 EnMin= -1401.93739938082     IErMin=17 ErrMin= 9.61D-09
 ErrMax= 9.61D-09  0.00D+00 EMaxC= 1.00D-01 BMatC= 3.09D-13 BMatP= 1.30D-12
 IDIUse=1 WtCom= 1.00D+00 WtEn= 0.00D+00
 Coeff-Com:  0.124D-05-0.141D-05 0.878D-07-0.146D-05 0.697D-05 0.127D-04
 Coeff-Com:  0.128D-03 0.210D-04-0.602D-03 0.135D-03 0.224D-02 0.726D-02
 Coeff-Com: -0.167D-01-0.476D-01-0.813D-01 0.265D+00 0.871D+00
 Coeff:      0.124D-05-0.141D-05 0.878D-07-0.146D-05 0.697D-05 0.127D-04
 Coeff:      0.128D-03 0.210D-04-0.602D-03 0.135D-03 0.224D-02 0.726D-02
 Coeff:     -0.167D-01-0.476D-01-0.813D-01 0.265D+00 0.871D+00
 Gap=     0.074 Goal=   None    Shift=    0.000
 Gap=     0.315 Goal=   None    Shift=    0.000
 RMSDP=1.34D-08 MaxDP=1.02D-06 DE= 3.64D-12 OVMax= 9.93D-07

 Cycle  18  Pass 1  IDiag  1:
 RMSU=  1.58D-09    CP:  9.57D-01  7.09D-01  5.77D-01  6.42D-01  1.30D+00
                    CP:  1.79D+00  1.94D+00  2.61D+00  1.95D+00  1.84D+00
                    CP:  1.98D+00  1.71D+00  1.71D+00  1.92D+00  1.97D+00
                    CP:  1.60D+00  1.44D+00
 E= -1401.93739938083     Delta-E=       -0.000000000017 Rises=F Damp=F
 DIIS: error= 8.14D-09 at cycle  18 NSaved=  18.
 NSaved=18 IEnMin=18 EnMin= -1401.93739938083     IErMin=18 ErrMin= 8.14D-09
 ErrMax= 8.14D-09  0.00D+00 EMaxC= 1.00D-01 BMatC= 1.70D-13 BMatP= 3.09D-13
 IDIUse=1 WtCom= 1.00D+00 WtEn= 0.00D+00
 Coeff-Com:  0.600D-06-0.682D-06 0.133D-06-0.115D-05-0.236D-05-0.186D-05
 Coeff-Com:  0.534D-04 0.539D-04-0.239D-03-0.287D-03 0.290D-03 0.261D-02
 Coeff-Com:  0.192D-02-0.868D-02-0.436D-01-0.156D-01 0.284D+00 0.780D+00
 Coeff:      0.600D-06-0.682D-06 0.133D-06-0.115D-05-0.236D-05-0.186D-05
 Coeff:      0.534D-04 0.539D-04-0.239D-03-0.287D-03 0.290D-03 0.261D-02
 Coeff:      0.192D-02-0.868D-02-0.436D-01-0.156D-01 0.284D+00 0.780D+00
 Gap=     0.074 Goal=   None    Shift=    0.000
 Gap=     0.315 Goal=   None    Shift=    0.000
 RMSDP=4.38D-09 MaxDP=3.36D-07 DE=-1.68D-11 OVMax= 3.20D-07

 SCF Done:  E(UB3LYP) =  -1401.93739938     A.U. after   18 cycles
            NFock= 18  Conv=0.44D-08     -V/T= 2.0010
 <Sx>= 0.0000 <Sy>= 0.0000 <Sz>= 1.5000 <S**2>= 3.7537 S= 1.5009
 <L.S>=  0.00000000000    
 KE= 1.400536102712D+03 PE=-4.728894673012D+03 EE= 1.208720440968D+03
 Annihilation of the first spin contaminant:
 S**2 before annihilation     3.7537,   after     3.7500
 Leave Link  502 at Thu May 23 16:48:48 2024, MaxMem= 26843545600 cpu:            3400.0 elap:              29.8
 (Enter /gpfs/fs1/soft/improv/software/custom-built/gaussian/g16/l508.exe)
 QCSCF skips out because SCF is already converged.
 Leave Link  508 at Thu May 23 16:48:48 2024, MaxMem= 26843545600 cpu:               0.2 elap:               0.0
 (Enter /gpfs/fs1/soft/improv/software/custom-built/gaussian/g16/l801.exe)
 DoSCS=F DFT=T ScalE2(SS,OS)=  1.000000  1.000000
 Range of M.O.s used for correlation:     1   317
 NBasis=   317 NAE=    42 NBE=    39 NFC=     0 NFV=     0
 NROrb=    317 NOA=    42 NOB=    39 NVA=   275 NVB=   278

 **** Warning!!: The largest alpha MO coefficient is  0.64830890D+02


 **** Warning!!: The smallest alpha delta epsilon is  0.73931578D-01


 **** Warning!!: The largest beta MO coefficient is  0.64822012D+02

 Leave Link  801 at Thu May 23 16:48:48 2024, MaxMem= 26843545600 cpu:               0.4 elap:               0.0
 (Enter /gpfs/fs1/soft/improv/software/custom-built/gaussian/g16/l1101.exe)
 Using compressed storage, NAtomX=    19.
 Will process     20 centers per pass.
 R6Disp: Adding Grimme-D3 dispersion energy 1st derivatives to the gradient.
 Leave Link 1101 at Thu May 23 16:48:49 2024, MaxMem= 26843545600 cpu:              50.0 elap:               0.5
 (Enter /gpfs/fs1/soft/improv/software/custom-built/gaussian/g16/l1102.exe)
 Symmetrizing basis deriv contribution to polar:
 IMax=3 JMax=2 DiffMx= 0.00D+00
 Leave Link 1102 at Thu May 23 16:48:49 2024, MaxMem= 26843545600 cpu:               0.9 elap:               0.0
 (Enter /gpfs/fs1/soft/improv/software/custom-built/gaussian/g16/l1110.exe)
 Forming Gx(P) for the SCF density, NAtomX=    19.
 Integral derivatives from FoFJK, PRISM(SPDF).
 Do as many integral derivatives as possible in FoFJK.
 G2DrvN: MDV=   26843543431.
 G2DrvN: will do    20 centers at a time, making    1 passes.
 Calling FoFCou, ICntrl=  3107 FMM=F I1Cent=   0 AccDes= 0.00D+00.
 FoFJK:  IHMeth= 1 ICntrl=    3107 DoSepK=F KAlg= 0 I1Cent=           0 FoldK=F
 IRaf=         0 NMat=       1 IRICut=       1 DoRegI=T DoRafI=F ISym2E= 0 IDoP0=0 IntGTp=1.
 FoFCou: FMM=F IPFlag=           0 FMFlag=      100000 FMFlg1=           0
         NFxFlg=           0 DoJE=F BraDBF=F KetDBF=F FulRan=T
         wScrn=  0.000000 ICntrl=      3107 IOpCl=  1 I1Cent=           0 NGrid=           0
         NMat0=    1 NMatS0=      1 NMatT0=    0 NMatD0=    1 NMtDS0=    0 NMtDT0=    0
 Symmetry not used in FoFCou.
 End of G2Drv F.D. properties file   721 does not exist.
 End of G2Drv F.D. properties file   722 does not exist.
 End of G2Drv F.D. properties file   788 does not exist.
 Leave Link 1110 at Thu May 23 16:49:04 2024, MaxMem= 26843545600 cpu:            1866.8 elap:              14.9
 (Enter /gpfs/fs1/soft/improv/software/custom-built/gaussian/g16/l1002.exe)
 Minotr:  UHF open shell wavefunction.
          IDoAtm=1111111111111111111
          Direct CPHF calculation.
          Differentiating once with respect to electric field.
                with respect to dipole field.
          Differentiating once with respect to nuclear coordinates.
          Requested convergence is 1.0D-08 RMS, and 1.0D-07 maximum.
          Secondary convergence is 1.0D-12 RMS, and 1.0D-12 maximum.
          NewPWx=T KeepS1=F KeepF1=F KeepIn=T MapXYZ=F SortEE=F KeepMc=T.
         6034 words used for storage of precomputed grid.
 Two-electron integrals replicated using symmetry.
          MDV=   26843545600 using IRadAn=       1.
          Solving linear equations simultaneously, MaxMat=     384.
 FoF2E skips out because all densities are zero.
 CalDSu exits because no D1Ps are significant.
 FoFJK:  IHMeth= 1 ICntrl=       0 DoSepK=F KAlg= 0 I1Cent=           0 FoldK=F
 IRaf= 990000000 NMat=      57 IRICut=     142 DoRegI=T DoRafI=T ISym2E= 2 IDoP0=3 IntGTp=2.
 FoFCou: FMM=F IPFlag=           0 FMFlag=      100000 FMFlg1=           0
         NFxFlg=           0 DoJE=F BraDBF=F KetDBF=F FulRan=T
         wScrn=  0.000000 ICntrl=         0 IOpCl=  1 I1Cent=           0 NGrid=           0
         NMat0=   57 NMatS0=     57 NMatT0=    0 NMatD0=   57 NMtDS0=    0 NMtDT0=    0
 Integrals replicated using symmetry in FoFCou.
 Raff kept on since  98.06% of shell-pairs survive, threshold=   0.20 IRatSp=98.
          There are    60 degrees of freedom in the 1st order CPHF.  IDoFFX=6 NUNeed=     3.
     57 vectors produced by pass  0 Test12= 3.73D-14 1.67D-09 XBig12= 1.54D+02 7.10D+00.
 AX will form    57 AO Fock derivatives at one time.
     57 vectors produced by pass  1 Test12= 3.73D-14 1.67D-09 XBig12= 1.53D+01 1.00D+00.
     57 vectors produced by pass  2 Test12= 3.73D-14 1.67D-09 XBig12= 6.43D-01 1.67D-01.
     57 vectors produced by pass  3 Test12= 3.73D-14 1.67D-09 XBig12= 7.60D-03 9.04D-03.
     57 vectors produced by pass  4 Test12= 3.73D-14 1.67D-09 XBig12= 6.56D-05 7.98D-04.
     57 vectors produced by pass  5 Test12= 3.73D-14 1.67D-09 XBig12= 3.30D-07 6.44D-05.
     46 vectors produced by pass  6 Test12= 3.73D-14 1.67D-09 XBig12= 1.53D-09 3.56D-06.
     14 vectors produced by pass  7 Test12= 3.73D-14 1.67D-09 XBig12= 4.59D-12 2.22D-07.
      3 vectors produced by pass  8 Test12= 3.73D-14 1.67D-09 XBig12= 1.39D-14 1.21D-08.
 InvSVY:  IOpt=1 It=  1 EMax= 1.42D-14
 Solved reduced A of dimension   405 with    60 vectors.
 FullF1:  Do perturbations      1 to       3.
 Isotropic polarizability for W=    0.000000       65.64 Bohr**3.
 End of Minotr F.D. properties file   721 does not exist.
 End of Minotr F.D. properties file   722 does not exist.
 End of Minotr F.D. properties file   788 does not exist.
 Leave Link 1002 at Thu May 23 16:50:09 2024, MaxMem= 26843545600 cpu:            7954.1 elap:              65.6
 (Enter /gpfs/fs1/soft/improv/software/custom-built/gaussian/g16/l601.exe)
 Copying SCF densities to generalized density rwf, IOpCl= 1 IROHF=0.

 **********************************************************************

            Population analysis using the SCF Density.

 **********************************************************************

 Orbital symmetries:
 Alpha Orbitals:
       Occupied  (A) (A) (A) (A) (A) (A) (A) (A) (A) (A) (A) (A)
                 (A) (A) (A) (A) (A) (A) (A) (A) (A) (A) (A) (A)
                 (A) (A) (A) (A) (A) (A) (A) (A) (A) (A) (A) (A)
                 (A) (A) (A) (A) (A) (A)
       Virtual   (A) (A) (A) (A) (A) (A) (A) (A) (A) (A) (A) (A)
                 (A) (A) (A) (A) (A) (A) (A) (A) (A) (A) (A) (A)
                 (A) (A) (A) (A) (A) (A) (A) (A) (A) (A) (A) (A)
                 (A) (A) (A) (A) (A) (A) (A) (A) (A) (A) (A) (A)
                 (A) (A) (A) (A) (A) (A) (A) (A) (A) (A) (A) (A)
                 (A) (A) (A) (A) (A) (A) (A) (A) (A) (A) (A) (A)
                 (A) (A) (A) (A) (A) (A) (A) (A) (A) (A) (A) (A)
                 (A) (A) (A) (A) (A) (A) (A) (A) (A) (A) (A) (A)
                 (A) (A) (A) (A) (A) (A) (A) (A) (A) (A) (A) (A)
                 (A) (A) (A) (A) (A) (A) (A) (A) (A) (A) (A) (A)
                 (A) (A) (A) (A) (A) (A) (A) (A) (A) (A) (A) (A)
                 (A) (A) (A) (A) (A) (A) (A) (A) (A) (A) (A) (A)
                 (A) (A) (A) (A) (A) (A) (A) (A) (A) (A) (A) (A)
                 (A) (A) (A) (A) (A) (A) (A) (A) (A) (A) (A) (A)
                 (A) (A) (A) (A) (A) (A) (A) (A) (A) (A) (A) (A)
                 (A) (A) (A) (A) (A) (A) (A) (A) (A) (A) (A) (A)
                 (A) (A) (A) (A) (A) (A) (A) (A) (A) (A) (A) (A)
                 (A) (A) (A) (A) (A) (A) (A) (A) (A) (A) (A) (A)
                 (A) (A) (A) (A) (A) (A) (A) (A) (A) (A) (A) (A)
                 (A) (A) (A) (A) (A) (A) (A) (A) (A) (A) (A) (A)
                 (A) (A) (A) (A) (A) (A) (A) (A) (A) (A) (A) (A)
                 (A) (A) (A) (A) (A) (A) (A) (A) (A) (A) (A) (A)
                 (A) (A) (A) (A) (A) (A) (A) (A) (A) (A) (A)
 Beta  Orbitals:
       Occupied  (A) (A) (A) (A) (A) (A) (A) (A) (A) (A) (A) (A)
                 (A) (A) (A) (A) (A) (A) (A) (A) (A) (A) (A) (A)
                 (A) (A) (A) (A) (A) (A) (A) (A) (A) (A) (A) (A)
                 (A) (A) (A)
       Virtual   (A) (A) (A) (A) (A) (A) (A) (A) (A) (A) (A) (A)
                 (A) (A) (A) (A) (A) (A) (A) (A) (A) (A) (A) (A)
                 (A) (A) (A) (A) (A) (A) (A) (A) (A) (A) (A) (A)
                 (A) (A) (A) (A) (A) (A) (A) (A) (A) (A) (A) (A)
                 (A) (A) (A) (A) (A) (A) (A) (A) (A) (A) (A) (A)
                 (A) (A) (A) (A) (A) (A) (A) (A) (A) (A) (A) (A)
                 (A) (A) (A) (A) (A) (A) (A) (A) (A) (A) (A) (A)
                 (A) (A) (A) (A) (A) (A) (A) (A) (A) (A) (A) (A)
                 (A) (A) (A) (A) (A) (A) (A) (A) (A) (A) (A) (A)
                 (A) (A) (A) (A) (A) (A) (A) (A) (A) (A) (A) (A)
                 (A) (A) (A) (A) (A) (A) (A) (A) (A) (A) (A) (A)
                 (A) (A) (A) (A) (A) (A) (A) (A) (A) (A) (A) (A)
                 (A) (A) (A) (A) (A) (A) (A) (A) (A) (A) (A) (A)
                 (A) (A) (A) (A) (A) (A) (A) (A) (A) (A) (A) (A)
                 (A) (A) (A) (A) (A) (A) (A) (A) (A) (A) (A) (A)
                 (A) (A) (A) (A) (A) (A) (A) (A) (A) (A) (A) (A)
                 (A) (A) (A) (A) (A) (A) (A) (A) (A) (A) (A) (A)
                 (A) (A) (A) (A) (A) (A) (A) (A) (A) (A) (A) (A)
                 (A) (A) (A) (A) (A) (A) (A) (A) (A) (A) (A) (A)
                 (A) (A) (A) (A) (A) (A) (A) (A) (A) (A) (A) (A)
                 (A) (A) (A) (A) (A) (A) (A) (A) (A) (A) (A) (A)
                 (A) (A) (A) (A) (A) (A) (A) (A) (A) (A) (A) (A)
                 (A) (A) (A) (A) (A) (A) (A) (A) (A) (A) (A) (A)
                 (A) (A)
 The electronic state is 4-A.
 Alpha  occ. eigenvalues -- -197.03669 -22.44631 -19.55745 -19.55742 -19.55018
 Alpha  occ. eigenvalues --  -19.54629 -19.52524 -19.51721 -18.94625 -18.94588
 Alpha  occ. eigenvalues --  -18.94575  -2.89892  -1.94947  -1.94727  -1.94498
 Alpha  occ. eigenvalues --   -1.45412  -1.43254  -1.42993  -1.42042  -1.40389
 Alpha  occ. eigenvalues --   -1.39585  -0.98655  -0.97164  -0.95419  -0.94755
 Alpha  occ. eigenvalues --   -0.92983  -0.91716  -0.85523  -0.84215  -0.83531
 Alpha  occ. eigenvalues --   -0.81580  -0.80682  -0.78046  -0.77483  -0.74755
 Alpha  occ. eigenvalues --   -0.74101  -0.72603  -0.70861  -0.69736  -0.47556
 Alpha  occ. eigenvalues --   -0.46875  -0.45157
 Alpha virt. eigenvalues --   -0.37764  -0.32797  -0.30536  -0.29247  -0.26113
 Alpha virt. eigenvalues --   -0.25644  -0.23721  -0.23381  -0.20798  -0.19246
 Alpha virt. eigenvalues --   -0.18486  -0.18322  -0.17566  -0.16617  -0.16506
 Alpha virt. eigenvalues --   -0.15804  -0.15392  -0.14846  -0.13629  -0.12504
 Alpha virt. eigenvalues --   -0.12177  -0.11349  -0.10263  -0.09706  -0.08522
 Alpha virt. eigenvalues --   -0.07794  -0.07653  -0.06588  -0.05213  -0.03711
 Alpha virt. eigenvalues --   -0.02890  -0.02625  -0.01803  -0.01208  -0.00917
 Alpha virt. eigenvalues --   -0.00479   0.01327   0.02443   0.04295   0.04770
 Alpha virt. eigenvalues --    0.05361   0.05914   0.08086   0.08987   0.09427
 Alpha virt. eigenvalues --    0.09991   0.10934   0.14003   0.15264   0.19719
 Alpha virt. eigenvalues --    0.20418   0.22172   0.22235   0.25613   0.27107
 Alpha virt. eigenvalues --    0.41789   0.42306   0.43329   0.45969   0.46701
 Alpha virt. eigenvalues --    0.47203   0.48065   0.49126   0.50951   0.52006
 Alpha virt. eigenvalues --    0.52942   0.53204   0.55736   0.56829   0.57020
 Alpha virt. eigenvalues --    0.58259   0.58658   0.59595   0.61338   0.62784
 Alpha virt. eigenvalues --    0.65795   0.68618   0.69757   0.70421   0.71702
 Alpha virt. eigenvalues --    0.72287   0.73807   0.74074   0.75573   0.76605
 Alpha virt. eigenvalues --    0.77485   0.79463   0.81508   0.82558   0.87040
 Alpha virt. eigenvalues --    0.87396   0.87985   0.90360   0.92510   0.95264
 Alpha virt. eigenvalues --    0.96754   0.98415   1.00782   1.02093   1.02747
 Alpha virt. eigenvalues --    1.03387   1.06910   1.07594   1.08126   1.13916
 Alpha virt. eigenvalues --    1.16272   1.17990   1.24451   1.25785   1.28881
 Alpha virt. eigenvalues --    1.36887   1.37439   1.38371   1.40276   1.43209
 Alpha virt. eigenvalues --    1.43830   1.46641   1.50165   1.51773   1.55287
 Alpha virt. eigenvalues --    1.58343   1.60312   1.62322   1.68297   1.71838
 Alpha virt. eigenvalues --    1.88064   1.89356   1.90657   1.91976   1.94736
 Alpha virt. eigenvalues --    1.94983   1.96067   1.97841   2.01654   2.04746
 Alpha virt. eigenvalues --    2.07583   2.10217   2.13781   2.18261   2.19555
 Alpha virt. eigenvalues --    2.23229   2.25323   2.29454   2.35069   2.40028
 Alpha virt. eigenvalues --    2.41414   2.42204   2.47901   2.49439   2.52838
 Alpha virt. eigenvalues --    2.53055   2.54964   2.56927   2.58973   2.60840
 Alpha virt. eigenvalues --    2.62044   2.64869   2.65288   2.67043   2.69549
 Alpha virt. eigenvalues --    2.70683   2.71925   2.75808   2.80014   2.80910
 Alpha virt. eigenvalues --    2.82089   2.82776   2.86718   2.88554   2.89414
 Alpha virt. eigenvalues --    3.02098   3.08249   3.10085   3.11743   3.15090
 Alpha virt. eigenvalues --    3.15919   3.18308   3.19293   3.20224   3.26659
 Alpha virt. eigenvalues --    3.42214   3.48637   3.71464   3.74498   3.75892
 Alpha virt. eigenvalues --    3.81704   3.82539   3.85912   3.86863   3.89078
 Alpha virt. eigenvalues --    3.89433   3.89826   3.93664   3.95374   4.00331
 Alpha virt. eigenvalues --    4.02288   4.08136   4.08204   4.10929   4.13060
 Alpha virt. eigenvalues --    4.17734   4.20594   4.24366   4.27471   4.31374
 Alpha virt. eigenvalues --    4.31654   4.35981   4.40062   4.41542   4.42189
 Alpha virt. eigenvalues --    4.45251   4.45513   4.55302   4.57150   4.58028
 Alpha virt. eigenvalues --    4.60826   4.62080   4.63146   4.73099   4.78381
 Alpha virt. eigenvalues --    4.82729   4.88491   4.90222   4.93836   4.96089
 Alpha virt. eigenvalues --    5.01205   5.06177   5.07751   5.10348   5.10907
 Alpha virt. eigenvalues --    5.11571   5.12519   5.14872   5.17945   5.19206
 Alpha virt. eigenvalues --    5.24489   5.27435   5.27974   5.30306   5.31549
 Alpha virt. eigenvalues --    5.34461   5.36866   5.40099   5.42942   5.45402
 Alpha virt. eigenvalues --    5.47045   5.48519   5.48758   5.50721   5.51443
 Alpha virt. eigenvalues --    5.54130   5.54986   5.55114   5.57609   5.60336
 Alpha virt. eigenvalues --    5.60820   5.61038   5.62435   5.62964   5.96221
 Alpha virt. eigenvalues --    5.98232   6.45049   7.10059   7.12903   7.13879
 Alpha virt. eigenvalues --    7.22787   7.27915   7.36027  13.40081  13.41197
 Alpha virt. eigenvalues --   13.42275  13.86482  13.91841  13.99547  36.74590
  Beta  occ. eigenvalues -- -197.03645 -22.41404 -19.55762 -19.55762 -19.55033
  Beta  occ. eigenvalues --  -19.54642 -19.52510 -19.51708 -18.91943 -18.91867
  Beta  occ. eigenvalues --  -18.91820  -2.79490  -1.84287  -1.83904  -1.83727
  Beta  occ. eigenvalues --   -1.45185  -1.43061  -1.42843  -1.41701  -1.40070
  Beta  occ. eigenvalues --   -1.39284  -0.98192  -0.96736  -0.95161  -0.94476
  Beta  occ. eigenvalues --   -0.92701  -0.91482  -0.84972  -0.83780  -0.83081
  Beta  occ. eigenvalues --   -0.80929  -0.80344  -0.77683  -0.76970  -0.74351
  Beta  occ. eigenvalues --   -0.73696  -0.72198  -0.70397  -0.69375
  Beta virt. eigenvalues --   -0.37846  -0.32958  -0.31115  -0.29232  -0.28643
  Beta virt. eigenvalues --   -0.27815  -0.26010  -0.24994  -0.24911  -0.22727
  Beta virt. eigenvalues --   -0.22430  -0.19878  -0.18928  -0.18298  -0.18005
  Beta virt. eigenvalues --   -0.17004  -0.15604  -0.15522  -0.15197  -0.14250
  Beta virt. eigenvalues --   -0.13380  -0.13079  -0.12433  -0.11312  -0.10909
  Beta virt. eigenvalues --   -0.09460  -0.09282  -0.08306  -0.07490  -0.07368
  Beta virt. eigenvalues --   -0.06057  -0.05023  -0.03575  -0.02568  -0.01884
  Beta virt. eigenvalues --   -0.01415  -0.01001  -0.00585  -0.00234   0.01487
  Beta virt. eigenvalues --    0.02740   0.04485   0.04975   0.05542   0.06154
  Beta virt. eigenvalues --    0.08478   0.09419   0.09765   0.10544   0.11683
  Beta virt. eigenvalues --    0.14879   0.15774   0.21187   0.21737   0.22705
  Beta virt. eigenvalues --    0.22853   0.26917   0.28377   0.42464   0.43238
  Beta virt. eigenvalues --    0.44264   0.46945   0.47714   0.48302   0.48877
  Beta virt. eigenvalues --    0.50469   0.51653   0.52505   0.53546   0.54309
  Beta virt. eigenvalues --    0.56088   0.57322   0.57754   0.58626   0.59089
  Beta virt. eigenvalues --    0.60037   0.61891   0.63153   0.66077   0.69349
  Beta virt. eigenvalues --    0.70350   0.70711   0.71923   0.72765   0.74202
  Beta virt. eigenvalues --    0.74447   0.76229   0.76975   0.77994   0.80025
  Beta virt. eigenvalues --    0.82104   0.83233   0.87312   0.87700   0.88948
  Beta virt. eigenvalues --    0.90723   0.92761   0.95890   0.97809   0.98660
  Beta virt. eigenvalues --    1.01158   1.02876   1.03851   1.05368   1.07680
  Beta virt. eigenvalues --    1.08072   1.08950   1.14153   1.17560   1.19194
  Beta virt. eigenvalues --    1.25739   1.27002   1.30406   1.39846   1.40794
  Beta virt. eigenvalues --    1.41628   1.43369   1.45626   1.46916   1.48456
  Beta virt. eigenvalues --    1.52633   1.52932   1.56776   1.60217   1.61486
  Beta virt. eigenvalues --    1.63670   1.70083   1.73402   1.88707   1.90043
  Beta virt. eigenvalues --    1.91229   1.92563   1.95352   1.95707   1.96785
  Beta virt. eigenvalues --    1.98685   2.02431   2.05281   2.08109   2.11001
  Beta virt. eigenvalues --    2.14512   2.19013   2.20472   2.24281   2.26348
  Beta virt. eigenvalues --    2.30454   2.36150   2.41801   2.42857   2.43381
  Beta virt. eigenvalues --    2.48957   2.50591   2.53613   2.53855   2.55806
  Beta virt. eigenvalues --    2.57884   2.59999   2.62130   2.62981   2.65706
  Beta virt. eigenvalues --    2.66769   2.68004   2.70254   2.71810   2.73026
  Beta virt. eigenvalues --    2.77055   2.80796   2.81456   2.83031   2.83551
  Beta virt. eigenvalues --    2.87493   2.89123   2.90013   3.03509   3.11443
  Beta virt. eigenvalues --    3.12497   3.15094   3.18989   3.19223   3.22147
  Beta virt. eigenvalues --    3.23194   3.24677   3.30007   3.45625   3.51694
  Beta virt. eigenvalues --    3.71544   3.74592   3.75981   3.82005   3.82688
  Beta virt. eigenvalues --    3.86122   3.87399   3.89387   3.89666   3.90557
  Beta virt. eigenvalues --    3.94458   3.95797   4.00648   4.02487   4.08455
  Beta virt. eigenvalues --    4.08957   4.11182   4.13580   4.18315   4.21281
  Beta virt. eigenvalues --    4.25602   4.32537   4.34202   4.37037   4.37703
  Beta virt. eigenvalues --    4.42701   4.43736   4.45435   4.46913   4.49388
  Beta virt. eigenvalues --    4.56929   4.58073   4.58858   4.62450   4.63395
  Beta virt. eigenvalues --    4.65016   4.75789   4.80686   4.83194   4.89310
  Beta virt. eigenvalues --    4.91012   4.94485   4.97035   5.02945   5.06378
  Beta virt. eigenvalues --    5.07875   5.10508   5.11155   5.11901   5.12911
  Beta virt. eigenvalues --    5.15544   5.18579   5.19836   5.25923   5.28432
  Beta virt. eigenvalues --    5.28841   5.31358   5.32317   5.35274   5.37505
  Beta virt. eigenvalues --    5.41313   5.43589   5.45892   5.47442   5.49199
  Beta virt. eigenvalues --    5.49729   5.51543   5.52095   5.54552   5.55687
  Beta virt. eigenvalues --    5.55945   5.58366   5.61061   5.61204   5.62006
  Beta virt. eigenvalues --    5.62767   5.63533   5.96464   5.98472   6.46808
  Beta virt. eigenvalues --    7.10433   7.13281   7.14279   7.23011   7.28157
  Beta virt. eigenvalues --    7.36386  13.40269  13.41372  13.42458  13.86572
  Beta virt. eigenvalues --   13.91915  13.99614  36.77028
          Condensed to atoms (all electrons):
               1          2          3          4          5          6
     1  V   23.149293  -0.168794  -0.039704  -0.132701  -0.047701  -0.153748
     2  O   -0.168794   8.392279   0.334835  -0.102814  -0.002848  -0.021148
     3  H   -0.039704   0.334835   0.294263  -0.001153   0.000020   0.000565
     4  O   -0.132701  -0.102814  -0.001153   8.592391   0.329726  -0.158882
     5  H   -0.047701  -0.002848   0.000020   0.329726   0.328829   0.002589
     6  O   -0.153748  -0.021148   0.000565  -0.158882   0.002589   8.467115
     7  H   -0.028140  -0.008901   0.000023   0.003029  -0.000174   0.306921
     8  O   -0.143694   0.042826  -0.000149  -0.096480   0.003682  -0.105747
     9  H   -0.032575  -0.000593  -0.000063  -0.005803  -0.000408   0.003002
    10  O   -0.146104  -0.078549   0.002541   0.062199  -0.001077  -0.101936
    11  H   -0.029682   0.001430  -0.000272   0.000273   0.000016  -0.005244
    12  O   -0.199388   0.058049   0.002655  -0.106232  -0.002293   0.054338
    13  H   -0.047077  -0.003978  -0.000033   0.003202  -0.000262   0.000619
    14  H   -0.027096  -0.002257  -0.000084   0.002945  -0.000014  -0.000903
    15  H   -0.035301   0.003444  -0.000231   0.329448  -0.029427  -0.007865
    16  H   -0.042474   0.333836  -0.018815   0.000108  -0.000118  -0.004188
    17  H   -0.049982  -0.003295  -0.000128  -0.000979  -0.000050   0.003082
    18  H   -0.026896   0.005209   0.000060   0.001238   0.001948   0.305287
    19  H   -0.024822  -0.002019   0.000027   0.006427   0.002765  -0.007947
               7          8          9         10         11         12
     1  V   -0.028140  -0.143694  -0.032575  -0.146104  -0.029682  -0.199388
     2  O   -0.008901   0.042826  -0.000593  -0.078549   0.001430   0.058049
     3  H    0.000023  -0.000149  -0.000063   0.002541  -0.000272   0.002655
     4  O    0.003029  -0.096480  -0.005803   0.062199   0.000273  -0.106232
     5  H   -0.000174   0.003682  -0.000408  -0.001077   0.000016  -0.002293
     6  O    0.306921  -0.105747   0.003002  -0.101936  -0.005244   0.054338
     7  H    0.351681  -0.009485   0.000045   0.006481   0.000033  -0.002031
     8  O   -0.009485   8.403062   0.318595  -0.088452  -0.005800   0.009890
     9  H    0.000045   0.318595   0.323766  -0.003894   0.002524   0.002788
    10  O    0.006481  -0.088452  -0.003894   8.555824   0.322892  -0.149154
    11  H    0.000033  -0.005800   0.002524   0.322892   0.328106  -0.003548
    12  O   -0.002031   0.009890   0.002788  -0.149154  -0.003548   8.432143
    13  H    0.000022  -0.002495   0.000005  -0.000042  -0.000370   0.348483
    14  H   -0.000088  -0.005191   0.001539   0.001160   0.004135   0.313074
    15  H    0.000258  -0.003295   0.000032   0.000063   0.000013  -0.000667
    16  H   -0.000514   0.000019   0.000018   0.004165   0.000006  -0.003747
    17  H    0.003017   0.001753   0.000406   0.334586  -0.029209  -0.001836
    18  H   -0.020869   0.004059   0.000092  -0.006062   0.000048  -0.001529
    19  H    0.013410   0.300444  -0.021067   0.002611   0.000321  -0.009026
              13         14         15         16         17         18
     1  V   -0.047077  -0.027096  -0.035301  -0.042474  -0.049982  -0.026896
     2  O   -0.003978  -0.002257   0.003444   0.333836  -0.003295   0.005209
     3  H   -0.000033  -0.000084  -0.000231  -0.018815  -0.000128   0.000060
     4  O    0.003202   0.002945   0.329448   0.000108  -0.000979   0.001238
     5  H   -0.000262  -0.000014  -0.029427  -0.000118  -0.000050   0.001948
     6  O    0.000619  -0.000903  -0.007865  -0.004188   0.003082   0.305287
     7  H    0.000022  -0.000088   0.000258  -0.000514   0.003017  -0.020869
     8  O   -0.002495  -0.005191  -0.003295   0.000019   0.001753   0.004059
     9  H    0.000005   0.001539   0.000032   0.000018   0.000406   0.000092
    10  O   -0.000042   0.001160   0.000063   0.004165   0.334586  -0.006062
    11  H   -0.000370   0.004135   0.000013   0.000006  -0.029209   0.000048
    12  O    0.348483   0.313074  -0.000667  -0.003747  -0.001836  -0.001529
    13  H    0.286717  -0.020280  -0.000227  -0.000031   0.000003  -0.000063
    14  H   -0.020280   0.338508   0.000026  -0.000001  -0.000281   0.000024
    15  H   -0.000227   0.000026   0.313488   0.001148   0.000014   0.002014
    16  H   -0.000031  -0.000001   0.001148   0.320298  -0.000061   0.000148
    17  H    0.000003  -0.000281   0.000014  -0.000061   0.324479  -0.000397
    18  H   -0.000063   0.000024   0.002014   0.000148  -0.000397   0.324076
    19  H    0.000007  -0.000439   0.000064  -0.000096  -0.000071   0.000994
              19
     1  V   -0.024822
     2  O   -0.002019
     3  H    0.000027
     4  O    0.006427
     5  H    0.002765
     6  O   -0.007947
     7  H    0.013410
     8  O    0.300444
     9  H   -0.021067
    10  O    0.002611
    11  H    0.000321
    12  O   -0.009026
    13  H    0.000007
    14  H   -0.000439
    15  H    0.000064
    16  H   -0.000096
    17  H   -0.000071
    18  H    0.000994
    19  H    0.353213
          Atomic-Atomic Spin Densities.
               1          2          3          4          5          6
     1  V    3.618962  -0.098327  -0.020397  -0.075393  -0.027504  -0.118463
     2  O   -0.098327   0.034344   0.008562   0.006077  -0.001743   0.021753
     3  H   -0.020397   0.008562   0.020898  -0.000106   0.000050  -0.001751
     4  O   -0.075393   0.006077  -0.000106   0.027282   0.012426  -0.008131
     5  H   -0.027504  -0.001743   0.000050   0.012426   0.030074   0.002912
     6  O   -0.118463   0.021753  -0.001751  -0.008131   0.002912   0.091355
     7  H   -0.015668  -0.005706   0.000036  -0.002252   0.000037  -0.010389
     8  O   -0.091507  -0.001170  -0.000252   0.008991   0.005469  -0.004935
     9  H   -0.018370  -0.000605  -0.000052  -0.002815  -0.000486  -0.003555
    10  O   -0.083015   0.009824   0.009179  -0.001999  -0.000968   0.013381
    11  H   -0.013797  -0.000573  -0.000166  -0.000016   0.000008  -0.003797
    12  O   -0.118395   0.010719   0.002010   0.015848  -0.003049   0.002269
    13  H   -0.022408  -0.000326  -0.000031   0.007226  -0.000270   0.000111
    14  H   -0.027603  -0.000467  -0.000114  -0.002921  -0.000034  -0.000722
    15  H   -0.016580   0.007069  -0.000282   0.005189  -0.006057  -0.000811
    16  H   -0.029495   0.016943  -0.004279  -0.000265  -0.000160   0.007929
    17  H   -0.028236  -0.003357  -0.000277  -0.001002  -0.000039   0.005744
    18  H   -0.010388   0.000836   0.000039   0.016860   0.002707  -0.017240
    19  H   -0.012605  -0.001537   0.000022   0.002049   0.002604   0.007731
               7          8          9         10         11         12
     1  V   -0.015668  -0.091507  -0.018370  -0.083015  -0.013797  -0.118395
     2  O   -0.005706  -0.001170  -0.000605   0.009824  -0.000573   0.010719
     3  H    0.000036  -0.000252  -0.000052   0.009179  -0.000166   0.002010
     4  O   -0.002252   0.008991  -0.002815  -0.001999  -0.000016   0.015848
     5  H    0.000037   0.005469  -0.000486  -0.000968   0.000008  -0.003049
     6  O   -0.010389  -0.004935  -0.003555   0.013381  -0.003797   0.002269
     7  H    0.050737   0.006884   0.000005   0.001341  -0.000063  -0.001579
     8  O    0.006884   0.056293  -0.000498   0.000317   0.001291   0.025066
     9  H    0.000005  -0.000498   0.037662   0.012899   0.002063  -0.001674
    10  O    0.001341   0.000317   0.012899   0.026782   0.001399   0.005071
    11  H   -0.000063   0.001291   0.002063   0.001399   0.037233   0.000958
    12  O   -0.001579   0.025066  -0.001674   0.005071   0.000958   0.046070
    13  H    0.000017  -0.001843  -0.000031  -0.000479  -0.000376   0.016343
    14  H   -0.000071   0.006269   0.001257   0.000730   0.002556   0.010989
    15  H    0.000070  -0.002147   0.000075  -0.000092   0.000020  -0.002599
    16  H   -0.000554  -0.000371   0.000015  -0.002389   0.000035  -0.000982
    17  H    0.002480   0.003439   0.001058   0.014381  -0.006444  -0.001317
    18  H   -0.004175  -0.001596   0.000067  -0.002506   0.000083  -0.001674
    19  H    0.011331  -0.016083  -0.005050  -0.002295   0.000139  -0.006721
              13         14         15         16         17         18
     1  V   -0.022408  -0.027603  -0.016580  -0.029495  -0.028236  -0.010388
     2  O   -0.000326  -0.000467   0.007069   0.016943  -0.003357   0.000836
     3  H   -0.000031  -0.000114  -0.000282  -0.004279  -0.000277   0.000039
     4  O    0.007226  -0.002921   0.005189  -0.000265  -0.001002   0.016860
     5  H   -0.000270  -0.000034  -0.006057  -0.000160  -0.000039   0.002707
     6  O    0.000111  -0.000722  -0.000811   0.007929   0.005744  -0.017240
     7  H    0.000017  -0.000071   0.000070  -0.000554   0.002480  -0.004175
     8  O   -0.001843   0.006269  -0.002147  -0.000371   0.003439  -0.001596
     9  H   -0.000031   0.001257   0.000075   0.000015   0.001058   0.000067
    10  O   -0.000479   0.000730  -0.000092  -0.002389   0.014381  -0.002506
    11  H   -0.000376   0.002556   0.000020   0.000035  -0.006444   0.000083
    12  O    0.016343   0.010989  -0.002599  -0.000982  -0.001317  -0.001674
    13  H    0.016999  -0.005127  -0.000176  -0.000055   0.000045  -0.000050
    14  H   -0.005127   0.024833   0.000053   0.000047  -0.000303   0.000023
    15  H   -0.000176   0.000053   0.028903   0.000778   0.000005   0.001773
    16  H   -0.000055   0.000047   0.000778   0.019809  -0.000073   0.000258
    17  H    0.000045  -0.000303   0.000005  -0.000073   0.024772  -0.000425
    18  H   -0.000050   0.000023   0.001773   0.000258  -0.000425   0.044895
    19  H    0.000020  -0.000452  -0.000033  -0.000073   0.000102   0.000910
              19
     1  V   -0.012605
     2  O   -0.001537
     3  H    0.000022
     4  O    0.002049
     5  H    0.002604
     6  O    0.007731
     7  H    0.011331
     8  O   -0.016083
     9  H   -0.005050
    10  O   -0.002295
    11  H    0.000139
    12  O   -0.006721
    13  H    0.000020
    14  H   -0.000452
    15  H   -0.000033
    16  H   -0.000073
    17  H    0.000102
    18  H    0.000910
    19  H    0.058011
 Mulliken charges and spin densities:
               1          2
     1  V    1.226585   2.790813
     2  O   -0.776711   0.002317
     3  H    0.425643   0.013089
     4  O   -0.725941   0.007048
     5  H    0.414799   0.015977
     6  O   -0.575909  -0.016609
     7  H    0.385282   0.032483
     8  O   -0.623542  -0.006385
     9  H    0.411588   0.021966
    10  O   -0.717251   0.001561
    11  H    0.414326   0.020554
    12  O   -0.741969  -0.002647
    13  H    0.435800   0.009590
    14  H    0.395225   0.008943
    15  H    0.427003   0.015157
    16  H    0.410298   0.007120
    17  H    0.418949   0.010553
    18  H    0.410621   0.030398
    19  H    0.385204   0.038071
 Sum of Mulliken charges =   2.00000   3.00000
 Mulliken charges and spin densities with hydrogens summed into heavy atoms:
               1          2
     1  V    1.226585   2.790813
     2  O    0.059231   0.022526
     4  O    0.115861   0.038182
     6  O    0.219994   0.046272
     8  O    0.173250   0.053653
    10  O    0.116024   0.032668
    12  O    0.089056   0.015886
 APT charges:
               1
     1  V    0.815443
     2  O   -0.498208
     3  H    0.349179
     4  O   -0.339937
     5  H    0.256240
     6  O   -0.109510
     7  H    0.132076
     8  O   -0.117115
     9  H    0.216439
    10  O   -0.338963
    11  H    0.266247
    12  O   -0.499110
    13  H    0.355994
    14  H    0.312314
    15  H    0.295825
    16  H    0.326469
    17  H    0.262878
    18  H    0.199553
    19  H    0.114188
 Sum of APT charges =   2.00000
 APT charges with hydrogens summed into heavy atoms:
               1
     1  V    0.815443
     2  O    0.177440
     4  O    0.212128
     6  O    0.222119
     8  O    0.213512
    10  O    0.190161
    12  O    0.169197
 Electronic spatial extent (au):  <R**2>=            860.9737
 Charge=              2.0000 electrons
 Dipole moment (field-independent basis, Debye):
    X=              1.9103    Y=              3.2329    Z=             -0.8589  Tot=              3.8521
 Quadrupole moment (field-independent basis, Debye-Ang):
   XX=            -22.8057   YY=            -26.0339   ZZ=            -34.8446
   XY=             -4.5072   XZ=             -1.4312   YZ=             -0.6884
 Traceless Quadrupole moment (field-independent basis, Debye-Ang):
   XX=              5.0890   YY=              1.8608   ZZ=             -6.9498
   XY=             -4.5072   XZ=             -1.4312   YZ=             -0.6884
 Octapole moment (field-independent basis, Debye-Ang**2):
  XXX=             14.6503  YYY=             13.7117  ZZZ=              4.8476  XYY=              3.1005
  XXY=              7.4752  XXZ=              3.3288  XZZ=             -7.7338  YZZ=             -3.2980
  YYZ=            -12.9543  XYZ=             -2.7189
 Hexadecapole moment (field-independent basis, Debye-Ang**3):
 XXXX=           -225.9832 YYYY=           -234.5942 ZZZZ=           -248.6521 XXXY=            -20.6587
 XXXZ=              3.8639 YYYX=            -12.7377 YYYZ=              6.6913 ZZZX=            -14.4562
 ZZZY=            -12.3174 XXYY=            -65.3124 XXZZ=            -75.0193 YYZZ=            -66.7840
 XXYZ=              4.0275 YYXZ=              1.5304 ZZXY=              1.7398
 N-N= 7.177007299513D+02 E-N=-4.728894675649D+03  KE= 1.400536102712D+03
  Exact polarizability:      72.088       3.627      71.359      -2.130      -4.134      53.487
 Approx polarizability:      93.772       4.295      92.304      -3.279      -4.601      71.237
                          Isotropic Fermi Contact Couplings
        Atom                 a.u.       MegaHertz       Gauss      10(-4) cm-1
     1  V(51)             -0.19107     -75.01296     -26.76649     -25.02163
     2  O(17)             -0.01153       2.33056       0.83160       0.77739
     3  H(1)               0.00764      11.37675       4.05951       3.79488
     4  O(17)              0.00713      -1.44071      -0.51408      -0.48057
     5  H(1)               0.00805      11.99934       4.28166       4.00255
     6  O(17)              0.04438      -8.96696      -3.19963      -2.99106
     7  H(1)               0.01048      15.61466       5.57170       5.20849
     8  O(17)              0.03436      -6.94364      -2.47766      -2.31615
     9  H(1)               0.00967      14.41510       5.14367       4.80836
    10  O(17)              0.00196      -0.39689      -0.14162      -0.13239
    11  H(1)               0.00983      14.64459       5.22555       4.88491
    12  O(17)             -0.01821       3.67932       1.31287       1.22729
    13  H(1)               0.00664       9.88866       3.52852       3.29850
    14  H(1)               0.00676      10.07396       3.59464       3.36031
    15  H(1)               0.00850      12.66184       4.51806       4.22354
    16  H(1)               0.00628       9.35836       3.33930       3.12161
    17  H(1)               0.00720      10.72912       3.82842       3.57885
    18  H(1)               0.01145      17.06422       6.08894       5.69201
    19  H(1)               0.01125      16.76280       5.98138       5.59147
 --------------------------------------------------------
       Center         ----  Spin Dipole Couplings  ----
                      3XX-RR        3YY-RR        3ZZ-RR
 --------------------------------------------------------
     1   Atom       -0.051965      0.031985      0.019979
     2   Atom       -0.067453      0.065545      0.001908
     3   Atom       -0.007686      0.014261     -0.006575
     4   Atom       -0.014908     -0.035548      0.050457
     5   Atom        0.033624     -0.030396     -0.003228
     6   Atom       -0.001451     -0.064748      0.066199
     7   Atom        0.004001     -0.005010      0.001008
     8   Atom       -0.059357      0.046718      0.012639
     9   Atom       -0.026996      0.053085     -0.026089
    10   Atom        0.004984     -0.029022      0.024038
    11   Atom        0.036872     -0.013802     -0.023070
    12   Atom        0.032863     -0.016674     -0.016189
    13   Atom       -0.015174     -0.019104      0.034278
    14   Atom        0.018148     -0.024593      0.006446
    15   Atom        0.015582      0.003466     -0.019048
    16   Atom       -0.025162      0.029142     -0.003980
    17   Atom       -0.015587      0.001036      0.014551
    18   Atom        0.043621     -0.028648     -0.014974
    19   Atom       -0.012167      0.036016     -0.023849
 --------------------------------------------------------
                        XY            XZ            YZ
 --------------------------------------------------------
     1   Atom       -0.043145      0.019855     -0.022353
     2   Atom        0.027758     -0.011825     -0.031079
     3   Atom        0.030462      0.022678      0.031950
     4   Atom       -0.028035      0.044252     -0.033425
     5   Atom       -0.000114      0.038784     -0.001040
     6   Atom        0.005779     -0.082788     -0.015390
     7   Atom        0.029729     -0.030870     -0.023781
     8   Atom        0.019235      0.029539      0.077673
     9   Atom       -0.013069     -0.002753      0.016096
    10   Atom       -0.004695      0.066574     -0.000961
    11   Atom       -0.031451      0.022349     -0.009767
    12   Atom        0.072371     -0.010787      0.020681
    13   Atom        0.011613     -0.030154     -0.027207
    14   Atom       -0.016594     -0.042855      0.012349
    15   Atom       -0.038935      0.020572     -0.018658
    16   Atom       -0.014231     -0.010076      0.040880
    17   Atom       -0.019947      0.025289     -0.037225
    18   Atom        0.001475     -0.031318      0.000370
    19   Atom        0.035561      0.005804      0.011303
 --------------------------------------------------------


 ---------------------------------------------------------------------------------
              Anisotropic Spin Dipole Couplings in Principal Axis System
 ---------------------------------------------------------------------------------

       Atom             a.u.   MegaHertz   Gauss  10(-4) cm-1        Axes

              Baa    -0.0713   -10.020    -3.575    -3.342  0.9253  0.3622 -0.1126
     1 V(51)  Bbb     0.0039     0.549     0.196     0.183 -0.1006  0.5205  0.8479
              Bcc     0.0674     9.471     3.380     3.159 -0.3658  0.7732 -0.5180
 
              Baa    -0.0735     5.315     1.897     1.773  0.9808 -0.1778  0.0805
     2 O(17)  Bbb    -0.0107     0.778     0.278     0.259 -0.0072  0.3795  0.9252
              Bcc     0.0842    -6.093    -2.174    -2.032  0.1951  0.9079 -0.3709
 
              Baa    -0.0300   -16.003    -5.710    -5.338 -0.4329 -0.3125  0.8456
[...]
    15  H   -0.000044   0.000000   0.312451  -0.000044   0.000000  -0.000044
    16  H    0.000000   0.000000  -0.000044   0.312431   0.000000  -0.000044
    17  H    0.000000  -0.000044   0.000000   0.000000   0.312451   0.000000
    18  H    0.000000   0.000000  -0.000044  -0.000044   0.000000   0.312428
    19  H    0.000000   0.000000   0.000000   0.000000  -0.000044  -0.000044
              19
     1  V   -0.006872
     2  O   -0.000339
     3  H    0.000000
     4  O    0.001553
     5  H   -0.000044
     6  O    0.004193
     7  H   -0.000044
     8  O    0.293129
     9  H   -0.016977
    10  O    0.001555
    11  H    0.000000
    12  O    0.000720
    13  H    0.000000
    14  H    0.000000
    15  H    0.000000
    16  H    0.000000
    17  H   -0.000044
    18  H   -0.000044
    19  H    0.312493
          Atomic-Atomic Spin Densities.
               1          2          3          4          5          6
     1  V    3.178957  -0.017900  -0.004147  -0.017873  -0.004136  -0.017872
     2  O   -0.017900  -0.006499   0.002929   0.002815  -0.000222   0.002810
     3  H   -0.004147   0.002929   0.003612  -0.000032   0.000000  -0.000221
     4  O   -0.017873   0.002815  -0.000032  -0.006544   0.002924   0.002812
     5  H   -0.004136  -0.000222   0.000000   0.002924   0.003611  -0.000032
     6  O   -0.017872   0.002810  -0.000221   0.002812  -0.000032  -0.006550
     7  H   -0.004147  -0.000033   0.000000  -0.000221   0.000000   0.002931
     8  O   -0.017900  -0.000770  -0.000018   0.002811   0.000914   0.002826
     9  H   -0.004129  -0.000018  -0.000000  -0.000032  -0.000001  -0.000222
    10  O   -0.017873   0.002811  -0.000032  -0.000773  -0.000018   0.002823
    11  H   -0.004136   0.000914  -0.000001  -0.000018   0.000000  -0.000033
    12  O   -0.017872   0.002826   0.000919   0.002823  -0.000033  -0.000773
    13  H   -0.004147  -0.000032  -0.000001   0.000920  -0.000001  -0.000018
    14  H   -0.004134  -0.000031  -0.000001  -0.000222   0.000000  -0.000018
    15  H   -0.004145   0.000920  -0.000001   0.002925  -0.001420  -0.000032
    16  H   -0.004129   0.002917  -0.001419  -0.000032   0.000000   0.000914
    17  H   -0.004145  -0.000221   0.000000  -0.000018  -0.000000  -0.000031
    18  H   -0.004134  -0.000030   0.000000   0.000915  -0.000001   0.002920
    19  H   -0.004147  -0.000018   0.000000  -0.000032  -0.000001   0.000919
               7          8          9         10         11         12
     1  V   -0.004147  -0.017900  -0.004129  -0.017873  -0.004136  -0.017872
     2  O   -0.000033  -0.000770  -0.000018   0.002811   0.000914   0.002826
     3  H    0.000000  -0.000018  -0.000000  -0.000032  -0.000001   0.000919
     4  O   -0.000221   0.002811  -0.000032  -0.000773  -0.000018   0.002823
     5  H    0.000000   0.000914  -0.000001  -0.000018   0.000000  -0.000033
     6  O    0.002931   0.002826  -0.000222   0.002823  -0.000033  -0.000773
     7  H    0.003612  -0.000032   0.000000   0.000920  -0.000001  -0.000018
     8  O   -0.000032  -0.006499   0.002917   0.002815  -0.000222   0.002810
     9  H    0.000000   0.002917   0.003612  -0.000032   0.000000   0.000914
    10  O    0.000920   0.002815  -0.000032  -0.006544   0.002924   0.002812
    11  H   -0.000001  -0.000222   0.000000   0.002924   0.003611  -0.000032
    12  O   -0.000018   0.002810   0.000914   0.002812  -0.000032  -0.006549
    13  H    0.000000  -0.000033  -0.000001  -0.000221   0.000000   0.002931
    14  H   -0.000000  -0.000030  -0.000001   0.000915  -0.000001   0.002920
    15  H    0.000000  -0.000221   0.000000  -0.000018  -0.000000  -0.000031
    16  H   -0.000001  -0.000018   0.000000  -0.000032  -0.000001  -0.000222
    17  H   -0.000001   0.000920  -0.000001   0.002925  -0.001420  -0.000032
    18  H   -0.001420  -0.000031   0.000000  -0.000222   0.000000  -0.000018
    19  H   -0.000001   0.002929  -0.001419  -0.000032   0.000000  -0.000220
              13         14         15         16         17         18
     1  V   -0.004147  -0.004134  -0.004145  -0.004129  -0.004145  -0.004134
     2  O   -0.000032  -0.000031   0.000920   0.002917  -0.000221  -0.000030
     3  H   -0.000001  -0.000001  -0.000001  -0.001419   0.000000   0.000000
     4  O    0.000920  -0.000222   0.002925  -0.000032  -0.000018   0.000915
     5  H   -0.000001   0.000000  -0.001420   0.000000  -0.000000  -0.000001
     6  O   -0.000018  -0.000018  -0.000032   0.000914  -0.000031   0.002920
     7  H    0.000000  -0.000000   0.000000  -0.000001  -0.000001  -0.001420
     8  O   -0.000033  -0.000030  -0.000221  -0.000018   0.000920  -0.000031
     9  H   -0.000001  -0.000001   0.000000   0.000000  -0.000001   0.000000
    10  O   -0.000221   0.000915  -0.000018  -0.000032   0.002925  -0.000222
    11  H    0.000000  -0.000001  -0.000000  -0.000001  -0.001420   0.000000
    12  O    0.002931   0.002920  -0.000031  -0.000222  -0.000032  -0.000018
    13  H    0.003612  -0.001420  -0.000001   0.000000   0.000000  -0.000000
    14  H   -0.001420   0.003612   0.000000   0.000000  -0.000001   0.000000
    15  H   -0.000001   0.000000   0.003614  -0.000001   0.000000  -0.000001
    16  H    0.000000   0.000000  -0.000001   0.003612   0.000000  -0.000001
    17  H    0.000000  -0.000001   0.000000   0.000000   0.003614   0.000000
    18  H   -0.000000   0.000000  -0.000001  -0.000001   0.000000   0.003612
    19  H    0.000000   0.000000   0.000000  -0.000000  -0.000001  -0.000001
              19
     1  V   -0.004147
     2  O   -0.000018
     3  H    0.000000
     4  O   -0.000032
     5  H   -0.000001
     6  O    0.000919
     7  H   -0.000001
     8  O    0.002929
     9  H   -0.001419
    10  O   -0.000032
    11  H    0.000000
    12  O   -0.000220
    13  H    0.000000
    14  H    0.000000
    15  H    0.000000
    16  H   -0.000000
    17  H   -0.000001
    18  H   -0.000001
    19  H    0.003611
 Mulliken charges and spin densities:
               1          2
     1  V    1.423560   3.021994
     2  O   -0.725367  -0.006832
     3  H    0.410719   0.001588
     4  O   -0.725459  -0.006849
     5  H    0.410759   0.001586
     6  O   -0.725435  -0.006844
     7  H    0.410709   0.001588
     8  O   -0.725366  -0.006832
     9  H    0.410767   0.001588
    10  O   -0.725459  -0.006849
    11  H    0.410759   0.001586
    12  O   -0.725430  -0.006844
    13  H    0.410708   0.001588
    14  H    0.410775   0.001588
    15  H    0.410749   0.001590
    16  H    0.410766   0.001588
    17  H    0.410749   0.001590
    18  H    0.410776   0.001588
    19  H    0.410719   0.001588
 Sum of Mulliken charges =   2.00000   3.00000
 Mulliken charges and spin densities with hydrogens summed into heavy atoms:
               1          2
     1  V    1.423560   3.021994
     2  O    0.096119  -0.003656
     4  O    0.096049  -0.003673
     6  O    0.096050  -0.003668
     8  O    0.096119  -0.003656
    10  O    0.096049  -0.003673
    12  O    0.096053  -0.003668
 Electronic spatial extent (au):  <R**2>=           1177.8377
 Charge=              2.0000 electrons
 Dipole moment (field-independent basis, Debye):
    X=              0.0000    Y=             -0.0000    Z=             -0.0000  Tot=              0.0000
 Quadrupole moment (field-independent basis, Debye-Ang):
   XX=            -16.1355   YY=            -16.1245   ZZ=            -16.1235
   XY=             -0.0028   XZ=              0.0035   YZ=             -0.0025
 Traceless Quadrupole moment (field-independent basis, Debye-Ang):
   XX=             -0.0077   YY=              0.0034   ZZ=              0.0043
   XY=             -0.0028   XZ=              0.0035   YZ=             -0.0025
 Octapole moment (field-independent basis, Debye-Ang**2):
  XXX=             -0.0000  YYY=              0.0009  ZZZ=             -0.0002  XYY=              0.0004
  XXY=             -0.0006  XXZ=              0.0004  XZZ=             -0.0004  YZZ=             -0.0003
  YYZ=             -0.0002  XYZ=              0.0001
 Hexadecapole moment (field-independent basis, Debye-Ang**3):
 XXXX=           -260.3032 YYYY=           -228.3539 ZZZZ=           -246.3278 XXXY=             -1.4680
 XXXZ=             15.8404 YYYX=              3.0995 YYYZ=             -2.2695 ZZZX=             35.6505
 ZZZY=              1.1193 XXYY=            -52.3184 XXZZ=            -34.1558 YYZZ=            -65.5622
 XXYZ=              1.1168 YYXZ=            -51.4534 ZZXY=             -1.6734
 N-N= 6.095835578433D+02 E-N=-4.513621593915D+03  KE= 1.397767947694D+03
                          Isotropic Fermi Contact Couplings
        Atom                 a.u.       MegaHertz       Gauss      10(-4) cm-1
     1  V(51)             -0.04728     -18.56103      -6.62304      -6.19129
     2  O(17)             -0.01455       2.93982       1.04900       0.98062
     3  H(1)               0.00128       1.90114       0.67837       0.63415
     4  O(17)             -0.01456       2.94218       1.04984       0.98141
     5  H(1)               0.00128       1.90145       0.67848       0.63425
     6  O(17)             -0.01456       2.94241       1.04993       0.98148
     7  H(1)               0.00128       1.90178       0.67860       0.63437
     8  O(17)             -0.01455       2.93982       1.04900       0.98062
     9  H(1)               0.00128       1.90288       0.67899       0.63473
    10  O(17)             -0.01456       2.94218       1.04984       0.98141
    11  H(1)               0.00128       1.90143       0.67848       0.63425
    12  O(17)             -0.01456       2.94240       1.04992       0.98148
    13  H(1)               0.00128       1.90174       0.67859       0.63435
    14  H(1)               0.00128       1.90262       0.67890       0.63464
    15  H(1)               0.00128       1.90264       0.67891       0.63465
    16  H(1)               0.00128       1.90281       0.67897       0.63471
    17  H(1)               0.00128       1.90266       0.67892       0.63466
    18  H(1)               0.00128       1.90266       0.67892       0.63466
    19  H(1)               0.00128       1.90106       0.67835       0.63413
 --------------------------------------------------------
       Center         ----  Spin Dipole Couplings  ----
                      3XX-RR        3YY-RR        3ZZ-RR
 --------------------------------------------------------
     1   Atom       -0.000514      0.000038      0.000475
     2   Atom        0.002444     -0.008811      0.006367
     3   Atom        0.016596     -0.016167     -0.000430
     4   Atom       -0.008601      0.028069     -0.019468
     5   Atom       -0.013805      0.008022      0.005783
     6   Atom        0.006154     -0.019247      0.013093
     7   Atom        0.006758     -0.007944      0.001186
     8   Atom        0.002440     -0.008803      0.006363
     9   Atom       -0.006538     -0.016320      0.022858
    10   Atom       -0.008589      0.028066     -0.019477
    11   Atom       -0.013804      0.008020      0.005784
    12   Atom        0.006160     -0.019248      0.013089
    13   Atom        0.006757     -0.007944      0.001187
    14   Atom       -0.011562      0.024521     -0.012959
    15   Atom        0.008624      0.007864     -0.016489
    16   Atom       -0.006539     -0.016319      0.022858
    17   Atom        0.008622      0.007868     -0.016489
    18   Atom       -0.011562      0.024520     -0.012958
    19   Atom        0.016598     -0.016167     -0.000431
 --------------------------------------------------------
                        XY            XZ            YZ
 --------------------------------------------------------
     1   Atom       -0.000027     -0.000031     -0.000016
     2   Atom        0.034592      0.016488     -0.030517
     3   Atom       -0.009202      0.025465     -0.007151
     4   Atom       -0.005317     -0.042278      0.005024
     5   Atom        0.011364     -0.011442     -0.025452
     6   Atom       -0.029265      0.025780      0.025491
     7   Atom       -0.016919     -0.022111      0.014917
     8   Atom        0.034591      0.016491     -0.030518
     9   Atom        0.005753      0.022554      0.009722
    10   Atom       -0.005324     -0.042277      0.005017
    11   Atom        0.011364     -0.011443     -0.025452
    12   Atom       -0.029262      0.025783      0.025494
    13   Atom       -0.016918     -0.022111      0.014918
    14   Atom       -0.017756     -0.006007      0.015791
    15   Atom        0.026756     -0.008464     -0.007835
    16   Atom        0.005754      0.022554      0.009724
    17   Atom        0.026756     -0.008462     -0.007834
    18   Atom       -0.017755     -0.006007      0.015792
    19   Atom       -0.009203      0.025464     -0.007150
 --------------------------------------------------------


 ---------------------------------------------------------------------------------
              Anisotropic Spin Dipole Couplings in Principal Axis System
 ---------------------------------------------------------------------------------

       Atom             a.u.   MegaHertz   Gauss  10(-4) cm-1        Axes

              Baa    -0.0005    -0.073    -0.026    -0.024  0.9983  0.0494  0.0317
     1 V(51)  Bbb     0.0000     0.006     0.002     0.002 -0.0504  0.9982  0.0325
              Bcc     0.0005     0.067     0.024     0.022 -0.0300 -0.0341  0.9990
 
              Baa    -0.0567     4.100     1.463     1.368 -0.5392  0.6940  0.4771
     2 O(17)  Bbb     0.0210    -1.520    -0.542    -0.507  0.6594 -0.0044  0.7518
              Bcc     0.0357    -2.580    -0.921    -0.861  0.5239  0.7200 -0.4552
 
              Baa    -0.0191   -10.217    -3.646    -3.408 -0.3148  0.6614  0.6808
     3 H(1)   Bbb    -0.0183    -9.772    -3.487    -3.259  0.5230  0.7194 -0.4570
              Bcc     0.0375    19.988     7.132     6.667  0.7921 -0.2122  0.5723
 
              Baa    -0.0567     4.100     1.463     1.368  0.6603 -0.0031  0.7510
     4 O(17)  Bbb     0.0210    -1.521    -0.543    -0.507  0.5230  0.7196 -0.4568
              Bcc     0.0356    -2.579    -0.920    -0.860 -0.5390  0.6944  0.4768
 
              Baa    -0.0191   -10.214    -3.645    -3.407  0.7871  0.2131  0.5789
     5 H(1)   Bbb    -0.0183    -9.767    -3.485    -3.258 -0.5389  0.6941  0.4773
              Bcc     0.0374    19.981     7.130     6.665  0.3001  0.6877 -0.6611
 
              Baa    -0.0567     4.099     1.463     1.367  0.5228  0.7200 -0.4564
     6 O(17)  Bbb     0.0210    -1.521    -0.543    -0.507 -0.5397  0.6940  0.4766
              Bcc     0.0356    -2.579    -0.920    -0.860  0.6599 -0.0029  0.7514
 
              Baa    -0.0191   -10.217    -3.646    -3.408  0.3357  0.8956 -0.2920
     7 H(1)   Bbb    -0.0183    -9.771    -3.487    -3.259  0.6604 -0.0027  0.7509
              Bcc     0.0375    19.988     7.132     6.667  0.6717 -0.4449 -0.5924
 
              Baa    -0.0567     4.100     1.463     1.368 -0.5393  0.6940  0.4771
     8 O(17)  Bbb     0.0210    -1.520    -0.542    -0.507  0.6594 -0.0044  0.7518
              Bcc     0.0357    -2.580    -0.921    -0.861  0.5238  0.7200 -0.4552
 
              Baa    -0.0191   -10.214    -3.645    -3.407  0.7134 -0.6620 -0.2298
     9 H(1)   Bbb    -0.0183    -9.768    -3.485    -3.258  0.5219  0.7208 -0.4562
              Bcc     0.0375    19.982     7.130     6.665  0.4677  0.2055  0.8597
 
              Baa    -0.0567     4.100     1.463     1.368  0.6602 -0.0030  0.7511
    10 O(17)  Bbb     0.0210    -1.521    -0.543    -0.507  0.5229  0.7197 -0.4568
              Bcc     0.0356    -2.579    -0.920    -0.860 -0.5392  0.6943  0.4767
 
              Baa    -0.0191   -10.214    -3.645    -3.407  0.7870  0.2132  0.5790
    11 H(1)   Bbb    -0.0183    -9.767    -3.485    -3.258 -0.5391  0.6940  0.4772
              Bcc     0.0374    19.981     7.130     6.665  0.3001  0.6876 -0.6611
 
              Baa    -0.0567     4.100     1.463     1.367  0.5228  0.7200 -0.4564
    12 O(17)  Bbb     0.0210    -1.521    -0.543    -0.507 -0.5396  0.6940  0.4767
              Bcc     0.0356    -2.579    -0.920    -0.860  0.6599 -0.0029  0.7513
 
              Baa    -0.0191   -10.217    -3.646    -3.408  0.3356  0.8956 -0.2921
    13 H(1)   Bbb    -0.0183    -9.771    -3.487    -3.259  0.6605 -0.0026  0.7509
              Bcc     0.0375    19.988     7.132     6.667  0.6717 -0.4449 -0.5924
 
              Baa    -0.0191   -10.215    -3.645    -3.407  0.6613  0.4780 -0.5781
    14 H(1)   Bbb    -0.0183    -9.768    -3.485    -3.258  0.6597 -0.0036  0.7515
              Bcc     0.0375    19.983     7.130     6.665 -0.3571  0.8784  0.3177
 
              Baa    -0.0191   -10.217    -3.646    -3.408  0.4718 -0.2197  0.8539
    15 H(1)   Bbb    -0.0183    -9.773    -3.487    -3.260 -0.5395  0.6940  0.4767
              Bcc     0.0375    19.990     7.133     6.668  0.6973  0.6856 -0.2089
 
              Baa    -0.0191   -10.214    -3.645    -3.407  0.7134 -0.6621 -0.2298
    16 H(1)   Bbb    -0.0183    -9.768    -3.485    -3.258  0.5219  0.7207 -0.4562
              Bcc     0.0375    19.982     7.130     6.665  0.4677  0.2055  0.8597
 
              Baa    -0.0191   -10.217    -3.646    -3.408  0.4717 -0.2196  0.8540
    17 H(1)   Bbb    -0.0183    -9.772    -3.487    -3.260 -0.5397  0.6940  0.4766
              Bcc     0.0375    19.990     7.133     6.668  0.6973  0.6857 -0.2089
 
              Baa    -0.0191   -10.215    -3.645    -3.407  0.6613  0.4780 -0.5781
    18 H(1)   Bbb    -0.0183    -9.768    -3.485    -3.258  0.6596 -0.0037  0.7516
              Bcc     0.0375    19.983     7.130     6.665 -0.3571  0.8784  0.3177
 
              Baa    -0.0191   -10.217    -3.646    -3.408 -0.3148  0.6613  0.6809
    19 H(1)   Bbb    -0.0183    -9.772    -3.487    -3.260  0.5230  0.7195 -0.4570
              Bcc     0.0375    19.988     7.132     6.667  0.7921 -0.2122  0.5723
 

 ---------------------------------------------------------------------------------

 No NMR shielding tensors so no spin-rotation constants.
 Leave Link  601 at Thu May 23 18:12:26 2024, MaxMem= 26843545600 cpu:              29.0 elap:               0.3
 (Enter /gpfs/fs1/soft/improv/software/custom-built/gaussian/g16/l9999.exe)
 Unable to Open any file for archive entry.
 1\1\GINC-I256\SP\UB3LYP\Gen\H12O6V1(2+,4)\HHARB\23-May-2024\0\\#p B3LY
 P empiricaldispersion=gd3 scf=(maxcycles=500,xqc,maxconventional=50) s
 crf=(cpcm,solvent=water) geom=allcheck guess=read chkbasis\\Title\\2,4
 \V,-0.784816025,0.7129506734,0.0317885123\O,-1.3365821059,2.7674992653
 ,-0.3161759505\H,-1.4453808304,3.1951790105,-1.1769944474\O,1.29579475
 05,1.2762273556,0.0502923191\H,2.0503369518,0.6851188438,0.1806758812\
 O,-0.8935507603,1.0427574966,2.1592332732\H,-1.6739146434,0.9278082415
 ,2.7192112952\O,-0.2330523829,-1.3415915264,0.3797924063\H,-0.04567602
 54,-2.0087411278,-0.2951528783\O,-2.8654272335,0.1496772612,0.01325783
 94\H,-3.6199709441,0.7408088597,-0.1170123404\O,-0.6760817839,0.383138
 2529,-2.095653417\H,0.1042971598,0.4980276734,-2.6556224815\H,-1.39795
 30207,0.0915633907,-2.6697899947\H,1.6503983068,2.168172894,-0.0699026
 928\H,-1.5238883387,3.4346415833,0.3587961133\H,-3.2200297788,-0.74228
 7372,0.1333126973\H,-0.1716949739,1.3343861907,2.7333622123\H,-0.12432
 5892,-1.7692571964,1.2406270627\\Version=ES64L-G16RevC.02\State=4-A\HF
 =-1402.4922877\S2=3.752525\S2-1=0.\S2A=3.750003\RMSD=9.196e-09\Dipole=
 -0.0000018,0.0000025,0.0000093\Quadrupole=0.0010961,-0.0001944,-0.0009
 016,-0.0045357,0.0039174,0.0015709\PG=C01 [X(H12O6V1)]\\@
 The archive entry for this job was punched.


 THE NUMBERS ARE MEANINGLESS, BUT THE TRENDS ARE IMPORTANT.
     -- LARRY BURGGRAF
 Job cpu time:       0 days  0 hours 32 minutes 26.9 seconds.
 Elapsed time:       0 days  0 hours  0 minutes 18.0 seconds.
 File lengths (MBytes):  RWF=    123 Int=      0 D2E=      0 Chk=     32 Scr=      1
 Normal termination of Gaussian 16 at Thu May 23 18:12:26 2024.
