 Entering Gaussian System, Link 0=g16
 Input=V_2_HSE06.com
 Output=V_2_HSE06.log
 Initial command:
 /gpfs/fs1/soft/improv/software/custom-built/gaussian/g16/l1.exe "/scratch/Gau-495846.inp" -scrdir="/scratch/"
 Default CPUs for threads: 0-127
 Default linda workers: i219.lcrc.anl.gov
 Default is to use 128 SMP processors on each worker.
 Entering Link 1 = /gpfs/fs1/soft/improv/software/custom-built/gaussian/g16/l1.exe PID=    495847.
  
 Copyright (c) 1988-2021, Gaussian, Inc.  All Rights Reserved.
  
 This is part of the Gaussian(R) 16 program.  It is based on
 the Gaussian(R) 09 system (copyright 2009, Gaussian, Inc.),
 the Gaussian(R) 03 system (copyright 2003, Gaussian, Inc.),
 the Gaussian(R) 98 system (copyright 1998, Gaussian, Inc.),
 the Gaussian(R) 94 system (copyright 1995, Gaussian, Inc.),
 the Gaussian 92(TM) system (copyright 1992, Gaussian, Inc.),
 the Gaussian 90(TM) system (copyright 1990, Gaussian, Inc.),
 the Gaussian 88(TM) system (copyright 1988, Gaussian, Inc.),
 the Gaussian 86(TM) system (copyright 1986, Carnegie Mellon
 University), and the Gaussian 82(TM) system (copyright 1983,
 Carnegie Mellon University). Gaussian is a federally registered
 trademark of Gaussian, Inc.
  
 This software contains proprietary and confidential information,
 including trade secrets, belonging to Gaussian, Inc.
  
 This software is provided under written license and may be
 used, copied, transmitted, or stored only in accord with that
 written license.
  
 The following legend is applicable only to US Government
 contracts under FAR:
  
                    RESTRICTED RIGHTS LEGEND
  
 Use, reproduction and disclosure by the US Government is
 subject to restrictions as set forth in subparagraphs (a)
 and (c) of the Commercial Computer Software - Restricted
 Rights clause in FAR 52.227-19.
  
 Gaussian, Inc.
 340 Quinnipiac St., Bldg. 40, Wallingford CT 06492
  
  
 ---------------------------------------------------------------
 Warning -- This program may not be used in any manner that
 competes with the business of Gaussian, Inc. or will provide
 assistance to any competitor of Gaussian, Inc.  The licensee
 of this program is prohibited from giving any competitor of
 Gaussian, Inc. access to this program.  By using this program,
 the user acknowledges that Gaussian, Inc. is engaged in the
 business of creating and licensing software in the field of
 computational chemistry and represents and warrants to the
 licensee that it is not a competitor of Gaussian, Inc. and that
 it will not use this program in any manner prohibited above.
 ---------------------------------------------------------------
  

 Cite this work as:
 Gaussian 16, Revision C.02,
 M. J. Frisch, G. W. Trucks, H. B. Schlegel, G. E. Scuseria, 
 M. A. Robb, J. R. Cheeseman, G. Scalmani, V. Barone, 
 G. A. Petersson, H. Nakatsuji, X. Li, M. Caricato, A. V. Marenich, 
 J. Bloino, B. G. Janesko, R. Gomperts, B. Mennucci, H. P. Hratchian, 
 J. V. Ortiz, A. F. Izmaylov, J. L. Sonnenberg, D. Williams-Young, 
 F. Ding, F. Lipparini, F. Egidi, J. Goings, B. Peng, A. Petrone, 
 T. Henderson, D. Ranasinghe, V. G. Zakrzewski, J. Gao, N. Rega, 
 G. Zheng, W. Liang, M. Hada, M. Ehara, K. Toyota, R. Fukuda, 
 J. Hasegawa, M. Ishida, T. Nakajima, Y. Honda, O. Kitao, H. Nakai, 
 T. Vreven, K. Throssell, J. A. Montgomery, Jr., J. E. Peralta, 
 F. Ogliaro, M. J. Bearpark, J. J. Heyd, E. N. Brothers, K. N. Kudin, 
 V. N. Staroverov, T. A. Keith, R. Kobayashi, J. Normand, 
 K. Raghavachari, A. P. Rendell, J. C. Burant, S. S. Iyengar, 
 J. Tomasi, M. Cossi, J. M. Millam, M. Klene, C. Adamo, R. Cammi, 
 J. W. Ochterski, R. L. Martin, K. Morokuma, O. Farkas, 
 J. B. Foresman, and D. J. Fox, Gaussian, Inc., Wallingford CT, 2019.
 
 ******************************************
 Gaussian 16:  ES64L-G16RevC.02  7-Dec-2021
                23-May-2024 
 ******************************************
 %chk=V_2_HSE06.chk
 SetSPE:  set environment variable "OMP_PROC_BIND" = "true"
 SetSPE:  set environment variable "OMP_PLACES" = "{0},{1},{2},{3},{4},{5},{6},{7},{8},{9},{10},{11},{12},{13},{14},{15},{16},{17},{18},{19},{20},{21},{22},{23},{24},{25},{26},{27},{28},{29},{30},{31},{32},{33},{34},{35},{36},{37},{38},{39},{40},{41},{42},{43},{44},{45},{46},{47},{48},{49},{50},{51},{52},{53},{54},{55},{56},{57},{58},{59},{60},{61},{62},{63},{64},{65},{66},{67},{68},{69},{70},{71},{72},{73},{74},{75},{76},{77},{78},{79},{80},{81},{82},{83},{84},{85},{86},{87},{88},{89},{90},{91},{92},{93},{94},{95},{96},{97},{98},{99},{100},{101},{102},{103},{104},{105},{106},{107},{108},{109},{110},{111},{112},{113},{114},{115},{116},{117},{118},{119},{120},{121},{122},{123},{124},{125},{126},{127}"
 SetLPE:    new flags="-opt 'Tsnet.Node.lindarsharg: ssh'  -nodelist 'i219.lcrc.anl.gov' -env GAUSS_MDEF=26843545600 -env GAUSS_EXEDIR="/gpfs/fs1/soft/improv/software/custom-built/gaussian/g16/bsd:/gpfs/fs1/soft/improv/software/custom-built/gaussian/g16" -env "OMP_PROC_BIND=true" -env "OMP_PLACES={0},{1},{2},{3},{4},{5},{6},{7},{8},{9},{10},{11},{12},{13},{14},{15},{16},{17},{18},{19},{20},{21},{22},{23},{24},{25},{26},{27},{28},{29},{30},{31},{32},{33},{34},{35},{36},{37},{38},{39},{40},{41},{42},{43},{44},{45},{46},{47},{48},{49},{50},{51},{52},{53},{54},{55},{56},{57},{58},{59},{60},{61},{62},{63},{64},{65},{66},{67},{68},{69},{70},{71},{72},{73},{74},{75},{76},{77},{78},{79},{80},{81},{82},{83},{84},{85},{86},{87},{88},{89},{90},{91},{92},{93},{94},{95},{96},{97},{98},{99},{100},{101},{102},{103},{104},{105},{106},{107},{108},{109},{110},{111},{112},{113},{114},{115},{116},{117},{118},{119},{120},{121},{122},{123},{124},{125},{126},{127}" -env GAUSS_ADEF="0,1,2,3,4,5,6,7,8,9,10,11,12,13,14,15,16,17,18,19,20,21,22,23,24,25,26,27,28,29,30,31,32,33,34,35,36,37,38,39,40,41,42,43,44,45,46,47,48,49,50,51,52,53,54,55,56,57,58,59,60,61,62,63,64,65,66,67,68,69,70,71,72,73,74,75,76,77,78,79,80,81,82,83,84,85,86,87,88,89,90,91,92,93,94,95,96,97,98,99,100,101,102,103,104,105,106,107,108,109,110,111,112,113,114,115,116,117,118,119,120,121,122,123,124,125,126,127""
 Will use up to    1 processors via Linda.
 ----------------------------------------------------------------------
 #p HSEH1PBE 6-31+G(2df,p) opt=(cartesian,calcall,maxcycles=500) freq s
 cf=(maxcycles=500,xqc,maxconventional=50)
 ----------------------------------------------------------------------
 1/6=500,10=4,18=10,26=3,38=1/1,3;
 2/12=2,17=6,18=5,29=2,40=1/2;
 3/5=1,6=6,7=114,11=2,25=1,30=1,71=2,74=-51,140=1/1,2,3;
 4//1;
 5/5=2,7=500,8=3,13=1,38=5,85=50/2,8;
 8/6=4,10=90,11=11/1;
 11/6=1,8=1,9=11,15=111,16=1/1,2,10;
 10/6=1/2;
 6/7=2,8=2,9=2,10=2,18=1,28=1/1;
 7/7=1,10=1,25=1/1,2,3,16;
 1/6=500,10=4,18=10,26=3/3(3);
 2/29=1/2;
 7/7=1,8=1,9=1,25=1,44=-1/16;
 99/12=1/99;
 2/29=1/2;
 3/5=1,6=6,7=114,11=2,25=1,30=1,71=2,74=-51,140=1/1,2,3;
 4/5=5,16=3,69=1/1;
 5/5=2,7=500,8=3,13=1,38=5,85=50/2,8;
 8/6=4,10=90,11=11/1;
 11/6=1,8=1,9=11,15=111,16=1/1,2,10;
 10/6=1/2;
 7/7=1,10=1,25=1/1,2,3,16;
 1/6=500,10=4,18=10,26=3/3(-8);
 2/29=1/2;
 6/7=2,8=2,9=2,10=2,18=1,19=2,28=1/1;
 7/7=1,8=1,9=1,25=1,44=-1/16;
 99/12=1/99;
 Leave Link    1 at Thu May 23 17:06:48 2024, MaxMem=           0 cpu:               3.4 elap:               0.1
 (Enter /gpfs/fs1/soft/improv/software/custom-built/gaussian/g16/l101.exe)
 -----
 Title
 -----
 Symbolic Z-matrix:
 Charge =  2 Multiplicity = 4
 V                    -0.79304   0.81881  -0.09491 
 O                    -1.20497   2.57394  -0.35687 
 H                    -2.12106   2.64974  -0.63312 
 O                     0.99012   1.19063  -0.05794 
 H                     1.42696   0.5998    0.55971 
 O                    -0.81752   1.03069   1.71365 
 H                    -1.02108   0.1906    2.13133 
 O                    -0.38507  -0.93351   0.17118 
 H                    -1.15682  -1.47369  -0.01433 
 O                    -2.57341   0.45178  -0.12186 
 H                    -2.77756  -0.08744  -0.88929 
 O                    -0.76966   0.60461  -1.90111 
 H                     0.09872   0.83457  -2.23949 
 H                    -0.96534  -0.30999  -2.11742 
 H                     1.12208   2.09943   0.22124 
 H                    -1.07671   3.0584    0.46184 
 H                    -2.81407  -0.02398   0.6765 
 H                     0.0422    1.33615   2.01181 
 H                    -0.11532  -1.06446   1.08312 
 
 ITRead=  0  0  0  0  0  0  0  0  0  0  0  0  0  0  0  0  0  0  0
 MicOpt= -1 -1 -1 -1 -1 -1 -1 -1 -1 -1 -1 -1 -1 -1 -1 -1 -1 -1 -1
 NAtoms=     19 NQM=       19 NQMF=       0 NMMI=      0 NMMIF=      0
                NMic=       0 NMicF=      0.
                    Isotopes and Nuclear Properties:
 (Nuclear quadrupole moments (NQMom) in fm**2, nuclear magnetic moments (NMagM)
  in nuclear magnetons)

  Atom         1           2           3           4           5           6           7           8           9          10
 IAtWgt=          51          16           1          16           1          16           1          16           1          16
 AtmWgt=  50.9439625  15.9949146   1.0078250  15.9949146   1.0078250  15.9949146   1.0078250  15.9949146   1.0078250  15.9949146
 NucSpn=           7           0           1           0           1           0           1           0           1           0
 AtZEff=  -0.0000000  -0.0000000  -0.0000000  -0.0000000  -0.0000000  -0.0000000  -0.0000000  -0.0000000  -0.0000000  -0.0000000
 NQMom=   -5.2000000   0.0000000   0.0000000   0.0000000   0.0000000   0.0000000   0.0000000   0.0000000   0.0000000   0.0000000
 NMagM=    5.1514000   0.0000000   2.7928460   0.0000000   2.7928460   0.0000000   2.7928460   0.0000000   2.7928460   0.0000000
 AtZNuc=  23.0000000   8.0000000   1.0000000   8.0000000   1.0000000   8.0000000   1.0000000   8.0000000   1.0000000   8.0000000

  Atom        11          12          13          14          15          16          17          18          19
 IAtWgt=           1          16           1           1           1           1           1           1           1
 AtmWgt=   1.0078250  15.9949146   1.0078250   1.0078250   1.0078250   1.0078250   1.0078250   1.0078250   1.0078250
 NucSpn=           1           0           1           1           1           1           1           1           1
 AtZEff=  -0.0000000  -0.0000000  -0.0000000  -0.0000000  -0.0000000  -0.0000000  -0.0000000  -0.0000000  -0.0000000
 NQMom=    0.0000000   0.0000000   0.0000000   0.0000000   0.0000000   0.0000000   0.0000000   0.0000000   0.0000000
 NMagM=    2.7928460   0.0000000   2.7928460   2.7928460   2.7928460   2.7928460   2.7928460   2.7928460   2.7928460
 AtZNuc=   1.0000000   8.0000000   1.0000000   1.0000000   1.0000000   1.0000000   1.0000000   1.0000000   1.0000000
 Leave Link  101 at Thu May 23 17:06:49 2024, MaxMem= 26843545600 cpu:               0.4 elap:               0.0
 (Enter /gpfs/fs1/soft/improv/software/custom-built/gaussian/g16/l103.exe)

 GradGradGradGradGradGradGradGradGradGradGradGradGradGradGradGradGradGrad
 Berny optimization.
 Initialization pass.
 No Z-matrix variables, so optimization will use Cartesian coordinates.
 Trust Radius=3.00D-01 FncErr=1.00D-07 GrdErr=1.00D-06 EigMax=2.50D+02 EigMin=1.00D-04
 Number of steps in this run=    114 maximum allowed number of steps=    114.
 GradGradGradGradGradGradGradGradGradGradGradGradGradGradGradGradGradGrad

 Leave Link  103 at Thu May 23 17:06:49 2024, MaxMem= 26843545600 cpu:               0.3 elap:               0.0
 (Enter /gpfs/fs1/soft/improv/software/custom-built/gaussian/g16/l202.exe)
 ---------------------------------------------------------------------------------------------------
                            Z-MATRIX (ANGSTROMS AND DEGREES)
   CD    Cent   Atom    N1       Length/X        N2       Alpha/Y        N3        Beta/Z          J
 ---------------------------------------------------------------------------------------------------
      1      1  V        0  -0.793037          0.818805         -0.094905
      2      2  O        0  -1.204971          2.573941         -0.356874
      3      3  H        0  -2.121063          2.649743         -0.633122
      4      4  O        0   0.990122          1.190635         -0.057941
      5      5  H        0   1.426962          0.599798          0.559707
      6      6  O        0  -0.817519          1.030691          1.713650
      7      7  H        0  -1.021079          0.190602          2.131326
      8      8  O        0  -0.385068         -0.933506          0.171177
      9      9  H        0  -1.156817         -1.473692         -0.014327
     10     10  O        0  -2.573405          0.451778         -0.121857
     11     11  H        0  -2.777557         -0.087440         -0.889285
     12     12  O        0  -0.769659          0.604612         -1.901109
     13     13  H        0   0.098725          0.834573         -2.239490
     14     14  H        0  -0.965336         -0.309994         -2.117418
     15     15  H        0   1.122081          2.099426          0.221242
     16     16  H        0  -1.076711          3.058396          0.461841
     17     17  H        0  -2.814074         -0.023981          0.676500
     18     18  H        0   0.042204          1.336153          2.011809
     19     19  H        0  -0.115315         -1.064459          1.083123
 ---------------------------------------------------------------------------------------------------
                         Z-Matrix orientation:                         
 ---------------------------------------------------------------------
 Center     Atomic      Atomic             Coordinates (Angstroms)
 Number     Number       Type             X           Y           Z
 ---------------------------------------------------------------------
      1         23           0       -0.793037    0.818805   -0.094905
      2          8           0       -1.204971    2.573941   -0.356874
      3          1           0       -2.121063    2.649743   -0.633122
      4          8           0        0.990122    1.190635   -0.057941
      5          1           0        1.426962    0.599798    0.559707
      6          8           0       -0.817519    1.030691    1.713650
      7          1           0       -1.021079    0.190602    2.131326
      8          8           0       -0.385068   -0.933506    0.171177
      9          1           0       -1.156817   -1.473692   -0.014327
     10          8           0       -2.573405    0.451778   -0.121857
     11          1           0       -2.777557   -0.087440   -0.889285
     12          8           0       -0.769659    0.604612   -1.901109
     13          1           0        0.098725    0.834573   -2.239490
     14          1           0       -0.965336   -0.309994   -2.117418
     15          1           0        1.122081    2.099426    0.221242
     16          1           0       -1.076711    3.058396    0.461841
     17          1           0       -2.814074   -0.023981    0.676500
     18          1           0        0.042204    1.336153    2.011809
     19          1           0       -0.115315   -1.064459    1.083123
 ---------------------------------------------------------------------
                    Distance matrix (angstroms):
                    1          2          3          4          5
     1  V    0.000000
     2  O    1.821762   0.000000
     3  H    2.325008   0.959835   0.000000
     4  O    1.821889   2.611767   3.484150   0.000000
     5  H    2.324839   3.415322   4.267739   0.959899   0.000000
     6  O    1.821090   2.611285   3.134947   2.536076   2.560263
     7  H    2.324381   3.450400   3.859988   3.136540   2.937743
     8  O    1.818745   3.640503   4.062050   2.540791   2.405292
     9  H    2.322579   4.062387   4.279649   3.421971   3.362259
    10  O    1.818006   2.536025   2.301533   3.639880   4.060711
    11  H    2.321775   3.136788   2.826442   4.064482   4.499984
    12  O    1.819010   2.540161   2.759827   2.614866   3.298603
    13  H    2.322657   2.875634   3.286750   2.383386   3.107223
    14  H    2.322591   3.387332   3.506977   3.212032   3.703756
    15  H    2.325429   2.444290   3.398642   0.959822   1.567289
    16  H    2.325125   0.959918   1.567358   2.833814   3.510364
    17  H    2.321626   3.225876   3.056824   4.060370   4.288255
    18  H    2.324547   2.949275   3.660724   2.281137   2.137375
    19  H    2.322443   4.061883   4.556733   2.758526   2.328591
                    6          7          8          9         10
     6  O    0.000000
     7  H    0.960021   0.000000
     8  O    2.534622   2.347406   0.000000
     9  H    3.061530   2.718847   0.960108   0.000000
    10  O    2.605257   2.748593   2.606473   2.392848   0.000000
    11  H    3.444886   3.505227   2.750347   2.305222   0.959885
    12  O    3.640099   4.061422   2.609231   2.833582   2.538227
    13  H    4.062670   4.557707   3.028445   3.443229   3.430916
    14  H    4.061572   4.278496   2.441955   2.411193   2.673658
    15  H    2.670492   3.447487   3.387136   4.244531   4.060675
    16  H    2.397039   3.318813   4.061790   4.557738   3.061904
    17  H    2.484803   2.318921   2.642472   2.307685   0.960023
    18  H    0.959858   1.567527   2.953276   3.665802   3.489421
    19  H    2.297892   1.869309   0.959980   1.567353   3.129403
                   11         12         13         14         15
    11  H    0.000000
    12  O    2.352526   0.000000
    13  H    3.308498   0.959935   0.000000
    14  H    2.200452   0.959991   1.567533   0.000000
    15  H    4.606825   3.212091   2.949969   3.953725   0.000000
    16  H    3.822919   3.420362   3.691102   4.243941   2.410850
    17  H    1.567497   3.349453   4.210050   3.362383   4.495491
    18  H    4.288824   4.062660   4.281159   4.558009   2.225950
    19  H    3.454344   3.481323   3.833001   3.396353   3.504877
                   16         17         18         19
    16  H    0.000000
    17  H    3.544793   0.000000
    18  H    2.573032   3.433851   0.000000
    19  H    4.278809   2.920828   2.578800   0.000000
 Stoichiometry    H12O6V(2+,4)
 Framework group  C1[X(H12O6V)]
 Deg. of freedom    51
 Full point group                 C1      NOp   1
 Largest Abelian subgroup         C1      NOp   1
 Largest concise Abelian subgroup C1      NOp   1
                         Standard orientation:                         
 ---------------------------------------------------------------------
 Center     Atomic      Atomic             Coordinates (Angstroms)
 Number     Number       Type             X           Y           Z
 ---------------------------------------------------------------------
      1         23           0       -0.020930   -0.030851    0.010117
      2          8           0       -0.320881   -1.688468   -0.683537
      3          1           0       -1.137136   -1.681045   -1.188468
      4          8           0        1.254385   -0.678558    1.138536
      5          1           0        1.942922   -0.019835    1.254320
      6          8           0        1.297591    0.293740   -1.203355
      7          1           0        1.381168    1.240413   -1.339237
      8          8           0        0.279591    1.625972    0.697472
      9          1           0       -0.432419    2.214852    0.436571
     10          8           0       -1.286602    0.614727   -1.124100
     11          1           0       -2.035606    0.937335   -0.617843
     12          8           0       -1.338715   -0.352402    1.222076
     13          1           0       -0.971940   -0.816344    1.978190
     14          1           0       -1.717839    0.480834    1.511152
     15          1           0        1.635326   -1.477232    0.766701
     16          1           0        0.408485   -1.931629   -1.258289
     17          1           0       -0.916150    1.334035   -1.640826
     18          1           0        2.128491   -0.056823   -0.874663
     19          1           0        1.113128    1.964930    0.362980
 ---------------------------------------------------------------------
 Rotational constants (GHZ):           2.0397021           1.9739483           1.9252864
 Leave Link  202 at Thu May 23 17:06:49 2024, MaxMem= 26843545600 cpu:               0.5 elap:               0.0
 (Enter /gpfs/fs1/soft/improv/software/custom-built/gaussian/g16/l301.exe)
 Standard basis: 6-31+G(2df,p) (6D, 7F)
 Ernie: Thresh=  0.10000D-02 Tol=  0.10000D-05 Strict=F.
 There are   347 symmetry adapted cartesian basis functions of A   symmetry.
 There are   317 symmetry adapted basis functions of A   symmetry.
   317 basis functions,   514 primitive gaussians,   347 cartesian basis functions
    42 alpha electrons       39 beta electrons
       nuclear repulsion energy       717.7225235776 Hartrees.
 IExCor= 3909 DFT=T Ex+Corr=HSEH1PBE ExCW=0 ScaHFX=  0.250000
 ScaDFX=  1.000000  1.000000  1.000000  1.000000 ScalE2=  1.000000  1.000000
 IRadAn=      5 IRanWt=     -1 IRanGd=            0 ICorTp=0 IEmpDi=  4
 HFx  wShort=  0.110000 wLong=  0.000000 cFull=  0.000000 cShort=  1.000000 cLong=  0.000000
 DFx  wShort=  0.110000 wLong=  0.000000 cFull=  0.000000 cShort= -0.250000 cLong=  1.000000
 NAtoms=   19 NActive=   19 NUniq=   19 SFac= 1.00D+00 NAtFMM=   60 NAOKFM=F Big=F
 Integral buffers will be    131072 words long.
 Raffenetti 2 integral format.
 Two-electron integral symmetry is turned on.
 Leave Link  301 at Thu May 23 17:06:49 2024, MaxMem= 26843545600 cpu:               0.4 elap:               0.0
 (Enter /gpfs/fs1/soft/improv/software/custom-built/gaussian/g16/l302.exe)
 NPDir=0 NMtPBC=     1 NCelOv=     1 NCel=       1 NClECP=     1 NCelD=      1
         NCelK=      1 NCelE2=     1 NClLst=     1 CellRange=     0.0.
 One-electron integrals computed using PRISM.
 One-electron integral symmetry used in STVInt
 NBasis=   317 RedAO= T EigKep=  3.17D-05  NBF=   317
 NBsUse=   317 1.00D-06 EigRej= -1.00D+00 NBFU=   317
 Precomputing XC quadrature grid using
 IXCGrd= 4 IRadAn=           5 IRanWt=          -1 IRanGd=           0 AccXCQ= 0.00D+00.
 Generated NRdTot=       0 NPtTot=           0 NUsed=           0 NTot=          32
 NSgBfM=   347   347   347   347   347 MxSgAt=    19 MxSgA2=    19.
 Leave Link  302 at Thu May 23 17:06:49 2024, MaxMem= 26843545600 cpu:              22.0 elap:               0.3
 (Enter /gpfs/fs1/soft/improv/software/custom-built/gaussian/g16/l303.exe)
 DipDrv:  MaxL=1.
 Leave Link  303 at Thu May 23 17:06:49 2024, MaxMem= 26843545600 cpu:               1.0 elap:               0.0
 (Enter /gpfs/fs1/soft/improv/software/custom-built/gaussian/g16/l401.exe)
 ExpMin= 1.07D-02 ExpMax= 4.74D+04 ExpMxC= 7.11D+03 IAcc=3 IRadAn=         5 AccDes= 0.00D+00
 Harris functional with IExCor= 1009 and IRadAn=       5 diagonalized for initial guess.
 HarFok:  IExCor= 1009 AccDes= 0.00D+00 IRadAn=         5 IDoV= 1 UseB2=F ITyADJ=14
 ICtDFT=  3500011 ScaDFX=  1.000000  1.000000  1.000000  1.000000
 FoFCou: FMM=F IPFlag=           0 FMFlag=      100000 FMFlg1=           0
         NFxFlg=           0 DoJE=T BraDBF=F KetDBF=T FulRan=T
         wScrn=  0.000000 ICntrl=       500 IOpCl=  0 I1Cent=   200000004 NGrid=           0
         NMat0=    1 NMatS0=      1 NMatT0=    0 NMatD0=    1 NMtDS0=    0 NMtDT0=    0
 Petite list used in FoFCou.
 Harris En= -1401.41670938025    
 JPrj=0 DoOrth=F DoCkMO=F.
 Initial guess <Sx>= 0.0000 <Sy>= 0.0000 <Sz>= 1.5000 <S**2>= 3.7500 S= 1.5000
 Leave Link  401 at Thu May 23 17:06:49 2024, MaxMem= 26843545600 cpu:              37.6 elap:               0.4
 (Enter /gpfs/fs1/soft/improv/software/custom-built/gaussian/g16/l502.exe)
 Integral symmetry usage will be decided dynamically.
 UHF open shell SCF:
 Using DIIS extrapolation, IDIIS=  1040.
 NGot= 26843545600 LenX= 26843256607 LenY= 26843135757
 Requested convergence on RMS density matrix=1.00D-08 within  50 cycles.
 Requested convergence on MAX density matrix=1.00D-06.
 Requested convergence on             energy=1.00D-06.
 No special actions if energy rises.
 Fock matrices will be formed incrementally for  20 cycles.

 Cycle   1  Pass 1  IDiag  1:
 FoFJK:  IHMeth= 1 ICntrl=       0 DoSepK=T KAlg= 0 I1Cent=           0 FoldK=F
 IRaf=         1 NMat=       1 IRICut=       1 DoRegI=T DoRafI=F ISym2E= 0 IDoP0=0 IntGTp=1.
 FoFCou: FMM=F IPFlag=           0 FMFlag=      100000 FMFlg1=           0
         NFxFlg=           0 DoJE=T BraDBF=F KetDBF=F FulRan=T
         wScrn=  0.000000 ICntrl=       500 IOpCl=  0 I1Cent=           0 NGrid=           0
         NMat0=    1 NMatS0=      1 NMatT0=    0 NMatD0=    1 NMtDS0=    0 NMtDT0=    0
 Symmetry not used in FoFCou.
 E= -1400.86244110978    
 DIIS: error= 4.82D-02 at cycle   1 NSaved=   1.
 NSaved= 1 IEnMin= 1 EnMin= -1400.86244110978     IErMin= 1 ErrMin= 4.82D-02
 ErrMax= 4.82D-02  0.00D+00 EMaxC= 1.00D-01 BMatC= 2.45D+00 BMatP= 2.45D+00
 IDIUse=3 WtCom= 5.18D-01 WtEn= 4.82D-01
 Coeff-Com:  0.100D+01
 Coeff-En:   0.100D+01
 Coeff:      0.100D+01
 Gap=    -0.051 Goal=   None    Shift=    0.000
 Gap=     0.386 Goal=   None    Shift=    0.000
 GapD=   -0.051 DampG=0.250 DampE=0.250 DampFc=0.1250 IDamp=-1.
 Damping current iteration by 1.25D-01
 RMSDP=2.65D-02 MaxDP=3.72D+00              OVMax= 9.37D-01

 Cycle   2  Pass 1  IDiag  1:
 RMSU=  3.31D-03    CP:  9.97D-01
 E= -1400.96055969693     Delta-E=       -0.098118587151 Rises=F Damp=T
 DIIS: error= 4.28D-02 at cycle   2 NSaved=   2.
 NSaved= 2 IEnMin= 2 EnMin= -1400.96055969693     IErMin= 2 ErrMin= 4.28D-02
 ErrMax= 4.28D-02  0.00D+00 EMaxC= 1.00D-01 BMatC= 1.23D+00 BMatP= 2.45D+00
 IDIUse=3 WtCom= 5.72D-01 WtEn= 4.28D-01
 Coeff-Com: -0.193D+01 0.293D+01
 Coeff-En:   0.000D+00 0.100D+01
 Coeff:     -0.111D+01 0.211D+01
 Gap=     0.025 Goal=   None    Shift=    0.000
 Gap=     0.297 Goal=   None    Shift=    0.000
 RMSDP=5.72D-03 MaxDP=4.12D-01 DE=-9.81D-02 OVMax= 9.52D-01

 Cycle   3  Pass 1  IDiag  1:
 RMSU=  5.21D-03    CP:  9.41D-01  3.63D-01
 E= -1401.11724517719     Delta-E=       -0.156685480259 Rises=F Damp=F
 DIIS: error= 1.87D-02 at cycle   3 NSaved=   3.
 NSaved= 3 IEnMin= 3 EnMin= -1401.11724517719     IErMin= 3 ErrMin= 1.87D-02
 ErrMax= 1.87D-02  0.00D+00 EMaxC= 1.00D-01 BMatC= 9.82D-01 BMatP= 1.23D+00
 IDIUse=3 WtCom= 8.13D-01 WtEn= 1.87D-01
 EnCoef did   100 forward-backward iterations
 Coeff-Com: -0.103D+01 0.168D+01 0.348D+00
 Coeff-En:   0.222D+00 0.115D-01 0.766D+00
 Coeff:     -0.792D+00 0.137D+01 0.426D+00
 Gap=     0.033 Goal=   None    Shift=    0.000
 Gap=     0.331 Goal=   None    Shift=    0.000
 RMSDP=4.34D-03 MaxDP=2.01D-01 DE=-1.57D-01 OVMax= 2.30D-01

 Cycle   4  Pass 1  IDiag  1:
 RMSU=  2.88D-03    CP:  9.61D-01  8.54D-01  4.65D-01
 E= -1401.26834661016     Delta-E=       -0.151101432969 Rises=F Damp=F
 DIIS: error= 3.83D-03 at cycle   4 NSaved=   4.
 NSaved= 4 IEnMin= 4 EnMin= -1401.26834661016     IErMin= 4 ErrMin= 3.83D-03
 ErrMax= 3.83D-03  0.00D+00 EMaxC= 1.00D-01 BMatC= 4.86D-02 BMatP= 9.82D-01
 IDIUse=3 WtCom= 9.62D-01 WtEn= 3.83D-02
 Coeff-Com: -0.105D-01 0.123D-01 0.178D+00 0.820D+00
 Coeff-En:   0.000D+00 0.000D+00 0.108D-01 0.989D+00
 Coeff:     -0.101D-01 0.119D-01 0.171D+00 0.827D+00
 Gap=     0.066 Goal=   None    Shift=    0.000
 Gap=     0.313 Goal=   None    Shift=    0.000
 RMSDP=1.83D-03 MaxDP=1.59D-01 DE=-1.51D-01 OVMax= 1.03D-01

 Cycle   5  Pass 1  IDiag  1:
 RMSU=  5.90D-04    CP:  9.52D-01  5.22D-01  6.21D-01  6.37D-01
 E= -1401.27680418991     Delta-E=       -0.008457579750 Rises=F Damp=F
 DIIS: error= 1.21D-03 at cycle   5 NSaved=   5.
 NSaved= 5 IEnMin= 5 EnMin= -1401.27680418991     IErMin= 5 ErrMin= 1.21D-03
 ErrMax= 1.21D-03  0.00D+00 EMaxC= 1.00D-01 BMatC= 3.67D-03 BMatP= 4.86D-02
 IDIUse=3 WtCom= 9.88D-01 WtEn= 1.21D-02
 Coeff-Com: -0.404D-01 0.407D-01 0.369D-01 0.328D+00 0.634D+00
 Coeff-En:   0.000D+00 0.000D+00 0.000D+00 0.000D+00 0.100D+01
 Coeff:     -0.399D-01 0.402D-01 0.365D-01 0.324D+00 0.639D+00
 Gap=     0.067 Goal=   None    Shift=    0.000
 Gap=     0.314 Goal=   None    Shift=    0.000
 RMSDP=1.62D-04 MaxDP=6.28D-03 DE=-8.46D-03 OVMax= 5.93D-03

 Cycle   6  Pass 1  IDiag  1:
 RMSU=  1.30D-04    CP:  9.52D-01  5.20D-01  6.06D-01  6.50D-01  1.07D+00
 E= -1401.27731662739     Delta-E=       -0.000512437476 Rises=F Damp=F
 DIIS: error= 4.63D-04 at cycle   6 NSaved=   6.
 NSaved= 6 IEnMin= 6 EnMin= -1401.27731662739     IErMin= 6 ErrMin= 4.63D-04
 ErrMax= 4.63D-04  0.00D+00 EMaxC= 1.00D-01 BMatC= 8.63D-04 BMatP= 3.67D-03
 IDIUse=3 WtCom= 9.95D-01 WtEn= 4.63D-03
 Coeff-Com: -0.540D-01 0.609D-01-0.199D-01 0.433D-01 0.360D+00 0.610D+00
 Coeff-En:   0.000D+00 0.000D+00 0.000D+00 0.000D+00 0.000D+00 0.100D+01
 Coeff:     -0.537D-01 0.606D-01-0.198D-01 0.431D-01 0.358D+00 0.612D+00
 Gap=     0.067 Goal=   None    Shift=    0.000
 Gap=     0.313 Goal=   None    Shift=    0.000
 RMSDP=1.15D-04 MaxDP=9.49D-03 DE=-5.12D-04 OVMax= 8.57D-03

 Cycle   7  Pass 1  IDiag  1:
 RMSU=  5.71D-05    CP:  9.52D-01  5.04D-01  6.05D-01  6.35D-01  1.18D+00
                    CP:  1.16D+00
 E= -1401.27743831458     Delta-E=       -0.000121687196 Rises=F Damp=F
 DIIS: error= 3.10D-04 at cycle   7 NSaved=   7.
 NSaved= 7 IEnMin= 7 EnMin= -1401.27743831458     IErMin= 7 ErrMin= 3.10D-04
 ErrMax= 3.10D-04  0.00D+00 EMaxC= 1.00D-01 BMatC= 2.34D-04 BMatP= 8.63D-04
 IDIUse=3 WtCom= 9.97D-01 WtEn= 3.10D-03
 Coeff-Com: -0.384D-01 0.446D-01-0.144D-01 0.674D-03 0.549D-01 0.169D+00
 Coeff-Com:  0.784D+00
 Coeff-En:   0.000D+00 0.000D+00 0.000D+00 0.000D+00 0.000D+00 0.000D+00
 Coeff-En:   0.100D+01
 Coeff:     -0.383D-01 0.444D-01-0.143D-01 0.671D-03 0.548D-01 0.168D+00
 Coeff:      0.784D+00
 Gap=     0.067 Goal=   None    Shift=    0.000
 Gap=     0.312 Goal=   None    Shift=    0.000
 RMSDP=5.49D-05 MaxDP=3.03D-03 DE=-1.22D-04 OVMax= 3.43D-03

 Cycle   8  Pass 1  IDiag  1:
 RMSU=  1.84D-05    CP:  9.52D-01  5.00D-01  6.03D-01  6.31D-01  1.25D+00
                    CP:  1.33D+00  1.32D+00
 E= -1401.27747307206     Delta-E=       -0.000034757473 Rises=F Damp=F
 DIIS: error= 1.82D-04 at cycle   8 NSaved=   8.
 NSaved= 8 IEnMin= 8 EnMin= -1401.27747307206     IErMin= 8 ErrMin= 1.82D-04
 ErrMax= 1.82D-04  0.00D+00 EMaxC= 1.00D-01 BMatC= 6.77D-05 BMatP= 2.34D-04
 IDIUse=3 WtCom= 9.98D-01 WtEn= 1.82D-03
 Coeff-Com: -0.113D-01 0.131D-01-0.182D-02 0.115D-02-0.670D-01-0.107D+00
 Coeff-Com:  0.140D-01 0.116D+01
 Coeff-En:   0.000D+00 0.000D+00 0.000D+00 0.000D+00 0.000D+00 0.000D+00
 Coeff-En:   0.000D+00 0.100D+01
 Coeff:     -0.113D-01 0.131D-01-0.181D-02 0.114D-02-0.668D-01-0.107D+00
 Coeff:      0.140D-01 0.116D+01
 Gap=     0.066 Goal=   None    Shift=    0.000
 Gap=     0.312 Goal=   None    Shift=    0.000
 RMSDP=4.12D-05 MaxDP=2.21D-03 DE=-3.48D-05 OVMax= 2.52D-03

 Cycle   9  Pass 1  IDiag  1:
 RMSU=  9.53D-06    CP:  9.52D-01  4.98D-01  6.02D-01  6.30D-01  1.29D+00
                    CP:  1.49D+00  1.61D+00  1.47D+00
 E= -1401.27748699298     Delta-E=       -0.000013920926 Rises=F Damp=F
 DIIS: error= 3.09D-05 at cycle   9 NSaved=   9.
 NSaved= 9 IEnMin= 9 EnMin= -1401.27748699298     IErMin= 9 ErrMin= 3.09D-05
 ErrMax= 3.09D-05  0.00D+00 EMaxC= 1.00D-01 BMatC= 2.28D-06 BMatP= 6.77D-05
 IDIUse=1 WtCom= 1.00D+00 WtEn= 0.00D+00
 Coeff-Com: -0.778D-03 0.818D-03 0.668D-03 0.215D-02-0.209D-01-0.434D-01
 Coeff-Com: -0.113D+00 0.311D+00 0.864D+00
 Coeff:     -0.778D-03 0.818D-03 0.668D-03 0.215D-02-0.209D-01-0.434D-01
 Coeff:     -0.113D+00 0.311D+00 0.864D+00
 Gap=     0.066 Goal=   None    Shift=    0.000
 Gap=     0.312 Goal=   None    Shift=    0.000
 RMSDP=8.56D-06 MaxDP=3.58D-04 DE=-1.39D-05 OVMax= 4.59D-04

 Cycle  10  Pass 1  IDiag  1:
 RMSU=  2.22D-06    CP:  9.52D-01  4.97D-01  6.01D-01  6.30D-01  1.30D+00
                    CP:  1.52D+00  1.66D+00  1.60D+00  1.28D+00
 E= -1401.27748748693     Delta-E=       -0.000000493952 Rises=F Damp=F
 DIIS: error= 3.89D-06 at cycle  10 NSaved=  10.
 NSaved=10 IEnMin=10 EnMin= -1401.27748748693     IErMin=10 ErrMin= 3.89D-06
 ErrMax= 3.89D-06  0.00D+00 EMaxC= 1.00D-01 BMatC= 5.11D-08 BMatP= 2.28D-06
 IDIUse=1 WtCom= 1.00D+00 WtEn= 0.00D+00
 Coeff-Com:  0.211D-03-0.250D-03 0.206D-03 0.486D-03-0.165D-02-0.516D-02
 Coeff-Com: -0.290D-01 0.274D-01 0.273D+00 0.735D+00
 Coeff:      0.211D-03-0.250D-03 0.206D-03 0.486D-03-0.165D-02-0.516D-02
 Coeff:     -0.290D-01 0.274D-01 0.273D+00 0.735D+00
 Gap=     0.066 Goal=   None    Shift=    0.000
 Gap=     0.312 Goal=   None    Shift=    0.000
 RMSDP=9.81D-07 MaxDP=5.25D-05 DE=-4.94D-07 OVMax= 8.90D-05

 Cycle  11  Pass 1  IDiag  1:
 RMSU=  8.64D-07    CP:  9.52D-01  4.97D-01  6.01D-01  6.30D-01  1.30D+00
                    CP:  1.52D+00  1.66D+00  1.60D+00  1.31D+00  1.17D+00
 E= -1401.27748749684     Delta-E=       -0.000000009903 Rises=F Damp=F
 DIIS: error= 2.29D-06 at cycle  11 NSaved=  11.
 NSaved=11 IEnMin=11 EnMin= -1401.27748749684     IErMin=11 ErrMin= 2.29D-06
 ErrMax= 2.29D-06  0.00D+00 EMaxC= 1.00D-01 BMatC= 1.89D-08 BMatP= 5.11D-08
 IDIUse=1 WtCom= 1.00D+00 WtEn= 0.00D+00
 Coeff-Com:  0.206D-03-0.227D-03 0.216D-04-0.528D-04 0.168D-02 0.267D-02
 Coeff-Com:  0.171D-02-0.220D-01 0.238D-01 0.388D+00 0.604D+00
 Coeff:      0.206D-03-0.227D-03 0.216D-04-0.528D-04 0.168D-02 0.267D-02
 Coeff:      0.171D-02-0.220D-01 0.238D-01 0.388D+00 0.604D+00
 Gap=     0.066 Goal=   None    Shift=    0.000
 Gap=     0.312 Goal=   None    Shift=    0.000
 RMSDP=4.47D-07 MaxDP=2.23D-05 DE=-9.90D-09 OVMax= 4.01D-05

 Cycle  12  Pass 1  IDiag  1:
 RMSU=  2.96D-07    CP:  9.52D-01  4.97D-01  6.01D-01  6.30D-01  1.30D+00
                    CP:  1.52D+00  1.66D+00  1.60D+00  1.32D+00  1.27D+00
                    CP:  1.21D+00
 E= -1401.27748750082     Delta-E=       -0.000000003984 Rises=F Damp=F
 DIIS: error= 6.98D-07 at cycle  12 NSaved=  12.
 NSaved=12 IEnMin=12 EnMin= -1401.27748750082     IErMin=12 ErrMin= 6.98D-07
 ErrMax= 6.98D-07  0.00D+00 EMaxC= 1.00D-01 BMatC= 1.42D-09 BMatP= 1.89D-08
 IDIUse=1 WtCom= 1.00D+00 WtEn= 0.00D+00
 Coeff-Com:  0.359D-04-0.417D-04-0.154D-04-0.955D-04 0.390D-03 0.104D-02
 Coeff-Com:  0.678D-02-0.677D-02-0.583D-01-0.111D+00 0.897D-01 0.108D+01
 Coeff:      0.359D-04-0.417D-04-0.154D-04-0.955D-04 0.390D-03 0.104D-02
 Coeff:      0.678D-02-0.677D-02-0.583D-01-0.111D+00 0.897D-01 0.108D+01
 Gap=     0.066 Goal=   None    Shift=    0.000
 Gap=     0.312 Goal=   None    Shift=    0.000
 RMSDP=3.91D-07 MaxDP=2.15D-05 DE=-3.98D-09 OVMax= 3.94D-05

 Cycle  13  Pass 1  IDiag  1:
 RMSU=  1.11D-07    CP:  9.52D-01  4.97D-01  6.01D-01  6.30D-01  1.30D+00
                    CP:  1.52D+00  1.66D+00  1.60D+00  1.33D+00  1.37D+00
                    CP:  1.47D+00  1.27D+00
 E= -1401.27748750145     Delta-E=       -0.000000000627 Rises=F Damp=F
 DIIS: error= 1.75D-07 at cycle  13 NSaved=  13.
 NSaved=13 IEnMin=13 EnMin= -1401.27748750145     IErMin=13 ErrMin= 1.75D-07
 ErrMax= 1.75D-07  0.00D+00 EMaxC= 1.00D-01 BMatC= 1.06D-10 BMatP= 1.42D-09
 IDIUse=1 WtCom= 1.00D+00 WtEn= 0.00D+00
 Coeff-Com:  0.297D-05-0.400D-05-0.352D-05-0.317D-04-0.512D-04 0.623D-04
 Coeff-Com:  0.179D-02-0.239D-03-0.196D-01-0.638D-01-0.136D-01 0.360D+00
 Coeff-Com:  0.736D+00
 Coeff:      0.297D-05-0.400D-05-0.352D-05-0.317D-04-0.512D-04 0.623D-04
 Coeff:      0.179D-02-0.239D-03-0.196D-01-0.638D-01-0.136D-01 0.360D+00
 Coeff:      0.736D+00
 Gap=     0.066 Goal=   None    Shift=    0.000
 Gap=     0.312 Goal=   None    Shift=    0.000
 RMSDP=1.06D-07 MaxDP=7.84D-06 DE=-6.27D-10 OVMax= 7.64D-06

 Cycle  14  Pass 1  IDiag  1:
 RMSU=  3.25D-08    CP:  9.52D-01  4.97D-01  6.01D-01  6.30D-01  1.30D+00
                    CP:  1.52D+00  1.66D+00  1.60D+00  1.33D+00  1.38D+00
                    CP:  1.50D+00  1.36D+00  1.09D+00
 E= -1401.27748750149     Delta-E=       -0.000000000046 Rises=F Damp=F
 DIIS: error= 9.58D-08 at cycle  14 NSaved=  14.
 NSaved=14 IEnMin=14 EnMin= -1401.27748750149     IErMin=14 ErrMin= 9.58D-08
 ErrMax= 9.58D-08  0.00D+00 EMaxC= 1.00D-01 BMatC= 4.48D-11 BMatP= 1.06D-10
 IDIUse=1 WtCom= 1.00D+00 WtEn= 0.00D+00
 Coeff-Com: -0.440D-05 0.492D-05 0.123D-05-0.789D-06-0.112D-03-0.166D-03
 Coeff-Com: -0.323D-03 0.115D-02-0.231D-03-0.161D-01-0.241D-01 0.936D-02
 Coeff-Com:  0.412D+00 0.618D+00
 Coeff:     -0.440D-05 0.492D-05 0.123D-05-0.789D-06-0.112D-03-0.166D-03
 Coeff:     -0.323D-03 0.115D-02-0.231D-03-0.161D-01-0.241D-01 0.936D-02
 Coeff:      0.412D+00 0.618D+00
 Gap=     0.066 Goal=   None    Shift=    0.000
 Gap=     0.312 Goal=   None    Shift=    0.000
 RMSDP=5.17D-08 MaxDP=3.82D-06 DE=-4.64D-11 OVMax= 4.00D-06

 Cycle  15  Pass 1  IDiag  1:
 RMSU=  1.23D-08    CP:  9.52D-01  4.97D-01  6.01D-01  6.30D-01  1.30D+00
                    CP:  1.52D+00  1.66D+00  1.60D+00  1.33D+00  1.38D+00
                    CP:  1.52D+00  1.38D+00  1.18D+00  8.59D-01
 E= -1401.27748750149     Delta-E=        0.000000000005 Rises=F Damp=F
 DIIS: error= 3.02D-08 at cycle  15 NSaved=  15.
 NSaved=15 IEnMin=14 EnMin= -1401.27748750149     IErMin=15 ErrMin= 3.02D-08
 ErrMax= 3.02D-08  0.00D+00 EMaxC= 1.00D-01 BMatC= 4.35D-12 BMatP= 4.48D-11
 IDIUse=1 WtCom= 1.00D+00 WtEn= 0.00D+00
 Coeff-Com: -0.209D-05 0.242D-05 0.778D-06 0.484D-05-0.280D-04-0.551D-04
 Coeff-Com: -0.358D-03 0.335D-03 0.222D-02 0.224D-02-0.633D-02-0.403D-01
 Coeff-Com:  0.469D-01 0.219D+00 0.776D+00
 Coeff:     -0.209D-05 0.242D-05 0.778D-06 0.484D-05-0.280D-04-0.551D-04
 Coeff:     -0.358D-03 0.335D-03 0.222D-02 0.224D-02-0.633D-02-0.403D-01
 Coeff:      0.469D-01 0.219D+00 0.776D+00
 Gap=     0.066 Goal=   None    Shift=    0.000
 Gap=     0.312 Goal=   None    Shift=    0.000
 RMSDP=1.85D-08 MaxDP=1.20D-06 DE= 5.46D-12 OVMax= 1.47D-06

 Cycle  16  Pass 1  IDiag  1:
 RMSU=  5.25D-09    CP:  9.52D-01  4.97D-01  6.01D-01  6.30D-01  1.30D+00
                    CP:  1.52D+00  1.66D+00  1.60D+00  1.33D+00  1.38D+00
                    CP:  1.51D+00  1.38D+00  1.21D+00  9.23D-01  1.00D+00
 E= -1401.27748750149     Delta-E=        0.000000000004 Rises=F Damp=F
 DIIS: error= 1.40D-08 at cycle  16 NSaved=  16.
 NSaved=16 IEnMin=14 EnMin= -1401.27748750149     IErMin=16 ErrMin= 1.40D-08
 ErrMax= 1.40D-08  0.00D+00 EMaxC= 1.00D-01 BMatC= 5.45D-13 BMatP= 4.35D-12
 IDIUse=1 WtCom= 1.00D+00 WtEn= 0.00D+00
 Coeff-Com: -0.342D-06 0.395D-06 0.824D-07 0.193D-05 0.318D-05 0.758D-06
 Coeff-Com: -0.792D-04-0.354D-04 0.518D-03 0.178D-02 0.320D-03-0.111D-01
 Coeff-Com: -0.182D-01 0.172D-01 0.234D+00 0.776D+00
 Coeff:     -0.342D-06 0.395D-06 0.824D-07 0.193D-05 0.318D-05 0.758D-06
 Coeff:     -0.792D-04-0.354D-04 0.518D-03 0.178D-02 0.320D-03-0.111D-01
 Coeff:     -0.182D-01 0.172D-01 0.234D+00 0.776D+00
 Gap=     0.066 Goal=   None    Shift=    0.000
 Gap=     0.312 Goal=   None    Shift=    0.000
 RMSDP=4.34D-09 MaxDP=2.21D-07 DE= 3.64D-12 OVMax= 2.72D-07

 SCF Done:  E(UHSEH1PBE) =  -1401.27748750     A.U. after   16 cycles
            NFock= 16  Conv=0.43D-08     -V/T= 2.0007
 <Sx>= 0.0000 <Sy>= 0.0000 <Sz>= 1.5000 <S**2>= 3.7542 S= 1.5011
 <L.S>=  0.00000000000    
 KE= 1.400315806799D+03 PE=-4.728818555769D+03 EE= 1.209502737890D+03
 Annihilation of the first spin contaminant:
 S**2 before annihilation     3.7542,   after     3.7500
 Leave Link  502 at Thu May 23 17:08:13 2024, MaxMem= 26843545600 cpu:            9950.4 elap:              83.1
 (Enter /gpfs/fs1/soft/improv/software/custom-built/gaussian/g16/l508.exe)
 QCSCF skips out because SCF is already converged.
 Leave Link  508 at Thu May 23 17:08:13 2024, MaxMem= 26843545600 cpu:               0.2 elap:               0.0
 (Enter /gpfs/fs1/soft/improv/software/custom-built/gaussian/g16/l801.exe)
 DoSCS=F DFT=T ScalE2(SS,OS)=  1.000000  1.000000
 Range of M.O.s used for correlation:     1   317
 NBasis=   317 NAE=    42 NBE=    39 NFC=     0 NFV=     0
 NROrb=    317 NOA=    42 NOB=    39 NVA=   275 NVB=   278

 **** Warning!!: The largest alpha MO coefficient is  0.64828542D+02


 **** Warning!!: The smallest alpha delta epsilon is  0.66337999D-01


 **** Warning!!: The largest beta MO coefficient is  0.64819883D+02

 Leave Link  801 at Thu May 23 17:08:13 2024, MaxMem= 26843545600 cpu:               0.4 elap:               0.0
 (Enter /gpfs/fs1/soft/improv/software/custom-built/gaussian/g16/l1101.exe)
 Using compressed storage, NAtomX=    19.
 Will process     20 centers per pass.
 Leave Link 1101 at Thu May 23 17:08:13 2024, MaxMem= 26843545600 cpu:              51.2 elap:               0.5
 (Enter /gpfs/fs1/soft/improv/software/custom-built/gaussian/g16/l1102.exe)
 Symmetrizing basis deriv contribution to polar:
 IMax=3 JMax=2 DiffMx= 0.00D+00
 Leave Link 1102 at Thu May 23 17:08:13 2024, MaxMem= 26843545600 cpu:               0.9 elap:               0.0
 (Enter /gpfs/fs1/soft/improv/software/custom-built/gaussian/g16/l1110.exe)
 Forming Gx(P) for the SCF density, NAtomX=    19.
 Integral derivatives from FoFJK, PRISM(SPDF).
 Do as many integral derivatives as possible in FoFJK.
 G2DrvN: MDV=   26843543431.
 G2DrvN: will do    20 centers at a time, making    1 passes.
 Calling FoFCou, ICntrl=  3107 FMM=F I1Cent=   0 AccDes= 0.00D+00.
 FoFJK:  IHMeth= 1 ICntrl=    3107 DoSepK=T KAlg= 0 I1Cent=           0 FoldK=F
 IRaf=         1 NMat=       1 IRICut=       1 DoRegI=T DoRafI=F ISym2E= 0 IDoP0=0 IntGTp=1.
 FoFCou: FMM=F IPFlag=           0 FMFlag=      100000 FMFlg1=           0
         NFxFlg=           0 DoJE=F BraDBF=F KetDBF=F FulRan=T
         wScrn=  0.000000 ICntrl=      3507 IOpCl=  0 I1Cent=           0 NGrid=           0
         NMat0=    1 NMatS0=      1 NMatT0=    0 NMatD0=    1 NMtDS0=    0 NMtDT0=    0
 Symmetry not used in FoFCou.
 End of G2Drv F.D. properties file   721 does not exist.
 End of G2Drv F.D. properties file   722 does not exist.
 End of G2Drv F.D. properties file   788 does not exist.
 Leave Link 1110 at Thu May 23 17:08:33 2024, MaxMem= 26843545600 cpu:            2424.7 elap:              19.5
 (Enter /gpfs/fs1/soft/improv/software/custom-built/gaussian/g16/l1002.exe)
 Minotr:  UHF open shell wavefunction.
          IDoAtm=1111111111111111111
          Direct CPHF calculation.
          Differentiating once with respect to electric field.
                with respect to dipole field.
          Differentiating once with respect to nuclear coordinates.
          Requested convergence is 1.0D-08 RMS, and 1.0D-07 maximum.
          Secondary convergence is 1.0D-12 RMS, and 1.0D-12 maximum.
          NewPWx=T KeepS1=F KeepF1=F KeepIn=T MapXYZ=F SortEE=F KeepMc=T.
         6034 words used for storage of precomputed grid.
 Two-electron integrals replicated using symmetry.
          MDV=   26843545600 using IRadAn=       1.
          Solving linear equations simultaneously, MaxMat=     384.
 FoF2E skips out because all densities are zero.
 CalDSu exits because no D1Ps are significant.
 FoFJK:  IHMeth= 1 ICntrl=       0 DoSepK=T KAlg= 0 I1Cent=           0 FoldK=F
 IRaf=         1 NMat=      57 IRICut=       1 DoRegI=T DoRafI=F ISym2E= 2 IDoP0=3 IntGTp=2.
 FoFCou: FMM=F IPFlag=           0 FMFlag=      100000 FMFlg1=           0
         NFxFlg=           0 DoJE=F BraDBF=F KetDBF=F FulRan=T
         wScrn=  0.000000 ICntrl=       500 IOpCl=  0 I1Cent=           0 NGrid=           0
         NMat0=   57 NMatS0=     57 NMatT0=    0 NMatD0=   57 NMtDS0=    0 NMtDT0=    0
 Integrals replicated using symmetry in FoFCou.
          There are    60 degrees of freedom in the 1st order CPHF.  IDoFFX=6 NUNeed=     3.
     57 vectors produced by pass  0 Test12= 3.73D-14 1.67D-09 XBig12= 1.41D+02 6.58D+00.
 AX will form    57 AO Fock derivatives at one time.
     57 vectors produced by pass  1 Test12= 3.73D-14 1.67D-09 XBig12= 1.06D+01 6.23D-01.
     57 vectors produced by pass  2 Test12= 3.73D-14 1.67D-09 XBig12= 3.09D-01 9.64D-02.
     57 vectors produced by pass  3 Test12= 3.73D-14 1.67D-09 XBig12= 3.73D-03 7.08D-03.
     57 vectors produced by pass  4 Test12= 3.73D-14 1.67D-09 XBig12= 2.35D-05 4.31D-04.
     57 vectors produced by pass  5 Test12= 3.73D-14 1.67D-09 XBig12= 1.50D-07 3.50D-05.
     40 vectors produced by pass  6 Test12= 3.73D-14 1.67D-09 XBig12= 5.28D-10 1.68D-06.
      8 vectors produced by pass  7 Test12= 3.73D-14 1.67D-09 XBig12= 1.81D-12 8.89D-08.
      3 vectors produced by pass  8 Test12= 3.73D-14 1.67D-09 XBig12= 6.20D-15 5.88D-09.
 InvSVY:  IOpt=1 It=  1 EMax= 3.55D-15
 Solved reduced A of dimension   393 with    60 vectors.
 FullF1:  Do perturbations      1 to       3.
 Isotropic polarizability for W=    0.000000       60.75 Bohr**3.
 End of Minotr F.D. properties file   721 does not exist.
 End of Minotr F.D. properties file   722 does not exist.
 End of Minotr F.D. properties file   788 does not exist.
 Leave Link 1002 at Thu May 23 17:09:46 2024, MaxMem= 26843545600 cpu:            8784.2 elap:              73.4
 (Enter /gpfs/fs1/soft/improv/software/custom-built/gaussian/g16/l601.exe)
 Copying SCF densities to generalized density rwf, IOpCl= 1 IROHF=0.

 **********************************************************************

            Population analysis using the SCF Density.

 **********************************************************************

 Orbital symmetries:
 Alpha Orbitals:
       Occupied  (A) (A) (A) (A) (A) (A) (A) (A) (A) (A) (A) (A)
                 (A) (A) (A) (A) (A) (A) (A) (A) (A) (A) (A) (A)
                 (A) (A) (A) (A) (A) (A) (A) (A) (A) (A) (A) (A)
                 (A) (A) (A) (A) (A) (A)
       Virtual   (A) (A) (A) (A) (A) (A) (A) (A) (A) (A) (A) (A)
                 (A) (A) (A) (A) (A) (A) (A) (A) (A) (A) (A) (A)
                 (A) (A) (A) (A) (A) (A) (A) (A) (A) (A) (A) (A)
                 (A) (A) (A) (A) (A) (A) (A) (A) (A) (A) (A) (A)
                 (A) (A) (A) (A) (A) (A) (A) (A) (A) (A) (A) (A)
                 (A) (A) (A) (A) (A) (A) (A) (A) (A) (A) (A) (A)
                 (A) (A) (A) (A) (A) (A) (A) (A) (A) (A) (A) (A)
                 (A) (A) (A) (A) (A) (A) (A) (A) (A) (A) (A) (A)
                 (A) (A) (A) (A) (A) (A) (A) (A) (A) (A) (A) (A)
                 (A) (A) (A) (A) (A) (A) (A) (A) (A) (A) (A) (A)
                 (A) (A) (A) (A) (A) (A) (A) (A) (A) (A) (A) (A)
                 (A) (A) (A) (A) (A) (A) (A) (A) (A) (A) (A) (A)
                 (A) (A) (A) (A) (A) (A) (A) (A) (A) (A) (A) (A)
                 (A) (A) (A) (A) (A) (A) (A) (A) (A) (A) (A) (A)
                 (A) (A) (A) (A) (A) (A) (A) (A) (A) (A) (A) (A)
                 (A) (A) (A) (A) (A) (A) (A) (A) (A) (A) (A) (A)
                 (A) (A) (A) (A) (A) (A) (A) (A) (A) (A) (A) (A)
                 (A) (A) (A) (A) (A) (A) (A) (A) (A) (A) (A) (A)
                 (A) (A) (A) (A) (A) (A) (A) (A) (A) (A) (A) (A)
                 (A) (A) (A) (A) (A) (A) (A) (A) (A) (A) (A) (A)
                 (A) (A) (A) (A) (A) (A) (A) (A) (A) (A) (A) (A)
                 (A) (A) (A) (A) (A) (A) (A) (A) (A) (A) (A) (A)
                 (A) (A) (A) (A) (A) (A) (A) (A) (A) (A) (A)
 Beta  Orbitals:
       Occupied  (A) (A) (A) (A) (A) (A) (A) (A) (A) (A) (A) (A)
                 (A) (A) (A) (A) (A) (A) (A) (A) (A) (A) (A) (A)
                 (A) (A) (A) (A) (A) (A) (A) (A) (A) (A) (A) (A)
                 (A) (A) (A)
       Virtual   (A) (A) (A) (A) (A) (A) (A) (A) (A) (A) (A) (A)
                 (A) (A) (A) (A) (A) (A) (A) (A) (A) (A) (A) (A)
                 (A) (A) (A) (A) (A) (A) (A) (A) (A) (A) (A) (A)
                 (A) (A) (A) (A) (A) (A) (A) (A) (A) (A) (A) (A)
                 (A) (A) (A) (A) (A) (A) (A) (A) (A) (A) (A) (A)
                 (A) (A) (A) (A) (A) (A) (A) (A) (A) (A) (A) (A)
                 (A) (A) (A) (A) (A) (A) (A) (A) (A) (A) (A) (A)
                 (A) (A) (A) (A) (A) (A) (A) (A) (A) (A) (A) (A)
                 (A) (A) (A) (A) (A) (A) (A) (A) (A) (A) (A) (A)
                 (A) (A) (A) (A) (A) (A) (A) (A) (A) (A) (A) (A)
                 (A) (A) (A) (A) (A) (A) (A) (A) (A) (A) (A) (A)
                 (A) (A) (A) (A) (A) (A) (A) (A) (A) (A) (A) (A)
                 (A) (A) (A) (A) (A) (A) (A) (A) (A) (A) (A) (A)
                 (A) (A) (A) (A) (A) (A) (A) (A) (A) (A) (A) (A)
                 (A) (A) (A) (A) (A) (A) (A) (A) (A) (A) (A) (A)
                 (A) (A) (A) (A) (A) (A) (A) (A) (A) (A) (A) (A)
                 (A) (A) (A) (A) (A) (A) (A) (A) (A) (A) (A) (A)
                 (A) (A) (A) (A) (A) (A) (A) (A) (A) (A) (A) (A)
                 (A) (A) (A) (A) (A) (A) (A) (A) (A) (A) (A) (A)
                 (A) (A) (A) (A) (A) (A) (A) (A) (A) (A) (A) (A)
                 (A) (A) (A) (A) (A) (A) (A) (A) (A) (A) (A) (A)
                 (A) (A) (A) (A) (A) (A) (A) (A) (A) (A) (A) (A)
                 (A) (A) (A) (A) (A) (A) (A) (A) (A) (A) (A) (A)
                 (A) (A)
 The electronic state is 4-A.
 Alpha  occ. eigenvalues -- -197.27093 -22.52453 -19.61627 -19.61617 -19.60790
 Alpha  occ. eigenvalues --  -19.60409 -19.58205 -19.57402 -18.98736 -18.98699
 Alpha  occ. eigenvalues --  -18.98680  -2.91996  -1.95754  -1.95537  -1.95302
 Alpha  occ. eigenvalues --   -1.46190  -1.44006  -1.43694  -1.42706  -1.40983
 Alpha  occ. eigenvalues --   -1.40177  -0.98387  -0.96856  -0.95046  -0.94369
 Alpha  occ. eigenvalues --   -0.92520  -0.91237  -0.85243  -0.83836  -0.83101
 Alpha  occ. eigenvalues --   -0.81239  -0.80258  -0.77557  -0.77127  -0.74338
 Alpha  occ. eigenvalues --   -0.73659  -0.72075  -0.70316  -0.69192  -0.46850
 Alpha  occ. eigenvalues --   -0.46160  -0.44532
 Alpha virt. eigenvalues --   -0.37898  -0.32807  -0.30523  -0.29238  -0.25971
 Alpha virt. eigenvalues --   -0.25463  -0.23633  -0.23326  -0.20646  -0.19159
 Alpha virt. eigenvalues --   -0.18515  -0.18192  -0.17349  -0.16445  -0.16131
 Alpha virt. eigenvalues --   -0.15693  -0.15241  -0.14696  -0.13619  -0.12503
 Alpha virt. eigenvalues --   -0.12076  -0.11381  -0.10114  -0.09599  -0.08404
 Alpha virt. eigenvalues --   -0.07802  -0.07579  -0.06507  -0.05189  -0.03654
 Alpha virt. eigenvalues --   -0.02990  -0.02784  -0.01932  -0.01208  -0.00994
 Alpha virt. eigenvalues --   -0.00407   0.01293   0.02365   0.04201   0.04731
 Alpha virt. eigenvalues --    0.05250   0.05810   0.07892   0.08789   0.09426
 Alpha virt. eigenvalues --    0.09955   0.10901   0.13928   0.15241   0.19475
 Alpha virt. eigenvalues --    0.20193   0.22042   0.22152   0.25411   0.26965
 Alpha virt. eigenvalues --    0.41519   0.41951   0.43095   0.45616   0.46743
 Alpha virt. eigenvalues --    0.47106   0.48243   0.49217   0.51107   0.52146
 Alpha virt. eigenvalues --    0.52959   0.53364   0.56019   0.57006   0.57335
 Alpha virt. eigenvalues --    0.58338   0.58696   0.59873   0.61544   0.62929
 Alpha virt. eigenvalues --    0.66122   0.68850   0.70127   0.70468   0.72001
 Alpha virt. eigenvalues --    0.72458   0.73778   0.74352   0.76034   0.76916
 Alpha virt. eigenvalues --    0.77860   0.79869   0.81846   0.83081   0.87599
 Alpha virt. eigenvalues --    0.87995   0.88210   0.91050   0.92814   0.95791
 Alpha virt. eigenvalues --    0.97028   0.98860   1.01199   1.02587   1.02819
 Alpha virt. eigenvalues --    1.03773   1.07343   1.08166   1.08420   1.14408
 Alpha virt. eigenvalues --    1.16986   1.18714   1.24813   1.26205   1.29292
 Alpha virt. eigenvalues --    1.36884   1.37826   1.38531   1.40610   1.43279
 Alpha virt. eigenvalues --    1.43799   1.47155   1.50772   1.52455   1.55872
 Alpha virt. eigenvalues --    1.58865   1.60718   1.62747   1.68771   1.72416
 Alpha virt. eigenvalues --    1.88209   1.90068   1.90908   1.92195   1.95100
 Alpha virt. eigenvalues --    1.95348   1.96376   1.98522   2.02377   2.05505
 Alpha virt. eigenvalues --    2.08390   2.10887   2.14286   2.18463   2.20014
 Alpha virt. eigenvalues --    2.23784   2.25733   2.29774   2.35338   2.40707
 Alpha virt. eigenvalues --    2.41819   2.42547   2.48425   2.49965   2.53466
 Alpha virt. eigenvalues --    2.53845   2.55601   2.57655   2.59651   2.61504
 Alpha virt. eigenvalues --    2.62702   2.65435   2.65849   2.67754   2.70030
 Alpha virt. eigenvalues --    2.71425   2.72653   2.76481   2.80840   2.81650
 Alpha virt. eigenvalues --    2.82939   2.83586   2.87410   2.89404   2.90250
 Alpha virt. eigenvalues --    3.02741   3.08791   3.10631   3.12240   3.15636
 Alpha virt. eigenvalues --    3.16497   3.18832   3.19875   3.20788   3.27073
 Alpha virt. eigenvalues --    3.42677   3.49074   3.72229   3.75290   3.76679
 Alpha virt. eigenvalues --    3.82534   3.83366   3.86821   3.87774   3.89975
 Alpha virt. eigenvalues --    3.90320   3.90755   3.94627   3.96296   4.01250
 Alpha virt. eigenvalues --    4.03215   4.09095   4.09198   4.11909   4.14009
 Alpha virt. eigenvalues --    4.18768   4.21608   4.25348   4.28383   4.32360
 Alpha virt. eigenvalues --    4.32650   4.37109   4.41053   4.42462   4.43337
 Alpha virt. eigenvalues --    4.46295   4.46571   4.56235   4.58159   4.59112
 Alpha virt. eigenvalues --    4.61944   4.63223   4.64251   4.74170   4.79319
 Alpha virt. eigenvalues --    4.83486   4.89291   4.90994   4.94551   4.96905
 Alpha virt. eigenvalues --    5.02039   5.06988   5.08538   5.11155   5.11716
 Alpha virt. eigenvalues --    5.12396   5.13342   5.15781   5.18704   5.20021
 Alpha virt. eigenvalues --    5.25487   5.28335   5.28825   5.31219   5.32376
 Alpha virt. eigenvalues --    5.35315   5.37856   5.40969   5.43906   5.46476
 Alpha virt. eigenvalues --    5.48190   5.49427   5.49798   5.51759   5.52500
 Alpha virt. eigenvalues --    5.55249   5.55957   5.56184   5.58772   5.61405
 Alpha virt. eigenvalues --    5.62055   5.62211   5.63796   5.64232   5.97594
 Alpha virt. eigenvalues --    5.99618   6.46070   7.12635   7.15470   7.16447
 Alpha virt. eigenvalues --    7.25605   7.30722   7.38794  13.43373  13.44460
 Alpha virt. eigenvalues --   13.45529  13.89778  13.95163  14.02761  36.80045
  Beta  occ. eigenvalues -- -197.27089 -22.49163 -19.61666 -19.61651 -19.60817
  Beta  occ. eigenvalues --  -19.60435 -19.58200 -19.57399 -18.95960 -18.95870
  Beta  occ. eigenvalues --  -18.95832  -2.80953  -1.84226  -1.83838  -1.83583
  Beta  occ. eigenvalues --   -1.45952  -1.43819  -1.43548  -1.42347  -1.40651
  Beta  occ. eigenvalues --   -1.39865  -0.97868  -0.96374  -0.94772  -0.94068
  Beta  occ. eigenvalues --   -0.92206  -0.90988  -0.84593  -0.83369  -0.82617
  Beta  occ. eigenvalues --   -0.80473  -0.79886  -0.77155  -0.76568  -0.73898
  Beta  occ. eigenvalues --   -0.73213  -0.71637  -0.69806  -0.68803
  Beta virt. eigenvalues --   -0.37636  -0.32633  -0.30726  -0.28943  -0.28037
  Beta virt. eigenvalues --   -0.27143  -0.25172  -0.24523  -0.24454  -0.22256
  Beta virt. eigenvalues --   -0.22019  -0.19406  -0.18589  -0.17850  -0.17574
  Beta virt. eigenvalues --   -0.16618  -0.15239  -0.15106  -0.14781  -0.13846
  Beta virt. eigenvalues --   -0.12962  -0.12632  -0.12064  -0.10942  -0.10551
  Beta virt. eigenvalues --   -0.08911  -0.08818  -0.07908  -0.07077  -0.06940
  Beta virt. eigenvalues --   -0.05672  -0.04694  -0.03218  -0.02300  -0.01614
  Beta virt. eigenvalues --   -0.01147  -0.00665  -0.00263   0.00073   0.01770
  Beta virt. eigenvalues --    0.03013   0.04765   0.05249   0.05767   0.06391
  Beta virt. eigenvalues --    0.08655   0.09599   0.10089   0.10827   0.11975
  Beta virt. eigenvalues --    0.15122   0.16038   0.21368   0.21901   0.22907
  Beta virt. eigenvalues --    0.23084   0.27115   0.28614   0.42470   0.43186
  Beta virt. eigenvalues --    0.44318   0.47019   0.48048   0.48491   0.49293
  Beta virt. eigenvalues --    0.50854   0.52028   0.52802   0.54021   0.54466
  Beta virt. eigenvalues --    0.56557   0.57805   0.58147   0.58861   0.59307
  Beta virt. eigenvalues --    0.60470   0.62258   0.63466   0.66566   0.69773
  Beta virt. eigenvalues --    0.70837   0.70922   0.72370   0.73077   0.74387
  Beta virt. eigenvalues --    0.74804   0.76824   0.77484   0.78567   0.80589
  Beta virt. eigenvalues --    0.82612   0.83926   0.88087   0.88436   0.89402
  Beta virt. eigenvalues --    0.91556   0.93181   0.96587   0.98412   0.99211
  Beta virt. eigenvalues --    1.01695   1.03690   1.04459   1.05892   1.08299
  Beta virt. eigenvalues --    1.08684   1.09574   1.14764   1.18485   1.20120
  Beta virt. eigenvalues --    1.26402   1.27717   1.31159   1.40573   1.41425
  Beta virt. eigenvalues --    1.42442   1.44209   1.46292   1.47536   1.49137
  Beta virt. eigenvalues --    1.53570   1.53802   1.57578   1.61009   1.62198
  Beta virt. eigenvalues --    1.64317   1.70871   1.74263   1.88900   1.90784
  Beta virt. eigenvalues --    1.91551   1.92829   1.95771   1.96135   1.97193
  Beta virt. eigenvalues --    1.99510   2.03229   2.06092   2.08949   2.11778
  Beta virt. eigenvalues --    2.15089   2.19307   2.21045   2.25018   2.26935
  Beta virt. eigenvalues --    2.30906   2.36582   2.42734   2.43464   2.43910
  Beta virt. eigenvalues --    2.49630   2.51283   2.54495   2.54616   2.56539
  Beta virt. eigenvalues --    2.58786   2.60919   2.62899   2.63748   2.66568
  Beta virt. eigenvalues --    2.67410   2.68733   2.70812   2.72694   2.73899
  Beta virt. eigenvalues --    2.77926   2.81715   2.82259   2.83980   2.84453
  Beta virt. eigenvalues --    2.88281   2.90027   2.90921   3.04370   3.12329
  Beta virt. eigenvalues --    3.13256   3.16005   3.20033   3.20434   3.23254
  Beta virt. eigenvalues --    3.24403   3.26031   3.30998   3.46615   3.52573
  Beta virt. eigenvalues --    3.72311   3.75391   3.76775   3.82850   3.83521
  Beta virt. eigenvalues --    3.87029   3.88326   3.90286   3.90529   3.91558
  Beta virt. eigenvalues --    3.95458   3.96749   4.01586   4.03420   4.09432
  Beta virt. eigenvalues --    4.10007   4.12177   4.14573   4.19385   4.22340
  Beta virt. eigenvalues --    4.26682   4.33699   4.35374   4.38293   4.39375
  Beta virt. eigenvalues --    4.43937   4.45012   4.46643   4.48212   4.50573
  Beta virt. eigenvalues --    4.58023   4.59179   4.59977   4.63663   4.64634
  Beta virt. eigenvalues --    4.66203   4.76990   4.81780   4.84041   4.90196
  Beta virt. eigenvalues --    4.91881   4.95302   4.97957   5.03975   5.07203
  Beta virt. eigenvalues --    5.08669   5.11329   5.11999   5.12755   5.13769
  Beta virt. eigenvalues --    5.16547   5.19419   5.20739   5.27054   5.29416
  Beta virt. eigenvalues --    5.29852   5.32376   5.33291   5.36264   5.38569
  Beta virt. eigenvalues --    5.42365   5.44621   5.47017   5.48645   5.50287
  Beta virt. eigenvalues --    5.50819   5.52690   5.53229   5.55725   5.56650
  Beta virt. eigenvalues --    5.57195   5.59621   5.62295   5.62577   5.63142
  Beta virt. eigenvalues --    5.64160   5.64833   5.97805   5.99828   6.48014
  Beta virt. eigenvalues --    7.13060   7.15899   7.16902   7.25846   7.30982
  Beta virt. eigenvalues --    7.39179  13.43611  13.44691  13.45766  13.89898
  Beta virt. eigenvalues --   13.95267  14.02862  36.82767
          Condensed to atoms (all electrons):
               1          2          3          4          5          6
     1  V   23.011404  -0.143188  -0.032809  -0.108667  -0.042460  -0.121877
     2  O   -0.143188   8.414983   0.326806  -0.106517  -0.002514  -0.030362
     3  H   -0.032809   0.326806   0.280783  -0.001165   0.000017   0.001740
     4  O   -0.108667  -0.106517  -0.001165   8.614845   0.324352  -0.168649
     5  H   -0.042460  -0.002514   0.000017   0.324352   0.314606   0.003251
     6  O   -0.121877  -0.030362   0.001740  -0.168649   0.003251   8.468897
     7  H   -0.027175  -0.007998   0.000014   0.004119  -0.000259   0.307350
     8  O   -0.118058   0.043651  -0.000376  -0.100995   0.004642  -0.111945
     9  H   -0.030600  -0.000438  -0.000059  -0.005684  -0.000382   0.003798
    10  O   -0.120066  -0.082749   0.001842   0.065227  -0.001101  -0.112097
    11  H   -0.028055   0.001499  -0.000227   0.000380   0.000012  -0.004648
    12  O   -0.169134   0.050392   0.004388  -0.119779  -0.001314   0.056803
    13  H   -0.039767  -0.002029  -0.000048   0.001750  -0.000215   0.000402
    14  H   -0.021755  -0.002553  -0.000082   0.003677  -0.000015  -0.000908
    15  H   -0.032569   0.003830  -0.000220   0.327113  -0.028361  -0.007254
    16  H   -0.037084   0.329415  -0.017302   0.000730  -0.000102  -0.004623
    17  H   -0.044853  -0.002641  -0.000089  -0.001021  -0.000046   0.004589
    18  H   -0.026016   0.005853   0.000053   0.001421   0.001299   0.306560
    19  H   -0.024424  -0.002001   0.000024   0.008451   0.002363  -0.005901
               7          8          9         10         11         12
     1  V   -0.027175  -0.118058  -0.030600  -0.120066  -0.028055  -0.169134
     2  O   -0.007998   0.043651  -0.000438  -0.082749   0.001499   0.050392
     3  H    0.000014  -0.000376  -0.000059   0.001842  -0.000227   0.004388
     4  O    0.004119  -0.100995  -0.005684   0.065227   0.000380  -0.119779
     5  H   -0.000259   0.004642  -0.000382  -0.001101   0.000012  -0.001314
     6  O    0.307350  -0.111945   0.003798  -0.112097  -0.004648   0.056803
     7  H    0.332998  -0.008260  -0.000150   0.008751  -0.000024  -0.001890
     8  O   -0.008260   8.406836   0.318435  -0.096483  -0.005563   0.000566
     9  H   -0.000150   0.318435   0.306623  -0.004425   0.002116   0.004294
    10  O    0.008751  -0.096483  -0.004425   8.575544   0.322255  -0.159398
    11  H   -0.000024  -0.005563   0.002116   0.322255   0.311544  -0.001975
    12  O   -0.001890   0.000566   0.004294  -0.159398  -0.001975   8.464829
    13  H    0.000020  -0.000739  -0.000003  -0.000332  -0.000351   0.339718
    14  H   -0.000083  -0.005363   0.001515   0.002263   0.003810   0.308701
    15  H    0.000198  -0.002909   0.000024   0.000153   0.000010  -0.000201
    16  H   -0.000471   0.000029   0.000017   0.004740   0.000007  -0.004063
    17  H    0.002646   0.001858   0.000054   0.329243  -0.028171  -0.001336
    18  H   -0.020630   0.004567   0.000065  -0.005707   0.000036  -0.001222
    19  H    0.010865   0.300800  -0.020683   0.003784   0.000243  -0.007646
              13         14         15         16         17         18
     1  V   -0.039767  -0.021755  -0.032569  -0.037084  -0.044853  -0.026016
     2  O   -0.002029  -0.002553   0.003830   0.329415  -0.002641   0.005853
     3  H   -0.000048  -0.000082  -0.000220  -0.017302  -0.000089   0.000053
     4  O    0.001750   0.003677   0.327113   0.000730  -0.001021   0.001421
     5  H   -0.000215  -0.000015  -0.028361  -0.000102  -0.000046   0.001299
     6  O    0.000402  -0.000908  -0.007254  -0.004623   0.004589   0.306560
     7  H    0.000020  -0.000083   0.000198  -0.000471   0.002646  -0.020630
     8  O   -0.000739  -0.005363  -0.002909   0.000029   0.001858   0.004567
     9  H   -0.000003   0.001515   0.000024   0.000017   0.000054   0.000065
    10  O   -0.000332   0.002263   0.000153   0.004740   0.329243  -0.005707
    11  H   -0.000351   0.003810   0.000010   0.000007  -0.028171   0.000036
    12  O    0.339718   0.308701  -0.000201  -0.004063  -0.001336  -0.001222
    13  H    0.273584  -0.018616  -0.000193  -0.000029   0.000003  -0.000060
    14  H   -0.018616   0.323932   0.000024   0.000001  -0.000259   0.000022
    15  H   -0.000193   0.000024   0.298106   0.001143   0.000011   0.001601
    16  H   -0.000029   0.000001   0.001143   0.306263  -0.000046   0.000222
    17  H    0.000003  -0.000259   0.000011  -0.000046   0.310580  -0.000384
    18  H   -0.000060   0.000022   0.001601   0.000222  -0.000384   0.306528
    19  H   -0.000001  -0.000430   0.000007  -0.000090  -0.000162   0.000615
              19
     1  V   -0.024424
     2  O   -0.002001
     3  H    0.000024
     4  O    0.008451
     5  H    0.002363
     6  O   -0.005901
     7  H    0.010865
     8  O    0.300800
     9  H   -0.020683
    10  O    0.003784
    11  H    0.000243
    12  O   -0.007646
    13  H   -0.000001
    14  H   -0.000430
    15  H    0.000007
    16  H   -0.000090
    17  H   -0.000162
    18  H    0.000615
    19  H    0.333771
          Atomic-Atomic Spin Densities.
               1          2          3          4          5          6
     1  V    3.604535  -0.084622  -0.019884  -0.064941  -0.028275  -0.101369
     2  O   -0.084622   0.015154   0.009123   0.007241  -0.001727   0.019967
     3  H   -0.019884   0.009123   0.019833  -0.000161   0.000046  -0.001472
     4  O   -0.064941   0.007241  -0.000161   0.010908   0.014498  -0.007780
     5  H   -0.028275  -0.001727   0.000046   0.014498   0.027985   0.002832
     6  O   -0.101369   0.019967  -0.001472  -0.007780   0.002832   0.058970
     7  H   -0.021086  -0.004915   0.000027  -0.001996  -0.000039  -0.001509
     8  O   -0.079784  -0.002110  -0.000259   0.007706   0.005411  -0.004727
     9  H   -0.021148  -0.000492  -0.000047  -0.002603  -0.000455  -0.003217
    10  O   -0.072045   0.008139   0.008456  -0.002517  -0.000934   0.011135
    11  H   -0.016859  -0.000551  -0.000151   0.000118   0.000005  -0.003448
    12  O   -0.097928   0.011937   0.001874   0.012018  -0.002318   0.000762
    13  H   -0.021755  -0.000341  -0.000031   0.006555  -0.000230   0.000116
    14  H   -0.027917  -0.000572  -0.000104  -0.002668  -0.000036  -0.000686
    15  H   -0.018368   0.006636  -0.000265   0.008035  -0.006240  -0.000552
    16  H   -0.028945   0.016973  -0.003955  -0.000566  -0.000140   0.007594
    17  H   -0.028755  -0.002701  -0.000246  -0.001025  -0.000033   0.006012
    18  H   -0.014078   0.000980   0.000034   0.016634   0.002167  -0.010490
    19  H   -0.018289  -0.001350   0.000020   0.002859   0.002178   0.008656
               7          8          9         10         11         12
     1  V   -0.021086  -0.079784  -0.021148  -0.072045  -0.016859  -0.097928
     2  O   -0.004915  -0.002110  -0.000492   0.008139  -0.000551   0.011937
     3  H    0.000027  -0.000259  -0.000047   0.008456  -0.000151   0.001874
     4  O   -0.001996   0.007706  -0.002603  -0.002517   0.000118   0.012018
     5  H   -0.000039   0.005411  -0.000455  -0.000934   0.000005  -0.002318
     6  O   -0.001509  -0.004727  -0.003217   0.011135  -0.003448   0.000762
     7  H    0.043570   0.007201  -0.000183   0.002134  -0.000106  -0.001286
     8  O    0.007201   0.029688   0.004476   0.002044   0.001171   0.022828
     9  H   -0.000183   0.004476   0.033534   0.012345   0.001637  -0.000811
    10  O    0.002134   0.002044   0.012345   0.007614   0.005849   0.005413
    11  H   -0.000106   0.001171   0.001637   0.005849   0.033227   0.001665
    12  O   -0.001286   0.022828  -0.000811   0.005413   0.001665   0.022486
    13  H    0.000015  -0.001535  -0.000030  -0.000607  -0.000355   0.016181
    14  H   -0.000066   0.005946   0.001214   0.000432   0.002300   0.012192
    15  H    0.000021  -0.001981   0.000065   0.000008   0.000016  -0.002164
    16  H   -0.000501  -0.000359   0.000015  -0.002373   0.000034  -0.000983
    17  H    0.002117   0.003238   0.000801   0.015553  -0.006609  -0.001240
    18  H   -0.005082  -0.001523   0.000044  -0.002246   0.000071  -0.001370
    19  H    0.009076  -0.007459  -0.005826  -0.001769   0.000072  -0.005631
              13         14         15         16         17         18
     1  V   -0.021755  -0.027917  -0.018368  -0.028945  -0.028755  -0.014078
     2  O   -0.000341  -0.000572   0.006636   0.016973  -0.002701   0.000980
     3  H   -0.000031  -0.000104  -0.000265  -0.003955  -0.000246   0.000034
     4  O    0.006555  -0.002668   0.008035  -0.000566  -0.001025   0.016634
     5  H   -0.000230  -0.000036  -0.006240  -0.000140  -0.000033   0.002167
     6  O    0.000116  -0.000686  -0.000552   0.007594   0.006012  -0.010490
     7  H    0.000015  -0.000066   0.000021  -0.000501   0.002117  -0.005082
     8  O   -0.001535   0.005946  -0.001981  -0.000359   0.003238  -0.001523
     9  H   -0.000030   0.001214   0.000065   0.000015   0.000801   0.000044
    10  O   -0.000607   0.000432   0.000008  -0.002373   0.015553  -0.002246
    11  H   -0.000355   0.002300   0.000016   0.000034  -0.006609   0.000071
    12  O    0.016181   0.012192  -0.002164  -0.000983  -0.001240  -0.001370
    13  H    0.016587  -0.004664  -0.000170  -0.000048   0.000043  -0.000047
    14  H   -0.004664   0.024313   0.000048   0.000046  -0.000269   0.000020
    15  H   -0.000170   0.000048   0.026156   0.000771   0.000002   0.001383
    16  H   -0.000048   0.000046   0.000771   0.019916  -0.000061   0.000295
    17  H    0.000043  -0.000269   0.000002  -0.000061   0.023396  -0.000405
    18  H   -0.000047   0.000020   0.001383   0.000295  -0.000405   0.040150
    19  H    0.000015  -0.000432  -0.000076  -0.000067   0.000009   0.000527
              19
     1  V   -0.018289
     2  O   -0.001350
     3  H    0.000020
     4  O    0.002859
     5  H    0.002178
     6  O    0.008656
     7  H    0.009076
     8  O   -0.007459
     9  H   -0.005826
    10  O   -0.001769
    11  H    0.000072
    12  O   -0.005631
    13  H    0.000015
    14  H   -0.000432
    15  H   -0.000076
    16  H   -0.000067
    17  H    0.000009
    18  H    0.000527
    19  H    0.049916
 Mulliken charges and spin densities:
               1          2
     1  V    1.157154   2.838488
     2  O   -0.793440  -0.003228
     3  H    0.436710   0.012836
     4  O   -0.739589   0.002313
     5  H    0.426226   0.014694
     6  O   -0.585127  -0.019208
     7  H    0.399980   0.027394
     8  O   -0.630693  -0.010029
     9  H    0.425482   0.019319
    10  O   -0.731445  -0.003369
    11  H    0.427101   0.018083
    12  O   -0.761731  -0.006375
    13  H    0.446906   0.009699
    14  H    0.406119   0.009095
    15  H    0.439487   0.013325
    16  H    0.421246   0.007645
    17  H    0.430023   0.009828
    18  H    0.425177   0.027064
    19  H    0.400415   0.032427
 Sum of Mulliken charges =   2.00000   3.00000
 Mulliken charges and spin densities with hydrogens summed into heavy atoms:
               1          2
     1  V    1.157154   2.838488
     2  O    0.064516   0.017253
     4  O    0.126124   0.030331
     6  O    0.240030   0.035250
     8  O    0.195203   0.041717
    10  O    0.125679   0.024543
    12  O    0.091294   0.012418
 APT charges:
               1
     1  V    0.844623
     2  O   -0.494264
     3  H    0.351427
     4  O   -0.377977
     5  H    0.271942
     6  O   -0.197226
     7  H    0.176070
     8  O   -0.207167
     9  H    0.246689
    10  O   -0.382653
    11  H    0.285178
    12  O   -0.493583
    13  H    0.357446
    14  H    0.314481
    15  H    0.306597
    16  H    0.327678
    17  H    0.282579
    18  H    0.229252
    19  H    0.158909
 Sum of APT charges =   2.00000
 APT charges with hydrogens summed into heavy atoms:
               1
     1  V    0.844623
     2  O    0.184840
     4  O    0.200562
     6  O    0.208095
     8  O    0.198431
    10  O    0.185104
    12  O    0.178345
 Electronic spatial extent (au):  <R**2>=            859.7005
 Charge=              2.0000 electrons
 Dipole moment (field-independent basis, Debye):
    X=              2.0212    Y=              3.3727    Z=             -0.8979  Tot=              4.0332
 Quadrupole moment (field-independent basis, Debye-Ang):
   XX=            -22.0895   YY=            -25.3482   ZZ=            -34.5340
   XY=             -4.4538   XZ=             -1.4621   YZ=             -0.7890
 Traceless Quadrupole moment (field-independent basis, Debye-Ang):
   XX=              5.2344   YY=              1.9757   ZZ=             -7.2101
   XY=             -4.4538   XZ=             -1.4621   YZ=             -0.7890
 Octapole moment (field-independent basis, Debye-Ang**2):
  XXX=             15.4258  YYY=             14.7275  ZZZ=              4.7102  XYY=              3.4358
  XXY=              7.8909  XXZ=              3.2139  XZZ=             -7.5940  YZZ=             -3.1100
  YYZ=            -13.1544  XYZ=             -2.8014
 Hexadecapole moment (field-independent basis, Debye-Ang**3):
 XXXX=           -219.3536 YYYY=           -228.5186 ZZZZ=           -246.0136 XXXY=            -20.4790
 XXXZ=              3.7351 YYYX=            -12.4058 YYYZ=              6.0735 ZZZX=            -14.5129
 ZZZY=            -12.7785 XXYY=            -62.9084 XXZZ=            -73.7331 YYZZ=            -65.3745
 XXYZ=              3.9539 YYXZ=              1.3517 ZZXY=              1.8902
 N-N= 7.177225235776D+02 E-N=-4.728818549571D+03  KE= 1.400315806799D+03
  Exact polarizability:      65.846       2.567      64.606      -1.703      -2.719      51.787
 Approx polarizability:      89.176       3.495      87.538      -2.933      -3.666      69.901
                          Isotropic Fermi Contact Couplings
        Atom                 a.u.       MegaHertz       Gauss      10(-4) cm-1
     1  V(51)             -0.29315    -115.09167     -41.06757     -38.39045
     2  O(17)             -0.01395       2.81816       1.00559       0.94004
     3  H(1)               0.00757      11.28431       4.02652       3.76404
     4  O(17)             -0.00317       0.64025       0.22846       0.21356
     5  H(1)               0.00792      11.80688       4.21299       3.93835
     6  O(17)              0.02506      -5.06428      -1.80706      -1.68926
     7  H(1)               0.00997      14.85631       5.30110       4.95553
     8  O(17)              0.01635      -3.30351      -1.17877      -1.10193
     9  H(1)               0.00930      13.86223       4.94639       4.62394
    10  O(17)             -0.00827       1.67127       0.59635       0.55748
    11  H(1)               0.00940      14.00012       4.99559       4.66994
    12  O(17)             -0.01995       4.03183       1.43866       1.34487
    13  H(1)               0.00670       9.98815       3.56402       3.33169
    14  H(1)               0.00683      10.17870       3.63201       3.39525
    15  H(1)               0.00816      12.16449       4.34059       4.05764
    16  H(1)               0.00641       9.54896       3.40731       3.18519
    17  H(1)               0.00716      10.66938       3.80710       3.55892
    18  H(1)               0.01096      16.33359       5.82823       5.44830
    19  H(1)               0.01067      15.89904       5.67317       5.30335
 --------------------------------------------------------
       Center         ----  Spin Dipole Couplings  ----
                      3XX-RR        3YY-RR        3ZZ-RR
 --------------------------------------------------------
     1   Atom       -0.063186      0.020816      0.042371
     2   Atom       -0.063786      0.061574      0.002212
     3   Atom       -0.008246      0.014723     -0.006478
     4   Atom       -0.017452     -0.032952      0.050403
     5   Atom        0.033856     -0.030993     -0.002864
     6   Atom       -0.005548     -0.062108      0.067657
     7   Atom        0.004770     -0.006476      0.001705
     8   Atom       -0.058604      0.037860      0.020744
     9   Atom       -0.027766      0.053914     -0.026148
    10   Atom        0.003344     -0.026710      0.023365
    11   Atom        0.037166     -0.013930     -0.023236
    12   Atom        0.032717     -0.016430     -0.016287
    13   Atom       -0.015128     -0.019293      0.034421
    14   Atom        0.018368     -0.025249      0.006881
    15   Atom        0.015883      0.003276     -0.019159
    16   Atom       -0.025774      0.029678     -0.003904
    17   Atom       -0.015684      0.000776      0.014909
    18   Atom        0.043829     -0.028810     -0.015019
    19   Atom       -0.012762      0.037092     -0.024330
 --------------------------------------------------------
                        XY            XZ            YZ
 --------------------------------------------------------
     1   Atom       -0.027742      0.013098     -0.010754
     2   Atom        0.025510     -0.011247     -0.031779
     3   Atom        0.030684      0.022461      0.032323
     4   Atom       -0.026093      0.038805     -0.031354
     5   Atom       -0.000783      0.039309     -0.000986
     6   Atom        0.004368     -0.073902     -0.009470
     7   Atom        0.029988     -0.031391     -0.024555
     8   Atom        0.015541      0.029108      0.071252
     9   Atom       -0.012810     -0.003233      0.016650
    10   Atom       -0.002570      0.061564      0.002761
    11   Atom       -0.031657      0.022829     -0.010109
    12   Atom        0.068993     -0.007603      0.019726
    13   Atom        0.011879     -0.030750     -0.026977
    14   Atom       -0.016226     -0.043146      0.012324
    15   Atom       -0.039122      0.021056     -0.019086
    16   Atom       -0.014098     -0.009689      0.041082
    17   Atom       -0.020644      0.025839     -0.037242
    18   Atom        0.001837     -0.032395      0.000701
    19   Atom        0.035740      0.006867      0.011803
 --------------------------------------------------------


 ---------------------------------------------------------------------------------
              Anisotropic Spin Dipole Couplings in Principal Axis System
 ---------------------------------------------------------------------------------

       Atom             a.u.   MegaHertz   Gauss  10(-4) cm-1        Axes

              Baa    -0.0723   -10.167    -3.628    -3.391  0.9576  0.2756 -0.0835
     1 V(51)  Bbb     0.0205     2.881     1.028     0.961 -0.1932  0.8298  0.5235
              Bcc     0.0518     7.286     2.600     2.430  0.2136 -0.4852  0.8479
 
              Baa    -0.0692     5.005     1.786     1.669  0.9819 -0.1727  0.0778
     2 O(17)  Bbb    -0.0116     0.839     0.299     0.280 -0.0025  0.3991  0.9169
              Bcc     0.0808    -5.843    -2.085    -1.949  0.1894  0.9005 -0.3915
 
              Baa    -0.0300   -15.989    -5.705    -5.333 -0.3514 -0.3782  0.8564
     3 H(1)   Bbb    -0.0295   -15.751    -5.620    -5.254  0.7980 -0.5993  0.0628
              Bcc     0.0595    31.740    11.326    10.587  0.4895  0.7055  0.5124
 
              Baa    -0.0525     3.798     1.355     1.267  0.5728  0.8190  0.0335
     4 O(17)  Bbb    -0.0292     2.110     0.753     0.704  0.7051 -0.4715 -0.5297
              Bcc     0.0816    -5.908    -2.108    -1.971  0.4180 -0.3271  0.8475
 
              Baa    -0.0311   -16.573    -5.914    -5.528 -0.0580  0.9916  0.1155
     5 H(1)   Bbb    -0.0278   -14.852    -5.300    -4.954 -0.5341 -0.1286  0.8356
              Bcc     0.0589    31.425    11.213    10.482  0.8435 -0.0132  0.5370
 
              Baa    -0.0629     4.548     1.623     1.517  0.0638  0.9921  0.1081
     6 O(17)  Bbb    -0.0513     3.710     1.324     1.238  0.8481 -0.1110  0.5181
              Bcc     0.1141    -8.259    -2.947    -2.755 -0.5260 -0.0586  0.8484
 
              Baa    -0.0315   -16.831    -6.006    -5.614  0.7051 -0.6920  0.1546
     7 H(1)   Bbb    -0.0264   -14.065    -5.019    -4.691  0.3206  0.5056  0.8010
              Bcc     0.0579    30.895    11.024    10.306  0.6325  0.5152 -0.5784
 
              Baa    -0.0692     5.004     1.785     1.669  0.9063  0.1351 -0.4005
     8 O(17)  Bbb    -0.0377     2.730     0.974     0.911 -0.3802  0.6746 -0.6328
              Bcc     0.1069    -7.734    -2.760    -2.580  0.1847  0.7257  0.6627
 
              Baa    -0.0303   -16.162    -5.767    -5.391  0.7722 -0.0082  0.6353
     9 H(1)   Bbb    -0.0289   -15.446    -5.511    -5.152 -0.6174 -0.2456  0.7473
              Bcc     0.0592    31.608    11.278    10.543 -0.1500  0.9693  0.1947
 
              Baa    -0.0496     3.591     1.281     1.198  0.7514  0.1613 -0.6398
    10 O(17)  Bbb    -0.0261     1.889     0.674     0.630 -0.1256  0.9869  0.1013
              Bcc     0.0757    -5.480    -1.955    -1.828  0.6478  0.0043  0.7618
 
              Baa    -0.0310   -16.533    -5.899    -5.515 -0.3899 -0.1896  0.9011
    11 H(1)   Bbb    -0.0288   -15.373    -5.485    -5.128  0.3157  0.8917  0.3243
              Bcc     0.0598    31.906    11.385    10.643  0.8650 -0.4109  0.2878
 
              Baa    -0.0726     5.252     1.874     1.752 -0.5320  0.7741 -0.3431
    12 O(17)  Bbb    -0.0091     0.657     0.234     0.219 -0.2415  0.2496  0.9377
              Bcc     0.0817    -5.909    -2.108    -1.971  0.8116  0.5817  0.0542
 
              Baa    -0.0309   -16.502    -5.888    -5.504  0.4483  0.7319  0.5131
    13 H(1)   Bbb    -0.0291   -15.550    -5.549    -5.187  0.7987 -0.5858  0.1378
[...]
    14  H   -0.016924   0.298603   0.000001  -0.000001  -0.000002   0.000001
    15  H    0.000015   0.000001   0.298733  -0.000015   0.000000  -0.000016
    16  H   -0.000007  -0.000001  -0.000015   0.298649   0.000014  -0.000015
    17  H   -0.000003  -0.000002   0.000000   0.000014   0.295850  -0.000008
    18  H    0.000000   0.000001  -0.000016  -0.000015  -0.000008   0.298798
    19  H   -0.000003  -0.000056  -0.000007   0.000000  -0.000003   0.000014
              19
     1  V   -0.006593
     2  O   -0.000239
     3  H    0.000000
     4  O    0.001450
     5  H   -0.000074
     6  O    0.001336
     7  H   -0.000009
     8  O    0.299070
     9  H   -0.016933
    10  O    0.000745
    11  H   -0.000002
    12  O    0.001390
    13  H   -0.000003
    14  H   -0.000056
    15  H   -0.000007
    16  H    0.000000
    17  H   -0.000003
    18  H    0.000014
    19  H    0.295983
          Atomic-Atomic Spin Densities.
               1          2          3          4          5          6
     1  V    3.195877  -0.011127  -0.003683  -0.011095  -0.003681  -0.011183
     2  O   -0.011127  -0.025907   0.003557   0.003570  -0.000312   0.003584
     3  H   -0.003683   0.003557   0.003103  -0.000187   0.000001  -0.000313
     4  O   -0.011095   0.003570  -0.000187  -0.026042   0.003559   0.003596
     5  H   -0.003681  -0.000312   0.000001   0.003559   0.003103  -0.000189
     6  O   -0.011183   0.003584  -0.000313   0.003596  -0.000189  -0.025814
     7  H   -0.003660  -0.000185   0.000001  -0.000309   0.000001   0.003551
     8  O   -0.011163  -0.001292  -0.000014   0.002738   0.000100   0.003611
     9  H   -0.005009  -0.000018  -0.000000  -0.000081  -0.000006  -0.000000
    10  O   -0.011179   0.003592   0.000064  -0.001294  -0.000014   0.002746
    11  H   -0.005017   0.000005   0.000005  -0.000018  -0.000000  -0.000082
    12  O   -0.011072   0.002771   0.000106   0.003593   0.000067  -0.001298
    13  H   -0.003690   0.000103   0.000059   0.000076  -0.000001  -0.000014
    14  H   -0.005058  -0.000082  -0.000006  -0.000009   0.000004  -0.000018
    15  H   -0.005049   0.001271  -0.000017   0.003566  -0.001353   0.000193
    16  H   -0.005033   0.003526  -0.001351   0.000189   0.000001   0.001283
    17  H   -0.003660   0.000052  -0.000001  -0.000014   0.000000   0.000098
    18  H   -0.005012   0.000183   0.000001   0.001264  -0.000017   0.003537
    19  H   -0.003674  -0.000014   0.000000   0.000101   0.000060   0.000059
               7          8          9         10         11         12
     1  V   -0.003660  -0.011163  -0.005009  -0.011179  -0.005017  -0.011072
     2  O   -0.000185  -0.001292  -0.000018   0.003592   0.000005   0.002771
     3  H    0.000001  -0.000014  -0.000000   0.000064   0.000005   0.000106
     4  O   -0.000309   0.002738  -0.000081  -0.001294  -0.000018   0.003593
     5  H    0.000001   0.000100  -0.000006  -0.000014  -0.000000   0.000067
     6  O    0.003551   0.003611  -0.000000   0.002746  -0.000082  -0.001298
     7  H    0.003087   0.000055   0.000005   0.000097  -0.000006  -0.000014
     8  O    0.000055  -0.025789   0.003527   0.003598   0.000183   0.003571
     9  H    0.000005   0.003527   0.004095   0.001275  -0.000008   0.000184
    10  O    0.000097   0.003598   0.001275  -0.025912   0.003556   0.003598
    11  H   -0.000006   0.000183  -0.000008   0.003556   0.004078   0.001252
    12  O   -0.000014   0.003571   0.000184   0.003598   0.001252  -0.026052
    13  H    0.000000  -0.000315   0.000001  -0.000192  -0.000017   0.003559
    14  H   -0.000000   0.001284  -0.000006   0.000201  -0.000006   0.003550
    15  H    0.000001  -0.000081   0.000001  -0.000018   0.000000  -0.000007
    16  H   -0.000017  -0.000018   0.000000  -0.000001  -0.000002  -0.000083
    17  H    0.000061  -0.000185  -0.000017   0.003555  -0.001344  -0.000307
    18  H   -0.001346   0.000001  -0.000002  -0.000081   0.000001  -0.000018
    19  H   -0.000001   0.003552  -0.001350  -0.000312   0.000001  -0.000184
              13         14         15         16         17         18
     1  V   -0.003690  -0.005058  -0.005049  -0.005033  -0.003660  -0.005012
     2  O    0.000103  -0.000082   0.001271   0.003526   0.000052   0.000183
     3  H    0.000059  -0.000006  -0.000017  -0.001351  -0.000001   0.000001
     4  O    0.000076  -0.000009   0.003566   0.000189  -0.000014   0.001264
     5  H   -0.000001   0.000004  -0.001353   0.000001   0.000000  -0.000017
     6  O   -0.000014  -0.000018   0.000193   0.001283   0.000098   0.003537
     7  H    0.000000  -0.000000   0.000001  -0.000017   0.000061  -0.001346
     8  O   -0.000315   0.001284  -0.000081  -0.000018  -0.000185   0.000001
     9  H    0.000001  -0.000006   0.000001   0.000000  -0.000017  -0.000002
    10  O   -0.000192   0.000201  -0.000018  -0.000001   0.003555  -0.000081
    11  H   -0.000017  -0.000006   0.000000  -0.000002  -0.001344   0.000001
    12  O    0.003559   0.003550  -0.000007  -0.000083  -0.000307  -0.000018
    13  H    0.003119  -0.001356   0.000005  -0.000006   0.000001  -0.000000
    14  H   -0.001356   0.004127  -0.000002   0.000001   0.000001   0.000000
    15  H    0.000005  -0.000002   0.004102  -0.000006  -0.000000  -0.000007
    16  H   -0.000006   0.000001  -0.000006   0.004115   0.000004  -0.000007
    17  H    0.000001   0.000001  -0.000000   0.000004   0.003076  -0.000006
    18  H   -0.000000   0.000000  -0.000007  -0.000007  -0.000006   0.004086
    19  H    0.000001  -0.000017  -0.000006  -0.000000   0.000001   0.000005
              19
     1  V   -0.003674
     2  O   -0.000014
     3  H    0.000000
     4  O    0.000101
     5  H    0.000060
     6  O    0.000059
     7  H   -0.000001
     8  O    0.003552
     9  H   -0.001350
    10  O   -0.000312
    11  H    0.000001
    12  O   -0.000184
    13  H    0.000001
    14  H   -0.000017
    15  H   -0.000006
    16  H   -0.000000
    17  H    0.000001
    18  H    0.000005
    19  H    0.003098
 Mulliken charges and spin densities:
               1          2
     1  V    1.381704   3.076834
     2  O   -0.740055  -0.016723
     3  H    0.423808   0.001324
     4  O   -0.740071  -0.016797
     5  H    0.423904   0.001322
     6  O   -0.740204  -0.016654
     7  H    0.424137   0.001319
     8  O   -0.740015  -0.016637
     9  H    0.419165   0.002591
    10  O   -0.740470  -0.016723
    11  H    0.419127   0.002581
    12  O   -0.739858  -0.016784
    13  H    0.423636   0.001332
    14  H    0.419400   0.002607
    15  H    0.419239   0.002593
    16  H    0.419300   0.002596
    17  H    0.424221   0.001316
    18  H    0.419103   0.002583
    19  H    0.423930   0.001319
 Sum of Mulliken charges =   2.00000   3.00000
 Mulliken charges and spin densities with hydrogens summed into heavy atoms:
               1          2
     1  V    1.381704   3.076834
     2  O    0.103053  -0.012803
     4  O    0.103071  -0.012882
     6  O    0.103036  -0.012752
     8  O    0.103080  -0.012727
    10  O    0.102877  -0.012826
    12  O    0.103178  -0.012845
 Electronic spatial extent (au):  <R**2>=           1169.2219
 Charge=              2.0000 electrons
 Dipole moment (field-independent basis, Debye):
    X=              0.0002    Y=              0.0141    Z=             -0.0053  Tot=              0.0150
 Quadrupole moment (field-independent basis, Debye-Ang):
   XX=            -17.8239   YY=            -16.2343   ZZ=            -16.1428
   XY=             -0.0154   XZ=              0.0246   YZ=             -0.0568
 Traceless Quadrupole moment (field-independent basis, Debye-Ang):
   XX=             -1.0902   YY=              0.4994   ZZ=              0.5908
   XY=             -0.0154   XZ=              0.0246   YZ=             -0.0568
 Octapole moment (field-independent basis, Debye-Ang**2):
  XXX=             -0.0050  YYY=             -5.6711  ZZZ=             -0.4551  XYY=              0.0324
  XXY=              0.1590  XXZ=             -0.0429  XZZ=             -0.0182  YZZ=              5.7715
  YYZ=              0.3974  XYZ=              0.0076
 Hexadecapole moment (field-independent basis, Debye-Ang**3):
 XXXX=           -324.0870 YYYY=           -191.6828 ZZZZ=           -190.9997 XXXY=              0.0678
 XXXZ=              0.1645 YYYX=             -3.7971 YYYZ=              0.0827 ZZZX=             50.0135
 ZZZY=             -0.5965 XXYY=            -55.5769 XXZZ=            -54.7765 YYZZ=            -62.6763
 XXYZ=             -0.0777 YYXZ=            -49.9435 ZZXY=              3.5223
 N-N= 6.123656472821D+02 E-N=-4.518601096968D+03  KE= 1.397661113778D+03
                          Isotropic Fermi Contact Couplings
        Atom                 a.u.       MegaHertz       Gauss      10(-4) cm-1
     1  V(51)             -0.13459     -52.83911     -18.85431     -17.62523
     2  O(17)             -0.01893       3.82441       1.36465       1.27569
     3  H(1)               0.00138       2.05297       0.73255       0.68480
     4  O(17)             -0.01898       3.83594       1.36876       1.27953
     5  H(1)               0.00138       2.05482       0.73321       0.68541
     6  O(17)             -0.01901       3.84076       1.37048       1.28114
     7  H(1)               0.00137       2.04840       0.73092       0.68327
     8  O(17)             -0.01897       3.83220       1.36742       1.27828
     9  H(1)               0.00177       2.63951       0.94184       0.88045
    10  O(17)             -0.01898       3.83529       1.36853       1.27932
    11  H(1)               0.00177       2.64207       0.94276       0.88130
    12  O(17)             -0.01889       3.81701       1.36200       1.27322
    13  H(1)               0.00138       2.06054       0.73525       0.68732
    14  H(1)               0.00178       2.65338       0.94679       0.88507
    15  H(1)               0.00177       2.64461       0.94366       0.88215
    16  H(1)               0.00178       2.64611       0.94420       0.88265
    17  H(1)               0.00137       2.04846       0.73094       0.68329
    18  H(1)               0.00177       2.63678       0.94087       0.87954
    19  H(1)               0.00137       2.04843       0.73093       0.68328
 --------------------------------------------------------
       Center         ----  Spin Dipole Couplings  ----
                      3XX-RR        3YY-RR        3ZZ-RR
 --------------------------------------------------------
     1   Atom       -0.112329      0.056124      0.056205
     2   Atom       -0.005529     -0.009254      0.014783
     3   Atom       -0.009615      0.020968     -0.011354
     4   Atom       -0.005342     -0.002355      0.007697
     5   Atom       -0.009412     -0.016977      0.026389
     6   Atom       -0.005236      0.020229     -0.014993
     7   Atom       -0.009399      0.010045     -0.000645
     8   Atom       -0.005501      0.019658     -0.014157
     9   Atom        0.013907      0.006082     -0.019989
    10   Atom       -0.004673     -0.001929      0.006602
    11   Atom        0.013857     -0.015934      0.002077
    12   Atom       -0.005993     -0.010283      0.016276
    13   Atom       -0.009680      0.019307     -0.009626
    14   Atom        0.014057     -0.010942     -0.003115
    15   Atom        0.014092     -0.016912      0.002820
    16   Atom        0.013851     -0.009676     -0.004175
    17   Atom       -0.009251     -0.017405      0.026656
    18   Atom        0.013872      0.005796     -0.019669
    19   Atom       -0.009498      0.012260     -0.002761
 --------------------------------------------------------
                        XY            XZ            YZ
 --------------------------------------------------------
     1   Atom        0.000117     -0.000169      0.000363
     2   Atom       -0.030046      0.015394      0.012706
     3   Atom       -0.019365     -0.007298      0.015845
     4   Atom        0.028311      0.018308     -0.016933
     5   Atom        0.003417      0.020581      0.006108
     6   Atom        0.001261     -0.033587      0.003703
     7   Atom        0.016018     -0.013311     -0.021856
     8   Atom       -0.003132     -0.033513     -0.005538
     9   Atom       -0.029422     -0.003877      0.002973
    10   Atom       -0.027510      0.019036      0.017713
    11   Atom        0.011527      0.027344      0.009931
    12   Atom        0.030985      0.013588     -0.010912
    13   Atom        0.018929     -0.008286     -0.017452
    14   Atom        0.018089     -0.023522     -0.012700
    15   Atom       -0.010089      0.027879     -0.008880
    16   Atom       -0.019153     -0.022689      0.013115
    17   Atom       -0.002576      0.020798     -0.004248
    18   Atom        0.029224     -0.005219     -0.004169
    19   Atom       -0.016615     -0.012454      0.021270
 --------------------------------------------------------


 ---------------------------------------------------------------------------------
              Anisotropic Spin Dipole Couplings in Principal Axis System
 ---------------------------------------------------------------------------------

       Atom             a.u.   MegaHertz   Gauss  10(-4) cm-1        Axes

              Baa    -0.1123   -15.793    -5.635    -5.268  1.0000 -0.0007  0.0010
     1 V(51)  Bbb     0.0558     7.845     2.799     2.617  0.0012  0.7451 -0.6670
              Bcc     0.0565     7.948     2.836     2.651 -0.0003  0.6670  0.7451
 
              Baa    -0.0442     3.195     1.140     1.066  0.6578  0.6823 -0.3189
     2 O(17)  Bbb     0.0196    -1.419    -0.506    -0.473 -0.2650  0.6060  0.7500
              Bcc     0.0245    -1.776    -0.634    -0.593  0.7050 -0.4089  0.5794
 
              Baa    -0.0191   -10.176    -3.631    -3.394  0.8440  0.4924 -0.2127
     3 H(1)   Bbb    -0.0176    -9.397    -3.353    -3.135  0.3481 -0.2013  0.9156
              Bcc     0.0367    19.573     6.984     6.529 -0.4080  0.8468  0.3413
 
              Baa    -0.0442     3.197     1.141     1.066  0.6552 -0.6189 -0.4332
     4 O(17)  Bbb     0.0197    -1.423    -0.508    -0.475  0.2734 -0.3403  0.8997
              Bcc     0.0245    -1.774    -0.633    -0.592  0.7042  0.7079  0.0538
 
              Baa    -0.0191   -10.172    -3.630    -3.393  0.8418 -0.4325 -0.3230
     5 H(1)   Bbb    -0.0176    -9.394    -3.352    -3.133  0.3484  0.8924 -0.2869
              Bcc     0.0367    19.566     6.982     6.527  0.4123  0.1289  0.9019
 
              Baa    -0.0443     3.202     1.143     1.068  0.6524 -0.0562  0.7558
     6 O(17)  Bbb     0.0199    -1.439    -0.513    -0.480  0.2986  0.9356 -0.1882
              Bcc     0.0244    -1.763    -0.629    -0.588  0.6966 -0.3485 -0.6271
 
              Baa    -0.0190   -10.161    -3.626    -3.389  0.8390 -0.0552  0.5414
     7 H(1)   Bbb    -0.0176    -9.378    -3.346    -3.128 -0.3553  0.6980  0.6217
              Bcc     0.0366    19.538     6.972     6.517  0.4122  0.7140 -0.5660
 
              Baa    -0.0442     3.200     1.142     1.067  0.6558  0.0971  0.7487
     8 O(17)  Bbb     0.0199    -1.437    -0.513    -0.479 -0.2878  0.9490  0.1290
              Bcc     0.0244    -1.764    -0.629    -0.588  0.6980  0.3001 -0.6502
 
              Baa    -0.0205   -10.942    -3.904    -3.650  0.2942  0.2216  0.9297
     9 H(1)   Bbb    -0.0196   -10.438    -3.725    -3.482  0.5923  0.7212 -0.3593
              Bcc     0.0401    21.380     7.629     7.132  0.7501 -0.6564 -0.0809
 
              Baa    -0.0442     3.196     1.140     1.066  0.6462  0.6121 -0.4559
    10 O(17)  Bbb     0.0199    -1.440    -0.514    -0.480  0.2892  0.3564  0.8884
              Bcc     0.0243    -1.755    -0.626    -0.586  0.7063 -0.7059  0.0533
 
              Baa    -0.0205   -10.939    -3.903    -3.649  0.2825  0.7039 -0.6517
    11 H(1)   Bbb    -0.0196   -10.439    -3.725    -3.482 -0.5987  0.6602  0.4535
              Bcc     0.0401    21.378     7.628     7.131  0.7495  0.2621  0.6079
 
              Baa    -0.0441     3.193     1.139     1.065 -0.6634  0.6959  0.2749
    12 O(17)  Bbb     0.0195    -1.412    -0.504    -0.471 -0.2628 -0.5607  0.7852
              Bcc     0.0246    -1.781    -0.635    -0.594  0.7006  0.4486  0.5549
 
              Baa    -0.0191   -10.181    -3.633    -3.396  0.8480 -0.4991 -0.1781
    13 H(1)   Bbb    -0.0176    -9.404    -3.356    -3.137  0.3396  0.2539  0.9057
              Bcc     0.0367    19.585     6.988     6.533  0.4068  0.8285 -0.3848
 
              Baa    -0.0205   -10.947    -3.906    -3.651 -0.3042  0.9170  0.2580
    14 H(1)   Bbb    -0.0196   -10.440    -3.725    -3.482  0.5851 -0.0339  0.8103
              Bcc     0.0401    21.387     7.631     7.134  0.7518  0.3975 -0.5262
 
              Baa    -0.0205   -10.941    -3.904    -3.650 -0.2950  0.7210  0.6270
    15 H(1)   Bbb    -0.0196   -10.436    -3.724    -3.481  0.5893  0.6538 -0.4746
              Bcc     0.0401    21.377     7.628     7.131  0.7522 -0.2295  0.6177
 
              Baa    -0.0205   -10.945    -3.905    -3.651  0.2972  0.9025 -0.3118
    16 H(1)   Bbb    -0.0196   -10.440    -3.725    -3.483  0.5916  0.0823  0.8020
              Bcc     0.0401    21.385     7.631     7.133  0.7494 -0.4228 -0.5095
 
              Baa    -0.0190   -10.163    -3.626    -3.390  0.8357  0.4312 -0.3402
    17 H(1)   Bbb    -0.0176    -9.381    -3.347    -3.129 -0.3593  0.8977  0.2551
              Bcc     0.0366    19.543     6.973     6.519  0.4154 -0.0910  0.9051
 
              Baa    -0.0205   -10.943    -3.905    -3.650  0.2892 -0.1721  0.9417
    18 H(1)   Bbb    -0.0196   -10.443    -3.726    -3.483 -0.5953  0.7380  0.3177
              Bcc     0.0401    21.386     7.631     7.134  0.7496  0.6525 -0.1110
 
              Baa    -0.0191   -10.166    -3.628    -3.391  0.8418  0.0845  0.5331
    19 H(1)   Bbb    -0.0176    -9.385    -3.349    -3.131  0.3508  0.6650 -0.6593
              Bcc     0.0366    19.552     6.976     6.522 -0.4103  0.7420  0.5302
 

 ---------------------------------------------------------------------------------

 No NMR shielding tensors so no spin-rotation constants.
 Leave Link  601 at Thu May 23 19:27:25 2024, MaxMem= 26843545600 cpu:              28.8 elap:               0.3
 (Enter /gpfs/fs1/soft/improv/software/custom-built/gaussian/g16/l9999.exe)
 Unable to Open any file for archive entry.
 1\1\GINC-I219\SP\UHSEH1PBE\Gen\H12O6V1(2+,4)\HHARB\23-May-2024\0\\#p H
 SEH1PBE scf=(maxcycles=500,xqc,maxconventional=50) scrf=(cpcm,solvent=
 water) geom=allcheck guess=read chkbasis\\Title\\2,4\V,-0.7848385789,0
 .7127154525,0.0321844834\O,-1.2262916233,2.8094451937,-0.1566603307\H,
 -1.5835541293,3.2920513139,-0.9109487008\O,1.2632941093,1.3532165443,0
 .1800752478\H,2.072612131,0.8467400024,0.0462106519\O,-0.8510247558,1.
 0854922578,2.1498201615\H,-1.482629026,0.7720570242,2.8073268437\O,-0.
 3497823174,-1.3852841598,0.22322826\H,-1.0713375261,-2.018294734,0.323
 2547851\O,-2.8337092984,0.075457923,-0.1230961986\H,-3.2294636718,-0.0
 614452626,-0.9926317584\O,-0.7110235915,0.3406474956,-2.0849745523\H,-
 0.5786820722,0.9636434369,-2.8087977779\H,-0.4198568849,-0.5197037567,
 -2.4113860961\H,1.491178216,2.2765213992,0.0158741951\H,-1.4537392879,
 3.3247380867,0.627005152\H,-3.5657921568,0.214203269,0.4887109998\H,-0
 .0360825781,1.2808887613,2.6284585094\H,0.439205472,-1.8170104772,0.57
 03915354\\Version=ES64L-G16RevC.02\State=4-A\HF=-1401.814609\S2=3.7535
 25\S2-1=0.\S2A=3.750006\RMSD=7.264e-09\Dipole=-0.0010475,-0.0028038,0.
 005104\Quadrupole=0.2548613,-0.3295326,0.0746713,-0.3241775,-0.2797856
 ,-0.472475\PG=C01 [X(H12O6V1)]\\@
 The archive entry for this job was punched.


 SACRED COWS MAKE GREAT HAMBURGERS -- ROBERT REISNER
 Job cpu time:       0 days  1 hours 50 minutes 23.5 seconds.
 Elapsed time:       0 days  0 hours  0 minutes 56.3 seconds.
 File lengths (MBytes):  RWF=    122 Int=      0 D2E=      0 Chk=     32 Scr=      1
 Normal termination of Gaussian 16 at Thu May 23 19:27:25 2024.
