 Entering Gaussian System, Link 0=g16
 Input=Ti_2_HSE06.com
 Output=Ti_2_HSE06.log
 Initial command:
 /gpfs/fs1/soft/improv/software/custom-built/gaussian/g16/l1.exe "/scratch/Gau-349818.inp" -scrdir="/scratch/"
 Default CPUs for threads: 0-127
 Default linda workers: i183.lcrc.anl.gov
 Default is to use 128 SMP processors on each worker.
 Entering Link 1 = /gpfs/fs1/soft/improv/software/custom-built/gaussian/g16/l1.exe PID=    349819.
  
 Copyright (c) 1988-2021, Gaussian, Inc.  All Rights Reserved.
  
 This is part of the Gaussian(R) 16 program.  It is based on
 the Gaussian(R) 09 system (copyright 2009, Gaussian, Inc.),
 the Gaussian(R) 03 system (copyright 2003, Gaussian, Inc.),
 the Gaussian(R) 98 system (copyright 1998, Gaussian, Inc.),
 the Gaussian(R) 94 system (copyright 1995, Gaussian, Inc.),
 the Gaussian 92(TM) system (copyright 1992, Gaussian, Inc.),
 the Gaussian 90(TM) system (copyright 1990, Gaussian, Inc.),
 the Gaussian 88(TM) system (copyright 1988, Gaussian, Inc.),
 the Gaussian 86(TM) system (copyright 1986, Carnegie Mellon
 University), and the Gaussian 82(TM) system (copyright 1983,
 Carnegie Mellon University). Gaussian is a federally registered
 trademark of Gaussian, Inc.
  
 This software contains proprietary and confidential information,
 including trade secrets, belonging to Gaussian, Inc.
  
 This software is provided under written license and may be
 used, copied, transmitted, or stored only in accord with that
 written license.
  
 The following legend is applicable only to US Government
 contracts under FAR:
  
                    RESTRICTED RIGHTS LEGEND
  
 Use, reproduction and disclosure by the US Government is
 subject to restrictions as set forth in subparagraphs (a)
 and (c) of the Commercial Computer Software - Restricted
 Rights clause in FAR 52.227-19.
  
 Gaussian, Inc.
 340 Quinnipiac St., Bldg. 40, Wallingford CT 06492
  
  
 ---------------------------------------------------------------
 Warning -- This program may not be used in any manner that
 competes with the business of Gaussian, Inc. or will provide
 assistance to any competitor of Gaussian, Inc.  The licensee
 of this program is prohibited from giving any competitor of
 Gaussian, Inc. access to this program.  By using this program,
 the user acknowledges that Gaussian, Inc. is engaged in the
 business of creating and licensing software in the field of
 computational chemistry and represents and warrants to the
 licensee that it is not a competitor of Gaussian, Inc. and that
 it will not use this program in any manner prohibited above.
 ---------------------------------------------------------------
  

 Cite this work as:
 Gaussian 16, Revision C.02,
 M. J. Frisch, G. W. Trucks, H. B. Schlegel, G. E. Scuseria, 
 M. A. Robb, J. R. Cheeseman, G. Scalmani, V. Barone, 
 G. A. Petersson, H. Nakatsuji, X. Li, M. Caricato, A. V. Marenich, 
 J. Bloino, B. G. Janesko, R. Gomperts, B. Mennucci, H. P. Hratchian, 
 J. V. Ortiz, A. F. Izmaylov, J. L. Sonnenberg, D. Williams-Young, 
 F. Ding, F. Lipparini, F. Egidi, J. Goings, B. Peng, A. Petrone, 
 T. Henderson, D. Ranasinghe, V. G. Zakrzewski, J. Gao, N. Rega, 
 G. Zheng, W. Liang, M. Hada, M. Ehara, K. Toyota, R. Fukuda, 
 J. Hasegawa, M. Ishida, T. Nakajima, Y. Honda, O. Kitao, H. Nakai, 
 T. Vreven, K. Throssell, J. A. Montgomery, Jr., J. E. Peralta, 
 F. Ogliaro, M. J. Bearpark, J. J. Heyd, E. N. Brothers, K. N. Kudin, 
 V. N. Staroverov, T. A. Keith, R. Kobayashi, J. Normand, 
 K. Raghavachari, A. P. Rendell, J. C. Burant, S. S. Iyengar, 
 J. Tomasi, M. Cossi, J. M. Millam, M. Klene, C. Adamo, R. Cammi, 
 J. W. Ochterski, R. L. Martin, K. Morokuma, O. Farkas, 
 J. B. Foresman, and D. J. Fox, Gaussian, Inc., Wallingford CT, 2019.
 
 ******************************************
 Gaussian 16:  ES64L-G16RevC.02  7-Dec-2021
                23-May-2024 
 ******************************************
 %chk=Ti_2_HSE06.chk
 SetSPE:  set environment variable "OMP_PROC_BIND" = "true"
 SetSPE:  set environment variable "OMP_PLACES" = "{0},{1},{2},{3},{4},{5},{6},{7},{8},{9},{10},{11},{12},{13},{14},{15},{16},{17},{18},{19},{20},{21},{22},{23},{24},{25},{26},{27},{28},{29},{30},{31},{32},{33},{34},{35},{36},{37},{38},{39},{40},{41},{42},{43},{44},{45},{46},{47},{48},{49},{50},{51},{52},{53},{54},{55},{56},{57},{58},{59},{60},{61},{62},{63},{64},{65},{66},{67},{68},{69},{70},{71},{72},{73},{74},{75},{76},{77},{78},{79},{80},{81},{82},{83},{84},{85},{86},{87},{88},{89},{90},{91},{92},{93},{94},{95},{96},{97},{98},{99},{100},{101},{102},{103},{104},{105},{106},{107},{108},{109},{110},{111},{112},{113},{114},{115},{116},{117},{118},{119},{120},{121},{122},{123},{124},{125},{126},{127}"
 SetLPE:    new flags="-opt 'Tsnet.Node.lindarsharg: ssh'  -nodelist 'i183.lcrc.anl.gov' -env GAUSS_MDEF=26843545600 -env GAUSS_EXEDIR="/gpfs/fs1/soft/improv/software/custom-built/gaussian/g16/bsd:/gpfs/fs1/soft/improv/software/custom-built/gaussian/g16" -env "OMP_PROC_BIND=true" -env "OMP_PLACES={0},{1},{2},{3},{4},{5},{6},{7},{8},{9},{10},{11},{12},{13},{14},{15},{16},{17},{18},{19},{20},{21},{22},{23},{24},{25},{26},{27},{28},{29},{30},{31},{32},{33},{34},{35},{36},{37},{38},{39},{40},{41},{42},{43},{44},{45},{46},{47},{48},{49},{50},{51},{52},{53},{54},{55},{56},{57},{58},{59},{60},{61},{62},{63},{64},{65},{66},{67},{68},{69},{70},{71},{72},{73},{74},{75},{76},{77},{78},{79},{80},{81},{82},{83},{84},{85},{86},{87},{88},{89},{90},{91},{92},{93},{94},{95},{96},{97},{98},{99},{100},{101},{102},{103},{104},{105},{106},{107},{108},{109},{110},{111},{112},{113},{114},{115},{116},{117},{118},{119},{120},{121},{122},{123},{124},{125},{126},{127}" -env GAUSS_ADEF="0,1,2,3,4,5,6,7,8,9,10,11,12,13,14,15,16,17,18,19,20,21,22,23,24,25,26,27,28,29,30,31,32,33,34,35,36,37,38,39,40,41,42,43,44,45,46,47,48,49,50,51,52,53,54,55,56,57,58,59,60,61,62,63,64,65,66,67,68,69,70,71,72,73,74,75,76,77,78,79,80,81,82,83,84,85,86,87,88,89,90,91,92,93,94,95,96,97,98,99,100,101,102,103,104,105,106,107,108,109,110,111,112,113,114,115,116,117,118,119,120,121,122,123,124,125,126,127""
 Will use up to    1 processors via Linda.
 ----------------------------------------------------------------------
 #p HSEH1PBE 6-31+G(2df,p) opt=(cartesian,calcall,maxcycles=500) freq s
 cf=(maxcycles=500,xqc,maxconventional=50)
 ----------------------------------------------------------------------
 1/6=500,10=4,18=10,26=3,38=1/1,3;
 2/12=2,17=6,18=5,29=2,40=1/2;
 3/5=1,6=6,7=114,11=2,25=1,30=1,71=2,74=-51,140=1/1,2,3;
 4//1;
 5/5=2,7=500,8=3,13=1,38=5,85=50/2,8;
 8/6=4,10=90,11=11/1;
 11/6=1,8=1,9=11,15=111,16=1/1,2,10;
 10/6=1/2;
 6/7=2,8=2,9=2,10=2,18=1,28=1/1;
 7/7=1,10=1,25=1/1,2,3,16;
 1/6=500,10=4,18=10,26=3/3(3);
 2/29=1/2;
 7/7=1,8=1,9=1,25=1,44=-1/16;
 99/12=1/99;
 2/29=1/2;
 3/5=1,6=6,7=114,11=2,25=1,30=1,71=2,74=-51,140=1/1,2,3;
 4/5=5,16=3,69=1/1;
 5/5=2,7=500,8=3,13=1,38=5,85=50/2,8;
 8/6=4,10=90,11=11/1;
 11/6=1,8=1,9=11,15=111,16=1/1,2,10;
 10/6=1/2;
 7/7=1,10=1,25=1/1,2,3,16;
 1/6=500,10=4,18=10,26=3/3(-8);
 2/29=1/2;
 6/7=2,8=2,9=2,10=2,18=1,19=2,28=1/1;
 7/7=1,8=1,9=1,25=1,44=-1/16;
 99/12=1/99;
 Leave Link    1 at Thu May 23 15:28:49 2024, MaxMem=           0 cpu:               4.4 elap:               0.1
 (Enter /gpfs/fs1/soft/improv/software/custom-built/gaussian/g16/l101.exe)
 -----
 Title
 -----
 Symbolic Z-matrix:
 Charge =  2 Multiplicity = 3
 Ti                   -0.79304   0.81881  -0.09491 
 O                    -1.20497   2.57394  -0.35687 
 H                    -2.12106   2.64974  -0.63312 
 O                     0.99012   1.19063  -0.05794 
 H                     1.42696   0.5998    0.55971 
 O                    -0.81752   1.03069   1.71365 
 H                    -1.02108   0.1906    2.13133 
 O                    -0.38507  -0.93351   0.17118 
 H                    -1.15682  -1.47369  -0.01433 
 O                    -2.57341   0.45178  -0.12186 
 H                    -2.77756  -0.08744  -0.88929 
 O                    -0.76966   0.60461  -1.90111 
 H                     0.09872   0.83457  -2.23949 
 H                    -0.96534  -0.30999  -2.11742 
 H                     1.12208   2.09943   0.22124 
 H                    -1.07671   3.0584    0.46184 
 H                    -2.81407  -0.02398   0.6765 
 H                     0.0422    1.33615   2.01181 
 H                    -0.11532  -1.06446   1.08312 
 
 ITRead=  0  0  0  0  0  0  0  0  0  0  0  0  0  0  0  0  0  0  0
 MicOpt= -1 -1 -1 -1 -1 -1 -1 -1 -1 -1 -1 -1 -1 -1 -1 -1 -1 -1 -1
 NAtoms=     19 NQM=       19 NQMF=       0 NMMI=      0 NMMIF=      0
                NMic=       0 NMicF=      0.
                    Isotopes and Nuclear Properties:
 (Nuclear quadrupole moments (NQMom) in fm**2, nuclear magnetic moments (NMagM)
  in nuclear magnetons)

  Atom         1           2           3           4           5           6           7           8           9          10
 IAtWgt=          48          16           1          16           1          16           1          16           1          16
 AtmWgt=  47.9479467  15.9949146   1.0078250  15.9949146   1.0078250  15.9949146   1.0078250  15.9949146   1.0078250  15.9949146
 NucSpn=           0           0           1           0           1           0           1           0           1           0
 AtZEff=  -0.0000000  -0.0000000  -0.0000000  -0.0000000  -0.0000000  -0.0000000  -0.0000000  -0.0000000  -0.0000000  -0.0000000
 NQMom=    0.0000000   0.0000000   0.0000000   0.0000000   0.0000000   0.0000000   0.0000000   0.0000000   0.0000000   0.0000000
 NMagM=    0.0000000   0.0000000   2.7928460   0.0000000   2.7928460   0.0000000   2.7928460   0.0000000   2.7928460   0.0000000
 AtZNuc=  22.0000000   8.0000000   1.0000000   8.0000000   1.0000000   8.0000000   1.0000000   8.0000000   1.0000000   8.0000000

  Atom        11          12          13          14          15          16          17          18          19
 IAtWgt=           1          16           1           1           1           1           1           1           1
 AtmWgt=   1.0078250  15.9949146   1.0078250   1.0078250   1.0078250   1.0078250   1.0078250   1.0078250   1.0078250
 NucSpn=           1           0           1           1           1           1           1           1           1
 AtZEff=  -0.0000000  -0.0000000  -0.0000000  -0.0000000  -0.0000000  -0.0000000  -0.0000000  -0.0000000  -0.0000000
 NQMom=    0.0000000   0.0000000   0.0000000   0.0000000   0.0000000   0.0000000   0.0000000   0.0000000   0.0000000
 NMagM=    2.7928460   0.0000000   2.7928460   2.7928460   2.7928460   2.7928460   2.7928460   2.7928460   2.7928460
 AtZNuc=   1.0000000   8.0000000   1.0000000   1.0000000   1.0000000   1.0000000   1.0000000   1.0000000   1.0000000
 Leave Link  101 at Thu May 23 15:28:49 2024, MaxMem= 26843545600 cpu:               0.4 elap:               0.0
 (Enter /gpfs/fs1/soft/improv/software/custom-built/gaussian/g16/l103.exe)

 GradGradGradGradGradGradGradGradGradGradGradGradGradGradGradGradGradGrad
 Berny optimization.
 Initialization pass.
 No Z-matrix variables, so optimization will use Cartesian coordinates.
 Trust Radius=3.00D-01 FncErr=1.00D-07 GrdErr=1.00D-06 EigMax=2.50D+02 EigMin=1.00D-04
 Number of steps in this run=    114 maximum allowed number of steps=    114.
 GradGradGradGradGradGradGradGradGradGradGradGradGradGradGradGradGradGrad

 Leave Link  103 at Thu May 23 15:28:49 2024, MaxMem= 26843545600 cpu:               0.4 elap:               0.0
 (Enter /gpfs/fs1/soft/improv/software/custom-built/gaussian/g16/l202.exe)
 ---------------------------------------------------------------------------------------------------
                            Z-MATRIX (ANGSTROMS AND DEGREES)
   CD    Cent   Atom    N1       Length/X        N2       Alpha/Y        N3        Beta/Z          J
 ---------------------------------------------------------------------------------------------------
      1      1  Ti       0  -0.793037          0.818805         -0.094905
      2      2  O        0  -1.204971          2.573941         -0.356874
      3      3  H        0  -2.121063          2.649743         -0.633122
      4      4  O        0   0.990122          1.190635         -0.057941
      5      5  H        0   1.426962          0.599798          0.559707
      6      6  O        0  -0.817519          1.030691          1.713650
      7      7  H        0  -1.021079          0.190602          2.131326
      8      8  O        0  -0.385068         -0.933506          0.171177
      9      9  H        0  -1.156817         -1.473692         -0.014327
     10     10  O        0  -2.573405          0.451778         -0.121857
     11     11  H        0  -2.777557         -0.087440         -0.889285
     12     12  O        0  -0.769659          0.604612         -1.901109
     13     13  H        0   0.098725          0.834573         -2.239490
     14     14  H        0  -0.965336         -0.309994         -2.117418
     15     15  H        0   1.122081          2.099426          0.221242
     16     16  H        0  -1.076711          3.058396          0.461841
     17     17  H        0  -2.814074         -0.023981          0.676500
     18     18  H        0   0.042204          1.336153          2.011809
     19     19  H        0  -0.115315         -1.064459          1.083123
 ---------------------------------------------------------------------------------------------------
                         Z-Matrix orientation:                         
 ---------------------------------------------------------------------
 Center     Atomic      Atomic             Coordinates (Angstroms)
 Number     Number       Type             X           Y           Z
 ---------------------------------------------------------------------
      1         22           0       -0.793037    0.818805   -0.094905
      2          8           0       -1.204971    2.573941   -0.356874
      3          1           0       -2.121063    2.649743   -0.633122
      4          8           0        0.990122    1.190635   -0.057941
      5          1           0        1.426962    0.599798    0.559707
      6          8           0       -0.817519    1.030691    1.713650
      7          1           0       -1.021079    0.190602    2.131326
      8          8           0       -0.385068   -0.933506    0.171177
      9          1           0       -1.156817   -1.473692   -0.014327
     10          8           0       -2.573405    0.451778   -0.121857
     11          1           0       -2.777557   -0.087440   -0.889285
     12          8           0       -0.769659    0.604612   -1.901109
     13          1           0        0.098725    0.834573   -2.239490
     14          1           0       -0.965336   -0.309994   -2.117418
     15          1           0        1.122081    2.099426    0.221242
     16          1           0       -1.076711    3.058396    0.461841
     17          1           0       -2.814074   -0.023981    0.676500
     18          1           0        0.042204    1.336153    2.011809
     19          1           0       -0.115315   -1.064459    1.083123
 ---------------------------------------------------------------------
                    Distance matrix (angstroms):
                    1          2          3          4          5
     1  Ti   0.000000
     2  O    1.821762   0.000000
     3  H    2.325008   0.959835   0.000000
     4  O    1.821889   2.611767   3.484150   0.000000
     5  H    2.324839   3.415322   4.267739   0.959899   0.000000
     6  O    1.821090   2.611285   3.134947   2.536076   2.560263
     7  H    2.324381   3.450400   3.859988   3.136540   2.937743
     8  O    1.818745   3.640503   4.062050   2.540791   2.405292
     9  H    2.322579   4.062387   4.279649   3.421971   3.362259
    10  O    1.818006   2.536025   2.301533   3.639880   4.060711
    11  H    2.321775   3.136788   2.826442   4.064482   4.499984
    12  O    1.819010   2.540161   2.759827   2.614866   3.298603
    13  H    2.322657   2.875634   3.286750   2.383386   3.107223
    14  H    2.322591   3.387332   3.506977   3.212032   3.703756
    15  H    2.325429   2.444290   3.398642   0.959822   1.567289
    16  H    2.325125   0.959918   1.567358   2.833814   3.510364
    17  H    2.321626   3.225876   3.056824   4.060370   4.288255
    18  H    2.324547   2.949275   3.660724   2.281137   2.137375
    19  H    2.322443   4.061883   4.556733   2.758526   2.328591
                    6          7          8          9         10
     6  O    0.000000
     7  H    0.960021   0.000000
     8  O    2.534622   2.347406   0.000000
     9  H    3.061530   2.718847   0.960108   0.000000
    10  O    2.605257   2.748593   2.606473   2.392848   0.000000
    11  H    3.444886   3.505227   2.750347   2.305222   0.959885
    12  O    3.640099   4.061422   2.609231   2.833582   2.538227
    13  H    4.062670   4.557707   3.028445   3.443229   3.430916
    14  H    4.061572   4.278496   2.441955   2.411193   2.673658
    15  H    2.670492   3.447487   3.387136   4.244531   4.060675
    16  H    2.397039   3.318813   4.061790   4.557738   3.061904
    17  H    2.484803   2.318921   2.642472   2.307685   0.960023
    18  H    0.959858   1.567527   2.953276   3.665802   3.489421
    19  H    2.297892   1.869309   0.959980   1.567353   3.129403
                   11         12         13         14         15
    11  H    0.000000
    12  O    2.352526   0.000000
    13  H    3.308498   0.959935   0.000000
    14  H    2.200452   0.959991   1.567533   0.000000
    15  H    4.606825   3.212091   2.949969   3.953725   0.000000
    16  H    3.822919   3.420362   3.691102   4.243941   2.410850
    17  H    1.567497   3.349453   4.210050   3.362383   4.495491
    18  H    4.288824   4.062660   4.281159   4.558009   2.225950
    19  H    3.454344   3.481323   3.833001   3.396353   3.504877
                   16         17         18         19
    16  H    0.000000
    17  H    3.544793   0.000000
    18  H    2.573032   3.433851   0.000000
    19  H    4.278809   2.920828   2.578800   0.000000
 Stoichiometry    H12O6Ti(2+,3)
 Framework group  C1[X(H12O6Ti)]
 Deg. of freedom    51
 Full point group                 C1      NOp   1
 Largest Abelian subgroup         C1      NOp   1
 Largest concise Abelian subgroup C1      NOp   1
                         Standard orientation:                         
 ---------------------------------------------------------------------
 Center     Atomic      Atomic             Coordinates (Angstroms)
 Number     Number       Type             X           Y           Z
 ---------------------------------------------------------------------
      1         22           0       -0.021180   -0.031230    0.010242
      2          8           0       -0.320919   -1.688924   -0.683318
      3          1           0       -1.137185   -1.681640   -1.188234
      4          8           0        1.254245   -0.678703    1.138670
      5          1           0        1.942694   -0.019880    1.254406
      6          8           0        1.297272    0.293478   -1.203273
      7          1           0        1.380717    1.240156   -1.339207
      8          8           0        0.279127    1.625671    0.697504
      9          1           0       -0.432969    2.214440    0.436587
     10          8           0       -1.286964    0.614116   -1.123984
     11          1           0       -2.036002    0.936648   -0.617728
     12          8           0       -1.338898   -0.352897    1.222244
     13          1           0       -0.972045   -0.816749    1.978376
     14          1           0       -1.718130    0.480302    1.511284
     15          1           0        1.635288   -1.477345    0.766869
     16          1           0        0.408469   -1.932016   -1.258072
     17          1           0       -0.916621    1.333448   -1.640754
     18          1           0        2.128227   -0.056953   -0.874579
     19          1           0        1.112611    1.964725    0.362979
 ---------------------------------------------------------------------
 Rotational constants (GHZ):           2.0397079           1.9739543           1.9252950
 Leave Link  202 at Thu May 23 15:28:49 2024, MaxMem= 26843545600 cpu:               0.4 elap:               0.0
 (Enter /gpfs/fs1/soft/improv/software/custom-built/gaussian/g16/l301.exe)
 Standard basis: 6-31+G(2df,p) (6D, 7F)
 Ernie: Thresh=  0.10000D-02 Tol=  0.10000D-05 Strict=F.
 There are   347 symmetry adapted cartesian basis functions of A   symmetry.
 There are   317 symmetry adapted basis functions of A   symmetry.
   317 basis functions,   514 primitive gaussians,   347 cartesian basis functions
    41 alpha electrons       39 beta electrons
       nuclear repulsion energy       701.0339313636 Hartrees.
 IExCor= 3909 DFT=T Ex+Corr=HSEH1PBE ExCW=0 ScaHFX=  0.250000
 ScaDFX=  1.000000  1.000000  1.000000  1.000000 ScalE2=  1.000000  1.000000
 IRadAn=      5 IRanWt=     -1 IRanGd=            0 ICorTp=0 IEmpDi=  4
 HFx  wShort=  0.110000 wLong=  0.000000 cFull=  0.000000 cShort=  1.000000 cLong=  0.000000
 DFx  wShort=  0.110000 wLong=  0.000000 cFull=  0.000000 cShort= -0.250000 cLong=  1.000000
 NAtoms=   19 NActive=   19 NUniq=   19 SFac= 1.00D+00 NAtFMM=   60 NAOKFM=F Big=F
 Integral buffers will be    131072 words long.
 Raffenetti 2 integral format.
 Two-electron integral symmetry is turned on.
 Leave Link  301 at Thu May 23 15:28:49 2024, MaxMem= 26843545600 cpu:               0.4 elap:               0.0
 (Enter /gpfs/fs1/soft/improv/software/custom-built/gaussian/g16/l302.exe)
 NPDir=0 NMtPBC=     1 NCelOv=     1 NCel=       1 NClECP=     1 NCelD=      1
         NCelK=      1 NCelE2=     1 NClLst=     1 CellRange=     0.0.
 One-electron integrals computed using PRISM.
 One-electron integral symmetry used in STVInt
 NBasis=   317 RedAO= T EigKep=  4.19D-05  NBF=   317
 NBsUse=   317 1.00D-06 EigRej= -1.00D+00 NBFU=   317
 Precomputing XC quadrature grid using
 IXCGrd= 4 IRadAn=           5 IRanWt=          -1 IRanGd=           0 AccXCQ= 0.00D+00.
 Generated NRdTot=       0 NPtTot=           0 NUsed=           0 NTot=          32
 NSgBfM=   347   347   347   347   347 MxSgAt=    19 MxSgA2=    19.
 Leave Link  302 at Thu May 23 15:28:49 2024, MaxMem= 26843545600 cpu:              21.7 elap:               0.3
 (Enter /gpfs/fs1/soft/improv/software/custom-built/gaussian/g16/l303.exe)
 DipDrv:  MaxL=1.
 Leave Link  303 at Thu May 23 15:28:50 2024, MaxMem= 26843545600 cpu:               1.0 elap:               0.0
 (Enter /gpfs/fs1/soft/improv/software/custom-built/gaussian/g16/l401.exe)
 ExpMin= 9.99D-03 ExpMax= 4.32D+04 ExpMxC= 6.48D+03 IAcc=3 IRadAn=         5 AccDes= 0.00D+00
 Harris functional with IExCor= 1009 and IRadAn=       5 diagonalized for initial guess.
 HarFok:  IExCor= 1009 AccDes= 0.00D+00 IRadAn=         5 IDoV= 1 UseB2=F ITyADJ=14
 ICtDFT=  3500011 ScaDFX=  1.000000  1.000000  1.000000  1.000000
 FoFCou: FMM=F IPFlag=           0 FMFlag=      100000 FMFlg1=           0
         NFxFlg=           0 DoJE=T BraDBF=F KetDBF=T FulRan=T
         wScrn=  0.000000 ICntrl=       500 IOpCl=  0 I1Cent=   200000004 NGrid=           0
         NMat0=    1 NMatS0=      1 NMatT0=    0 NMatD0=    1 NMtDS0=    0 NMtDT0=    0
 Petite list used in FoFCou.
 Harris En= -1306.92940129969    
 JPrj=0 DoOrth=F DoCkMO=F.
 Initial guess <Sx>= 0.0000 <Sy>= 0.0000 <Sz>= 1.0000 <S**2>= 2.0000 S= 1.0000
 Leave Link  401 at Thu May 23 15:28:50 2024, MaxMem= 26843545600 cpu:              41.3 elap:               0.4
 (Enter /gpfs/fs1/soft/improv/software/custom-built/gaussian/g16/l502.exe)
 Integral symmetry usage will be decided dynamically.
 UHF open shell SCF:
 Using DIIS extrapolation, IDIIS=  1040.
 NGot= 26843545600 LenX= 26843256607 LenY= 26843135757
 Requested convergence on RMS density matrix=1.00D-08 within  50 cycles.
 Requested convergence on MAX density matrix=1.00D-06.
 Requested convergence on             energy=1.00D-06.
 No special actions if energy rises.
 Fock matrices will be formed incrementally for  20 cycles.

 Cycle   1  Pass 1  IDiag  1:
 FoFJK:  IHMeth= 1 ICntrl=       0 DoSepK=T KAlg= 0 I1Cent=           0 FoldK=F
 IRaf=         1 NMat=       1 IRICut=       1 DoRegI=T DoRafI=F ISym2E= 0 IDoP0=0 IntGTp=1.
 FoFCou: FMM=F IPFlag=           0 FMFlag=      100000 FMFlg1=           0
         NFxFlg=           0 DoJE=T BraDBF=F KetDBF=F FulRan=T
         wScrn=  0.000000 ICntrl=       500 IOpCl=  0 I1Cent=           0 NGrid=           0
         NMat0=    1 NMatS0=      1 NMatT0=    0 NMatD0=    1 NMtDS0=    0 NMtDT0=    0
 Symmetry not used in FoFCou.
 E= -1306.23880141028    
 DIIS: error= 3.29D-02 at cycle   1 NSaved=   1.
 NSaved= 1 IEnMin= 1 EnMin= -1306.23880141028     IErMin= 1 ErrMin= 3.29D-02
 ErrMax= 3.29D-02  0.00D+00 EMaxC= 1.00D-01 BMatC= 2.59D+00 BMatP= 2.59D+00
 IDIUse=3 WtCom= 6.71D-01 WtEn= 3.29D-01
 Coeff-Com:  0.100D+01
 Coeff-En:   0.100D+01
 Coeff:      0.100D+01
 Gap=     0.114 Goal=   None    Shift=    0.000
 Gap=     0.435 Goal=   None    Shift=    0.000
 GapD=    0.114 DampG=1.000 DampE=0.250 DampFc=0.2500 IDamp=-1.
 Damping current iteration by 2.50D-01
 RMSDP=5.43D-02 MaxDP=4.68D+00              OVMax= 9.72D-01

 Cycle   2  Pass 1  IDiag  1:
 RMSU=  1.36D-02    CP:  1.01D+00
 E= -1306.39080326243     Delta-E=       -0.152001852154 Rises=F Damp=T
 DIIS: error= 1.61D-02 at cycle   2 NSaved=   2.
 NSaved= 2 IEnMin= 2 EnMin= -1306.39080326243     IErMin= 2 ErrMin= 1.61D-02
 ErrMax= 1.61D-02  0.00D+00 EMaxC= 1.00D-01 BMatC= 4.67D-01 BMatP= 2.59D+00
 IDIUse=3 WtCom= 8.39D-01 WtEn= 1.61D-01
 Coeff-Com: -0.425D+00 0.142D+01
 Coeff-En:   0.517D-01 0.948D+00
 Coeff:     -0.348D+00 0.135D+01
 Gap=    -0.002 Goal=   None    Shift=    0.000
 Gap=     0.348 Goal=   None    Shift=    0.000
 RMSDP=1.39D-02 MaxDP=1.15D+00 DE=-1.52D-01 OVMax= 9.95D-01

 Cycle   3  Pass 1  IDiag  1:
 RMSU=  4.63D-03    CP:  9.42D-01  3.95D-02
 E= -1306.49670091313     Delta-E=       -0.105897650699 Rises=F Damp=F
 DIIS: error= 2.41D-02 at cycle   3 NSaved=   3.
 NSaved= 3 IEnMin= 3 EnMin= -1306.49670091313     IErMin= 2 ErrMin= 1.61D-02
 ErrMax= 2.41D-02  0.00D+00 EMaxC= 1.00D-01 BMatC= 1.04D+00 BMatP= 4.67D-01
 IDIUse=2 WtCom= 0.00D+00 WtEn= 1.00D+00
 Coeff-En:   0.000D+00 0.287D+00 0.713D+00
 Coeff:      0.000D+00 0.287D+00 0.713D+00
 Gap=     0.100 Goal=   None    Shift=    0.000
 Gap=     0.585 Goal=   None    Shift=    0.000
 RMSDP=4.87D-02 MaxDP=6.74D+00 DE=-1.06D-01 OVMax= 9.97D-01

 Cycle   4  Pass 1  IDiag  1:
 RMSU=  2.79D-02    CP:  1.02D+00  2.94D+00 -1.81D-01
 E= -1305.84588669900     Delta-E=        0.650814214130 Rises=F Damp=F
 DIIS: error= 4.17D-02 at cycle   4 NSaved=   4.
 NSaved= 4 IEnMin= 3 EnMin= -1306.49670091313     IErMin= 2 ErrMin= 1.61D-02
 ErrMax= 4.17D-02  0.00D+00 EMaxC= 1.00D-01 BMatC= 2.89D+00 BMatP= 4.67D-01
 IDIUse=2 WtCom= 0.00D+00 WtEn= 1.00D+00
 Coeff-En:   0.000D+00 0.000D+00 0.724D+00 0.276D+00
 Coeff:      0.000D+00 0.000D+00 0.724D+00 0.276D+00
 Gap=     0.016 Goal=   None    Shift=    0.000
 Gap=     0.352 Goal=   None    Shift=    0.000
 RMSDP=4.57D-02 MaxDP=6.27D+00 DE= 6.51D-01 OVMax= 9.64D-01

 Cycle   5  Pass 1  IDiag  1:
 RMSU=  1.23D-02    CP:  9.69D-01  4.07D-01  3.12D-01  2.20D-02
 E= -1306.62407363720     Delta-E=       -0.778186938193 Rises=F Damp=F
 DIIS: error= 1.34D-02 at cycle   5 NSaved=   5.
 NSaved= 5 IEnMin= 5 EnMin= -1306.62407363720     IErMin= 5 ErrMin= 1.34D-02
 ErrMax= 1.34D-02  0.00D+00 EMaxC= 1.00D-01 BMatC= 3.48D-01 BMatP= 4.67D-01
 IDIUse=3 WtCom= 8.66D-01 WtEn= 1.34D-01
 Coeff-Com: -0.175D+00 0.357D+00 0.332D+00-0.299D-01 0.517D+00
 Coeff-En:   0.000D+00 0.000D+00 0.335D+00 0.000D+00 0.665D+00
 Coeff:     -0.151D+00 0.309D+00 0.332D+00-0.259D-01 0.536D+00
 Gap=     0.049 Goal=   None    Shift=    0.000
 Gap=     0.331 Goal=   None    Shift=    0.000
 RMSDP=1.10D-02 MaxDP=1.29D+00 DE=-7.78D-01 OVMax= 6.96D-01

 Cycle   6  Pass 1  IDiag  1:
 RMSU=  2.92D-03    CP:  9.59D-01  1.26D-01  6.51D-01 -1.01D-02  2.15D-01
 E= -1306.68173305330     Delta-E=       -0.057659416100 Rises=F Damp=F
 DIIS: error= 6.27D-03 at cycle   6 NSaved=   6.
 NSaved= 6 IEnMin= 6 EnMin= -1306.68173305330     IErMin= 6 ErrMin= 6.27D-03
 ErrMax= 6.27D-03  0.00D+00 EMaxC= 1.00D-01 BMatC= 7.59D-02 BMatP= 3.48D-01
 IDIUse=3 WtCom= 9.37D-01 WtEn= 6.27D-02
 Coeff-Com: -0.129D+00 0.177D+00-0.447D-01-0.193D-01 0.246D+00 0.769D+00
 Coeff-En:   0.000D+00 0.000D+00 0.000D+00 0.000D+00 0.255D+00 0.745D+00
 Coeff:     -0.120D+00 0.166D+00-0.419D-01-0.181D-01 0.247D+00 0.768D+00
 Gap=     0.026 Goal=   None    Shift=    0.000
 Gap=     0.323 Goal=   None    Shift=    0.000
 RMSDP=2.66D-03 MaxDP=2.06D-01 DE=-5.77D-02 OVMax= 1.55D-01

 Cycle   7  Pass 1  IDiag  1:
 RMSU=  6.94D-04    CP:  9.64D-01  2.10D-01  5.70D-01 -1.21D-02  3.90D-01
                    CP:  1.23D+00
 E= -1306.69749157483     Delta-E=       -0.015758521529 Rises=F Damp=F
 DIIS: error= 1.44D-03 at cycle   7 NSaved=   7.
 NSaved= 7 IEnMin= 7 EnMin= -1306.69749157483     IErMin= 7 ErrMin= 1.44D-03
 ErrMax= 1.44D-03  0.00D+00 EMaxC= 1.00D-01 BMatC= 4.33D-03 BMatP= 7.59D-02
 IDIUse=3 WtCom= 9.86D-01 WtEn= 1.44D-02
 Coeff-Com: -0.589D-01 0.786D-01-0.377D-01-0.592D-02 0.105D+00 0.272D+00
 Coeff-Com:  0.647D+00
 Coeff-En:   0.000D+00 0.000D+00 0.000D+00 0.000D+00 0.000D+00 0.000D+00
 Coeff-En:   0.100D+01
 Coeff:     -0.581D-01 0.775D-01-0.372D-01-0.583D-02 0.104D+00 0.268D+00
 Coeff:      0.652D+00
 Gap=     0.030 Goal=   None    Shift=    0.000
 Gap=     0.321 Goal=   None    Shift=    0.000
 RMSDP=3.15D-04 MaxDP=2.93D-02 DE=-1.58D-02 OVMax= 1.76D-02

 Cycle   8  Pass 1  IDiag  1:
 RMSU=  2.55D-04    CP:  9.64D-01  2.09D-01  5.57D-01 -1.27D-02  4.03D-01
                    CP:  1.24D+00  8.98D-01
 E= -1306.69813218381     Delta-E=       -0.000640608983 Rises=F Damp=F
 DIIS: error= 8.06D-04 at cycle   8 NSaved=   8.
 NSaved= 8 IEnMin= 8 EnMin= -1306.69813218381     IErMin= 8 ErrMin= 8.06D-04
 ErrMax= 8.06D-04  0.00D+00 EMaxC= 1.00D-01 BMatC= 1.50D-03 BMatP= 4.33D-03
 IDIUse=3 WtCom= 9.92D-01 WtEn= 8.06D-03
 Coeff-Com: -0.112D-01 0.153D-01-0.371D-02 0.185D-03 0.191D-01-0.960D-01
 Coeff-Com:  0.317D+00 0.759D+00
 Coeff-En:   0.000D+00 0.000D+00 0.000D+00 0.000D+00 0.000D+00 0.000D+00
 Coeff-En:   0.000D+00 0.100D+01
 Coeff:     -0.111D-01 0.152D-01-0.368D-02 0.183D-03 0.190D-01-0.952D-01
 Coeff:      0.314D+00 0.761D+00
 Gap=     0.032 Goal=   None    Shift=    0.000
 Gap=     0.321 Goal=   None    Shift=    0.000
 RMSDP=3.38D-04 MaxDP=2.93D-02 DE=-6.41D-04 OVMax= 2.63D-02

 Cycle   9  Pass 1  IDiag  1:
 RMSU=  9.02D-05    CP:  9.64D-01  2.18D-01  5.46D-01 -1.29D-02  4.25D-01
                    CP:  1.24D+00  1.01D+00  1.28D+00
 E= -1306.69849170223     Delta-E=       -0.000359518419 Rises=F Damp=F
 DIIS: error= 1.60D-04 at cycle   9 NSaved=   9.
 NSaved= 9 IEnMin= 9 EnMin= -1306.69849170223     IErMin= 9 ErrMin= 1.60D-04
 ErrMax= 1.60D-04  0.00D+00 EMaxC= 1.00D-01 BMatC= 7.97D-05 BMatP= 1.50D-03
 IDIUse=3 WtCom= 9.98D-01 WtEn= 1.60D-03
 Coeff-Com:  0.186D-03 0.432D-03 0.370D-02 0.306D-03-0.139D-02-0.658D-01
 Coeff-Com: -0.180D-02 0.244D+00 0.821D+00
 Coeff-En:   0.000D+00 0.000D+00 0.000D+00 0.000D+00 0.000D+00 0.000D+00
 Coeff-En:   0.000D+00 0.000D+00 0.100D+01
 Coeff:      0.186D-03 0.431D-03 0.369D-02 0.306D-03-0.139D-02-0.657D-01
 Coeff:     -0.180D-02 0.243D+00 0.821D+00
 Gap=     0.032 Goal=   None    Shift=    0.000
 Gap=     0.320 Goal=   None    Shift=    0.000
 RMSDP=2.21D-04 MaxDP=2.00D-02 DE=-3.60D-04 OVMax= 1.77D-02

 Cycle  10  Pass 1  IDiag  1:
 RMSU=  6.18D-05    CP:  9.64D-01  2.23D-01  5.42D-01 -1.28D-02  4.39D-01
                    CP:  1.24D+00  1.09D+00  1.50D+00  1.60D+00
 E= -1306.69854213746     Delta-E=       -0.000050435232 Rises=F Damp=F
 DIIS: error= 1.08D-04 at cycle  10 NSaved=  10.
 NSaved=10 IEnMin=10 EnMin= -1306.69854213746     IErMin=10 ErrMin= 1.08D-04
 ErrMax= 1.08D-04  0.00D+00 EMaxC= 1.00D-01 BMatC= 2.88D-05 BMatP= 7.97D-05
 IDIUse=3 WtCom= 9.99D-01 WtEn= 1.08D-03
 Coeff-Com:  0.209D-02-0.234D-02-0.175D-04 0.765D-04-0.628D-02 0.206D-01
 Coeff-Com: -0.626D-01-0.103D+00 0.218D+00 0.933D+00
 Coeff-En:   0.000D+00 0.000D+00 0.000D+00 0.000D+00 0.000D+00 0.000D+00
 Coeff-En:   0.000D+00 0.000D+00 0.000D+00 0.100D+01
 Coeff:      0.209D-02-0.234D-02-0.174D-04 0.764D-04-0.627D-02 0.206D-01
 Coeff:     -0.625D-01-0.103D+00 0.218D+00 0.933D+00
 Gap=     0.032 Goal=   None    Shift=    0.000
 Gap=     0.320 Goal=   None    Shift=    0.000
 RMSDP=1.34D-04 MaxDP=1.20D-02 DE=-5.04D-05 OVMax= 1.39D-02

 Cycle  11  Pass 1  IDiag  1:
 RMSU=  3.12D-05    CP:  9.64D-01  2.25D-01  5.41D-01 -1.26D-02  4.46D-01
                    CP:  1.24D+00  1.12D+00  1.70D+00  2.24D+00  1.80D+00
 E= -1306.69856602149     Delta-E=       -0.000023884033 Rises=F Damp=F
 DIIS: error= 1.63D-04 at cycle  11 NSaved=  11.
 NSaved=11 IEnMin=11 EnMin= -1306.69856602149     IErMin=10 ErrMin= 1.08D-04
 ErrMax= 1.63D-04  0.00D+00 EMaxC= 1.00D-01 BMatC= 5.04D-05 BMatP= 2.88D-05
 IDIUse=3 WtCom= 9.99D-01 WtEn= 1.08D-03
 Coeff-Com:  0.170D-02-0.200D-02-0.333D-02-0.104D-04-0.627D-02 0.598D-01
 Coeff-Com: -0.203D-01-0.159D+00-0.268D+00 0.271D+00 0.113D+01
 Coeff-En:   0.000D+00 0.000D+00 0.000D+00 0.000D+00 0.000D+00 0.000D+00
 Coeff-En:   0.000D+00 0.000D+00 0.000D+00 0.000D+00 0.100D+01
 Coeff:      0.170D-02-0.200D-02-0.332D-02-0.104D-04-0.627D-02 0.597D-01
 Coeff:     -0.203D-01-0.159D+00-0.268D+00 0.270D+00 0.113D+01
 Gap=     0.033 Goal=   None    Shift=    0.000
 Gap=     0.321 Goal=   None    Shift=    0.000
 RMSDP=1.38D-04 MaxDP=9.86D-03 DE=-2.39D-05 OVMax= 1.56D-02

 Cycle  12  Pass 1  IDiag  1:
 RMSU=  1.33D-05    CP:  9.64D-01  2.26D-01  5.42D-01 -1.21D-02  4.51D-01
                    CP:  1.23D+00  1.13D+00  1.91D+00  3.00D+00  2.87D+00
                    CP:  2.26D+00
 E= -1306.69859507694     Delta-E=       -0.000029055448 Rises=F Damp=F
 DIIS: error= 1.39D-04 at cycle  12 NSaved=  12.
 NSaved=12 IEnMin=12 EnMin= -1306.69859507694     IErMin=10 ErrMin= 1.08D-04
 ErrMax= 1.39D-04  0.00D+00 EMaxC= 1.00D-01 BMatC= 3.54D-05 BMatP= 2.88D-05
 IDIUse=3 WtCom= 9.99D-01 WtEn= 1.08D-03
 Coeff-Com:  0.788D-03-0.869D-03-0.403D-02-0.167D-04-0.411D-02 0.534D-01
 Coeff-Com:  0.340D-01-0.800D-01-0.427D+00-0.523D+00 0.806D+00 0.114D+01
 Coeff-En:   0.000D+00 0.000D+00 0.000D+00 0.000D+00 0.000D+00 0.000D+00
 Coeff-En:   0.000D+00 0.000D+00 0.000D+00 0.000D+00 0.000D+00 0.100D+01
 Coeff:      0.787D-03-0.868D-03-0.402D-02-0.166D-04-0.410D-02 0.533D-01
 Coeff:      0.340D-01-0.799D-01-0.427D+00-0.523D+00 0.806D+00 0.114D+01
 Gap=     0.033 Goal=   None    Shift=    0.000
 Gap=     0.321 Goal=   None    Shift=    0.000
 RMSDP=1.93D-04 MaxDP=1.37D-02 DE=-2.91D-05 OVMax= 2.21D-02

 Cycle  13  Pass 1  IDiag  1:
 RMSU=  1.34D-04    CP:  9.63D-01  2.27D-01  5.44D-01 -1.14D-02  4.57D-01
                    CP:  1.21D+00  1.15D+00  2.19D+00  3.00D+00  3.00D+00
                    CP:  3.00D+00  2.90D+00
 E= -1306.69862380694     Delta-E=       -0.000028730001 Rises=F Damp=F
 DIIS: error= 6.95D-05 at cycle  13 NSaved=  13.
 NSaved=13 IEnMin=13 EnMin= -1306.69862380694     IErMin=13 ErrMin= 6.95D-05
 ErrMax= 6.95D-05  0.00D+00 EMaxC= 1.00D-01 BMatC= 9.91D-06 BMatP= 2.88D-05
 IDIUse=1 WtCom= 1.00D+00 WtEn= 0.00D+00
 Coeff-Com:  0.161D-03-0.378D-04-0.125D-02 0.231D-05-0.134D-02 0.119D-01
 Coeff-Com:  0.257D-01 0.331D-02-0.119D+00-0.306D+00-0.114D+00 0.474D+00
 Coeff-Com:  0.103D+01
 Coeff:      0.161D-03-0.378D-04-0.125D-02 0.231D-05-0.134D-02 0.119D-01
 Coeff:      0.257D-01 0.331D-02-0.119D+00-0.306D+00-0.114D+00 0.474D+00
 Coeff:      0.103D+01
 Gap=     0.033 Goal=   None    Shift=    0.000
 Gap=     0.321 Goal=   None    Shift=    0.000
 RMSDP=1.35D-04 MaxDP=1.10D-02 DE=-2.87D-05 OVMax= 1.49D-02

 Cycle  14  Pass 1  IDiag  1:
 RMSU=  3.11D-05    CP:  9.63D-01  2.28D-01  5.46D-01 -1.09D-02  4.62D-01
                    CP:  1.19D+00  1.15D+00  2.38D+00  3.00D+00  3.00D+00
                    CP:  3.00D+00  3.00D+00  1.70D+00
 E= -1306.69863274393     Delta-E=       -0.000008936985 Rises=F Damp=F
 DIIS: error= 3.61D-05 at cycle  14 NSaved=  14.
 NSaved=14 IEnMin=14 EnMin= -1306.69863274393     IErMin=14 ErrMin= 3.61D-05
 ErrMax= 3.61D-05  0.00D+00 EMaxC= 1.00D-01 BMatC= 2.68D-06 BMatP= 9.91D-06
 IDIUse=1 WtCom= 1.00D+00 WtEn= 0.00D+00
 Coeff-Com:  0.703D-05 0.856D-04-0.280D-04-0.200D-04-0.422D-03 0.700D-03
 Coeff-Com: -0.217D-02-0.380D-02 0.414D-01 0.109D+00-0.126D+00-0.201D+00
 Coeff-Com:  0.569D-01 0.113D+01
 Coeff:      0.703D-05 0.856D-04-0.280D-04-0.200D-04-0.422D-03 0.700D-03
 Coeff:     -0.217D-02-0.380D-02 0.414D-01 0.109D+00-0.126D+00-0.201D+00
 Coeff:      0.569D-01 0.113D+01
 Gap=     0.033 Goal=   None    Shift=    0.000
 Gap=     0.321 Goal=   None    Shift=    0.000
 RMSDP=5.99D-05 MaxDP=6.82D-03 DE=-8.94D-06 OVMax= 5.21D-03

 Cycle  15  Pass 1  IDiag  1:
 RMSU=  9.76D-06    CP:  9.63D-01  2.28D-01  5.46D-01 -1.07D-02  4.65D-01
                    CP:  1.19D+00  1.15D+00  2.44D+00  3.00D+00  3.00D+00
                    CP:  3.00D+00  3.00D+00  1.90D+00  1.70D+00
 E= -1306.69863393601     Delta-E=       -0.000001192086 Rises=F Damp=F
 DIIS: error= 4.28D-05 at cycle  15 NSaved=  15.
 NSaved=15 IEnMin=15 EnMin= -1306.69863393601     IErMin=14 ErrMin= 3.61D-05
 ErrMax= 4.28D-05  0.00D+00 EMaxC= 1.00D-01 BMatC= 3.40D-06 BMatP= 2.68D-06
 IDIUse=1 WtCom= 1.00D+00 WtEn= 0.00D+00
 Coeff-Com:  0.205D-03-0.240D-03 0.508D-04 0.209D-04-0.748D-03 0.485D-03
 Coeff-Com: -0.467D-02-0.455D-02 0.469D-01 0.127D+00-0.639D-01-0.219D+00
 Coeff-Com: -0.199D+00 0.622D+00 0.695D+00
 Coeff:      0.205D-03-0.240D-03 0.508D-04 0.209D-04-0.748D-03 0.485D-03
 Coeff:     -0.467D-02-0.455D-02 0.469D-01 0.127D+00-0.639D-01-0.219D+00
 Coeff:     -0.199D+00 0.622D+00 0.695D+00
 Gap=     0.033 Goal=   None    Shift=    0.000
 Gap=     0.321 Goal=   None    Shift=    0.000
 RMSDP=3.27D-05 MaxDP=3.64D-03 DE=-1.19D-06 OVMax= 2.84D-03

 Cycle  16  Pass 1  IDiag  1:
 RMSU=  1.92D-06    CP:  9.63D-01  2.29D-01  5.47D-01 -1.05D-02  4.67D-01
                    CP:  1.18D+00  1.15D+00  2.47D+00  3.00D+00  3.00D+00
                    CP:  3.00D+00  3.00D+00  2.02D+00  2.13D+00  1.65D+00
 E= -1306.69863466839     Delta-E=       -0.000000732376 Rises=F Damp=F
 DIIS: error= 3.48D-05 at cycle  16 NSaved=  16.
 NSaved=16 IEnMin=16 EnMin= -1306.69863466839     IErMin=16 ErrMin= 3.48D-05
 ErrMax= 3.48D-05  0.00D+00 EMaxC= 1.00D-01 BMatC= 2.28D-06 BMatP= 2.68D-06
 IDIUse=1 WtCom= 1.00D+00 WtEn= 0.00D+00
 Coeff-Com:  0.304D-03-0.399D-03-0.151D-03 0.431D-04-0.931D-03 0.231D-02
 Coeff-Com:  0.106D-02-0.148D-02 0.118D-01 0.342D-01-0.257D-01-0.592D-01
 Coeff-Com: -0.842D-01 0.533D-01 0.276D+00 0.793D+00
 Coeff:      0.304D-03-0.399D-03-0.151D-03 0.431D-04-0.931D-03 0.231D-02
 Coeff:      0.106D-02-0.148D-02 0.118D-01 0.342D-01-0.257D-01-0.592D-01
 Coeff:     -0.842D-01 0.533D-01 0.276D+00 0.793D+00
 Gap=     0.033 Goal=   None    Shift=    0.000
 Gap=     0.321 Goal=   None    Shift=    0.000
 RMSDP=1.99D-05 MaxDP=2.18D-03 DE=-7.32D-07 OVMax= 1.63D-03

 Cycle  17  Pass 1  IDiag  1:
 RMSU=  1.35D-06    CP:  9.63D-01  2.29D-01  5.47D-01 -1.05D-02  4.68D-01
                    CP:  1.18D+00  1.15D+00  2.48D+00  3.00D+00  3.00D+00
                    CP:  3.00D+00  3.00D+00  2.09D+00  2.44D+00  2.26D+00
                    CP:  2.11D+00
 E= -1306.69863520654     Delta-E=       -0.000000538154 Rises=F Damp=F
 DIIS: error= 2.20D-05 at cycle  17 NSaved=  17.
 NSaved=17 IEnMin=17 EnMin= -1306.69863520654     IErMin=17 ErrMin= 2.20D-05
 ErrMax= 2.20D-05  0.00D+00 EMaxC= 1.00D-01 BMatC= 8.99D-07 BMatP= 2.28D-06
 IDIUse=1 WtCom= 1.00D+00 WtEn= 0.00D+00
 Coeff-Com:  0.763D-04-0.925D-04-0.161D-03 0.170D-05-0.170D-03 0.174D-02
 Coeff-Com:  0.340D-02-0.985D-03-0.183D-01-0.246D-01 0.155D-01 0.484D-01
 Coeff-Com:  0.683D-01-0.963D-01-0.489D+00-0.594D+00 0.209D+01
 Coeff:      0.763D-04-0.925D-04-0.161D-03 0.170D-05-0.170D-03 0.174D-02
 Coeff:      0.340D-02-0.985D-03-0.183D-01-0.246D-01 0.155D-01 0.484D-01
 Coeff:      0.683D-01-0.963D-01-0.489D+00-0.594D+00 0.209D+01
 Gap=     0.033 Goal=   None    Shift=    0.000
 Gap=     0.321 Goal=   None    Shift=    0.000
 RMSDP=3.11D-05 MaxDP=3.28D-03 DE=-5.38D-07 OVMax= 2.19D-03

 Cycle  18  Pass 1  IDiag  1:
 RMSU=  6.79D-06    CP:  9.63D-01  2.29D-01  5.48D-01 -1.03D-02  4.69D-01
                    CP:  1.18D+00  1.15D+00  2.50D+00  3.00D+00  3.00D+00
                    CP:  3.00D+00  3.00D+00  2.18D+00  2.99D+00  3.00D+00
                    CP:  3.00D+00  3.00D+00
 E= -1306.69863570077     Delta-E=       -0.000000494225 Rises=F Damp=F
 DIIS: error= 3.63D-06 at cycle  18 NSaved=  18.
 NSaved=18 IEnMin=18 EnMin= -1306.69863570077     IErMin=18 ErrMin= 3.63D-06
 ErrMax= 3.63D-06  0.00D+00 EMaxC= 1.00D-01 BMatC= 2.52D-08 BMatP= 8.99D-07
 IDIUse=1 WtCom= 1.00D+00 WtEn= 0.00D+00
 Coeff-Com: -0.637D-04 0.920D-04-0.420D-04-0.150D-04 0.241D-03 0.210D-03
 Coeff-Com:  0.140D-02-0.999D-03-0.192D-01-0.214D-01 0.339D-01 0.456D-01
 Coeff-Com:  0.363D-01-0.463D-01-0.301D+00-0.612D+00 0.834D+00 0.105D+01
 Coeff:     -0.637D-04 0.920D-04-0.420D-04-0.150D-04 0.241D-03 0.210D-03
 Coeff:      0.140D-02-0.999D-03-0.192D-01-0.214D-01 0.339D-01 0.456D-01
 Coeff:      0.363D-01-0.463D-01-0.301D+00-0.612D+00 0.834D+00 0.105D+01
 Gap=     0.033 Goal=   None    Shift=    0.000
 Gap=     0.321 Goal=   None    Shift=    0.000
 RMSDP=1.75D-05 MaxDP=1.80D-03 DE=-4.94D-07 OVMax= 1.40D-03

 Cycle  19  Pass 1  IDiag  1:
 RMSU=  9.48D-06    CP:  9.63D-01  2.29D-01  5.48D-01 -1.03D-02  4.70D-01
                    CP:  1.18D+00  1.14D+00  2.51D+00  3.00D+00  3.00D+00
                    CP:  3.00D+00  3.00D+00  2.21D+00  3.00D+00  3.00D+00
                    CP:  3.00D+00  3.00D+00  2.50D+00
 E= -1306.69863582012     Delta-E=       -0.000000119356 Rises=F Damp=F
 DIIS: error= 7.00D-06 at cycle  19 NSaved=  19.
 NSaved=19 IEnMin=19 EnMin= -1306.69863582012     IErMin=18 ErrMin= 3.63D-06
 ErrMax= 7.00D-06  0.00D+00 EMaxC= 1.00D-01 BMatC= 1.01D-07 BMatP= 2.52D-08
 IDIUse=1 WtCom= 1.00D+00 WtEn= 0.00D+00
 Coeff-Com: -0.630D-04 0.727D-04 0.692D-04-0.365D-05 0.218D-03-0.925D-03
 Coeff-Com: -0.702D-03 0.148D-03-0.572D-02-0.318D-02 0.215D-01 0.616D-02
 Coeff-Com: -0.466D-01-0.142D-01 0.206D+00 0.416D+00-0.959D+00-0.270D+00
 Coeff-Com:  0.165D+01
 Coeff:     -0.630D-04 0.727D-04 0.692D-04-0.365D-05 0.218D-03-0.925D-03
 Coeff:     -0.702D-03 0.148D-03-0.572D-02-0.318D-02 0.215D-01 0.616D-02
 Coeff:     -0.466D-01-0.142D-01 0.206D+00 0.416D+00-0.959D+00-0.270D+00
 Coeff:      0.165D+01
 Gap=     0.033 Goal=   None    Shift=    0.000
 Gap=     0.321 Goal=   None    Shift=    0.000
 RMSDP=1.25D-05 MaxDP=7.20D-04 DE=-1.19D-07 OVMax= 1.38D-03

 Cycle  20  Pass 1  IDiag  1:
 RMSU=  7.38D-06    CP:  9.63D-01  2.29D-01  5.48D-01 -1.02D-02  4.70D-01
                    CP:  1.18D+00  1.14D+00  2.51D+00  3.00D+00  3.00D+00
                    CP:  3.00D+00  3.00D+00  2.22D+00  3.00D+00  3.00D+00
                    CP:  3.00D+00  3.00D+00  3.00D+00  1.60D+00
 E= -1306.69863590997     Delta-E=       -0.000000089845 Rises=F Damp=F
 DIIS: error= 6.57D-06 at cycle  20 NSaved=  20.
 NSaved=20 IEnMin=20 EnMin= -1306.69863590997     IErMin=18 ErrMin= 3.63D-06
 ErrMax= 6.57D-06  0.00D+00 EMaxC= 1.00D-01 BMatC= 8.77D-08 BMatP= 2.52D-08
 IDIUse=1 WtCom= 1.00D+00 WtEn= 0.00D+00
 Coeff-Com: -0.342D-04 0.388D-04 0.503D-04 0.861D-06 0.935D-04-0.689D-03
 Coeff-Com: -0.396D-03 0.845D-03 0.125D-02 0.161D-02 0.450D-02-0.609D-02
 Coeff-Com: -0.373D-01-0.351D-01 0.188D+00 0.547D+00-0.641D+00-0.904D+00
 Coeff-Com:  0.531D+00 0.135D+01
 Coeff:     -0.342D-04 0.388D-04 0.503D-04 0.861D-06 0.935D-04-0.689D-03
 Coeff:     -0.396D-03 0.845D-03 0.125D-02 0.161D-02 0.450D-02-0.609D-02
 Coeff:     -0.373D-01-0.351D-01 0.188D+00 0.547D+00-0.641D+00-0.904D+00
 Coeff:      0.531D+00 0.135D+01
 Gap=     0.033 Goal=   None    Shift=    0.000
 Gap=     0.321 Goal=   None    Shift=    0.000
 RMSDP=1.08D-05 MaxDP=4.95D-04 DE=-8.98D-08 OVMax= 1.28D-03

 Cycle  21  Pass 1  IDiag  1:
 Restarting incremental Fock formation.
 E= -1306.69863596570     Delta-E=       -0.000000055730 Rises=F Damp=F
 DIIS: error= 3.90D-06 at cycle  21 NSaved=  20.
 NSaved=20 IEnMin=20 EnMin= -1306.69863596570     IErMin=17 ErrMin= 3.63D-06
 ErrMax= 3.90D-06  0.00D+00 EMaxC= 1.00D-01 BMatC= 2.86D-08 BMatP= 2.52D-08
 IDIUse=1 WtCom= 1.00D+00 WtEn= 0.00D+00
 Coeff-Com: -0.298D-05 0.253D-05 0.890D-05 0.578D-05-0.198D-03 0.122D-03
 Coeff-Com:  0.633D-03 0.166D-02 0.691D-03-0.132D-02-0.370D-02-0.665D-02
 Coeff-Com: -0.271D-01 0.265D-01 0.198D+00 0.383D-01-0.544D+00-0.416D+00
 Coeff-Com:  0.945D+00 0.788D+00
 Coeff:     -0.298D-05 0.253D-05 0.890D-05 0.578D-05-0.198D-03 0.122D-03
 Coeff:      0.633D-03 0.166D-02 0.691D-03-0.132D-02-0.370D-02-0.665D-02
 Coeff:     -0.271D-01 0.265D-01 0.198D+00 0.383D-01-0.544D+00-0.416D+00
 Coeff:      0.945D+00 0.788D+00
 Gap=     0.033 Goal=   None    Shift=    0.000
 Gap=     0.321 Goal=   None    Shift=    0.000
 RMSDP=5.62D-06 MaxDP=2.81D-04 DE=-5.57D-08 OVMax= 6.94D-04

 Cycle  22  Pass 1  IDiag  1:
 RMSU=  5.62D-06    CP:  1.00D+00
 E= -1306.69863597967     Delta-E=       -0.000000013973 Rises=F Damp=F
 DIIS: error= 9.36D-07 at cycle  22 NSaved=  20.
 NSaved=20 IEnMin=20 EnMin= -1306.69863597967     IErMin=20 ErrMin= 9.36D-07
 ErrMax= 9.36D-07  0.00D+00 EMaxC= 1.00D-01 BMatC= 1.45D-09 BMatP= 2.52D-08
 IDIUse=1 WtCom= 1.00D+00 WtEn= 0.00D+00
 Coeff-Com: -0.976D-06 0.863D-06 0.895D-05-0.511D-04 0.124D-03 0.296D-03
 Coeff-Com:  0.311D-03-0.106D-02-0.127D-02 0.136D-02 0.702D-02-0.642D-02
 Coeff-Com: -0.349D-01-0.473D-01 0.159D+00-0.110D-01-0.259D+00 0.804D-01
 Coeff-Com:  0.266D+00 0.847D+00
 Coeff:     -0.976D-06 0.863D-06 0.895D-05-0.511D-04 0.124D-03 0.296D-03
 Coeff:      0.311D-03-0.106D-02-0.127D-02 0.136D-02 0.702D-02-0.642D-02
 Coeff:     -0.349D-01-0.473D-01 0.159D+00-0.110D-01-0.259D+00 0.804D-01
 Coeff:      0.266D+00 0.847D+00
 Gap=     0.033 Goal=   None    Shift=    0.000
 Gap=     0.321 Goal=   None    Shift=    0.000
 RMSDP=1.04D-06 MaxDP=5.31D-05 DE=-1.40D-08 OVMax= 1.51D-04

 Cycle  23  Pass 1  IDiag  1:
 RMSU=  3.23D-07    CP:  1.00D+00  1.18D+00
 E= -1306.69863598037     Delta-E=       -0.000000000696 Rises=F Damp=F
 DIIS: error= 5.11D-07 at cycle  23 NSaved=  20.
 NSaved=20 IEnMin=20 EnMin= -1306.69863598037     IErMin=20 ErrMin= 5.11D-07
 ErrMax= 5.11D-07  0.00D+00 EMaxC= 1.00D-01 BMatC= 3.19D-10 BMatP= 1.45D-09
 IDIUse=1 WtCom= 1.00D+00 WtEn= 0.00D+00
 Coeff-Com:  0.158D-05 0.421D-05-0.534D-05-0.644D-04-0.453D-04 0.935D-04
 Coeff-Com:  0.453D-04-0.506D-03 0.778D-03 0.297D-02 0.562D-02-0.124D-01
 Coeff-Com: -0.565D-01 0.336D-01 0.126D+00 0.218D-01-0.179D+00-0.123D+00
 Coeff-Com:  0.115D+00 0.107D+01
 Coeff:      0.158D-05 0.421D-05-0.534D-05-0.644D-04-0.453D-04 0.935D-04
 Coeff:      0.453D-04-0.506D-03 0.778D-03 0.297D-02 0.562D-02-0.124D-01
 Coeff:     -0.565D-01 0.336D-01 0.126D+00 0.218D-01-0.179D+00-0.123D+00
 Coeff:      0.115D+00 0.107D+01
 Gap=     0.033 Goal=   None    Shift=    0.000
 Gap=     0.321 Goal=   None    Shift=    0.000
 RMSDP=8.15D-07 MaxDP=8.44D-05 DE=-6.96D-10 OVMax= 5.54D-05

 Cycle  24  Pass 1  IDiag  1:
 RMSU=  5.72D-07    CP:  1.00D+00  1.12D+00  2.50D+00
 E= -1306.69863598061     Delta-E=       -0.000000000241 Rises=F Damp=F
 DIIS: error= 1.15D-07 at cycle  24 NSaved=  20.
 NSaved=20 IEnMin=20 EnMin= -1306.69863598061     IErMin=20 ErrMin= 1.15D-07
 ErrMax= 1.15D-07  0.00D+00 EMaxC= 1.00D-01 BMatC= 2.21D-11 BMatP= 3.19D-10
 IDIUse=1 WtCom= 1.00D+00 WtEn= 0.00D+00
 Coeff-Com: -0.107D-05 0.986D-05-0.116D-04-0.900D-04-0.153D-03-0.351D-04
 Coeff-Com:  0.120D-03 0.268D-03-0.915D-03-0.915D-03 0.774D-02 0.133D-01
 Coeff-Com: -0.376D-01-0.656D-02 0.436D-01 0.153D-01-0.327D-01-0.221D+00
 Coeff-Com: -0.305D+00 0.152D+01
 Coeff:     -0.107D-05 0.986D-05-0.116D-04-0.900D-04-0.153D-03-0.351D-04
 Coeff:      0.120D-03 0.268D-03-0.915D-03-0.915D-03 0.774D-02 0.133D-01
 Coeff:     -0.376D-01-0.656D-02 0.436D-01 0.153D-01-0.327D-01-0.221D+00
 Coeff:     -0.305D+00 0.152D+01
 Gap=     0.033 Goal=   None    Shift=    0.000
 Gap=     0.321 Goal=   None    Shift=    0.000
 RMSDP=3.57D-07 MaxDP=1.92D-05 DE=-2.41D-10 OVMax= 3.39D-05

 Cycle  25  Pass 1  IDiag  1:
 RMSU=  1.61D-07    CP:  1.00D+00  1.07D+00  3.00D+00  9.71D-01
 E= -1306.69863598067     Delta-E=       -0.000000000061 Rises=F Damp=F
 DIIS: error= 6.31D-08 at cycle  25 NSaved=  20.
 NSaved=20 IEnMin=20 EnMin= -1306.69863598067     IErMin=20 ErrMin= 6.31D-08
 ErrMax= 6.31D-08  0.00D+00 EMaxC= 1.00D-01 BMatC= 8.93D-12 BMatP= 2.21D-11
 IDIUse=1 WtCom= 1.00D+00 WtEn= 0.00D+00
 Coeff-Com:  0.482D-05 0.323D-04-0.190D-04-0.167D-03-0.164D-03 0.283D-03
 Coeff-Com:  0.954D-04-0.121D-02-0.421D-02 0.738D-02 0.274D-01-0.262D-01
 Coeff-Com: -0.513D-01 0.881D-03 0.831D-01 0.487D-01-0.108D+00-0.601D+00
 Coeff-Com:  0.591D+00 0.103D+01
 Coeff:      0.482D-05 0.323D-04-0.190D-04-0.167D-03-0.164D-03 0.283D-03
 Coeff:      0.954D-04-0.121D-02-0.421D-02 0.738D-02 0.274D-01-0.262D-01
 Coeff:     -0.513D-01 0.881D-03 0.831D-01 0.487D-01-0.108D+00-0.601D+00
 Coeff:      0.591D+00 0.103D+01
 Gap=     0.033 Goal=   None    Shift=    0.000
 Gap=     0.321 Goal=   None    Shift=    0.000
 RMSDP=2.67D-07 MaxDP=1.48D-05 DE=-6.14D-11 OVMax= 2.31D-05

 Cycle  26  Pass 1  IDiag  1:
 RMSU=  3.95D-08    CP:  1.00D+00  1.04D+00  3.00D+00  8.07D-01  1.87D+00
 E= -1306.69863598071     Delta-E=       -0.000000000041 Rises=F Damp=F
 DIIS: error= 6.33D-08 at cycle  26 NSaved=  20.
 NSaved=20 IEnMin=20 EnMin= -1306.69863598071     IErMin=19 ErrMin= 6.31D-08
 ErrMax= 6.33D-08  0.00D+00 EMaxC= 1.00D-01 BMatC= 6.87D-12 BMatP= 8.93D-12
 IDIUse=1 WtCom= 1.00D+00 WtEn= 0.00D+00
 Coeff-Com:  0.112D-04 0.711D-05 0.251D-04 0.120D-03 0.795D-04-0.323D-03
 Coeff-Com: -0.877D-03-0.175D-02 0.406D-02 0.146D-01-0.911D-02-0.290D-01
 Coeff-Com: -0.916D-02 0.437D-01 0.356D-01-0.731D-02-0.269D+00-0.178D-01
 Coeff-Com:  0.562D+00 0.684D+00
 Coeff:      0.112D-04 0.711D-05 0.251D-04 0.120D-03 0.795D-04-0.323D-03
 Coeff:     -0.877D-03-0.175D-02 0.406D-02 0.146D-01-0.911D-02-0.290D-01
 Coeff:     -0.916D-02 0.437D-01 0.356D-01-0.731D-02-0.269D+00-0.178D-01
 Coeff:      0.562D+00 0.684D+00
 Gap=     0.033 Goal=   None    Shift=    0.000
 Gap=     0.321 Goal=   None    Shift=    0.000
 RMSDP=1.20D-07 MaxDP=8.74D-06 DE=-4.09D-11 OVMax= 9.04D-06

 Cycle  27  Pass 1  IDiag  1:
 RMSU=  1.61D-08    CP:  1.00D+00  1.02D+00  3.00D+00  9.21D-01  2.04D+00
                    CP:  2.16D+00
 E= -1306.69863598072     Delta-E=       -0.000000000012 Rises=F Damp=F
 DIIS: error= 7.12D-09 at cycle  27 NSaved=  20.
 NSaved=20 IEnMin=20 EnMin= -1306.69863598072     IErMin=20 ErrMin= 7.12D-09
 ErrMax= 7.12D-09  0.00D+00 EMaxC= 1.00D-01 BMatC= 2.10D-13 BMatP= 6.87D-12
 IDIUse=1 WtCom= 1.00D+00 WtEn= 0.00D+00
 Coeff-Com:  0.857D-05 0.246D-04 0.272D-04-0.352D-04-0.694D-04 0.251D-04
 Coeff-Com:  0.240D-03 0.204D-04-0.472D-03 0.163D-02 0.232D-03-0.167D-02
 Coeff-Com: -0.230D-02 0.136D-02 0.143D-01 0.202D-01-0.101D+00-0.162D-01
 Coeff-Com:  0.214D+00 0.869D+00
 Coeff:      0.857D-05 0.246D-04 0.272D-04-0.352D-04-0.694D-04 0.251D-04
 Coeff:      0.240D-03 0.204D-04-0.472D-03 0.163D-02 0.232D-03-0.167D-02
 Coeff:     -0.230D-02 0.136D-02 0.143D-01 0.202D-01-0.101D+00-0.162D-01
 Coeff:      0.214D+00 0.869D+00
 Gap=     0.033 Goal=   None    Shift=    0.000
 Gap=     0.321 Goal=   None    Shift=    0.000
 RMSDP=4.73D-08 MaxDP=4.88D-06 DE=-1.23D-11 OVMax= 3.01D-06

 Cycle  28  Pass 1  IDiag  1:
 RMSU=  8.23D-09    CP:  1.00D+00  1.02D+00  3.00D+00  9.70D-01  2.05D+00
                    CP:  2.73D+00  1.57D+00
 E= -1306.69863598072     Delta-E=        0.000000000002 Rises=F Damp=F
 DIIS: error= 5.23D-09 at cycle  28 NSaved=  20.
 NSaved=20 IEnMin=19 EnMin= -1306.69863598072     IErMin=20 ErrMin= 5.23D-09
 ErrMax= 5.23D-09  0.00D+00 EMaxC= 1.00D-01 BMatC= 6.43D-14 BMatP= 2.10D-13
 IDIUse=1 WtCom= 1.00D+00 WtEn= 0.00D+00
 Coeff-Com: -0.264D-05-0.984D-05-0.198D-04 0.239D-04 0.140D-03 0.271D-03
 Coeff-Com: -0.578D-03-0.197D-02 0.187D-02 0.308D-02 0.142D-03-0.491D-02
 Coeff-Com: -0.265D-02 0.481D-02 0.281D-01-0.286D-01-0.494D-01 0.132D-01
 Coeff-Com:  0.263D+00 0.773D+00
 Coeff:     -0.264D-05-0.984D-05-0.198D-04 0.239D-04 0.140D-03 0.271D-03
 Coeff:     -0.578D-03-0.197D-02 0.187D-02 0.308D-02 0.142D-03-0.491D-02
 Coeff:     -0.265D-02 0.481D-02 0.281D-01-0.286D-01-0.494D-01 0.132D-01
 Coeff:      0.263D+00 0.773D+00
 Gap=     0.033 Goal=   None    Shift=    0.000
 Gap=     0.321 Goal=   None    Shift=    0.000
 RMSDP=4.01D-09 MaxDP=2.31D-07 DE= 2.27D-12 OVMax= 3.69D-07

 SCF Done:  E(UHSEH1PBE) =  -1306.69863598     A.U. after   28 cycles
            NFock= 28  Conv=0.40D-08     -V/T= 2.0001
 <Sx>= 0.0000 <Sy>= 0.0000 <Sz>= 1.0000 <S**2>= 2.0030 S= 1.0010
 <L.S>=  0.00000000000    
 KE= 1.306600766376D+03 PE=-4.469328444495D+03 EE= 1.154995110774D+03
 Annihilation of the first spin contaminant:
 S**2 before annihilation     2.0030,   after     2.0000
 Leave Link  502 at Thu May 23 15:31:16 2024, MaxMem= 26843545600 cpu:           17411.0 elap:             145.5
 (Enter /gpfs/fs1/soft/improv/software/custom-built/gaussian/g16/l508.exe)
 QCSCF skips out because SCF is already converged.
 Leave Link  508 at Thu May 23 15:31:16 2024, MaxMem= 26843545600 cpu:               0.2 elap:               0.0
 (Enter /gpfs/fs1/soft/improv/software/custom-built/gaussian/g16/l801.exe)
 DoSCS=F DFT=T ScalE2(SS,OS)=  1.000000  1.000000
 Range of M.O.s used for correlation:     1   317
 NBasis=   317 NAE=    41 NBE=    39 NFC=     0 NFV=     0
 NROrb=    317 NOA=    41 NOB=    39 NVA=   276 NVB=   278

 **** Warning!!: The largest alpha MO coefficient is  0.78981883D+02


 **** Warning!!: The smallest alpha delta epsilon is  0.33313205D-01


 **** Warning!!: The largest beta MO coefficient is  0.78976792D+02

 Leave Link  801 at Thu May 23 15:31:16 2024, MaxMem= 26843545600 cpu:               0.4 elap:               0.0
 (Enter /gpfs/fs1/soft/improv/software/custom-built/gaussian/g16/l1101.exe)
 Using compressed storage, NAtomX=    19.
 Will process     20 centers per pass.
 Leave Link 1101 at Thu May 23 15:31:16 2024, MaxMem= 26843545600 cpu:              51.3 elap:               0.5
 (Enter /gpfs/fs1/soft/improv/software/custom-built/gaussian/g16/l1102.exe)
 Symmetrizing basis deriv contribution to polar:
 IMax=3 JMax=2 DiffMx= 0.00D+00
 Leave Link 1102 at Thu May 23 15:31:16 2024, MaxMem= 26843545600 cpu:               0.9 elap:               0.0
 (Enter /gpfs/fs1/soft/improv/software/custom-built/gaussian/g16/l1110.exe)
 Forming Gx(P) for the SCF density, NAtomX=    19.
 Integral derivatives from FoFJK, PRISM(SPDF).
 Do as many integral derivatives as possible in FoFJK.
 G2DrvN: MDV=   26843543431.
 G2DrvN: will do    20 centers at a time, making    1 passes.
 Calling FoFCou, ICntrl=  3107 FMM=F I1Cent=   0 AccDes= 0.00D+00.
 FoFJK:  IHMeth= 1 ICntrl=    3107 DoSepK=T KAlg= 0 I1Cent=           0 FoldK=F
 IRaf=         1 NMat=       1 IRICut=       1 DoRegI=T DoRafI=F ISym2E= 0 IDoP0=0 IntGTp=1.
 FoFCou: FMM=F IPFlag=           0 FMFlag=      100000 FMFlg1=           0
         NFxFlg=           0 DoJE=F BraDBF=F KetDBF=F FulRan=T
         wScrn=  0.000000 ICntrl=      3507 IOpCl=  0 I1Cent=           0 NGrid=           0
         NMat0=    1 NMatS0=      1 NMatT0=    0 NMatD0=    1 NMtDS0=    0 NMtDT0=    0
 Symmetry not used in FoFCou.
 End of G2Drv F.D. properties file   721 does not exist.
 End of G2Drv F.D. properties file   722 does not exist.
 End of G2Drv F.D. properties file   788 does not exist.
 Leave Link 1110 at Thu May 23 15:31:36 2024, MaxMem= 26843545600 cpu:            2443.2 elap:              19.5
 (Enter /gpfs/fs1/soft/improv/software/custom-built/gaussian/g16/l1002.exe)
 Minotr:  UHF open shell wavefunction.
          IDoAtm=1111111111111111111
          Direct CPHF calculation.
          Differentiating once with respect to electric field.
                with respect to dipole field.
          Differentiating once with respect to nuclear coordinates.
          Requested convergence is 1.0D-08 RMS, and 1.0D-07 maximum.
          Secondary convergence is 1.0D-12 RMS, and 1.0D-12 maximum.
          NewPWx=T KeepS1=F KeepF1=F KeepIn=T MapXYZ=F SortEE=F KeepMc=T.
         6034 words used for storage of precomputed grid.
 Two-electron integrals replicated using symmetry.
          MDV=   26843545600 using IRadAn=       1.
          Solving linear equations simultaneously, MaxMat=     384.
 FoF2E skips out because all densities are zero.
 CalDSu exits because no D1Ps are significant.
 FoFJK:  IHMeth= 1 ICntrl=       0 DoSepK=T KAlg= 0 I1Cent=           0 FoldK=F
 IRaf=         1 NMat=      57 IRICut=       1 DoRegI=T DoRafI=F ISym2E= 2 IDoP0=3 IntGTp=2.
 FoFCou: FMM=F IPFlag=           0 FMFlag=      100000 FMFlg1=           0
         NFxFlg=           0 DoJE=F BraDBF=F KetDBF=F FulRan=T
         wScrn=  0.000000 ICntrl=       500 IOpCl=  0 I1Cent=           0 NGrid=           0
         NMat0=   57 NMatS0=     57 NMatT0=    0 NMatD0=   57 NMtDS0=    0 NMtDT0=    0
 Integrals replicated using symmetry in FoFCou.
          There are    60 degrees of freedom in the 1st order CPHF.  IDoFFX=6 NUNeed=     3.
     57 vectors produced by pass  0 Test12= 3.69D-14 1.67D-09 XBig12= 9.14D+02 2.10D+01.
 AX will form    57 AO Fock derivatives at one time.
     57 vectors produced by pass  1 Test12= 3.69D-14 1.67D-09 XBig12= 2.96D+02 3.82D+00.
     57 vectors produced by pass  2 Test12= 3.69D-14 1.67D-09 XBig12= 6.74D+00 2.85D-01.
     57 vectors produced by pass  3 Test12= 3.69D-14 1.67D-09 XBig12= 5.38D-02 2.41D-02.
     57 vectors produced by pass  4 Test12= 3.69D-14 1.67D-09 XBig12= 2.72D-04 1.28D-03.
     57 vectors produced by pass  5 Test12= 3.69D-14 1.67D-09 XBig12= 1.56D-06 9.46D-05.
     41 vectors produced by pass  6 Test12= 3.69D-14 1.67D-09 XBig12= 5.50D-09 4.86D-06.
      9 vectors produced by pass  7 Test12= 3.69D-14 1.67D-09 XBig12= 1.86D-11 2.94D-07.
      3 vectors produced by pass  8 Test12= 3.69D-14 1.67D-09 XBig12= 7.04D-14 2.01D-08.
 InvSVY:  IOpt=1 It=  1 EMax= 5.51D-14
 Solved reduced A of dimension   395 with    60 vectors.
 FullF1:  Do perturbations      1 to       3.
 Isotropic polarizability for W=    0.000000      106.98 Bohr**3.
 End of Minotr F.D. properties file   721 does not exist.
 End of Minotr F.D. properties file   722 does not exist.
 End of Minotr F.D. properties file   788 does not exist.
 Leave Link 1002 at Thu May 23 15:32:51 2024, MaxMem= 26843545600 cpu:            9013.2 elap:              75.2
 (Enter /gpfs/fs1/soft/improv/software/custom-built/gaussian/g16/l601.exe)
 Copying SCF densities to generalized density rwf, IOpCl= 1 IROHF=0.

 **********************************************************************

            Population analysis using the SCF Density.

 **********************************************************************

 Orbital symmetries:
 Alpha Orbitals:
       Occupied  (A) (A) (A) (A) (A) (A) (A) (A) (A) (A) (A) (A)
                 (A) (A) (A) (A) (A) (A) (A) (A) (A) (A) (A) (A)
                 (A) (A) (A) (A) (A) (A) (A) (A) (A) (A) (A) (A)
                 (A) (A) (A) (A) (A)
       Virtual   (A) (A) (A) (A) (A) (A) (A) (A) (A) (A) (A) (A)
                 (A) (A) (A) (A) (A) (A) (A) (A) (A) (A) (A) (A)
                 (A) (A) (A) (A) (A) (A) (A) (A) (A) (A) (A) (A)
                 (A) (A) (A) (A) (A) (A) (A) (A) (A) (A) (A) (A)
                 (A) (A) (A) (A) (A) (A) (A) (A) (A) (A) (A) (A)
                 (A) (A) (A) (A) (A) (A) (A) (A) (A) (A) (A) (A)
                 (A) (A) (A) (A) (A) (A) (A) (A) (A) (A) (A) (A)
                 (A) (A) (A) (A) (A) (A) (A) (A) (A) (A) (A) (A)
                 (A) (A) (A) (A) (A) (A) (A) (A) (A) (A) (A) (A)
                 (A) (A) (A) (A) (A) (A) (A) (A) (A) (A) (A) (A)
                 (A) (A) (A) (A) (A) (A) (A) (A) (A) (A) (A) (A)
                 (A) (A) (A) (A) (A) (A) (A) (A) (A) (A) (A) (A)
                 (A) (A) (A) (A) (A) (A) (A) (A) (A) (A) (A) (A)
                 (A) (A) (A) (A) (A) (A) (A) (A) (A) (A) (A) (A)
                 (A) (A) (A) (A) (A) (A) (A) (A) (A) (A) (A) (A)
                 (A) (A) (A) (A) (A) (A) (A) (A) (A) (A) (A) (A)
                 (A) (A) (A) (A) (A) (A) (A) (A) (A) (A) (A) (A)
                 (A) (A) (A) (A) (A) (A) (A) (A) (A) (A) (A) (A)
                 (A) (A) (A) (A) (A) (A) (A) (A) (A) (A) (A) (A)
                 (A) (A) (A) (A) (A) (A) (A) (A) (A) (A) (A) (A)
                 (A) (A) (A) (A) (A) (A) (A) (A) (A) (A) (A) (A)
                 (A) (A) (A) (A) (A) (A) (A) (A) (A) (A) (A) (A)
                 (A) (A) (A) (A) (A) (A) (A) (A) (A) (A) (A) (A)
 Beta  Orbitals:
       Occupied  (A) (A) (A) (A) (A) (A) (A) (A) (A) (A) (A) (A)
                 (A) (A) (A) (A) (A) (A) (A) (A) (A) (A) (A) (A)
                 (A) (A) (A) (A) (A) (A) (A) (A) (A) (A) (A) (A)
                 (A) (A) (A)
       Virtual   (A) (A) (A) (A) (A) (A) (A) (A) (A) (A) (A) (A)
                 (A) (A) (A) (A) (A) (A) (A) (A) (A) (A) (A) (A)
                 (A) (A) (A) (A) (A) (A) (A) (A) (A) (A) (A) (A)
                 (A) (A) (A) (A) (A) (A) (A) (A) (A) (A) (A) (A)
                 (A) (A) (A) (A) (A) (A) (A) (A) (A) (A) (A) (A)
                 (A) (A) (A) (A) (A) (A) (A) (A) (A) (A) (A) (A)
                 (A) (A) (A) (A) (A) (A) (A) (A) (A) (A) (A) (A)
                 (A) (A) (A) (A) (A) (A) (A) (A) (A) (A) (A) (A)
                 (A) (A) (A) (A) (A) (A) (A) (A) (A) (A) (A) (A)
                 (A) (A) (A) (A) (A) (A) (A) (A) (A) (A) (A) (A)
                 (A) (A) (A) (A) (A) (A) (A) (A) (A) (A) (A) (A)
                 (A) (A) (A) (A) (A) (A) (A) (A) (A) (A) (A) (A)
                 (A) (A) (A) (A) (A) (A) (A) (A) (A) (A) (A) (A)
                 (A) (A) (A) (A) (A) (A) (A) (A) (A) (A) (A) (A)
                 (A) (A) (A) (A) (A) (A) (A) (A) (A) (A) (A) (A)
                 (A) (A) (A) (A) (A) (A) (A) (A) (A) (A) (A) (A)
                 (A) (A) (A) (A) (A) (A) (A) (A) (A) (A) (A) (A)
                 (A) (A) (A) (A) (A) (A) (A) (A) (A) (A) (A) (A)
                 (A) (A) (A) (A) (A) (A) (A) (A) (A) (A) (A) (A)
                 (A) (A) (A) (A) (A) (A) (A) (A) (A) (A) (A) (A)
                 (A) (A) (A) (A) (A) (A) (A) (A) (A) (A) (A) (A)
                 (A) (A) (A) (A) (A) (A) (A) (A) (A) (A) (A) (A)
                 (A) (A) (A) (A) (A) (A) (A) (A) (A) (A) (A) (A)
                 (A) (A)
 The electronic state is 3-A.
 Alpha  occ. eigenvalues -- -179.25211 -20.16288 -19.62026 -19.61496 -19.60779
 Alpha  occ. eigenvalues --  -19.60521 -19.59398 -19.59198 -16.84066 -16.83780
 Alpha  occ. eigenvalues --  -16.83322  -2.65570  -1.78456  -1.78245  -1.77920
 Alpha  occ. eigenvalues --   -1.46345  -1.44556  -1.43796  -1.42513  -1.41561
 Alpha  occ. eigenvalues --   -1.41413  -0.98898  -0.97527  -0.95306  -0.94981
 Alpha  occ. eigenvalues --   -0.93960  -0.92544  -0.85522  -0.84912  -0.84046
 Alpha  occ. eigenvalues --   -0.81916  -0.80935  -0.78399  -0.77110  -0.74685
 Alpha  occ. eigenvalues --   -0.74329  -0.72862  -0.71311  -0.69931  -0.44457
 Alpha  occ. eigenvalues --   -0.41530
 Alpha virt. eigenvalues --   -0.38199  -0.33363  -0.32427  -0.30648  -0.29925
 Alpha virt. eigenvalues --   -0.27020  -0.26626  -0.23991  -0.23711  -0.20871
 Alpha virt. eigenvalues --   -0.19762  -0.19089  -0.18829  -0.17604  -0.16423
 Alpha virt. eigenvalues --   -0.16254  -0.16061  -0.14935  -0.14400  -0.13913
 Alpha virt. eigenvalues --   -0.13142  -0.12272  -0.11768  -0.09996  -0.09812
 Alpha virt. eigenvalues --   -0.09227  -0.08511  -0.08045  -0.07296  -0.05742
 Alpha virt. eigenvalues --   -0.05024  -0.04451  -0.03282  -0.03035  -0.02249
 Alpha virt. eigenvalues --   -0.01550  -0.01400   0.00460   0.01121   0.02598
 Alpha virt. eigenvalues --    0.03592   0.04128   0.04936   0.06674   0.07261
 Alpha virt. eigenvalues --    0.07556   0.09632   0.10333   0.11646   0.12183
 Alpha virt. eigenvalues --    0.14961   0.16789   0.17831   0.20413   0.23078
 Alpha virt. eigenvalues --    0.24900   0.39838   0.40576   0.40855   0.42218
 Alpha virt. eigenvalues --    0.44414   0.44981   0.45838   0.47227   0.49916
 Alpha virt. eigenvalues --    0.51938   0.52655   0.53090   0.53167   0.55792
 Alpha virt. eigenvalues --    0.56332   0.56546   0.57376   0.58767   0.59331
 Alpha virt. eigenvalues --    0.62512   0.64361   0.66089   0.66467   0.68432
 Alpha virt. eigenvalues --    0.69975   0.70690   0.71442   0.72580   0.73565
 Alpha virt. eigenvalues --    0.75263   0.76145   0.76659   0.79431   0.80279
 Alpha virt. eigenvalues --    0.82379   0.83408   0.86415   0.88088   0.89081
 Alpha virt. eigenvalues --    0.91628   0.93847   0.96091   0.96656   0.97950
 Alpha virt. eigenvalues --    0.99478   1.00750   1.03223   1.05275   1.07360
 Alpha virt. eigenvalues --    1.08213   1.15272   1.17134   1.19517   1.21240
 Alpha virt. eigenvalues --    1.25232   1.29745   1.31182   1.33825   1.36023
 Alpha virt. eigenvalues --    1.40799   1.41693   1.46466   1.48712   1.52581
 Alpha virt. eigenvalues --    1.53968   1.56282   1.58328   1.59669   1.65380
 Alpha virt. eigenvalues --    1.69114   1.87379   1.88473   1.90226   1.90660
 Alpha virt. eigenvalues --    1.91641   1.93808   1.94551   1.96343   2.01131
 Alpha virt. eigenvalues --    2.03990   2.07121   2.08559   2.10095   2.12753
 Alpha virt. eigenvalues --    2.16002   2.17473   2.20374   2.24858   2.26626
 Alpha virt. eigenvalues --    2.32318   2.38450   2.40062   2.46734   2.48561
 Alpha virt. eigenvalues --    2.50971   2.52899   2.55024   2.55981   2.57774
 Alpha virt. eigenvalues --    2.59546   2.61335   2.62721   2.64398   2.66502
 Alpha virt. eigenvalues --    2.67812   2.68599   2.68658   2.70865   2.73719
 Alpha virt. eigenvalues --    2.80838   2.82201   2.83904   2.85612   2.86320
 Alpha virt. eigenvalues --    2.87904   2.90558   2.94546   2.95659   2.98843
 Alpha virt. eigenvalues --    3.04722   3.07917   3.11357   3.25712   3.26173
 Alpha virt. eigenvalues --    3.26997   3.29846   3.32988   3.71219   3.73364
 Alpha virt. eigenvalues --    3.76179   3.79040   3.81246   3.82946   3.84974
 Alpha virt. eigenvalues --    3.86417   3.86995   3.88080   3.89152   3.92981
 Alpha virt. eigenvalues --    3.95554   3.97927   3.99830   4.06711   4.07331
 Alpha virt. eigenvalues --    4.10238   4.12904   4.18985   4.19679   4.22369
 Alpha virt. eigenvalues --    4.26433   4.29596   4.30582   4.38498   4.39547
 Alpha virt. eigenvalues --    4.40080   4.43945   4.44614   4.53095   4.55006
 Alpha virt. eigenvalues --    4.57039   4.58570   4.60345   4.60897   4.63520
 Alpha virt. eigenvalues --    4.72740   4.83109   4.88635   4.90652   4.94981
 Alpha virt. eigenvalues --    4.95516   4.97296   5.05834   5.08043   5.10655
 Alpha virt. eigenvalues --    5.10983   5.11250   5.12113   5.18326   5.19271
 Alpha virt. eigenvalues --    5.20808   5.26207   5.27261   5.28418   5.30609
 Alpha virt. eigenvalues --    5.32701   5.37429   5.38590   5.42182   5.45109
 Alpha virt. eigenvalues --    5.45362   5.46775   5.48440   5.49770   5.51149
 Alpha virt. eigenvalues --    5.55264   5.56321   5.57653   5.59618   5.60375
 Alpha virt. eigenvalues --    5.62158   5.64242   5.65394   5.68791   5.73710
 Alpha virt. eigenvalues --    6.02082   6.04320   6.08303   7.12085   7.14895
 Alpha virt. eigenvalues --    7.15875   7.27096   7.32780   7.36773  13.38054
 Alpha virt. eigenvalues --   13.40448  13.41453  13.97402  14.01326  14.07185
 Alpha virt. eigenvalues --   28.69243
  Beta  occ. eigenvalues -- -179.25213 -20.14791 -19.62021 -19.61474 -19.60748
  Beta  occ. eigenvalues --  -19.60496 -19.59389 -19.59224 -16.83139 -16.82523
  Beta  occ. eigenvalues --  -16.81633  -2.59968  -1.74050  -1.72616  -1.70810
  Beta  occ. eigenvalues --   -1.46060  -1.44340  -1.43516  -1.41953  -1.41188
  Beta  occ. eigenvalues --   -1.40917  -0.98293  -0.97069  -0.94943  -0.94698
  Beta  occ. eigenvalues --   -0.93678  -0.92312  -0.85128  -0.84509  -0.83668
  Beta  occ. eigenvalues --   -0.81618  -0.80598  -0.78166  -0.76740  -0.74484
  Beta  occ. eigenvalues --   -0.74056  -0.72483  -0.71095  -0.69774
  Beta virt. eigenvalues --   -0.37647  -0.32809  -0.31101  -0.29769  -0.29408
  Beta virt. eigenvalues --   -0.28648  -0.28147  -0.25811  -0.25591  -0.22795
  Beta virt. eigenvalues --   -0.22547  -0.19896  -0.18982  -0.18459  -0.17976
  Beta virt. eigenvalues --   -0.16891  -0.15599  -0.15429  -0.15170  -0.13760
  Beta virt. eigenvalues --   -0.13381  -0.12737  -0.12524  -0.11641  -0.11118
  Beta virt. eigenvalues --   -0.09089  -0.08774  -0.08428  -0.07765  -0.07291
  Beta virt. eigenvalues --   -0.06472  -0.05148  -0.03988  -0.03864  -0.02542
  Beta virt. eigenvalues --   -0.02178  -0.01511  -0.00776  -0.00680   0.01160
  Beta virt. eigenvalues --    0.01753   0.03427   0.04342   0.04726   0.05655
  Beta virt. eigenvalues --    0.07380   0.08080   0.08540   0.10379   0.11081
  Beta virt. eigenvalues --    0.12251   0.12884   0.15877   0.17971   0.18940
  Beta virt. eigenvalues --    0.21359   0.24197   0.25803   0.40652   0.41600
  Beta virt. eigenvalues --    0.42411   0.43397   0.45897   0.46283   0.47331
  Beta virt. eigenvalues --    0.48445   0.50516   0.52524   0.53304   0.53649
  Beta virt. eigenvalues --    0.53796   0.56306   0.56890   0.57342   0.57986
  Beta virt. eigenvalues --    0.59379   0.60058   0.63031   0.64791   0.66577
  Beta virt. eigenvalues --    0.67194   0.68882   0.70432   0.71263   0.72113
  Beta virt. eigenvalues --    0.73008   0.73905   0.75695   0.76579   0.77416
  Beta virt. eigenvalues --    0.79925   0.80859   0.82874   0.83857   0.87159
  Beta virt. eigenvalues --    0.88428   0.89484   0.91919   0.94956   0.96700
  Beta virt. eigenvalues --    0.97350   0.98493   0.99870   1.02616   1.03714
  Beta virt. eigenvalues --    1.05526   1.07939   1.08813   1.16462   1.18081
  Beta virt. eigenvalues --    1.20696   1.22036   1.25979   1.32545   1.33132
  Beta virt. eigenvalues --    1.36205   1.38709   1.42978   1.44088   1.47548
  Beta virt. eigenvalues --    1.49693   1.53502   1.54515   1.57596   1.59348
  Beta virt. eigenvalues --    1.61332   1.66680   1.70124   1.88075   1.89150
  Beta virt. eigenvalues --    1.90675   1.91435   1.92530   1.94325   1.95123
  Beta virt. eigenvalues --    1.97032   2.01818   2.04567   2.07704   2.09406
  Beta virt. eigenvalues --    2.10728   2.13580   2.16902   2.18396   2.21477
  Beta virt. eigenvalues --    2.26044   2.27965   2.34322   2.39508   2.40967
  Beta virt. eigenvalues --    2.47644   2.49619   2.51884   2.53995   2.55980
  Beta virt. eigenvalues --    2.56911   2.58590   2.60299   2.62285   2.63916
  Beta virt. eigenvalues --    2.65215   2.67401   2.68715   2.69296   2.69836
  Beta virt. eigenvalues --    2.71841   2.74507   2.81570   2.82743   2.84632
  Beta virt. eigenvalues --    2.86144   2.87454   2.89218   2.92461   2.95826
  Beta virt. eigenvalues --    2.97195   3.01563   3.06346   3.09402   3.12792
  Beta virt. eigenvalues --    3.27202   3.27824   3.28802   3.31616   3.35198
  Beta virt. eigenvalues --    3.71556   3.73651   3.76332   3.79714   3.81542
  Beta virt. eigenvalues --    3.83463   3.85184   3.86799   3.87413   3.88420
  Beta virt. eigenvalues --    3.89350   3.93330   3.95914   3.98188   3.99963
  Beta virt. eigenvalues --    4.06972   4.07628   4.10481   4.13378   4.19454
  Beta virt. eigenvalues --    4.20244   4.22970   4.30721   4.31763   4.32526
  Beta virt. eigenvalues --    4.39147   4.40708   4.42565   4.44315   4.47234
  Beta virt. eigenvalues --    4.53857   4.55828   4.57767   4.59931   4.60960
  Beta virt. eigenvalues --    4.61654   4.64641   4.75153   4.83314   4.89243
  Beta virt. eigenvalues --    4.91060   4.95468   4.95861   4.97780   5.05972
  Beta virt. eigenvalues --    5.08176   5.10858   5.11093   5.11393   5.12369
  Beta virt. eigenvalues --    5.18715   5.19625   5.21234   5.26709   5.28262
  Beta virt. eigenvalues --    5.28870   5.31530   5.33142   5.37799   5.39164
  Beta virt. eigenvalues --    5.42619   5.45390   5.45627   5.47158   5.48768
  Beta virt. eigenvalues --    5.50372   5.51713   5.55680   5.56624   5.58293
  Beta virt. eigenvalues --    5.60007   5.61025   5.62473   5.64905   5.65851
  Beta virt. eigenvalues --    5.69254   5.74387   6.02213   6.04473   6.08566
  Beta virt. eigenvalues --    7.12389   7.15242   7.16230   7.27288   7.32965
  Beta virt. eigenvalues --    7.37001  13.38280  13.40654  13.41671  13.97515
  Beta virt. eigenvalues --   14.01453  14.07312  28.70648
          Condensed to atoms (all electrons):
               1          2          3          4          5          6
     1  Ti  22.460162  -0.029977  -0.010824   0.139179  -0.014061  -0.337036
     2  O   -0.029977   8.053793   0.301616  -0.047132  -0.003595  -0.009729
     3  H   -0.010824   0.301616   0.290704   0.005435   0.000071  -0.009278
     4  O    0.139179  -0.047132   0.005435   8.120037   0.311358  -0.148774
     5  H   -0.014061  -0.003595   0.000071   0.311358   0.329300  -0.005753
     6  O   -0.337036  -0.009729  -0.009278  -0.148774  -0.005753   8.497132
     7  H    0.030658  -0.002803   0.000232   0.005692   0.001873   0.250057
     8  O   -0.057842   0.038793  -0.000336  -0.068323   0.007825  -0.132269
     9  H   -0.016466  -0.000156  -0.000030   0.001717  -0.000061  -0.002220
    10  O   -0.057014   0.004067   0.021488   0.014648  -0.001412  -0.006060
    11  H    0.015243   0.008038   0.000344  -0.000283   0.000050  -0.004776
    12  O   -0.412834  -0.023272  -0.011562  -0.007177  -0.022013   0.072317
    13  H   -0.009468  -0.005088   0.000379   0.014889   0.000412  -0.000479
    14  H    0.012014   0.004878   0.000034  -0.002894   0.000217  -0.001474
    15  H   -0.010982   0.010654  -0.000167   0.292746  -0.022815  -0.002234
    16  H   -0.034847   0.332504  -0.017906  -0.007236  -0.000059   0.007439
    17  H   -0.027987  -0.001911   0.000394  -0.001008   0.000001   0.007732
    18  H    0.026708   0.000484   0.000252   0.037484   0.006220   0.228474
    19  H    0.023319  -0.003185   0.000068   0.014478   0.009276   0.000048
               7          8          9         10         11         12
     1  Ti   0.030658  -0.057842  -0.016466  -0.057014   0.015243  -0.412834
     2  O   -0.002803   0.038793  -0.000156   0.004067   0.008038  -0.023272
     3  H    0.000232  -0.000336  -0.000030   0.021488   0.000344  -0.011562
     4  O    0.005692  -0.068323   0.001717   0.014648  -0.000283  -0.007177
     5  H    0.001873   0.007825  -0.000061  -0.001412   0.000050  -0.022013
     6  O    0.250057  -0.132269  -0.002220  -0.006060  -0.004776   0.072317
     7  H    0.337425   0.005898  -0.001048  -0.006526   0.000076  -0.006522
     8  O    0.005898   8.174515   0.311486  -0.047048  -0.005025  -0.020299
     9  H   -0.001048   0.311486   0.291634   0.004905   0.001602   0.001213
    10  O   -0.006526  -0.047048   0.004905   8.146243   0.272963  -0.059401
    11  H    0.000076  -0.005025   0.001602   0.272963   0.318952  -0.006631
    12  O   -0.006522  -0.020299   0.001213  -0.059401  -0.006631   8.478824
    13  H    0.000030  -0.003468  -0.000062   0.004774  -0.000223   0.301312
    14  H   -0.000030   0.006801   0.001657  -0.008571   0.007070   0.270241
    15  H   -0.000016   0.001467  -0.000031  -0.001841  -0.000001   0.003257
    16  H   -0.000392  -0.000184   0.000011  -0.003883   0.000057   0.001344
    17  H    0.002616  -0.000697  -0.002083   0.318221  -0.025640  -0.000064
    18  H   -0.013317   0.000093   0.000169  -0.002967   0.000068  -0.006507
    19  H    0.017015   0.257277  -0.021339  -0.011424   0.000588  -0.018542
              13         14         15         16         17         18
     1  Ti  -0.009468   0.012014  -0.010982  -0.034847  -0.027987   0.026708
     2  O   -0.005088   0.004878   0.010654   0.332504  -0.001911   0.000484
     3  H    0.000379   0.000034  -0.000167  -0.017906   0.000394   0.000252
     4  O    0.014889  -0.002894   0.292746  -0.007236  -0.001008   0.037484
     5  H    0.000412   0.000217  -0.022815  -0.000059   0.000001   0.006220
     6  O   -0.000479  -0.001474  -0.002234   0.007439   0.007732   0.228474
     7  H    0.000030  -0.000030  -0.000016  -0.000392   0.002616  -0.013317
     8  O   -0.003468   0.006801   0.001467  -0.000184  -0.000697   0.000093
     9  H   -0.000062   0.001657  -0.000031   0.000011  -0.002083   0.000169
    10  O    0.004774  -0.008571  -0.001841  -0.003883   0.318221  -0.002967
    11  H   -0.000223   0.007070  -0.000001   0.000057  -0.025640   0.000068
    12  O    0.301312   0.270241   0.003257   0.001344  -0.000064  -0.006507
    13  H    0.273712  -0.018975  -0.000473  -0.000095  -0.000012  -0.000020
    14  H   -0.018975   0.325871   0.000026  -0.000011  -0.000275   0.000050
    15  H   -0.000473   0.000026   0.282973   0.001363  -0.000000   0.000210
    16  H   -0.000095  -0.000011   0.001363   0.291712  -0.000113   0.000352
    17  H   -0.000012  -0.000275  -0.000000  -0.000113   0.294505  -0.000238
    18  H   -0.000020   0.000050   0.000210   0.000352  -0.000238   0.326536
    19  H    0.000172   0.000171  -0.000169  -0.000059   0.000621   0.003216
              19
     1  Ti   0.023319
     2  O   -0.003185
     3  H    0.000068
     4  O    0.014478
     5  H    0.009276
     6  O    0.000048
     7  H    0.017015
     8  O    0.257277
     9  H   -0.021339
    10  O   -0.011424
    11  H    0.000588
    12  O   -0.018542
    13  H    0.000172
    14  H    0.000171
    15  H   -0.000169
    16  H   -0.000059
    17  H    0.000621
    18  H    0.003216
    19  H    0.359630
          Atomic-Atomic Spin Densities.
               1          2          3          4          5          6
     1  Ti   3.119638  -0.083207  -0.006043   0.005159  -0.007397  -0.428145
     2  O   -0.083207   0.067868  -0.003603  -0.012238  -0.003598   0.023852
     3  H   -0.006043  -0.003603   0.031470   0.003747   0.000099  -0.009963
     4  O    0.005159  -0.012238   0.003747   0.106700   0.009723  -0.060707
     5  H   -0.007397  -0.003598   0.000099   0.009723   0.058741  -0.005634
     6  O   -0.428145   0.023852  -0.009963  -0.060707  -0.005634   0.432089
     7  H    0.032157  -0.005695   0.000240   0.006919   0.001895  -0.049219
     8  O   -0.104938   0.001422   0.000166  -0.015929   0.006724  -0.015227
     9  H   -0.016769   0.000748  -0.000019  -0.001707  -0.000075  -0.003013
    10  O   -0.186075  -0.028059   0.018751   0.000141  -0.000806   0.048349
    11  H    0.013454   0.006228   0.000509   0.000608   0.000041  -0.006799
    12  O   -0.485199  -0.008478  -0.010663  -0.042028  -0.023030   0.038024
    13  H   -0.001486  -0.002115   0.000347   0.011726   0.000436  -0.000127
    14  H    0.002112   0.003217   0.000040  -0.004542   0.000190  -0.001409
    15  H   -0.011526   0.006929  -0.000173  -0.000983  -0.003653   0.003102
    16  H   -0.030302   0.024632  -0.004444  -0.000746  -0.000120   0.007296
    17  H   -0.024327  -0.003040   0.000316  -0.000018   0.000013   0.005779
    18  H    0.031722   0.002866   0.000205   0.029525   0.007273  -0.069818
    19  H    0.027914  -0.001994   0.000065   0.020564   0.008908  -0.007341
               7          8          9         10         11         12
     1  Ti   0.032157  -0.104938  -0.016769  -0.186075   0.013454  -0.485199
     2  O   -0.005695   0.001422   0.000748  -0.028059   0.006228  -0.008478
     3  H    0.000240   0.000166  -0.000019   0.018751   0.000509  -0.010663
     4  O    0.006919  -0.015929  -0.001707   0.000141   0.000608  -0.042028
     5  H    0.001895   0.006724  -0.000075  -0.000806   0.000041  -0.023030
     6  O   -0.049219  -0.015227  -0.003013   0.048349  -0.006799   0.038024
     7  H    0.053481   0.002652  -0.000965  -0.002109   0.000024  -0.005273
     8  O    0.002652   0.087832   0.015336   0.015507   0.001350   0.030778
     9  H   -0.000965   0.015336   0.006790  -0.000309   0.001519   0.005013
    10  O   -0.002109   0.015507  -0.000309   0.134630  -0.020827  -0.005237
[...]
    14  H   -0.015279   0.299004  -0.000024   0.000002  -0.000004   0.000000
    15  H   -0.000005  -0.000024   0.299016  -0.000010   0.000000  -0.000004
    16  H   -0.000029   0.000002  -0.000010   0.301200   0.000000  -0.000005
    17  H    0.000002  -0.000004   0.000000   0.000000   0.299032  -0.000024
    18  H    0.000000   0.000000  -0.000004  -0.000005  -0.000024   0.298956
    19  H    0.000000  -0.000024  -0.000024   0.000000  -0.000004  -0.000004
              19
     1  Ti   0.001742
     2  O   -0.000273
     3  H    0.000000
     4  O    0.002529
     5  H   -0.000006
     6  O    0.002188
     7  H   -0.000009
     8  O    0.288260
     9  H   -0.015296
    10  O    0.000451
    11  H    0.000002
    12  O    0.001127
    13  H    0.000000
    14  H   -0.000024
    15  H   -0.000024
    16  H    0.000000
    17  H   -0.000004
    18  H   -0.000004
    19  H    0.298985
          Atomic-Atomic Spin Densities.
               1          2          3          4          5          6
     1  Ti   2.216774  -0.016575  -0.003765  -0.016556  -0.004911  -0.016539
     2  O   -0.016575  -0.007904   0.001839   0.000922  -0.000057   0.000442
     3  H   -0.003765   0.001839   0.003355  -0.000061   0.000001  -0.000277
     4  O   -0.016556   0.000922  -0.000061  -0.007890   0.003879   0.000932
     5  H   -0.004911  -0.000057   0.000001   0.003879   0.004296   0.000571
     6  O   -0.016539   0.000442  -0.000277   0.000932   0.000571  -0.007913
     7  H   -0.004926  -0.000270   0.000001  -0.000056  -0.000016   0.003888
     8  O   -0.016531   0.000120  -0.000029   0.000401   0.000268   0.000950
     9  H   -0.004915  -0.000003  -0.000000  -0.000271  -0.000002  -0.000058
    10  O   -0.016566   0.000395   0.001011   0.000125  -0.000004   0.000431
    11  H   -0.004904   0.000262   0.000024  -0.000004   0.000000  -0.000272
    12  O   -0.016588   0.000959   0.000277   0.000445  -0.000271   0.000120
    13  H   -0.004920   0.000585   0.000026   0.000264  -0.000002  -0.000003
    14  H   -0.003753  -0.000062  -0.000002  -0.000278   0.000001  -0.000029
    15  H   -0.003772   0.000281  -0.000002   0.001848  -0.001314  -0.000061
    16  H   -0.004917   0.003888  -0.001309   0.000577  -0.000016   0.000261
    17  H   -0.003765  -0.000275  -0.000012  -0.000029  -0.000000   0.001015
    18  H   -0.003753   0.001002  -0.000012   0.000279   0.000025   0.001840
    19  H   -0.003759  -0.000029   0.000000   0.001010   0.000024   0.000278
               7          8          9         10         11         12
     1  Ti  -0.004926  -0.016531  -0.004915  -0.016566  -0.004904  -0.016588
     2  O   -0.000270   0.000120  -0.000003   0.000395   0.000262   0.000959
     3  H    0.000001  -0.000029  -0.000000   0.001011   0.000024   0.000277
     4  O   -0.000056   0.000401  -0.000271   0.000125  -0.000004   0.000445
     5  H   -0.000016   0.000268  -0.000002  -0.000004   0.000000  -0.000271
     6  O    0.003888   0.000950  -0.000058   0.000431  -0.000272   0.000120
     7  H    0.004312   0.000573  -0.000016   0.000270  -0.000002  -0.000003
     8  O    0.000573  -0.007913   0.003884   0.000918  -0.000056   0.000422
     9  H   -0.000016   0.003884   0.004303   0.000573  -0.000016   0.000262
    10  O    0.000270   0.000918   0.000573  -0.007821   0.003864   0.000935
    11  H   -0.000002  -0.000056  -0.000016   0.003864   0.004305   0.000580
    12  O   -0.000003   0.000422   0.000262   0.000935   0.000580  -0.007837
    13  H    0.000000  -0.000271  -0.000002  -0.000054  -0.000016   0.003877
    14  H   -0.000000   0.001010   0.000024   0.000271   0.000025   0.001839
    15  H    0.000001  -0.000278   0.000001  -0.000029  -0.000000   0.001009
    16  H   -0.000002  -0.000004   0.000000  -0.000270  -0.000002  -0.000056
    17  H    0.000025   0.000274   0.000025   0.001847  -0.001309  -0.000061
    18  H   -0.001316  -0.000062   0.000001  -0.000278   0.000001  -0.000029
    19  H    0.000025   0.001840  -0.001311  -0.000060   0.000001  -0.000275
              13         14         15         16         17         18
     1  Ti  -0.004920  -0.003753  -0.003772  -0.004917  -0.003765  -0.003753
     2  O    0.000585  -0.000062   0.000281   0.003888  -0.000275   0.001002
     3  H    0.000026  -0.000002  -0.000002  -0.001309  -0.000012  -0.000012
     4  O    0.000264  -0.000278   0.001848   0.000577  -0.000029   0.000279
     5  H   -0.000002   0.000001  -0.001314  -0.000016  -0.000000   0.000025
     6  O   -0.000003  -0.000029  -0.000061   0.000261   0.001015   0.001840
     7  H    0.000000  -0.000000   0.000001  -0.000002   0.000025  -0.001316
     8  O   -0.000271   0.001010  -0.000278  -0.000004   0.000274  -0.000062
     9  H   -0.000002   0.000024   0.000001   0.000000   0.000025   0.000001
    10  O   -0.000054   0.000271  -0.000029  -0.000270   0.001847  -0.000278
    11  H   -0.000016   0.000025  -0.000000  -0.000002  -0.001309   0.000001
    12  O    0.003877   0.001839   0.001009  -0.000056  -0.000061  -0.000029
    13  H    0.004313  -0.001310   0.000024  -0.000016   0.000001  -0.000000
    14  H   -0.001310   0.003346  -0.000012   0.000001  -0.000002   0.000000
    15  H    0.000024  -0.000012   0.003373   0.000026   0.000000  -0.000002
    16  H   -0.000016   0.000001   0.000026   0.004293   0.000001   0.000024
    17  H    0.000001  -0.000002   0.000000   0.000001   0.003352  -0.000012
    18  H   -0.000000   0.000000  -0.000002   0.000024  -0.000012   0.003372
    19  H    0.000001  -0.000012  -0.000012  -0.000000  -0.000002  -0.000002
              19
     1  Ti  -0.003759
     2  O   -0.000029
     3  H    0.000000
     4  O    0.001010
     5  H    0.000024
     6  O    0.000278
     7  H    0.000025
     8  O    0.001840
     9  H   -0.001311
    10  O   -0.000060
    11  H    0.000001
    12  O   -0.000275
    13  H    0.000001
    14  H   -0.000012
    15  H   -0.000012
    16  H   -0.000000
    17  H   -0.000002
    18  H   -0.000002
    19  H    0.003360
 Mulliken charges and spin densities:
               1          2
     1  Ti   1.325941   2.065361
     2  O   -0.724122  -0.014481
     3  H    0.420376   0.001066
     4  O   -0.724500  -0.014463
     5  H    0.416197   0.002474
     6  O   -0.724428  -0.014422
     7  H    0.416229   0.002487
     8  O   -0.724007  -0.014485
     9  H    0.416211   0.002480
    10  O   -0.724025  -0.014443
    11  H    0.416203   0.002482
    12  O   -0.724107  -0.014397
    13  H    0.416149   0.002496
    14  H    0.420370   0.001058
    15  H    0.420343   0.001081
    16  H    0.416123   0.002479
    17  H    0.420284   0.001072
    18  H    0.420409   0.001078
    19  H    0.420355   0.001077
 Sum of Mulliken charges =   2.00000   2.00000
 Mulliken charges and spin densities with hydrogens summed into heavy atoms:
               1          2
     1  Ti   1.325941   2.065361
     2  O    0.112377  -0.010936
     4  O    0.112040  -0.010909
     6  O    0.112210  -0.010856
     8  O    0.112559  -0.010927
    10  O    0.112463  -0.010889
    12  O    0.112412  -0.010844
 Electronic spatial extent (au):  <R**2>=           1219.4433
 Charge=              2.0000 electrons
 Dipole moment (field-independent basis, Debye):
    X=             -0.0021    Y=             -0.0047    Z=             -0.0002  Tot=              0.0052
 Quadrupole moment (field-independent basis, Debye-Ang):
   XX=            -13.9386   YY=            -13.9859   ZZ=            -18.5963
   XY=              0.0068   XZ=              0.0098   YZ=             -0.0125
 Traceless Quadrupole moment (field-independent basis, Debye-Ang):
   XX=              1.5683   YY=              1.5210   ZZ=             -3.0894
   XY=              0.0068   XZ=              0.0098   YZ=             -0.0125
 Octapole moment (field-independent basis, Debye-Ang**2):
  XXX=              0.0810  YYY=             -0.0717  ZZZ=             -0.0040  XYY=              0.0291
  XXY=             -0.0243  XXZ=              0.0474  XZZ=             -0.1299  YZZ=              0.0550
  YYZ=             -0.0432  XYZ=              0.0105
 Hexadecapole moment (field-independent basis, Debye-Ang**3):
 XXXX=           -241.1386 YYYY=           -239.3774 ZZZZ=           -296.9812 XXXY=              0.4891
 XXXZ=             20.7742 YYYX=             -0.4922 YYYZ=             39.5494 ZZZX=              0.7381
 ZZZY=             -1.4985 XXYY=            -80.6273 XXZZ=            -25.1445 YYZZ=            -26.3757
 XXYZ=            -38.2024 YYXZ=            -21.4019 ZZXY=              0.0787
 N-N= 5.855643970012D+02 E-N=-4.240096079309D+03  KE= 1.303365321161D+03
                          Isotropic Fermi Contact Couplings
        Atom                 a.u.       MegaHertz       Gauss      10(-4) cm-1
     1  Ti(47)            -0.12340      15.57234       5.55660       5.19437
     2  O(17)             -0.01281       3.88299       1.38555       1.29523
     3  H(1)               0.00113       2.51540       0.89756       0.83905
     4  O(17)             -0.01275       3.86585       1.37943       1.28951
     5  H(1)               0.00187       4.17343       1.48919       1.39211
     6  O(17)             -0.01271       3.85336       1.37497       1.28534
     7  H(1)               0.00187       4.18173       1.49215       1.39487
     8  O(17)             -0.01275       3.86434       1.37889       1.28900
     9  H(1)               0.00187       4.17971       1.49142       1.39420
    10  O(17)             -0.01269       3.84749       1.37288       1.28338
    11  H(1)               0.00187       4.17807       1.49084       1.39366
    12  O(17)             -0.01271       3.85363       1.37507       1.28543
    13  H(1)               0.00187       4.18430       1.49306       1.39573
    14  H(1)               0.00112       2.51369       0.89695       0.83848
    15  H(1)               0.00114       2.53746       0.90543       0.84641
    16  H(1)               0.00187       4.17660       1.49032       1.39317
    17  H(1)               0.00113       2.52117       0.89962       0.84097
    18  H(1)               0.00114       2.54416       0.90782       0.84864
    19  H(1)               0.00113       2.52893       0.90238       0.84356
 --------------------------------------------------------
       Center         ----  Spin Dipole Couplings  ----
                      3XX-RR        3YY-RR        3ZZ-RR
 --------------------------------------------------------
     1   Atom        0.292324      0.292509     -0.584833
     2   Atom        0.019900     -0.019146     -0.000754
     3   Atom        0.007354     -0.012072      0.004718
     4   Atom       -0.005969      0.006997     -0.001028
     5   Atom       -0.011913      0.017276     -0.005363
     6   Atom       -0.012443      0.013696     -0.001253
     7   Atom        0.012244     -0.007062     -0.005182
     8   Atom        0.020002     -0.019113     -0.000888
     9   Atom        0.007472     -0.002496     -0.004977
    10   Atom       -0.005830      0.006939     -0.001109
    11   Atom       -0.011916      0.017249     -0.005333
    12   Atom       -0.012576      0.013779     -0.001204
    13   Atom        0.012246     -0.007026     -0.005220
    14   Atom       -0.006526      0.001746      0.004780
    15   Atom       -0.007739      0.003375      0.004364
    16   Atom        0.007524     -0.002474     -0.005050
    17   Atom       -0.007741      0.003302      0.004440
    18   Atom       -0.006510      0.001733      0.004777
    19   Atom        0.007283     -0.012078      0.004795
 --------------------------------------------------------
                        XY            XZ            YZ
 --------------------------------------------------------
     1   Atom       -0.000105      0.002844     -0.005979
     2   Atom        0.004033     -0.000503     -0.016563
     3   Atom       -0.000567      0.017332     -0.000479
     4   Atom       -0.018707      0.014726      0.007794
     5   Atom        0.002626      0.001370      0.013447
     6   Atom        0.014817     -0.014282      0.008571
     7   Atom        0.011137     -0.012513     -0.005519
     8   Atom        0.004008     -0.000352     -0.016477
     9   Atom       -0.013761      0.011223     -0.008079
    10   Atom       -0.018771      0.014743      0.007871
    11   Atom        0.002591      0.001358      0.013466
    12   Atom        0.014715     -0.014359      0.008708
    13   Atom        0.011177     -0.012478     -0.005522
    14   Atom        0.008775     -0.009277     -0.014655
    15   Atom       -0.008204     -0.008133      0.015277
    16   Atom       -0.013799      0.011183     -0.008050
    17   Atom       -0.008190     -0.008157      0.015281
    18   Atom        0.008782     -0.009281     -0.014649
    19   Atom       -0.000556      0.017344     -0.000462
 --------------------------------------------------------


 ---------------------------------------------------------------------------------
              Anisotropic Spin Dipole Couplings in Principal Axis System
 ---------------------------------------------------------------------------------

       Atom             a.u.   MegaHertz   Gauss  10(-4) cm-1        Axes

              Baa    -0.5849    17.621     6.287     5.878 -0.0032  0.0068  1.0000
     1 Ti(47) Bbb     0.2923    -8.805    -3.142    -2.937  0.9098  0.4151  0.0001
              Bcc     0.2926    -8.815    -3.146    -2.940 -0.4151  0.9098 -0.0075
 
              Baa    -0.0291     2.106     0.752     0.703 -0.0658  0.8621  0.5024
     2 O(17)  Bbb     0.0085    -0.613    -0.219    -0.204  0.2072 -0.4808  0.8520
              Bcc     0.0206    -1.493    -0.533    -0.498  0.9761  0.1601 -0.1470
 
              Baa    -0.0121    -6.450    -2.302    -2.152  0.0464  0.9987 -0.0194
     3 H(1)   Bbb    -0.0113    -6.053    -2.160    -2.019 -0.6783  0.0458  0.7333
              Bcc     0.0234    12.503     4.461     4.170  0.7333 -0.0209  0.6796
 
              Baa    -0.0291     2.102     0.750     0.701  0.7142  0.4806 -0.5089
     4 O(17)  Bbb     0.0084    -0.609    -0.217    -0.203  0.3215  0.4206  0.8484
              Bcc     0.0206    -1.493    -0.533    -0.498 -0.6218  0.7695 -0.1458
 
              Baa    -0.0122    -6.504    -2.321    -2.169  0.9703  0.0234 -0.2407
     5 H(1)   Bbb    -0.0116    -6.183    -2.206    -2.063  0.2273 -0.4281  0.8747
              Bcc     0.0238    12.687     4.527     4.232  0.0826  0.9034  0.4207
 
              Baa    -0.0290     2.100     0.749     0.700  0.7740 -0.3714  0.5128
     6 O(17)  Bbb     0.0084    -0.607    -0.216    -0.202 -0.5216  0.0852  0.8489
              Bcc     0.0206    -1.493    -0.533    -0.498  0.3590  0.9246  0.1278
 
              Baa    -0.0122    -6.506    -2.321    -2.170 -0.5048  0.8261 -0.2505
     7 H(1)   Bbb    -0.0116    -6.185    -2.207    -2.063  0.2591  0.4218  0.8689
              Bcc     0.0238    12.691     4.528     4.233  0.8235  0.3737 -0.4269
 
              Baa    -0.0290     2.102     0.750     0.701 -0.0668  0.8615  0.5033
     8 O(17)  Bbb     0.0084    -0.606    -0.216    -0.202  0.1925 -0.4838  0.8538
              Bcc     0.0207    -1.496    -0.534    -0.499  0.9790  0.1539 -0.1335
 
              Baa    -0.0122    -6.503    -2.321    -2.169  0.4622  0.8543  0.2378
     9 H(1)   Bbb    -0.0116    -6.181    -2.206    -2.062 -0.4937  0.0251  0.8692
              Bcc     0.0238    12.685     4.526     4.231  0.7366 -0.5192  0.4334
 
              Baa    -0.0291     2.106     0.752     0.703  0.7120  0.4822 -0.5104
    10 O(17)  Bbb     0.0084    -0.609    -0.217    -0.203  0.3224  0.4212  0.8477
              Bcc     0.0207    -1.498    -0.534    -0.500 -0.6237  0.7682 -0.1444
 
              Baa    -0.0122    -6.503    -2.320    -2.169  0.9701  0.0250 -0.2413
    11 H(1)   Bbb    -0.0116    -6.180    -2.205    -2.062  0.2284 -0.4288  0.8741
              Bcc     0.0238    12.683     4.526     4.231  0.0816  0.9031  0.4217
 
              Baa    -0.0291     2.108     0.752     0.703  0.7743 -0.3698  0.5135
    12 O(17)  Bbb     0.0085    -0.613    -0.219    -0.205 -0.5271  0.0722  0.8467
              Bcc     0.0206    -1.494    -0.533    -0.498  0.3502  0.9263  0.1390
 
              Baa    -0.0122    -6.506    -2.322    -2.170 -0.5061  0.8247 -0.2524
    13 H(1)   Bbb    -0.0116    -6.185    -2.207    -2.063  0.2564  0.4233  0.8690
              Bcc     0.0238    12.691     4.529     4.233  0.8235  0.3750 -0.4257
 
              Baa    -0.0121    -6.451    -2.302    -2.152  0.8394 -0.5434 -0.0105
    14 H(1)   Bbb    -0.0113    -6.053    -2.160    -2.019  0.3765  0.5674  0.7323
              Bcc     0.0234    12.504     4.462     4.171 -0.3920 -0.6186  0.6809
 
              Baa    -0.0121    -6.451    -2.302    -2.152  0.8910  0.4537  0.0192
    15 H(1)   Bbb    -0.0113    -6.052    -2.160    -2.019  0.2924 -0.6054  0.7402
              Bcc     0.0234    12.503     4.462     4.171 -0.3474  0.6539  0.6721
 
              Baa    -0.0122    -6.506    -2.321    -2.170  0.4622  0.8540  0.2389
    16 H(1)   Bbb    -0.0116    -6.185    -2.207    -2.063 -0.4923  0.0231  0.8701
              Bcc     0.0238    12.690     4.528     4.233  0.7375 -0.5197  0.4311
 
              Baa    -0.0121    -6.455    -2.303    -2.153  0.8908  0.4541  0.0198
    17 H(1)   Bbb    -0.0113    -6.054    -2.160    -2.019  0.2929 -0.6069  0.7388
              Bcc     0.0234    12.509     4.464     4.173 -0.3475  0.6523  0.6736
 
              Baa    -0.0121    -6.451    -2.302    -2.152  0.8362 -0.5482 -0.0160
    18 H(1)   Bbb    -0.0113    -6.052    -2.159    -2.019  0.3831  0.5630  0.7322
              Bcc     0.0234    12.502     4.461     4.170 -0.3924 -0.6184  0.6808
 
              Baa    -0.0121    -6.453    -2.303    -2.153  0.0518  0.9983 -0.0259
    19 H(1)   Bbb    -0.0113    -6.054    -2.160    -2.019 -0.6795  0.0542  0.7317
              Bcc     0.0234    12.507     4.463     4.172  0.7318 -0.0203  0.6812
 

 ---------------------------------------------------------------------------------

 No NMR shielding tensors so no spin-rotation constants.
 Leave Link  601 at Thu May 23 19:32:27 2024, MaxMem= 26843545600 cpu:              29.0 elap:               0.3
 (Enter /gpfs/fs1/soft/improv/software/custom-built/gaussian/g16/l9999.exe)
 Unable to Open any file for archive entry.
 1\1\GINC-I183\SP\UHSEH1PBE\Gen\H12O6Ti1(2+,3)\HHARB\23-May-2024\0\\#p 
 HSEH1PBE scf=(maxcycles=500,xqc,maxconventional=50) scrf=(cpcm,solvent
 =water) geom=allcheck guess=read chkbasis\\Title\\2,3\Ti,-0.7850042615
 ,0.7126477526,0.0318884155\O,-1.2523056325,2.8406414441,-0.2697467905\
 H,-2.0942109229,3.2174128137,-0.5506187596\O,1.3363329332,1.2761133062
 ,0.1731962727\H,1.878171926,1.2626623872,0.9708290954\O,-0.9104380404,
 0.9149072524,2.2182797072\H,-1.0072880977,0.1950180884,2.8526109485\O,
 -0.3138025109,-1.4149204471,0.3294849161\H,-0.8910509931,-2.1608410179
 ,0.1285472315\O,-2.9067797463,0.1507461921,-0.1064066844\H,-3.44968240
 3,0.1626219571,-0.9033376844\O,-0.6625349884,0.5098454333,-2.154574968
 \H,-0.5681090683,1.2297379231,-2.7892577983\H,-0.6160924259,-0.3088999
 238,-2.6616633632\H,1.9258679797,1.5096684175,-0.5531373538\H,-0.67333
 16016,3.5853951728,-0.0694664999\H,-3.4955542557,-0.0801935535,0.62137
 68026\H,-0.9545918695,1.7335339321,2.7257746284\H,0.5288864087,-1.7900
 173601,0.6102672942\\Version=ES64L-G16RevC.02\State=3-A\HF=-1307.29289
 92\S2=2.001916\S2-1=0.\S2A=2.000002\RMSD=5.047e-09\Dipole=0.0013026,0.
 0003474,0.0015142\Quadrupole=-0.7187294,0.3439933,0.3747361,1.2148822,
 1.2011898,-0.8066582\PG=C01 [X(H12O6Ti1)]\\@
 The archive entry for this job was punched.


 THE WORLD IS NOT A HAMBURGER - YOU CAN'T HAVE IT YOUR WAY.
 Job cpu time:       0 days  2 hours 56 minutes 19.3 seconds.
 Elapsed time:       0 days  0 hours  1 minutes 29.3 seconds.
 File lengths (MBytes):  RWF=    124 Int=      0 D2E=      0 Chk=     32 Scr=      1
 Normal termination of Gaussian 16 at Thu May 23 19:32:27 2024.
