 Entering Gaussian System, Link 0=g16
 Input=Ti_2_PBE0.com
 Output=Ti_2_PBE0.log
 Initial command:
 /gpfs/fs1/soft/improv/software/custom-built/gaussian/g16/l1.exe "/scratch/Gau-395960.inp" -scrdir="/scratch/"
 Default CPUs for threads: 0-127
 Default linda workers: i222.lcrc.anl.gov
 Default is to use 128 SMP processors on each worker.
 Entering Link 1 = /gpfs/fs1/soft/improv/software/custom-built/gaussian/g16/l1.exe PID=    395961.
  
 Copyright (c) 1988-2021, Gaussian, Inc.  All Rights Reserved.
  
 This is part of the Gaussian(R) 16 program.  It is based on
 the Gaussian(R) 09 system (copyright 2009, Gaussian, Inc.),
 the Gaussian(R) 03 system (copyright 2003, Gaussian, Inc.),
 the Gaussian(R) 98 system (copyright 1998, Gaussian, Inc.),
 the Gaussian(R) 94 system (copyright 1995, Gaussian, Inc.),
 the Gaussian 92(TM) system (copyright 1992, Gaussian, Inc.),
 the Gaussian 90(TM) system (copyright 1990, Gaussian, Inc.),
 the Gaussian 88(TM) system (copyright 1988, Gaussian, Inc.),
 the Gaussian 86(TM) system (copyright 1986, Carnegie Mellon
 University), and the Gaussian 82(TM) system (copyright 1983,
 Carnegie Mellon University). Gaussian is a federally registered
 trademark of Gaussian, Inc.
  
 This software contains proprietary and confidential information,
 including trade secrets, belonging to Gaussian, Inc.
  
 This software is provided under written license and may be
 used, copied, transmitted, or stored only in accord with that
 written license.
  
 The following legend is applicable only to US Government
 contracts under FAR:
  
                    RESTRICTED RIGHTS LEGEND
  
 Use, reproduction and disclosure by the US Government is
 subject to restrictions as set forth in subparagraphs (a)
 and (c) of the Commercial Computer Software - Restricted
 Rights clause in FAR 52.227-19.
  
 Gaussian, Inc.
 340 Quinnipiac St., Bldg. 40, Wallingford CT 06492
  
  
 ---------------------------------------------------------------
 Warning -- This program may not be used in any manner that
 competes with the business of Gaussian, Inc. or will provide
 assistance to any competitor of Gaussian, Inc.  The licensee
 of this program is prohibited from giving any competitor of
 Gaussian, Inc. access to this program.  By using this program,
 the user acknowledges that Gaussian, Inc. is engaged in the
 business of creating and licensing software in the field of
 computational chemistry and represents and warrants to the
 licensee that it is not a competitor of Gaussian, Inc. and that
 it will not use this program in any manner prohibited above.
 ---------------------------------------------------------------
  

 Cite this work as:
 Gaussian 16, Revision C.02,
 M. J. Frisch, G. W. Trucks, H. B. Schlegel, G. E. Scuseria, 
 M. A. Robb, J. R. Cheeseman, G. Scalmani, V. Barone, 
 G. A. Petersson, H. Nakatsuji, X. Li, M. Caricato, A. V. Marenich, 
 J. Bloino, B. G. Janesko, R. Gomperts, B. Mennucci, H. P. Hratchian, 
 J. V. Ortiz, A. F. Izmaylov, J. L. Sonnenberg, D. Williams-Young, 
 F. Ding, F. Lipparini, F. Egidi, J. Goings, B. Peng, A. Petrone, 
 T. Henderson, D. Ranasinghe, V. G. Zakrzewski, J. Gao, N. Rega, 
 G. Zheng, W. Liang, M. Hada, M. Ehara, K. Toyota, R. Fukuda, 
 J. Hasegawa, M. Ishida, T. Nakajima, Y. Honda, O. Kitao, H. Nakai, 
 T. Vreven, K. Throssell, J. A. Montgomery, Jr., J. E. Peralta, 
 F. Ogliaro, M. J. Bearpark, J. J. Heyd, E. N. Brothers, K. N. Kudin, 
 V. N. Staroverov, T. A. Keith, R. Kobayashi, J. Normand, 
 K. Raghavachari, A. P. Rendell, J. C. Burant, S. S. Iyengar, 
 J. Tomasi, M. Cossi, J. M. Millam, M. Klene, C. Adamo, R. Cammi, 
 J. W. Ochterski, R. L. Martin, K. Morokuma, O. Farkas, 
 J. B. Foresman, and D. J. Fox, Gaussian, Inc., Wallingford CT, 2019.
 
 ******************************************
 Gaussian 16:  ES64L-G16RevC.02  7-Dec-2021
                23-May-2024 
 ******************************************
 %chk=Ti_2_PBE0.chk
 SetSPE:  set environment variable "OMP_PROC_BIND" = "true"
 SetSPE:  set environment variable "OMP_PLACES" = "{0},{1},{2},{3},{4},{5},{6},{7},{8},{9},{10},{11},{12},{13},{14},{15},{16},{17},{18},{19},{20},{21},{22},{23},{24},{25},{26},{27},{28},{29},{30},{31},{32},{33},{34},{35},{36},{37},{38},{39},{40},{41},{42},{43},{44},{45},{46},{47},{48},{49},{50},{51},{52},{53},{54},{55},{56},{57},{58},{59},{60},{61},{62},{63},{64},{65},{66},{67},{68},{69},{70},{71},{72},{73},{74},{75},{76},{77},{78},{79},{80},{81},{82},{83},{84},{85},{86},{87},{88},{89},{90},{91},{92},{93},{94},{95},{96},{97},{98},{99},{100},{101},{102},{103},{104},{105},{106},{107},{108},{109},{110},{111},{112},{113},{114},{115},{116},{117},{118},{119},{120},{121},{122},{123},{124},{125},{126},{127}"
 SetLPE:    new flags="-opt 'Tsnet.Node.lindarsharg: ssh'  -nodelist 'i222.lcrc.anl.gov' -env GAUSS_MDEF=26843545600 -env GAUSS_EXEDIR="/gpfs/fs1/soft/improv/software/custom-built/gaussian/g16/bsd:/gpfs/fs1/soft/improv/software/custom-built/gaussian/g16" -env "OMP_PROC_BIND=true" -env "OMP_PLACES={0},{1},{2},{3},{4},{5},{6},{7},{8},{9},{10},{11},{12},{13},{14},{15},{16},{17},{18},{19},{20},{21},{22},{23},{24},{25},{26},{27},{28},{29},{30},{31},{32},{33},{34},{35},{36},{37},{38},{39},{40},{41},{42},{43},{44},{45},{46},{47},{48},{49},{50},{51},{52},{53},{54},{55},{56},{57},{58},{59},{60},{61},{62},{63},{64},{65},{66},{67},{68},{69},{70},{71},{72},{73},{74},{75},{76},{77},{78},{79},{80},{81},{82},{83},{84},{85},{86},{87},{88},{89},{90},{91},{92},{93},{94},{95},{96},{97},{98},{99},{100},{101},{102},{103},{104},{105},{106},{107},{108},{109},{110},{111},{112},{113},{114},{115},{116},{117},{118},{119},{120},{121},{122},{123},{124},{125},{126},{127}" -env GAUSS_ADEF="0,1,2,3,4,5,6,7,8,9,10,11,12,13,14,15,16,17,18,19,20,21,22,23,24,25,26,27,28,29,30,31,32,33,34,35,36,37,38,39,40,41,42,43,44,45,46,47,48,49,50,51,52,53,54,55,56,57,58,59,60,61,62,63,64,65,66,67,68,69,70,71,72,73,74,75,76,77,78,79,80,81,82,83,84,85,86,87,88,89,90,91,92,93,94,95,96,97,98,99,100,101,102,103,104,105,106,107,108,109,110,111,112,113,114,115,116,117,118,119,120,121,122,123,124,125,126,127""
 Will use up to    1 processors via Linda.
 ----------------------------------------------------------------------
 #p PBE1PBE empiricaldispersion=gd3 6-31+G(2df,p) opt=(cartesian,calcal
 l,maxcycles=500) freq scf=(maxcycles=500,xqc,maxconventional=50)
 ----------------------------------------------------------------------
 1/6=500,10=4,18=10,26=3,38=1/1,3;
 2/12=2,17=6,18=5,29=2,40=1/2;
 3/5=1,6=6,7=114,11=2,25=1,30=1,71=2,74=-13,124=31,140=1/1,2,3;
 4//1;
 5/5=2,7=500,8=3,13=1,38=5,85=50/2,8;
 8/6=4,10=90,11=11/1;
 11/6=1,8=1,9=11,15=111,16=1/1,2,10;
 10/6=1/2;
 6/7=2,8=2,9=2,10=2,18=1,28=1/1;
 7/7=1,10=1,25=1/1,2,3,16;
 1/6=500,10=4,18=10,26=3/3(3);
 2/29=1/2;
 7/7=1,8=1,9=1,25=1,44=-1/16;
 99/12=1/99;
 2/29=1/2;
 3/5=1,6=6,7=114,11=2,25=1,30=1,71=2,74=-13,124=31,140=1/1,2,3;
 4/5=5,16=3,69=1/1;
 5/5=2,7=500,8=3,13=1,38=5,85=50/2,8;
 8/6=4,10=90,11=11/1;
 11/6=1,8=1,9=11,15=111,16=1/1,2,10;
 10/6=1/2;
 7/7=1,10=1,25=1/1,2,3,16;
 1/6=500,10=4,18=10,26=3/3(-8);
 2/29=1/2;
 6/7=2,8=2,9=2,10=2,18=1,19=2,28=1/1;
 7/7=1,8=1,9=1,25=1,44=-1/16;
 99/12=1/99;
 Leave Link    1 at Thu May 23 15:40:13 2024, MaxMem=           0 cpu:               4.2 elap:               0.1
 (Enter /gpfs/fs1/soft/improv/software/custom-built/gaussian/g16/l101.exe)
 -----
 Title
 -----
 Symbolic Z-matrix:
 Charge =  2 Multiplicity = 3
 Ti                   -0.79304   0.81881  -0.09491 
 O                    -1.20497   2.57394  -0.35687 
 H                    -2.12106   2.64974  -0.63312 
 O                     0.99012   1.19063  -0.05794 
 H                     1.42696   0.5998    0.55971 
 O                    -0.81752   1.03069   1.71365 
 H                    -1.02108   0.1906    2.13133 
 O                    -0.38507  -0.93351   0.17118 
 H                    -1.15682  -1.47369  -0.01433 
 O                    -2.57341   0.45178  -0.12186 
 H                    -2.77756  -0.08744  -0.88929 
 O                    -0.76966   0.60461  -1.90111 
 H                     0.09872   0.83457  -2.23949 
 H                    -0.96534  -0.30999  -2.11742 
 H                     1.12208   2.09943   0.22124 
 H                    -1.07671   3.0584    0.46184 
 H                    -2.81407  -0.02398   0.6765 
 H                     0.0422    1.33615   2.01181 
 H                    -0.11532  -1.06446   1.08312 
 
 ITRead=  0  0  0  0  0  0  0  0  0  0  0  0  0  0  0  0  0  0  0
 MicOpt= -1 -1 -1 -1 -1 -1 -1 -1 -1 -1 -1 -1 -1 -1 -1 -1 -1 -1 -1
 NAtoms=     19 NQM=       19 NQMF=       0 NMMI=      0 NMMIF=      0
                NMic=       0 NMicF=      0.
                    Isotopes and Nuclear Properties:
 (Nuclear quadrupole moments (NQMom) in fm**2, nuclear magnetic moments (NMagM)
  in nuclear magnetons)

  Atom         1           2           3           4           5           6           7           8           9          10
 IAtWgt=          48          16           1          16           1          16           1          16           1          16
 AtmWgt=  47.9479467  15.9949146   1.0078250  15.9949146   1.0078250  15.9949146   1.0078250  15.9949146   1.0078250  15.9949146
 NucSpn=           0           0           1           0           1           0           1           0           1           0
 AtZEff=  -0.0000000  -0.0000000  -0.0000000  -0.0000000  -0.0000000  -0.0000000  -0.0000000  -0.0000000  -0.0000000  -0.0000000
 NQMom=    0.0000000   0.0000000   0.0000000   0.0000000   0.0000000   0.0000000   0.0000000   0.0000000   0.0000000   0.0000000
 NMagM=    0.0000000   0.0000000   2.7928460   0.0000000   2.7928460   0.0000000   2.7928460   0.0000000   2.7928460   0.0000000
 AtZNuc=  22.0000000   8.0000000   1.0000000   8.0000000   1.0000000   8.0000000   1.0000000   8.0000000   1.0000000   8.0000000

  Atom        11          12          13          14          15          16          17          18          19
 IAtWgt=           1          16           1           1           1           1           1           1           1
 AtmWgt=   1.0078250  15.9949146   1.0078250   1.0078250   1.0078250   1.0078250   1.0078250   1.0078250   1.0078250
 NucSpn=           1           0           1           1           1           1           1           1           1
 AtZEff=  -0.0000000  -0.0000000  -0.0000000  -0.0000000  -0.0000000  -0.0000000  -0.0000000  -0.0000000  -0.0000000
 NQMom=    0.0000000   0.0000000   0.0000000   0.0000000   0.0000000   0.0000000   0.0000000   0.0000000   0.0000000
 NMagM=    2.7928460   0.0000000   2.7928460   2.7928460   2.7928460   2.7928460   2.7928460   2.7928460   2.7928460
 AtZNuc=   1.0000000   8.0000000   1.0000000   1.0000000   1.0000000   1.0000000   1.0000000   1.0000000   1.0000000
 Leave Link  101 at Thu May 23 15:40:13 2024, MaxMem= 26843545600 cpu:               0.4 elap:               0.1
 (Enter /gpfs/fs1/soft/improv/software/custom-built/gaussian/g16/l103.exe)

 GradGradGradGradGradGradGradGradGradGradGradGradGradGradGradGradGradGrad
 Berny optimization.
 Initialization pass.
 No Z-matrix variables, so optimization will use Cartesian coordinates.
 Trust Radius=3.00D-01 FncErr=1.00D-07 GrdErr=1.00D-06 EigMax=2.50D+02 EigMin=1.00D-04
 Number of steps in this run=    114 maximum allowed number of steps=    114.
 GradGradGradGradGradGradGradGradGradGradGradGradGradGradGradGradGradGrad

 Leave Link  103 at Thu May 23 15:40:13 2024, MaxMem= 26843545600 cpu:               0.3 elap:               0.0
 (Enter /gpfs/fs1/soft/improv/software/custom-built/gaussian/g16/l202.exe)
 ---------------------------------------------------------------------------------------------------
                            Z-MATRIX (ANGSTROMS AND DEGREES)
   CD    Cent   Atom    N1       Length/X        N2       Alpha/Y        N3        Beta/Z          J
 ---------------------------------------------------------------------------------------------------
      1      1  Ti       0  -0.793037          0.818805         -0.094905
      2      2  O        0  -1.204971          2.573941         -0.356874
      3      3  H        0  -2.121063          2.649743         -0.633122
      4      4  O        0   0.990122          1.190635         -0.057941
      5      5  H        0   1.426962          0.599798          0.559707
      6      6  O        0  -0.817519          1.030691          1.713650
      7      7  H        0  -1.021079          0.190602          2.131326
      8      8  O        0  -0.385068         -0.933506          0.171177
      9      9  H        0  -1.156817         -1.473692         -0.014327
     10     10  O        0  -2.573405          0.451778         -0.121857
     11     11  H        0  -2.777557         -0.087440         -0.889285
     12     12  O        0  -0.769659          0.604612         -1.901109
     13     13  H        0   0.098725          0.834573         -2.239490
     14     14  H        0  -0.965336         -0.309994         -2.117418
     15     15  H        0   1.122081          2.099426          0.221242
     16     16  H        0  -1.076711          3.058396          0.461841
     17     17  H        0  -2.814074         -0.023981          0.676500
     18     18  H        0   0.042204          1.336153          2.011809
     19     19  H        0  -0.115315         -1.064459          1.083123
 ---------------------------------------------------------------------------------------------------
                         Z-Matrix orientation:                         
 ---------------------------------------------------------------------
 Center     Atomic      Atomic             Coordinates (Angstroms)
 Number     Number       Type             X           Y           Z
 ---------------------------------------------------------------------
      1         22           0       -0.793037    0.818805   -0.094905
      2          8           0       -1.204971    2.573941   -0.356874
      3          1           0       -2.121063    2.649743   -0.633122
      4          8           0        0.990122    1.190635   -0.057941
      5          1           0        1.426962    0.599798    0.559707
      6          8           0       -0.817519    1.030691    1.713650
      7          1           0       -1.021079    0.190602    2.131326
      8          8           0       -0.385068   -0.933506    0.171177
      9          1           0       -1.156817   -1.473692   -0.014327
     10          8           0       -2.573405    0.451778   -0.121857
     11          1           0       -2.777557   -0.087440   -0.889285
     12          8           0       -0.769659    0.604612   -1.901109
     13          1           0        0.098725    0.834573   -2.239490
     14          1           0       -0.965336   -0.309994   -2.117418
     15          1           0        1.122081    2.099426    0.221242
     16          1           0       -1.076711    3.058396    0.461841
     17          1           0       -2.814074   -0.023981    0.676500
     18          1           0        0.042204    1.336153    2.011809
     19          1           0       -0.115315   -1.064459    1.083123
 ---------------------------------------------------------------------
                    Distance matrix (angstroms):
                    1          2          3          4          5
     1  Ti   0.000000
     2  O    1.821762   0.000000
     3  H    2.325008   0.959835   0.000000
     4  O    1.821889   2.611767   3.484150   0.000000
     5  H    2.324839   3.415322   4.267739   0.959899   0.000000
     6  O    1.821090   2.611285   3.134947   2.536076   2.560263
     7  H    2.324381   3.450400   3.859988   3.136540   2.937743
     8  O    1.818745   3.640503   4.062050   2.540791   2.405292
     9  H    2.322579   4.062387   4.279649   3.421971   3.362259
    10  O    1.818006   2.536025   2.301533   3.639880   4.060711
    11  H    2.321775   3.136788   2.826442   4.064482   4.499984
    12  O    1.819010   2.540161   2.759827   2.614866   3.298603
    13  H    2.322657   2.875634   3.286750   2.383386   3.107223
    14  H    2.322591   3.387332   3.506977   3.212032   3.703756
    15  H    2.325429   2.444290   3.398642   0.959822   1.567289
    16  H    2.325125   0.959918   1.567358   2.833814   3.510364
    17  H    2.321626   3.225876   3.056824   4.060370   4.288255
    18  H    2.324547   2.949275   3.660724   2.281137   2.137375
    19  H    2.322443   4.061883   4.556733   2.758526   2.328591
                    6          7          8          9         10
     6  O    0.000000
     7  H    0.960021   0.000000
     8  O    2.534622   2.347406   0.000000
     9  H    3.061530   2.718847   0.960108   0.000000
    10  O    2.605257   2.748593   2.606473   2.392848   0.000000
    11  H    3.444886   3.505227   2.750347   2.305222   0.959885
    12  O    3.640099   4.061422   2.609231   2.833582   2.538227
    13  H    4.062670   4.557707   3.028445   3.443229   3.430916
    14  H    4.061572   4.278496   2.441955   2.411193   2.673658
    15  H    2.670492   3.447487   3.387136   4.244531   4.060675
    16  H    2.397039   3.318813   4.061790   4.557738   3.061904
    17  H    2.484803   2.318921   2.642472   2.307685   0.960023
    18  H    0.959858   1.567527   2.953276   3.665802   3.489421
    19  H    2.297892   1.869309   0.959980   1.567353   3.129403
                   11         12         13         14         15
    11  H    0.000000
    12  O    2.352526   0.000000
    13  H    3.308498   0.959935   0.000000
    14  H    2.200452   0.959991   1.567533   0.000000
    15  H    4.606825   3.212091   2.949969   3.953725   0.000000
    16  H    3.822919   3.420362   3.691102   4.243941   2.410850
    17  H    1.567497   3.349453   4.210050   3.362383   4.495491
    18  H    4.288824   4.062660   4.281159   4.558009   2.225950
    19  H    3.454344   3.481323   3.833001   3.396353   3.504877
                   16         17         18         19
    16  H    0.000000
    17  H    3.544793   0.000000
    18  H    2.573032   3.433851   0.000000
    19  H    4.278809   2.920828   2.578800   0.000000
 Stoichiometry    H12O6Ti(2+,3)
 Framework group  C1[X(H12O6Ti)]
 Deg. of freedom    51
 Full point group                 C1      NOp   1
 Largest Abelian subgroup         C1      NOp   1
 Largest concise Abelian subgroup C1      NOp   1
                         Standard orientation:                         
 ---------------------------------------------------------------------
 Center     Atomic      Atomic             Coordinates (Angstroms)
 Number     Number       Type             X           Y           Z
 ---------------------------------------------------------------------
      1         22           0       -0.021180   -0.031230    0.010242
      2          8           0       -0.320919   -1.688924   -0.683318
      3          1           0       -1.137185   -1.681640   -1.188234
      4          8           0        1.254245   -0.678703    1.138670
      5          1           0        1.942694   -0.019880    1.254406
      6          8           0        1.297272    0.293478   -1.203273
      7          1           0        1.380717    1.240156   -1.339207
      8          8           0        0.279127    1.625671    0.697504
      9          1           0       -0.432969    2.214440    0.436587
     10          8           0       -1.286964    0.614116   -1.123984
     11          1           0       -2.036002    0.936648   -0.617728
     12          8           0       -1.338898   -0.352897    1.222244
     13          1           0       -0.972045   -0.816749    1.978376
     14          1           0       -1.718130    0.480302    1.511284
     15          1           0        1.635288   -1.477345    0.766869
     16          1           0        0.408469   -1.932016   -1.258072
     17          1           0       -0.916621    1.333448   -1.640754
     18          1           0        2.128227   -0.056953   -0.874579
     19          1           0        1.112611    1.964725    0.362979
 ---------------------------------------------------------------------
 Rotational constants (GHZ):           2.0397079           1.9739543           1.9252950
 Leave Link  202 at Thu May 23 15:40:13 2024, MaxMem= 26843545600 cpu:               0.4 elap:               0.0
 (Enter /gpfs/fs1/soft/improv/software/custom-built/gaussian/g16/l301.exe)
 Standard basis: 6-31+G(2df,p) (6D, 7F)
 Ernie: Thresh=  0.10000D-02 Tol=  0.10000D-05 Strict=F.
 There are   347 symmetry adapted cartesian basis functions of A   symmetry.
 There are   317 symmetry adapted basis functions of A   symmetry.
   317 basis functions,   514 primitive gaussians,   347 cartesian basis functions
    41 alpha electrons       39 beta electrons
       nuclear repulsion energy       701.0339313636 Hartrees.
 IExCor= 1009 DFT=T Ex+Corr=PBE1PBE ExCW=0 ScaHFX=  0.250000
 ScaDFX=  0.750000  0.750000  1.000000  1.000000 ScalE2=  1.000000  1.000000
 IRadAn=      5 IRanWt=     -1 IRanGd=            0 ICorTp=0 IEmpDi=131
 NAtoms=   19 NActive=   19 NUniq=   19 SFac= 1.00D+00 NAtFMM=   60 NAOKFM=F Big=F
 Integral buffers will be    131072 words long.
 Raffenetti 2 integral format.
 Two-electron integral symmetry is turned on.
 R6Disp:  Grimme-D3 Dispersion energy=       -0.0129405104 Hartrees.
 Nuclear repulsion after empirical dispersion term =      701.0209908532 Hartrees.
 Leave Link  301 at Thu May 23 15:40:13 2024, MaxMem= 26843545600 cpu:               0.4 elap:               0.0
 (Enter /gpfs/fs1/soft/improv/software/custom-built/gaussian/g16/l302.exe)
 NPDir=0 NMtPBC=     1 NCelOv=     1 NCel=       1 NClECP=     1 NCelD=      1
         NCelK=      1 NCelE2=     1 NClLst=     1 CellRange=     0.0.
 One-electron integrals computed using PRISM.
 One-electron integral symmetry used in STVInt
 NBasis=   317 RedAO= T EigKep=  4.19D-05  NBF=   317
 NBsUse=   317 1.00D-06 EigRej= -1.00D+00 NBFU=   317
 Precomputing XC quadrature grid using
 IXCGrd= 4 IRadAn=           5 IRanWt=          -1 IRanGd=           0 AccXCQ= 0.00D+00.
 Generated NRdTot=       0 NPtTot=           0 NUsed=           0 NTot=          32
 NSgBfM=   347   347   347   347   347 MxSgAt=    19 MxSgA2=    19.
 Leave Link  302 at Thu May 23 15:40:13 2024, MaxMem= 26843545600 cpu:              21.7 elap:               0.3
 (Enter /gpfs/fs1/soft/improv/software/custom-built/gaussian/g16/l303.exe)
 DipDrv:  MaxL=1.
 Leave Link  303 at Thu May 23 15:40:13 2024, MaxMem= 26843545600 cpu:               1.0 elap:               0.0
 (Enter /gpfs/fs1/soft/improv/software/custom-built/gaussian/g16/l401.exe)
 ExpMin= 9.99D-03 ExpMax= 4.32D+04 ExpMxC= 6.48D+03 IAcc=3 IRadAn=         5 AccDes= 0.00D+00
 Harris functional with IExCor= 1009 and IRadAn=       5 diagonalized for initial guess.
 HarFok:  IExCor= 1009 AccDes= 0.00D+00 IRadAn=         5 IDoV= 1 UseB2=F ITyADJ=14
 ICtDFT=  3500011 ScaDFX=  1.000000  1.000000  1.000000  1.000000
 FoFCou: FMM=F IPFlag=           0 FMFlag=      100000 FMFlg1=           0
         NFxFlg=           0 DoJE=T BraDBF=F KetDBF=T FulRan=T
         wScrn=  0.000000 ICntrl=       500 IOpCl=  0 I1Cent=   200000004 NGrid=           0
         NMat0=    1 NMatS0=      1 NMatT0=    0 NMatD0=    1 NMtDS0=    0 NMtDT0=    0
 Petite list used in FoFCou.
 Harris En= -1306.94234181010    
 JPrj=0 DoOrth=F DoCkMO=F.
 Initial guess <Sx>= 0.0000 <Sy>= 0.0000 <Sz>= 1.0000 <S**2>= 2.0000 S= 1.0000
 Leave Link  401 at Thu May 23 15:40:14 2024, MaxMem= 26843545600 cpu:              40.3 elap:               0.4
 (Enter /gpfs/fs1/soft/improv/software/custom-built/gaussian/g16/l502.exe)
 Integral symmetry usage will be decided dynamically.
 UHF open shell SCF:
 Using DIIS extrapolation, IDIIS=  1040.
 NGot= 26843545600 LenX= 26843256607 LenY= 26843135757
 Requested convergence on RMS density matrix=1.00D-08 within  50 cycles.
 Requested convergence on MAX density matrix=1.00D-06.
 Requested convergence on             energy=1.00D-06.
 No special actions if energy rises.
 Fock matrices will be formed incrementally for  20 cycles.

 Cycle   1  Pass 1  IDiag  1:
 FoFJK:  IHMeth= 1 ICntrl=       0 DoSepK=F KAlg= 0 I1Cent=           0 FoldK=F
 IRaf= 990000000 NMat=       1 IRICut=       1 DoRegI=T DoRafI=F ISym2E= 0 IDoP0=0 IntGTp=1.
 FoFCou: FMM=F IPFlag=           0 FMFlag=      100000 FMFlg1=           0
         NFxFlg=           0 DoJE=F BraDBF=F KetDBF=F FulRan=T
         wScrn=  0.000000 ICntrl=         0 IOpCl=  1 I1Cent=           0 NGrid=           0
         NMat0=    1 NMatS0=      1 NMatT0=    0 NMatD0=    1 NMtDS0=    0 NMtDT0=    0
 Symmetry not used in FoFCou.
 E= -1306.18792067254    
 DIIS: error= 3.30D-02 at cycle   1 NSaved=   1.
 NSaved= 1 IEnMin= 1 EnMin= -1306.18792067254     IErMin= 1 ErrMin= 3.30D-02
 ErrMax= 3.30D-02  0.00D+00 EMaxC= 1.00D-01 BMatC= 2.62D+00 BMatP= 2.62D+00
 IDIUse=3 WtCom= 6.70D-01 WtEn= 3.30D-01
 Coeff-Com:  0.100D+01
 Coeff-En:   0.100D+01
 Coeff:      0.100D+01
 Gap=     0.144 Goal=   None    Shift=    0.000
 Gap=     0.465 Goal=   None    Shift=    0.000
 GapD=    0.144 DampG=1.000 DampE=0.250 DampFc=0.2500 IDamp=-1.
 Damping current iteration by 2.50D-01
 RMSDP=4.91D-02 MaxDP=3.92D+00              OVMax= 9.70D-01

 Cycle   2  Pass 1  IDiag  1:
 RMSU=  1.23D-02    CP:  1.01D+00
 E= -1306.33511027580     Delta-E=       -0.147189603262 Rises=F Damp=T
 DIIS: error= 1.49D-02 at cycle   2 NSaved=   2.
 NSaved= 2 IEnMin= 2 EnMin= -1306.33511027580     IErMin= 2 ErrMin= 1.49D-02
 ErrMax= 1.49D-02  0.00D+00 EMaxC= 1.00D-01 BMatC= 5.05D-01 BMatP= 2.62D+00
 IDIUse=3 WtCom= 8.51D-01 WtEn= 1.49D-01
 Coeff-Com: -0.475D+00 0.148D+01
 Coeff-En:   0.178D-01 0.982D+00
 Coeff:     -0.402D+00 0.140D+01
 Gap=    -0.033 Goal=   None    Shift=    0.000
 Gap=     0.382 Goal=   None    Shift=    0.000
 RMSDP=1.25D-02 MaxDP=9.74D-01 DE=-1.47D-01 OVMax= 9.94D-01

 Cycle   3  Pass 1  IDiag  1:
 RMSU=  4.54D-03    CP:  9.46D-01  5.42D-02
 E= -1306.46098087589     Delta-E=       -0.125870600085 Rises=F Damp=F
 DIIS: error= 2.35D-02 at cycle   3 NSaved=   3.
 NSaved= 3 IEnMin= 3 EnMin= -1306.46098087589     IErMin= 2 ErrMin= 1.49D-02
 ErrMax= 2.35D-02  0.00D+00 EMaxC= 1.00D-01 BMatC= 9.82D-01 BMatP= 5.05D-01
 IDIUse=2 WtCom= 0.00D+00 WtEn= 1.00D+00
 Coeff-En:   0.000D+00 0.226D+00 0.774D+00
 Coeff:      0.000D+00 0.226D+00 0.774D+00
 Gap=     0.126 Goal=   None    Shift=    0.000
 Gap=     0.634 Goal=   None    Shift=    0.000
 RMSDP=4.24D-02 MaxDP=5.05D+00 DE=-1.26D-01 OVMax= 9.94D-01

 Cycle   4  Pass 1  IDiag  1:
 RMSU=  2.53D-02    CP:  1.01D+00  2.79D+00 -2.19D-01
 E= -1305.79063118584     Delta-E=        0.670349690047 Rises=F Damp=F
 DIIS: error= 4.22D-02 at cycle   4 NSaved=   4.
 NSaved= 4 IEnMin= 3 EnMin= -1306.46098087589     IErMin= 2 ErrMin= 1.49D-02
 ErrMax= 4.22D-02  0.00D+00 EMaxC= 1.00D-01 BMatC= 2.98D+00 BMatP= 5.05D-01
 IDIUse=2 WtCom= 0.00D+00 WtEn= 1.00D+00
 Coeff-En:   0.000D+00 0.000D+00 0.744D+00 0.256D+00
 Coeff:      0.000D+00 0.000D+00 0.744D+00 0.256D+00
 Gap=     0.017 Goal=   None    Shift=    0.000
 Gap=     0.377 Goal=   None    Shift=    0.000
 RMSDP=3.95D-02 MaxDP=4.51D+00 DE= 6.70D-01 OVMax= 9.44D-01

 Cycle   5  Pass 1  IDiag  1:
 RMSU=  9.60D-03    CP:  9.76D-01  4.09D-01  3.14D-01  2.79D-02
 E= -1306.60228531648     Delta-E=       -0.811654130635 Rises=F Damp=F
 DIIS: error= 1.10D-02 at cycle   5 NSaved=   5.
 NSaved= 5 IEnMin= 5 EnMin= -1306.60228531648     IErMin= 5 ErrMin= 1.10D-02
 ErrMax= 1.10D-02  0.00D+00 EMaxC= 1.00D-01 BMatC= 2.39D-01 BMatP= 5.05D-01
 IDIUse=3 WtCom= 8.90D-01 WtEn= 1.10D-01
 Coeff-Com: -0.166D+00 0.297D+00 0.310D+00-0.209D-01 0.579D+00
 Coeff-En:   0.000D+00 0.000D+00 0.251D+00 0.000D+00 0.749D+00
 Coeff:     -0.147D+00 0.265D+00 0.303D+00-0.186D-01 0.598D+00
 Gap=     0.068 Goal=   None    Shift=    0.000
 Gap=     0.356 Goal=   None    Shift=    0.000
 RMSDP=6.39D-03 MaxDP=4.43D-01 DE=-8.12D-01 OVMax= 3.81D-01

 Cycle   6  Pass 1  IDiag  1:
 RMSU=  2.03D-03    CP:  9.64D-01  2.01D-01  6.23D-01 -3.04D-03  4.53D-01
 E= -1306.64376964347     Delta-E=       -0.041484326997 Rises=F Damp=F
 DIIS: error= 3.70D-03 at cycle   6 NSaved=   6.
 NSaved= 6 IEnMin= 6 EnMin= -1306.64376964347     IErMin= 6 ErrMin= 3.70D-03
 ErrMax= 3.70D-03  0.00D+00 EMaxC= 1.00D-01 BMatC= 2.77D-02 BMatP= 2.39D-01
 IDIUse=3 WtCom= 9.63D-01 WtEn= 3.70D-02
 Coeff-Com: -0.821D-01 0.108D+00-0.668D-02-0.882D-02 0.220D+00 0.770D+00
 Coeff-En:   0.000D+00 0.000D+00 0.000D+00 0.000D+00 0.128D+00 0.872D+00
 Coeff:     -0.791D-01 0.104D+00-0.643D-02-0.850D-02 0.217D+00 0.774D+00
 Gap=     0.057 Goal=   None    Shift=    0.000
 Gap=     0.352 Goal=   None    Shift=    0.000
 RMSDP=1.28D-03 MaxDP=7.49D-02 DE=-4.15D-02 OVMax= 6.96D-02

 Cycle   7  Pass 1  IDiag  1:
 RMSU=  3.47D-04    CP:  9.66D-01  2.50D-01  5.72D-01 -1.29D-03  5.62D-01
                    CP:  1.01D+00
 E= -1306.64930274883     Delta-E=       -0.005533105360 Rises=F Damp=F
 DIIS: error= 7.79D-04 at cycle   7 NSaved=   7.
 NSaved= 7 IEnMin= 7 EnMin= -1306.64930274883     IErMin= 7 ErrMin= 7.79D-04
 ErrMax= 7.79D-04  0.00D+00 EMaxC= 1.00D-01 BMatC= 1.76D-03 BMatP= 2.77D-02
 IDIUse=3 WtCom= 9.92D-01 WtEn= 7.79D-03
 Coeff-Com: -0.412D-01 0.523D-01-0.253D-01-0.216D-02 0.892D-01 0.375D+00
 Coeff-Com:  0.553D+00
 Coeff-En:   0.000D+00 0.000D+00 0.000D+00 0.000D+00 0.000D+00 0.000D+00
 Coeff-En:   0.100D+01
 Coeff:     -0.409D-01 0.519D-01-0.251D-01-0.215D-02 0.885D-01 0.372D+00
 Coeff:      0.556D+00
 Gap=     0.059 Goal=   None    Shift=    0.000
 Gap=     0.349 Goal=   None    Shift=    0.000
 RMSDP=1.82D-04 MaxDP=1.55D-02 DE=-5.53D-03 OVMax= 1.03D-02

 Cycle   8  Pass 1  IDiag  1:
 RMSU=  1.53D-04    CP:  9.67D-01  2.47D-01  5.65D-01 -2.71D-03  5.59D-01
                    CP:  1.04D+00  9.57D-01
 E= -1306.64955765351     Delta-E=       -0.000254904678 Rises=F Damp=F
 DIIS: error= 5.57D-04 at cycle   8 NSaved=   8.
 NSaved= 8 IEnMin= 8 EnMin= -1306.64955765351     IErMin= 8 ErrMin= 5.57D-04
 ErrMax= 5.57D-04  0.00D+00 EMaxC= 1.00D-01 BMatC= 6.52D-04 BMatP= 1.76D-03
 IDIUse=3 WtCom= 9.94D-01 WtEn= 5.57D-03
 Coeff-Com: -0.993D-02 0.132D-01-0.775D-02 0.392D-03 0.126D-01-0.483D-01
 Coeff-Com:  0.157D+00 0.883D+00
 Coeff-En:   0.000D+00 0.000D+00 0.000D+00 0.000D+00 0.000D+00 0.000D+00
 Coeff-En:   0.000D+00 0.100D+01
 Coeff:     -0.987D-02 0.131D-01-0.770D-02 0.390D-03 0.126D-01-0.480D-01
 Coeff:      0.156D+00 0.884D+00
 Gap=     0.060 Goal=   None    Shift=    0.000
 Gap=     0.349 Goal=   None    Shift=    0.000
 RMSDP=1.44D-04 MaxDP=7.33D-03 DE=-2.55D-04 OVMax= 1.31D-02

 Cycle   9  Pass 1  IDiag  1:
 RMSU=  7.15D-05    CP:  9.67D-01  2.47D-01  5.57D-01 -3.67D-03  5.62D-01
                    CP:  1.06D+00  1.08D+00  1.65D+00
 E= -1306.64971195664     Delta-E=       -0.000154303127 Rises=F Damp=F
 DIIS: error= 2.29D-04 at cycle   9 NSaved=   9.
 NSaved= 9 IEnMin= 9 EnMin= -1306.64971195664     IErMin= 9 ErrMin= 2.29D-04
 ErrMax= 2.29D-04  0.00D+00 EMaxC= 1.00D-01 BMatC= 1.20D-04 BMatP= 6.52D-04
 IDIUse=3 WtCom= 9.98D-01 WtEn= 2.29D-03
 Coeff-Com: -0.327D-03 0.927D-03 0.148D-02 0.226D-03-0.274D-02-0.990D-01
 Coeff-Com: -0.575D-01 0.321D+00 0.836D+00
 Coeff-En:   0.000D+00 0.000D+00 0.000D+00 0.000D+00 0.000D+00 0.000D+00
 Coeff-En:   0.000D+00 0.000D+00 0.100D+01
 Coeff:     -0.326D-03 0.924D-03 0.148D-02 0.225D-03-0.274D-02-0.988D-01
 Coeff:     -0.573D-01 0.320D+00 0.837D+00
 Gap=     0.060 Goal=   None    Shift=    0.000
 Gap=     0.348 Goal=   None    Shift=    0.000
 RMSDP=1.03D-04 MaxDP=5.32D-03 DE=-1.54D-04 OVMax= 1.14D-02

 Cycle  10  Pass 1  IDiag  1:
 RMSU=  3.76D-05    CP:  9.67D-01  2.47D-01  5.54D-01 -4.02D-03  5.63D-01
                    CP:  1.06D+00  1.18D+00  2.06D+00  1.80D+00
 E= -1306.64976631160     Delta-E=       -0.000054354960 Rises=F Damp=F
 DIIS: error= 7.31D-05 at cycle  10 NSaved=  10.
 NSaved=10 IEnMin=10 EnMin= -1306.64976631160     IErMin=10 ErrMin= 7.31D-05
 ErrMax= 7.31D-05  0.00D+00 EMaxC= 1.00D-01 BMatC= 1.46D-05 BMatP= 1.20D-04
 IDIUse=1 WtCom= 1.00D+00 WtEn= 0.00D+00
 Coeff-Com:  0.780D-03-0.777D-03 0.134D-02-0.180D-03-0.911D-03-0.574D-02
 Coeff-Com: -0.435D-01-0.148D+00 0.473D-01 0.115D+01
 Coeff:      0.780D-03-0.777D-03 0.134D-02-0.180D-03-0.911D-03-0.574D-02
 Coeff:     -0.435D-01-0.148D+00 0.473D-01 0.115D+01
 Gap=     0.060 Goal=   None    Shift=    0.000
 Gap=     0.348 Goal=   None    Shift=    0.000
 RMSDP=1.04D-04 MaxDP=5.45D-03 DE=-5.44D-05 OVMax= 1.25D-02

 Cycle  11  Pass 1  IDiag  1:
 RMSU=  1.64D-05    CP:  9.67D-01  2.47D-01  5.52D-01 -4.23D-03  5.63D-01
                    CP:  1.06D+00  1.25D+00  2.44D+00  2.76D+00  2.13D+00
 E= -1306.64979643274     Delta-E=       -0.000030121142 Rises=F Damp=F
 DIIS: error= 3.81D-05 at cycle  11 NSaved=  11.
 NSaved=11 IEnMin=11 EnMin= -1306.64979643274     IErMin=11 ErrMin= 3.81D-05
 ErrMax= 3.81D-05  0.00D+00 EMaxC= 1.00D-01 BMatC= 4.83D-06 BMatP= 1.46D-05
 IDIUse=1 WtCom= 1.00D+00 WtEn= 0.00D+00
 Coeff-Com:  0.787D-03-0.954D-03-0.404D-03-0.262D-03 0.269D-03 0.579D-01
 Coeff-Com:  0.109D-01-0.249D+00-0.471D+00 0.434D+00 0.122D+01
 Coeff:      0.787D-03-0.954D-03-0.404D-03-0.262D-03 0.269D-03 0.579D-01
 Coeff:      0.109D-01-0.249D+00-0.471D+00 0.434D+00 0.122D+01
 Gap=     0.060 Goal=   None    Shift=    0.000
 Gap=     0.348 Goal=   None    Shift=    0.000
 RMSDP=1.25D-04 MaxDP=6.48D-03 DE=-3.01D-05 OVMax= 1.56D-02

 Cycle  12  Pass 1  IDiag  1:
 RMSU=  7.24D-05    CP:  9.67D-01  2.46D-01  5.51D-01 -4.26D-03  5.62D-01
                    CP:  1.06D+00  1.31D+00  2.83D+00  3.00D+00  3.00D+00
                    CP:  2.75D+00
 E= -1306.64982083665     Delta-E=       -0.000024403906 Rises=F Damp=F
 DIIS: error= 6.13D-05 at cycle  12 NSaved=  12.
 NSaved=12 IEnMin=12 EnMin= -1306.64982083665     IErMin=11 ErrMin= 3.81D-05
 ErrMax= 6.13D-05  0.00D+00 EMaxC= 1.00D-01 BMatC= 7.02D-06 BMatP= 4.83D-06
 IDIUse=1 WtCom= 1.00D+00 WtEn= 0.00D+00
 Coeff-Com:  0.814D-03-0.964D-03-0.100D-02-0.930D-04-0.987D-03 0.504D-01
 Coeff-Com:  0.340D-01-0.962D-01-0.363D+00-0.367D+00 0.787D+00 0.958D+00
 Coeff:      0.814D-03-0.964D-03-0.100D-02-0.930D-04-0.987D-03 0.504D-01
 Coeff:      0.340D-01-0.962D-01-0.363D+00-0.367D+00 0.787D+00 0.958D+00
 Gap=     0.060 Goal=   None    Shift=    0.000
 Gap=     0.348 Goal=   None    Shift=    0.000
 RMSDP=1.09D-04 MaxDP=5.78D-03 DE=-2.44D-05 OVMax= 1.39D-02

 Cycle  13  Pass 1  IDiag  1:
 RMSU=  4.62D-05    CP:  9.67D-01  2.45D-01  5.51D-01 -4.03D-03  5.62D-01
                    CP:  1.05D+00  1.34D+00  3.00D+00  3.00D+00  3.00D+00
                    CP:  3.00D+00  2.19D+00
 E= -1306.64983439506     Delta-E=       -0.000013558413 Rises=F Damp=F
 DIIS: error= 6.37D-05 at cycle  13 NSaved=  13.
 NSaved=13 IEnMin=13 EnMin= -1306.64983439506     IErMin=11 ErrMin= 3.81D-05
 ErrMax= 6.37D-05  0.00D+00 EMaxC= 1.00D-01 BMatC= 7.25D-06 BMatP= 4.83D-06
 IDIUse=1 WtCom= 1.00D+00 WtEn= 0.00D+00
 Coeff-Com:  0.906D-03-0.103D-02 0.163D-05 0.439D-04-0.238D-02 0.854D-02
 Coeff-Com:  0.109D-01 0.104D-01-0.247D-02-0.107D+00-0.167D+00 0.127D+00
 Coeff-Com:  0.112D+01
 Coeff:      0.906D-03-0.103D-02 0.163D-05 0.439D-04-0.238D-02 0.854D-02
 Coeff:      0.109D-01 0.104D-01-0.247D-02-0.107D+00-0.167D+00 0.127D+00
 Coeff:      0.112D+01
 Gap=     0.060 Goal=   None    Shift=    0.000
 Gap=     0.348 Goal=   None    Shift=    0.000
 RMSDP=6.77D-05 MaxDP=4.33D-03 DE=-1.36D-05 OVMax= 7.81D-03

 Cycle  14  Pass 1  IDiag  1:
 RMSU=  2.16D-05    CP:  9.67D-01  2.45D-01  5.51D-01 -3.67D-03  5.65D-01
                    CP:  1.05D+00  1.34D+00  3.00D+00  3.00D+00  3.00D+00
                    CP:  3.00D+00  2.70D+00  1.94D+00
 E= -1306.64983990181     Delta-E=       -0.000005506754 Rises=F Damp=F
 DIIS: error= 5.96D-05 at cycle  14 NSaved=  14.
 NSaved=14 IEnMin=14 EnMin= -1306.64983990181     IErMin=11 ErrMin= 3.81D-05
 ErrMax= 5.96D-05  0.00D+00 EMaxC= 1.00D-01 BMatC= 6.63D-06 BMatP= 4.83D-06
 IDIUse=1 WtCom= 1.00D+00 WtEn= 0.00D+00
 Coeff-Com:  0.951D-03-0.118D-02 0.533D-03 0.400D-04-0.226D-02-0.121D-03
 Coeff-Com: -0.411D-02-0.253D-01 0.470D-01 0.285D+00-0.211D+00-0.467D+00
 Coeff-Com: -0.272D+00 0.165D+01
 Coeff:      0.951D-03-0.118D-02 0.533D-03 0.400D-04-0.226D-02-0.121D-03
 Coeff:     -0.411D-02-0.253D-01 0.470D-01 0.285D+00-0.211D+00-0.467D+00
 Coeff:     -0.272D+00 0.165D+01
 Gap=     0.061 Goal=   None    Shift=    0.000
 Gap=     0.348 Goal=   None    Shift=    0.000
 RMSDP=8.82D-05 MaxDP=8.44D-03 DE=-5.51D-06 OVMax= 7.98D-03

 Cycle  15  Pass 1  IDiag  1:
 RMSU=  8.33D-06    CP:  9.67D-01  2.46D-01  5.52D-01 -3.18D-03  5.70D-01
                    CP:  1.04D+00  1.32D+00  3.00D+00  3.00D+00  3.00D+00
                    CP:  3.00D+00  3.00D+00  3.00D+00  3.00D+00
 E= -1306.64984458717     Delta-E=       -0.000004685357 Rises=F Damp=F
 DIIS: error= 5.20D-05 at cycle  15 NSaved=  15.
 NSaved=15 IEnMin=15 EnMin= -1306.64984458717     IErMin=11 ErrMin= 3.81D-05
 ErrMax= 5.20D-05  0.00D+00 EMaxC= 1.00D-01 BMatC= 5.11D-06 BMatP= 4.83D-06
 IDIUse=1 WtCom= 1.00D+00 WtEn= 0.00D+00
 Coeff-Com:  0.933D-03-0.120D-02 0.391D-03 0.174D-04-0.190D-02 0.571D-02
 Coeff-Com: -0.171D-02-0.470D-01-0.208D-01 0.261D+00-0.715D-02-0.340D+00
 Coeff-Com: -0.742D+00 0.102D+01 0.877D+00
 Coeff:      0.933D-03-0.120D-02 0.391D-03 0.174D-04-0.190D-02 0.571D-02
 Coeff:     -0.171D-02-0.470D-01-0.208D-01 0.261D+00-0.715D-02-0.340D+00
 Coeff:     -0.742D+00 0.102D+01 0.877D+00
 Gap=     0.061 Goal=   None    Shift=    0.000
 Gap=     0.348 Goal=   None    Shift=    0.000
 RMSDP=6.81D-05 MaxDP=7.17D-03 DE=-4.69D-06 OVMax= 5.79D-03

 Cycle  16  Pass 1  IDiag  1:
 RMSU=  5.23D-05    CP:  9.67D-01  2.47D-01  5.52D-01 -2.83D-03  5.73D-01
                    CP:  1.03D+00  1.30D+00  3.00D+00  3.00D+00  3.00D+00
                    CP:  3.00D+00  3.00D+00  3.00D+00  3.00D+00  3.00D+00
 E= -1306.64984727126     Delta-E=       -0.000002684090 Rises=F Damp=F
 DIIS: error= 4.06D-05 at cycle  16 NSaved=  16.
 NSaved=16 IEnMin=16 EnMin= -1306.64984727126     IErMin=11 ErrMin= 3.81D-05
 ErrMax= 4.06D-05  0.00D+00 EMaxC= 1.00D-01 BMatC= 3.20D-06 BMatP= 4.83D-06
 IDIUse=1 WtCom= 1.00D+00 WtEn= 0.00D+00
 Coeff-Com:  0.410D-03-0.522D-03-0.287D-03-0.303D-04-0.521D-03 0.149D-01
 Coeff-Com:  0.131D-01-0.225D-01-0.122D+00-0.117D+00 0.274D+00 0.326D+00
 Coeff-Com: -0.143D+00-0.125D+01 0.212D+00 0.181D+01
 Coeff:      0.410D-03-0.522D-03-0.287D-03-0.303D-04-0.521D-03 0.149D-01
 Coeff:      0.131D-01-0.225D-01-0.122D+00-0.117D+00 0.274D+00 0.326D+00
 Coeff:     -0.143D+00-0.125D+01 0.212D+00 0.181D+01
 Gap=     0.061 Goal=   None    Shift=    0.000
 Gap=     0.349 Goal=   None    Shift=    0.000
 RMSDP=1.22D-04 MaxDP=1.39D-02 DE=-2.68D-06 OVMax= 9.42D-03

 Cycle  17  Pass 1  IDiag  1:
 RMSU=  3.34D-05    CP:  9.67D-01  2.49D-01  5.53D-01 -2.26D-03  5.80D-01
                    CP:  1.02D+00  1.26D+00  3.00D+00  3.00D+00  3.00D+00
                    CP:  3.00D+00  3.00D+00  3.00D+00  3.00D+00  3.00D+00
                    CP:  2.78D+00
 E= -1306.64985002268     Delta-E=       -0.000002751415 Rises=F Damp=F
 DIIS: error= 1.02D-05 at cycle  17 NSaved=  17.
 NSaved=17 IEnMin=17 EnMin= -1306.64985002268     IErMin=17 ErrMin= 1.02D-05
 ErrMax= 1.02D-05  0.00D+00 EMaxC= 1.00D-01 BMatC= 2.33D-07 BMatP= 3.20D-06
 IDIUse=1 WtCom= 1.00D+00 WtEn= 0.00D+00
 Coeff-Com: -0.728D-04 0.100D-03-0.147D-03-0.258D-04 0.275D-03 0.341D-02
 Coeff-Com:  0.571D-02 0.476D-02-0.327D-01-0.784D-01 0.707D-01 0.139D+00
 Coeff-Com:  0.104D+00-0.407D+00-0.201D+00 0.232D+00 0.116D+01
 Coeff:     -0.728D-04 0.100D-03-0.147D-03-0.258D-04 0.275D-03 0.341D-02
 Coeff:      0.571D-02 0.476D-02-0.327D-01-0.784D-01 0.707D-01 0.139D+00
 Coeff:      0.104D+00-0.407D+00-0.201D+00 0.232D+00 0.116D+01
 Gap=     0.061 Goal=   None    Shift=    0.000
 Gap=     0.349 Goal=   None    Shift=    0.000
 RMSDP=4.55D-05 MaxDP=5.37D-03 DE=-2.75D-06 OVMax= 3.42D-03

 Cycle  18  Pass 1  IDiag  1:
 RMSU=  2.38D-05    CP:  9.66D-01  2.49D-01  5.53D-01 -2.05D-03  5.82D-01
                    CP:  1.02D+00  1.24D+00  3.00D+00  3.00D+00  3.00D+00
                    CP:  3.00D+00  3.00D+00  3.00D+00  3.00D+00  3.00D+00
                    CP:  3.00D+00  1.40D+00
 E= -1306.64985033126     Delta-E=       -0.000000308581 Rises=F Damp=F
 DIIS: error= 3.31D-06 at cycle  18 NSaved=  18.
 NSaved=18 IEnMin=18 EnMin= -1306.64985033126     IErMin=18 ErrMin= 3.31D-06
 ErrMax= 3.31D-06  0.00D+00 EMaxC= 1.00D-01 BMatC= 2.80D-08 BMatP= 2.33D-07
 IDIUse=1 WtCom= 1.00D+00 WtEn= 0.00D+00
 Coeff-Com: -0.139D-03 0.181D-03 0.867D-05-0.715D-05 0.268D-03-0.203D-02
 Coeff-Com: -0.574D-03 0.641D-02 0.118D-01-0.519D-04-0.265D-01-0.215D-01
 Coeff-Com:  0.207D-01 0.146D+00-0.655D-01-0.262D+00 0.268D+00 0.925D+00
 Coeff:     -0.139D-03 0.181D-03 0.867D-05-0.715D-05 0.268D-03-0.203D-02
 Coeff:     -0.574D-03 0.641D-02 0.118D-01-0.519D-04-0.265D-01-0.215D-01
 Coeff:      0.207D-01 0.146D+00-0.655D-01-0.262D+00 0.268D+00 0.925D+00
 Gap=     0.061 Goal=   None    Shift=    0.000
 Gap=     0.349 Goal=   None    Shift=    0.000
 RMSDP=5.71D-06 MaxDP=6.55D-04 DE=-3.09D-07 OVMax= 5.13D-04

 Cycle  19  Pass 1  IDiag  1:
 RMSU=  2.20D-06    CP:  9.66D-01  2.49D-01  5.53D-01 -2.04D-03  5.82D-01
                    CP:  1.02D+00  1.24D+00  3.00D+00  3.00D+00  3.00D+00
                    CP:  3.00D+00  3.00D+00  3.00D+00  3.00D+00  3.00D+00
                    CP:  3.00D+00  1.45D+00  1.19D+00
 E= -1306.64985036845     Delta-E=       -0.000000037195 Rises=F Damp=F
 DIIS: error= 4.74D-06 at cycle  19 NSaved=  19.
 NSaved=19 IEnMin=19 EnMin= -1306.64985036845     IErMin=18 ErrMin= 3.31D-06
 ErrMax= 4.74D-06  0.00D+00 EMaxC= 1.00D-01 BMatC= 3.97D-08 BMatP= 2.80D-08
 IDIUse=1 WtCom= 1.00D+00 WtEn= 0.00D+00
 Coeff-Com: -0.566D-04 0.667D-04 0.169D-04 0.618D-05 0.102D-03-0.162D-02
 Coeff-Com: -0.130D-02 0.315D-02 0.860D-02-0.326D-02-0.137D-01-0.311D-02
 Coeff-Com:  0.734D-02 0.351D-01 0.161D-01-0.189D-01-0.191D+00-0.315D+00
 Coeff-Com:  0.148D+01
 Coeff:     -0.566D-04 0.667D-04 0.169D-04 0.618D-05 0.102D-03-0.162D-02
 Coeff:     -0.130D-02 0.315D-02 0.860D-02-0.326D-02-0.137D-01-0.311D-02
 Coeff:      0.734D-02 0.351D-01 0.161D-01-0.189D-01-0.191D+00-0.315D+00
 Coeff:      0.148D+01
 Gap=     0.061 Goal=   None    Shift=    0.000
 Gap=     0.349 Goal=   None    Shift=    0.000
 RMSDP=4.27D-06 MaxDP=1.93D-04 DE=-3.72D-08 OVMax= 5.61D-04

 Cycle  20  Pass 1  IDiag  1:
 RMSU=  9.51D-07    CP:  9.66D-01  2.49D-01  5.53D-01 -2.04D-03  5.82D-01
                    CP:  1.02D+00  1.24D+00  3.00D+00  3.00D+00  3.00D+00
                    CP:  3.00D+00  3.00D+00  3.00D+00  3.00D+00  3.00D+00
                    CP:  3.00D+00  1.45D+00  1.23D+00  2.76D+00
 E= -1306.64985041213     Delta-E=       -0.000000043677 Rises=F Damp=F
 DIIS: error= 3.35D-06 at cycle  20 NSaved=  20.
 NSaved=20 IEnMin=20 EnMin= -1306.64985041213     IErMin=18 ErrMin= 3.31D-06
 ErrMax= 3.35D-06  0.00D+00 EMaxC= 1.00D-01 BMatC= 2.39D-08 BMatP= 2.80D-08
 IDIUse=1 WtCom= 1.00D+00 WtEn= 0.00D+00
 Coeff-Com: -0.153D-06-0.269D-05-0.165D-04 0.705D-05 0.219D-04 0.964D-04
 Coeff-Com: -0.106D-03 0.599D-03-0.211D-02-0.167D-01 0.144D-01 0.343D-01
 Coeff-Com:  0.196D-01-0.158D+00 0.195D-01 0.224D+00-0.146D+00-0.130D+01
 Coeff-Com:  0.662D+00 0.165D+01
 Coeff:     -0.153D-06-0.269D-05-0.165D-04 0.705D-05 0.219D-04 0.964D-04
 Coeff:     -0.106D-03 0.599D-03-0.211D-02-0.167D-01 0.144D-01 0.343D-01
 Coeff:      0.196D-01-0.158D+00 0.195D-01 0.224D+00-0.146D+00-0.130D+01
 Coeff:      0.662D+00 0.165D+01
 Gap=     0.061 Goal=   None    Shift=    0.000
 Gap=     0.349 Goal=   None    Shift=    0.000
 RMSDP=7.52D-06 MaxDP=3.52D-04 DE=-4.37D-08 OVMax= 1.03D-03

 Cycle  21  Pass 1  IDiag  1:
 Restarting incremental Fock formation.
 E= -1306.64985046642     Delta-E=       -0.000000054292 Rises=F Damp=F
 DIIS: error= 1.83D-06 at cycle  21 NSaved=  20.
 NSaved=20 IEnMin=20 EnMin= -1306.64985046642     IErMin=20 ErrMin= 1.83D-06
 ErrMax= 1.83D-06  0.00D+00 EMaxC= 1.00D-01 BMatC= 7.88D-09 BMatP= 2.39D-08
 IDIUse=1 WtCom= 1.00D+00 WtEn= 0.00D+00
 Coeff-Com:  0.127D-04-0.157D-04-0.244D-04 0.828D-05 0.687D-03 0.610D-03
 Coeff-Com:  0.666D-04-0.469D-02-0.130D-01 0.171D-01 0.280D-01 0.159D-01
 Coeff-Com: -0.136D+00-0.529D-02 0.163D+00 0.742D-01-0.821D+00-0.411D+00
 Coeff-Com:  0.115D+01 0.942D+00
 Coeff:      0.127D-04-0.157D-04-0.244D-04 0.828D-05 0.687D-03 0.610D-03
 Coeff:      0.666D-04-0.469D-02-0.130D-01 0.171D-01 0.280D-01 0.159D-01
 Coeff:     -0.136D+00-0.529D-02 0.163D+00 0.742D-01-0.821D+00-0.411D+00
 Coeff:      0.115D+01 0.942D+00
 Gap=     0.061 Goal=   None    Shift=    0.000
 Gap=     0.349 Goal=   None    Shift=    0.000
 RMSDP=6.03D-06 MaxDP=3.11D-04 DE=-5.43D-08 OVMax= 7.74D-04

 Cycle  22  Pass 1  IDiag  1:
 RMSU=  6.02D-06    CP:  1.00D+00
 E= -1306.64985048800     Delta-E=       -0.000000021582 Rises=F Damp=F
 DIIS: error= 7.53D-07 at cycle  22 NSaved=  20.
 NSaved=20 IEnMin=20 EnMin= -1306.64985048800     IErMin=20 ErrMin= 7.53D-07
 ErrMax= 7.53D-07  0.00D+00 EMaxC= 1.00D-01 BMatC= 4.96D-10 BMatP= 7.88D-09
 IDIUse=1 WtCom= 1.00D+00 WtEn= 0.00D+00
 Coeff-Com: -0.107D-06-0.501D-05 0.801D-05 0.951D-04 0.245D-03 0.713D-03
 Coeff-Com:  0.187D-03-0.172D-02-0.110D-03 0.617D-03 0.523D-02-0.307D-02
 Coeff-Com: -0.128D-01-0.150D-01 0.909D-01 0.731D-01-0.276D+00-0.152D+00
 Coeff-Com:  0.253D+00 0.104D+01
 Coeff:     -0.107D-06-0.501D-05 0.801D-05 0.951D-04 0.245D-03 0.713D-03
 Coeff:      0.187D-03-0.172D-02-0.110D-03 0.617D-03 0.523D-02-0.307D-02
 Coeff:     -0.128D-01-0.150D-01 0.909D-01 0.731D-01-0.276D+00-0.152D+00
 Coeff:      0.253D+00 0.104D+01
 Gap=     0.061 Goal=   None    Shift=    0.000
 Gap=     0.349 Goal=   None    Shift=    0.000
 RMSDP=2.97D-06 MaxDP=1.60D-04 DE=-2.16D-08 OVMax= 3.54D-04

 Cycle  23  Pass 1  IDiag  1:
 RMSU=  5.66D-07    CP:  1.00D+00  1.48D+00
 E= -1306.64985049190     Delta-E=       -0.000000003902 Rises=F Damp=F
 DIIS: error= 4.61D-07 at cycle  23 NSaved=  20.
 NSaved=20 IEnMin=20 EnMin= -1306.64985049190     IErMin=20 ErrMin= 4.61D-07
 ErrMax= 4.61D-07  0.00D+00 EMaxC= 1.00D-01 BMatC= 1.15D-10 BMatP= 4.96D-10
 IDIUse=1 WtCom= 1.00D+00 WtEn= 0.00D+00
 Coeff-Com: -0.145D-06-0.425D-05 0.708D-06 0.265D-04 0.200D-03 0.264D-03
 Coeff-Com: -0.839D-03-0.168D-02-0.337D-03 0.161D-02 0.108D-01-0.288D-02
 Coeff-Com: -0.170D-01 0.538D-02 0.101D+00 0.989D-01-0.205D+00-0.192D+00
 Coeff-Com:  0.287D-01 0.117D+01
 Coeff:     -0.145D-06-0.425D-05 0.708D-06 0.265D-04 0.200D-03 0.264D-03
 Coeff:     -0.839D-03-0.168D-02-0.337D-03 0.161D-02 0.108D-01-0.288D-02
 Coeff:     -0.170D-01 0.538D-02 0.101D+00 0.989D-01-0.205D+00-0.192D+00
 Coeff:      0.287D-01 0.117D+01
 Gap=     0.061 Goal=   None    Shift=    0.000
 Gap=     0.349 Goal=   None    Shift=    0.000
 RMSDP=1.31D-06 MaxDP=7.45D-05 DE=-3.90D-09 OVMax= 1.17D-04

 Cycle  24  Pass 1  IDiag  1:
 RMSU=  3.62D-07    CP:  1.00D+00  1.69D+00  1.47D+00
 E= -1306.64985049267     Delta-E=       -0.000000000761 Rises=F Damp=F
 DIIS: error= 2.81D-07 at cycle  24 NSaved=  20.
 NSaved=20 IEnMin=20 EnMin= -1306.64985049267     IErMin=20 ErrMin= 2.81D-07
 ErrMax= 2.81D-07  0.00D+00 EMaxC= 1.00D-01 BMatC= 5.48D-11 BMatP= 1.15D-10
 IDIUse=1 WtCom= 1.00D+00 WtEn= 0.00D+00
 Coeff-Com: -0.942D-06 0.591D-04-0.188D-04-0.393D-03-0.888D-03-0.735D-03
 Coeff-Com:  0.270D-02 0.295D-02-0.340D-02-0.102D-01 0.612D-02 0.234D-01
 Coeff-Com: -0.421D-01-0.134D+00 0.148D+00 0.164D+00-0.757D-01-0.498D+00
 Coeff-Com: -0.238D+00 0.166D+01
 Coeff:     -0.942D-06 0.591D-04-0.188D-04-0.393D-03-0.888D-03-0.735D-03
 Coeff:      0.270D-02 0.295D-02-0.340D-02-0.102D-01 0.612D-02 0.234D-01
 Coeff:     -0.421D-01-0.134D+00 0.148D+00 0.164D+00-0.757D-01-0.498D+00
 Coeff:     -0.238D+00 0.166D+01
 Gap=     0.061 Goal=   None    Shift=    0.000
 Gap=     0.349 Goal=   None    Shift=    0.000
 RMSDP=1.11D-06 MaxDP=5.99D-05 DE=-7.61D-10 OVMax= 1.01D-04

 Cycle  25  Pass 1  IDiag  1:
 RMSU=  3.75D-07    CP:  1.00D+00  1.84D+00  2.27D+00  1.09D+00
 E= -1306.64985049309     Delta-E=       -0.000000000420 Rises=F Damp=F
 DIIS: error= 1.32D-07 at cycle  25 NSaved=  20.
 NSaved=20 IEnMin=20 EnMin= -1306.64985049309     IErMin=20 ErrMin= 1.32D-07
 ErrMax= 1.32D-07  0.00D+00 EMaxC= 1.00D-01 BMatC= 2.35D-11 BMatP= 5.48D-11
 IDIUse=1 WtCom= 1.00D+00 WtEn= 0.00D+00
 Coeff-Com:  0.965D-05 0.128D-04-0.994D-04-0.230D-03 0.455D-03 0.867D-03
 Coeff-Com: -0.737D-04-0.188D-02-0.212D-02 0.227D-02 0.635D-02-0.108D-01
 Coeff-Com: -0.540D-01-0.126D-02 0.769D-01 0.489D-01-0.315D-01-0.325D+00
 Coeff-Com: -0.163D+00 0.145D+01
 Coeff:      0.965D-05 0.128D-04-0.994D-04-0.230D-03 0.455D-03 0.867D-03
 Coeff:     -0.737D-04-0.188D-02-0.212D-02 0.227D-02 0.635D-02-0.108D-01
 Coeff:     -0.540D-01-0.126D-02 0.769D-01 0.489D-01-0.315D-01-0.325D+00
 Coeff:     -0.163D+00 0.145D+01
 Gap=     0.061 Goal=   None    Shift=    0.000
 Gap=     0.349 Goal=   None    Shift=    0.000
 RMSDP=7.67D-07 MaxDP=5.02D-05 DE=-4.20D-10 OVMax= 6.47D-05

 Cycle  26  Pass 1  IDiag  1:
 RMSU=  3.81D-08    CP:  1.00D+00  1.94D+00  2.83D+00  7.68D-01  2.09D+00
 E= -1306.64985049322     Delta-E=       -0.000000000136 Rises=F Damp=F
 DIIS: error= 1.03D-07 at cycle  26 NSaved=  20.
 NSaved=20 IEnMin=20 EnMin= -1306.64985049322     IErMin=20 ErrMin= 1.03D-07
 ErrMax= 1.03D-07  0.00D+00 EMaxC= 1.00D-01 BMatC= 1.71D-11 BMatP= 2.35D-11
 IDIUse=1 WtCom= 1.00D+00 WtEn= 0.00D+00
 Coeff-Com:  0.274D-04 0.601D-04 0.716D-04 0.428D-03-0.306D-03-0.837D-03
 Coeff-Com: -0.618D-04 0.227D-02-0.829D-03-0.426D-02 0.681D-02 0.131D-01
 Coeff-Com: -0.390D-01-0.110D-01 0.411D-01 0.117D+00-0.821D-01-0.574D+00
 Coeff-Com:  0.720D+00 0.811D+00
 Coeff:      0.274D-04 0.601D-04 0.716D-04 0.428D-03-0.306D-03-0.837D-03
 Coeff:     -0.618D-04 0.227D-02-0.829D-03-0.426D-02 0.681D-02 0.131D-01
 Coeff:     -0.390D-01-0.110D-01 0.411D-01 0.117D+00-0.821D-01-0.574D+00
 Coeff:      0.720D+00 0.811D+00
 Gap=     0.061 Goal=   None    Shift=    0.000
 Gap=     0.349 Goal=   None    Shift=    0.000
 RMSDP=3.40D-07 MaxDP=2.81D-05 DE=-1.36D-10 OVMax= 2.64D-05

 Cycle  27  Pass 1  IDiag  1:
 RMSU=  5.57D-08    CP:  1.00D+00  1.97D+00  3.00D+00  5.35D-01  2.63D+00
                    CP:  1.51D+00
 E= -1306.64985049325     Delta-E=       -0.000000000033 Rises=F Damp=F
 DIIS: error= 5.59D-08 at cycle  27 NSaved=  20.
 NSaved=20 IEnMin=20 EnMin= -1306.64985049325     IErMin=20 ErrMin= 5.59D-08
 ErrMax= 5.59D-08  0.00D+00 EMaxC= 1.00D-01 BMatC= 4.81D-12 BMatP= 1.71D-11
 IDIUse=1 WtCom= 1.00D+00 WtEn= 0.00D+00
 Coeff-Com:  0.313D-04 0.799D-04 0.812D-04-0.321D-03-0.243D-03 0.386D-03
 Coeff-Com:  0.124D-02-0.986D-03-0.318D-02 0.424D-02 0.151D-01-0.103D-01
 Coeff-Com: -0.181D-01 0.223D-02 0.389D-01 0.492D-01-0.156D+00-0.107D+00
 Coeff-Com:  0.339D+00 0.846D+00
 Coeff:      0.313D-04 0.799D-04 0.812D-04-0.321D-03-0.243D-03 0.386D-03
 Coeff:      0.124D-02-0.986D-03-0.318D-02 0.424D-02 0.151D-01-0.103D-01
 Coeff:     -0.181D-01 0.223D-02 0.389D-01 0.492D-01-0.156D+00-0.107D+00
 Coeff:      0.339D+00 0.846D+00
 Gap=     0.061 Goal=   None    Shift=    0.000
 Gap=     0.349 Goal=   None    Shift=    0.000
 RMSDP=1.91D-07 MaxDP=2.25D-05 DE=-3.32D-11 OVMax= 1.16D-05

 Cycle  28  Pass 1  IDiag  1:
 RMSU=  1.72D-08    CP:  1.00D+00  1.98D+00  3.00D+00  2.45D-01  2.95D+00
                    CP:  1.37D+00  2.72D+00
 E= -1306.64985049326     Delta-E=       -0.000000000005 Rises=F Damp=F
 DIIS: error= 6.84D-09 at cycle  28 NSaved=  20.
 NSaved=20 IEnMin=20 EnMin= -1306.64985049326     IErMin=20 ErrMin= 6.84D-09
 ErrMax= 6.84D-09  0.00D+00 EMaxC= 1.00D-01 BMatC= 1.60D-13 BMatP= 4.81D-12
 IDIUse=1 WtCom= 1.00D+00 WtEn= 0.00D+00
 Coeff-Com:  0.156D-04 0.817D-04-0.124D-03-0.184D-03-0.660D-04 0.823D-03
 Coeff-Com: -0.165D-03-0.999D-03 0.106D-02 0.533D-02-0.201D-02-0.577D-02
 Coeff-Com: -0.219D-02 0.306D-02 0.156D-01 0.322D-02-0.683D-01 0.833D-03
 Coeff-Com:  0.192D+00 0.858D+00
 Coeff:      0.156D-04 0.817D-04-0.124D-03-0.184D-03-0.660D-04 0.823D-03
 Coeff:     -0.165D-03-0.999D-03 0.106D-02 0.533D-02-0.201D-02-0.577D-02
 Coeff:     -0.219D-02 0.306D-02 0.156D-01 0.322D-02-0.683D-01 0.833D-03
 Coeff:      0.192D+00 0.858D+00
 Gap=     0.061 Goal=   None    Shift=    0.000
 Gap=     0.349 Goal=   None    Shift=    0.000
 RMSDP=2.80D-08 MaxDP=2.16D-06 DE=-5.00D-12 OVMax= 1.60D-06

 Cycle  29  Pass 1  IDiag  1:
 RMSU=  6.74D-09    CP:  1.00D+00  1.98D+00  3.00D+00  2.95D-01  2.95D+00
                    CP:  1.41D+00  2.59D+00  8.45D-01
 E= -1306.64985049323     Delta-E=        0.000000000033 Rises=F Damp=F
 DIIS: error= 2.97D-09 at cycle  29 NSaved=  20.
 NSaved=20 IEnMin=19 EnMin= -1306.64985049326     IErMin=20 ErrMin= 2.97D-09
 ErrMax= 2.97D-09  0.00D+00 EMaxC= 1.00D-01 BMatC= 4.06D-14 BMatP= 1.60D-13
 IDIUse=1 WtCom= 1.00D+00 WtEn= 0.00D+00
 Coeff-Com: -0.168D-04-0.133D-04 0.143D-04 0.116D-04 0.254D-04-0.175D-04
 Coeff-Com:  0.706D-04-0.273D-04 0.363D-03 0.636D-03-0.494D-03-0.171D-02
 Coeff-Com: -0.297D-02 0.913D-02 0.246D-01-0.516D-01-0.428D-01 0.353D-01
 Coeff-Com:  0.416D+00 0.613D+00
 Coeff:     -0.168D-04-0.133D-04 0.143D-04 0.116D-04 0.254D-04-0.175D-04
 Coeff:      0.706D-04-0.273D-04 0.363D-03 0.636D-03-0.494D-03-0.171D-02
 Coeff:     -0.297D-02 0.913D-02 0.246D-01-0.516D-01-0.428D-01 0.353D-01
 Coeff:      0.416D+00 0.613D+00
 Gap=     0.061 Goal=   None    Shift=    0.000
 Gap=     0.349 Goal=   None    Shift=    0.000
 RMSDP=1.27D-08 MaxDP=1.69D-06 DE= 3.27D-11 OVMax= 8.05D-07

 Cycle  30  Pass 1  IDiag  1:
 RMSU=  9.55D-10    CP:  1.00D+00  1.98D+00  3.00D+00  2.73D-01  2.97D+00
                    CP:  1.40D+00  2.65D+00  8.96D-01  1.22D+00
 E= -1306.64985049324     Delta-E=       -0.000000000015 Rises=F Damp=F
 DIIS: error= 1.96D-09 at cycle  30 NSaved=  20.
 NSaved=20 IEnMin=18 EnMin= -1306.64985049326     IErMin=20 ErrMin= 1.96D-09
 ErrMax= 1.96D-09  0.00D+00 EMaxC= 1.00D-01 BMatC= 8.47D-15 BMatP= 4.06D-14
 IDIUse=1 WtCom= 1.00D+00 WtEn= 0.00D+00
 Coeff-Com:  0.182D-05-0.176D-05-0.157D-04-0.820D-06 0.184D-04 0.435D-04
 Coeff-Com: -0.168D-04 0.195D-04-0.108D-03-0.107D-03-0.149D-04 0.519D-03
 Coeff-Com:  0.103D-02-0.126D-02-0.144D-02-0.191D-02-0.245D-02-0.300D-02
 Coeff-Com:  0.870D-01 0.922D+00
 Coeff:      0.182D-05-0.176D-05-0.157D-04-0.820D-06 0.184D-04 0.435D-04
 Coeff:     -0.168D-04 0.195D-04-0.108D-03-0.107D-03-0.149D-04 0.519D-03
 Coeff:      0.103D-02-0.126D-02-0.144D-02-0.191D-02-0.245D-02-0.300D-02
 Coeff:      0.870D-01 0.922D+00
 Gap=     0.061 Goal=   None    Shift=    0.000
 Gap=     0.349 Goal=   None    Shift=    0.000
 RMSDP=3.23D-09 MaxDP=2.58D-07 DE=-1.46D-11 OVMax= 2.28D-07

 SCF Done:  E(UPBE1PBE) =  -1306.64985049     A.U. after   30 cycles
            NFock= 30  Conv=0.32D-08     -V/T= 2.0000
 <Sx>= 0.0000 <Sy>= 0.0000 <Sz>= 1.0000 <S**2>= 2.0032 S= 1.0011
 <L.S>=  0.00000000000    
 KE= 1.306599848262D+03 PE=-4.469628635172D+03 EE= 1.155357945564D+03
 Annihilation of the first spin contaminant:
 S**2 before annihilation     2.0032,   after     2.0000
 Leave Link  502 at Thu May 23 15:41:03 2024, MaxMem= 26843545600 cpu:            5558.0 elap:              48.8
 (Enter /gpfs/fs1/soft/improv/software/custom-built/gaussian/g16/l508.exe)
 QCSCF skips out because SCF is already converged.
 Leave Link  508 at Thu May 23 15:41:03 2024, MaxMem= 26843545600 cpu:               0.2 elap:               0.0
 (Enter /gpfs/fs1/soft/improv/software/custom-built/gaussian/g16/l801.exe)
 DoSCS=F DFT=T ScalE2(SS,OS)=  1.000000  1.000000
 Range of M.O.s used for correlation:     1   317
 NBasis=   317 NAE=    41 NBE=    39 NFC=     0 NFV=     0
 NROrb=    317 NOA=    41 NOB=    39 NVA=   276 NVB=   278

 **** Warning!!: The largest alpha MO coefficient is  0.78983163D+02


 **** Warning!!: The smallest alpha delta epsilon is  0.60790094D-01


 **** Warning!!: The largest beta MO coefficient is  0.78976865D+02

 Leave Link  801 at Thu May 23 15:41:03 2024, MaxMem= 26843545600 cpu:               0.4 elap:               0.0
 (Enter /gpfs/fs1/soft/improv/software/custom-built/gaussian/g16/l1101.exe)
 Using compressed storage, NAtomX=    19.
 Will process     20 centers per pass.
 R6Disp: Adding Grimme-D3 dispersion energy 1st derivatives to the gradient.
 Leave Link 1101 at Thu May 23 15:41:03 2024, MaxMem= 26843545600 cpu:              50.6 elap:               0.5
 (Enter /gpfs/fs1/soft/improv/software/custom-built/gaussian/g16/l1102.exe)
 Symmetrizing basis deriv contribution to polar:
 IMax=3 JMax=2 DiffMx= 0.00D+00
 Leave Link 1102 at Thu May 23 15:41:03 2024, MaxMem= 26843545600 cpu:               0.9 elap:               0.0
 (Enter /gpfs/fs1/soft/improv/software/custom-built/gaussian/g16/l1110.exe)
 Forming Gx(P) for the SCF density, NAtomX=    19.
 Integral derivatives from FoFJK, PRISM(SPDF).
 Do as many integral derivatives as possible in FoFJK.
 G2DrvN: MDV=   26843543431.
 G2DrvN: will do    20 centers at a time, making    1 passes.
 Calling FoFCou, ICntrl=  3107 FMM=F I1Cent=   0 AccDes= 0.00D+00.
 FoFJK:  IHMeth= 1 ICntrl=    3107 DoSepK=F KAlg= 0 I1Cent=           0 FoldK=F
 IRaf=         0 NMat=       1 IRICut=       1 DoRegI=T DoRafI=F ISym2E= 0 IDoP0=0 IntGTp=1.
 FoFCou: FMM=F IPFlag=           0 FMFlag=      100000 FMFlg1=           0
         NFxFlg=           0 DoJE=F BraDBF=F KetDBF=F FulRan=T
         wScrn=  0.000000 ICntrl=      3107 IOpCl=  1 I1Cent=           0 NGrid=           0
         NMat0=    1 NMatS0=      1 NMatT0=    0 NMatD0=    1 NMtDS0=    0 NMtDT0=    0
 Symmetry not used in FoFCou.
 End of G2Drv F.D. properties file   721 does not exist.
 End of G2Drv F.D. properties file   722 does not exist.
 End of G2Drv F.D. properties file   788 does not exist.
 Leave Link 1110 at Thu May 23 15:41:18 2024, MaxMem= 26843545600 cpu:            1874.8 elap:              14.9
 (Enter /gpfs/fs1/soft/improv/software/custom-built/gaussian/g16/l1002.exe)
 Minotr:  UHF open shell wavefunction.
          IDoAtm=1111111111111111111
          Direct CPHF calculation.
          Differentiating once with respect to electric field.
                with respect to dipole field.
          Differentiating once with respect to nuclear coordinates.
          Requested convergence is 1.0D-08 RMS, and 1.0D-07 maximum.
          Secondary convergence is 1.0D-12 RMS, and 1.0D-12 maximum.
          NewPWx=T KeepS1=F KeepF1=F KeepIn=T MapXYZ=F SortEE=F KeepMc=T.
         6034 words used for storage of precomputed grid.
 Two-electron integrals replicated using symmetry.
          MDV=   26843545600 using IRadAn=       1.
          Solving linear equations simultaneously, MaxMat=     384.
 FoF2E skips out because all densities are zero.
 CalDSu exits because no D1Ps are significant.
 FoFJK:  IHMeth= 1 ICntrl=       0 DoSepK=F KAlg= 0 I1Cent=           0 FoldK=F
 IRaf= 990000000 NMat=      57 IRICut=     142 DoRegI=T DoRafI=T ISym2E= 2 IDoP0=3 IntGTp=2.
 FoFCou: FMM=F IPFlag=           0 FMFlag=      100000 FMFlg1=           0
         NFxFlg=           0 DoJE=F BraDBF=F KetDBF=F FulRan=T
         wScrn=  0.000000 ICntrl=         0 IOpCl=  1 I1Cent=           0 NGrid=           0
         NMat0=   57 NMatS0=     57 NMatT0=    0 NMatD0=   57 NMtDS0=    0 NMtDT0=    0
 Integrals replicated using symmetry in FoFCou.
 Raff kept on since  98.06% of shell-pairs survive, threshold=   0.20 IRatSp=98.
          There are    60 degrees of freedom in the 1st order CPHF.  IDoFFX=6 NUNeed=     3.
     57 vectors produced by pass  0 Test12= 3.69D-14 1.67D-09 XBig12= 4.16D+02 1.44D+01.
 AX will form    57 AO Fock derivatives at one time.
     57 vectors produced by pass  1 Test12= 3.69D-14 1.67D-09 XBig12= 8.16D+01 2.13D+00.
     57 vectors produced by pass  2 Test12= 3.69D-14 1.67D-09 XBig12= 3.52D+00 2.51D-01.
     57 vectors produced by pass  3 Test12= 3.69D-14 1.67D-09 XBig12= 2.71D-02 1.86D-02.
     57 vectors produced by pass  4 Test12= 3.69D-14 1.67D-09 XBig12= 1.70D-04 1.14D-03.
     57 vectors produced by pass  5 Test12= 3.69D-14 1.67D-09 XBig12= 9.90D-07 9.29D-05.
     51 vectors produced by pass  6 Test12= 3.69D-14 1.67D-09 XBig12= 5.10D-09 5.58D-06.
     18 vectors produced by pass  7 Test12= 3.69D-14 1.67D-09 XBig12= 2.16D-11 3.48D-07.
      3 vectors produced by pass  8 Test12= 3.69D-14 1.67D-09 XBig12= 8.55D-14 2.97D-08.
 InvSVY:  IOpt=1 It=  1 EMax= 3.38D-14
 Solved reduced A of dimension   414 with    60 vectors.
 FullF1:  Do perturbations      1 to       3.
 Isotropic polarizability for W=    0.000000      101.34 Bohr**3.
 End of Minotr F.D. properties file   721 does not exist.
 End of Minotr F.D. properties file   722 does not exist.
 End of Minotr F.D. properties file   788 does not exist.
 Leave Link 1002 at Thu May 23 15:42:26 2024, MaxMem= 26843545600 cpu:            8177.4 elap:              67.4
 (Enter /gpfs/fs1/soft/improv/software/custom-built/gaussian/g16/l601.exe)
 Copying SCF densities to generalized density rwf, IOpCl= 1 IROHF=0.

 **********************************************************************

            Population analysis using the SCF Density.

 **********************************************************************

 Orbital symmetries:
 Alpha Orbitals:
       Occupied  (A) (A) (A) (A) (A) (A) (A) (A) (A) (A) (A) (A)
                 (A) (A) (A) (A) (A) (A) (A) (A) (A) (A) (A) (A)
                 (A) (A) (A) (A) (A) (A) (A) (A) (A) (A) (A) (A)
                 (A) (A) (A) (A) (A)
       Virtual   (A) (A) (A) (A) (A) (A) (A) (A) (A) (A) (A) (A)
                 (A) (A) (A) (A) (A) (A) (A) (A) (A) (A) (A) (A)
                 (A) (A) (A) (A) (A) (A) (A) (A) (A) (A) (A) (A)
                 (A) (A) (A) (A) (A) (A) (A) (A) (A) (A) (A) (A)
                 (A) (A) (A) (A) (A) (A) (A) (A) (A) (A) (A) (A)
                 (A) (A) (A) (A) (A) (A) (A) (A) (A) (A) (A) (A)
                 (A) (A) (A) (A) (A) (A) (A) (A) (A) (A) (A) (A)
                 (A) (A) (A) (A) (A) (A) (A) (A) (A) (A) (A) (A)
                 (A) (A) (A) (A) (A) (A) (A) (A) (A) (A) (A) (A)
                 (A) (A) (A) (A) (A) (A) (A) (A) (A) (A) (A) (A)
                 (A) (A) (A) (A) (A) (A) (A) (A) (A) (A) (A) (A)
                 (A) (A) (A) (A) (A) (A) (A) (A) (A) (A) (A) (A)
                 (A) (A) (A) (A) (A) (A) (A) (A) (A) (A) (A) (A)
                 (A) (A) (A) (A) (A) (A) (A) (A) (A) (A) (A) (A)
                 (A) (A) (A) (A) (A) (A) (A) (A) (A) (A) (A) (A)
                 (A) (A) (A) (A) (A) (A) (A) (A) (A) (A) (A) (A)
                 (A) (A) (A) (A) (A) (A) (A) (A) (A) (A) (A) (A)
                 (A) (A) (A) (A) (A) (A) (A) (A) (A) (A) (A) (A)
                 (A) (A) (A) (A) (A) (A) (A) (A) (A) (A) (A) (A)
                 (A) (A) (A) (A) (A) (A) (A) (A) (A) (A) (A) (A)
                 (A) (A) (A) (A) (A) (A) (A) (A) (A) (A) (A) (A)
                 (A) (A) (A) (A) (A) (A) (A) (A) (A) (A) (A) (A)
                 (A) (A) (A) (A) (A) (A) (A) (A) (A) (A) (A) (A)
 Beta  Orbitals:
       Occupied  (A) (A) (A) (A) (A) (A) (A) (A) (A) (A) (A) (A)
                 (A) (A) (A) (A) (A) (A) (A) (A) (A) (A) (A) (A)
                 (A) (A) (A) (A) (A) (A) (A) (A) (A) (A) (A) (A)
                 (A) (A) (A)
       Virtual   (A) (A) (A) (A) (A) (A) (A) (A) (A) (A) (A) (A)
                 (A) (A) (A) (A) (A) (A) (A) (A) (A) (A) (A) (A)
                 (A) (A) (A) (A) (A) (A) (A) (A) (A) (A) (A) (A)
                 (A) (A) (A) (A) (A) (A) (A) (A) (A) (A) (A) (A)
                 (A) (A) (A) (A) (A) (A) (A) (A) (A) (A) (A) (A)
                 (A) (A) (A) (A) (A) (A) (A) (A) (A) (A) (A) (A)
                 (A) (A) (A) (A) (A) (A) (A) (A) (A) (A) (A) (A)
                 (A) (A) (A) (A) (A) (A) (A) (A) (A) (A) (A) (A)
                 (A) (A) (A) (A) (A) (A) (A) (A) (A) (A) (A) (A)
                 (A) (A) (A) (A) (A) (A) (A) (A) (A) (A) (A) (A)
                 (A) (A) (A) (A) (A) (A) (A) (A) (A) (A) (A) (A)
                 (A) (A) (A) (A) (A) (A) (A) (A) (A) (A) (A) (A)
                 (A) (A) (A) (A) (A) (A) (A) (A) (A) (A) (A) (A)
                 (A) (A) (A) (A) (A) (A) (A) (A) (A) (A) (A) (A)
                 (A) (A) (A) (A) (A) (A) (A) (A) (A) (A) (A) (A)
                 (A) (A) (A) (A) (A) (A) (A) (A) (A) (A) (A) (A)
                 (A) (A) (A) (A) (A) (A) (A) (A) (A) (A) (A) (A)
                 (A) (A) (A) (A) (A) (A) (A) (A) (A) (A) (A) (A)
                 (A) (A) (A) (A) (A) (A) (A) (A) (A) (A) (A) (A)
                 (A) (A) (A) (A) (A) (A) (A) (A) (A) (A) (A) (A)
                 (A) (A) (A) (A) (A) (A) (A) (A) (A) (A) (A) (A)
                 (A) (A) (A) (A) (A) (A) (A) (A) (A) (A) (A) (A)
                 (A) (A) (A) (A) (A) (A) (A) (A) (A) (A) (A) (A)
                 (A) (A)
 The electronic state is 3-A.
 Alpha  occ. eigenvalues -- -179.25296 -20.16822 -19.63399 -19.62726 -19.62210
 Alpha  occ. eigenvalues --  -19.61771 -19.60566 -19.60314 -16.85050 -16.84742
 Alpha  occ. eigenvalues --  -16.84319  -2.66219  -1.79284  -1.79073  -1.78749
 Alpha  occ. eigenvalues --   -1.47814  -1.46016  -1.45318  -1.43900  -1.42919
 Alpha  occ. eigenvalues --   -1.42750  -1.00317  -0.98897  -0.96712  -0.96338
 Alpha  occ. eigenvalues --   -0.95227  -0.93830  -0.86830  -0.86201  -0.85370
 Alpha  occ. eigenvalues --   -0.83199  -0.82205  -0.79662  -0.78437  -0.76008
 Alpha  occ. eigenvalues --   -0.75674  -0.74106  -0.72538  -0.71231  -0.45347
 Alpha  occ. eigenvalues --   -0.42760
 Alpha virt. eigenvalues --   -0.36681  -0.31818  -0.30577  -0.28876  -0.28415
 Alpha virt. eigenvalues --   -0.25446  -0.25079  -0.22442  -0.22147  -0.19355
 Alpha virt. eigenvalues --   -0.18380  -0.17828  -0.17421  -0.16296  -0.15190
 Alpha virt. eigenvalues --   -0.14840  -0.14776  -0.13295  -0.12982  -0.12327
 Alpha virt. eigenvalues --   -0.11781  -0.10839  -0.10280  -0.08783  -0.08370
 Alpha virt. eigenvalues --   -0.07772  -0.07038  -0.06580  -0.05883  -0.04341
 Alpha virt. eigenvalues --   -0.03539  -0.03067  -0.02016  -0.01730  -0.01044
 Alpha virt. eigenvalues --   -0.00118  -0.00053   0.01793   0.02595   0.03978
 Alpha virt. eigenvalues --    0.04971   0.05596   0.06273   0.08072   0.08673
 Alpha virt. eigenvalues --    0.09031   0.11047   0.11795   0.13126   0.13668
 Alpha virt. eigenvalues --    0.16519   0.18279   0.19304   0.21961   0.24589
 Alpha virt. eigenvalues --    0.26376   0.41476   0.42171   0.42471   0.43805
 Alpha virt. eigenvalues --    0.46072   0.46582   0.47482   0.48942   0.51511
 Alpha virt. eigenvalues --    0.53530   0.54215   0.54673   0.54726   0.57378
 Alpha virt. eigenvalues --    0.57945   0.58116   0.58973   0.60362   0.60939
 Alpha virt. eigenvalues --    0.64191   0.66005   0.67778   0.68100   0.70090
 Alpha virt. eigenvalues --    0.71662   0.72380   0.73093   0.74277   0.75258
 Alpha virt. eigenvalues --    0.76906   0.77838   0.78277   0.81185   0.82070
 Alpha virt. eigenvalues --    0.84053   0.85120   0.88151   0.89847   0.90858
 Alpha virt. eigenvalues --    0.93437   0.95604   0.97861   0.98400   0.99711
 Alpha virt. eigenvalues --    1.01245   1.02507   1.05038   1.07124   1.09119
 Alpha virt. eigenvalues --    1.10012   1.17104   1.18940   1.21298   1.23051
 Alpha virt. eigenvalues --    1.27029   1.31551   1.32992   1.35602   1.37734
 Alpha virt. eigenvalues --    1.42554   1.43475   1.48212   1.50498   1.54330
 Alpha virt. eigenvalues --    1.55758   1.58015   1.60093   1.61421   1.67115
 Alpha virt. eigenvalues --    1.70915   1.88931   1.90130   1.91858   1.92284
 Alpha virt. eigenvalues --    1.93294   1.95546   1.96195   1.98022   2.02831
 Alpha virt. eigenvalues --    2.05702   2.08808   2.10255   2.11814   2.14519
 Alpha virt. eigenvalues --    2.17537   2.19171   2.22013   2.26531   2.28329
 Alpha virt. eigenvalues --    2.34058   2.40136   2.41737   2.48412   2.50259
 Alpha virt. eigenvalues --    2.52774   2.54627   2.56817   2.57770   2.59584
 Alpha virt. eigenvalues --    2.61422   2.63118   2.64448   2.66189   2.68302
 Alpha virt. eigenvalues --    2.69597   2.70302   2.70419   2.72637   2.75547
 Alpha virt. eigenvalues --    2.82639   2.84025   2.85728   2.87510   2.88210
 Alpha virt. eigenvalues --    2.89747   2.92411   2.96335   2.97404   3.00713
 Alpha virt. eigenvalues --    3.06507   3.09683   3.13182   3.27517   3.28000
 Alpha virt. eigenvalues --    3.28800   3.31624   3.34744   3.73058   3.75166
 Alpha virt. eigenvalues --    3.77991   3.80846   3.83067   3.84716   3.86863
 Alpha virt. eigenvalues --    3.88304   3.88870   3.89980   3.90970   3.94879
 Alpha virt. eigenvalues --    3.97411   3.99766   4.01681   4.08568   4.09190
 Alpha virt. eigenvalues --    4.12091   4.14642   4.20840   4.21566   4.24223
 Alpha virt. eigenvalues --    4.28598   4.31576   4.32463   4.40366   4.41460
 Alpha virt. eigenvalues --    4.42079   4.45784   4.46569   4.54922   4.56874
 Alpha virt. eigenvalues --    4.58824   4.60416   4.62186   4.62774   4.65395
 Alpha virt. eigenvalues --    4.74796   4.84631   4.90300   4.92224   4.96575
 Alpha virt. eigenvalues --    4.97082   4.98924   5.07338   5.09508   5.12239
 Alpha virt. eigenvalues --    5.12558   5.12788   5.13697   5.19950   5.20879
 Alpha virt. eigenvalues --    5.22440   5.27923   5.28980   5.30110   5.32333
 Alpha virt. eigenvalues --    5.34375   5.39062   5.40214   5.43837   5.46638
 Alpha virt. eigenvalues --    5.46974   5.48385   5.50056   5.51410   5.52785
 Alpha virt. eigenvalues --    5.56896   5.57877   5.59298   5.61168   5.61963
 Alpha virt. eigenvalues --    5.63710   5.65859   5.67009   5.70468   5.75390
 Alpha virt. eigenvalues --    6.03700   6.05950   6.09887   7.13658   7.16446
 Alpha virt. eigenvalues --    7.17412   7.28666   7.34333   7.38318  13.40455
 Alpha virt. eigenvalues --   13.42815  13.43795  13.99778  14.03732  14.09559
 Alpha virt. eigenvalues --   28.70942
  Beta  occ. eigenvalues -- -179.25297 -20.15248 -19.63413 -19.62719 -19.62199
  Beta  occ. eigenvalues --  -19.61760 -19.60568 -19.60347 -16.84078 -16.83409
  Beta  occ. eigenvalues --  -16.82577  -2.60467  -1.74703  -1.73176  -1.71517
  Beta  occ. eigenvalues --   -1.47537  -1.45822  -1.45060  -1.43329  -1.42499
  Beta  occ. eigenvalues --   -1.42309  -0.99712  -0.98415  -0.96345  -0.96072
  Beta  occ. eigenvalues --   -0.94938  -0.93604  -0.86422  -0.85786  -0.84980
  Beta  occ. eigenvalues --   -0.82878  -0.81864  -0.79435  -0.78055  -0.75808
  Beta  occ. eigenvalues --   -0.75402  -0.73724  -0.72323  -0.71094
  Beta virt. eigenvalues --   -0.36216  -0.31350  -0.29532  -0.27899  -0.27673
  Beta virt. eigenvalues --   -0.26662  -0.26169  -0.24255  -0.23994  -0.21222
  Beta virt. eigenvalues --   -0.20951  -0.18454  -0.17667  -0.17151  -0.16869
  Beta virt. eigenvalues --   -0.15755  -0.14484  -0.14375  -0.13753  -0.12487
  Beta virt. eigenvalues --   -0.11968  -0.11291  -0.11150  -0.10369  -0.09628
  Beta virt. eigenvalues --   -0.08212  -0.06993  -0.06740  -0.06314  -0.05919
  Beta virt. eigenvalues --   -0.05048  -0.03823  -0.02662  -0.02402  -0.01426
  Beta virt. eigenvalues --   -0.00941  -0.00406   0.00524   0.00667   0.02419
  Beta virt. eigenvalues --    0.03144   0.04686   0.05613   0.06136   0.06902
  Beta virt. eigenvalues --    0.08732   0.09412   0.09912   0.11731   0.12492
  Beta virt. eigenvalues --    0.13695   0.14311   0.17433   0.19502   0.20451
  Beta virt. eigenvalues --    0.22919   0.25819   0.27341   0.42358   0.43271
  Beta virt. eigenvalues --    0.44165   0.45058   0.47593   0.47969   0.49128
  Beta virt. eigenvalues --    0.50172   0.52141   0.54133   0.54873   0.55267
  Beta virt. eigenvalues --    0.55363   0.57889   0.58488   0.58937   0.59601
  Beta virt. eigenvalues --    0.61007   0.61700   0.64733   0.66434   0.68237
  Beta virt. eigenvalues --    0.68860   0.70546   0.72137   0.72946   0.73760
  Beta virt. eigenvalues --    0.74726   0.75590   0.77319   0.78256   0.78993
  Beta virt. eigenvalues --    0.81694   0.82671   0.84541   0.85577   0.88942
  Beta virt. eigenvalues --    0.90162   0.91268   0.93726   0.96742   0.98487
  Beta virt. eigenvalues --    0.99119   1.00346   1.01692   1.04559   1.05573
  Beta virt. eigenvalues --    1.07419   1.09699   1.10682   1.18439   1.20055
  Beta virt. eigenvalues --    1.22602   1.23965   1.27903   1.34515   1.35164
  Beta virt. eigenvalues --    1.38257   1.40684   1.44950   1.46115   1.49376
  Beta virt. eigenvalues --    1.51555   1.55317   1.56345   1.59445   1.61208
  Beta virt. eigenvalues --    1.63180   1.68542   1.72033   1.89658   1.90863
  Beta virt. eigenvalues --    1.92370   1.93056   1.94239   1.96081   1.96788
  Beta virt. eigenvalues --    1.98762   2.03561   2.06313   2.09405   2.11155
  Beta virt. eigenvalues --    2.12494   2.15434   2.18498   2.20161   2.23241
  Beta virt. eigenvalues --    2.27832   2.29797   2.36229   2.41279   2.42718
  Beta virt. eigenvalues --    2.49424   2.51423   2.53746   2.55789   2.57865
  Beta virt. eigenvalues --    2.58777   2.60460   2.62187   2.64095   2.65762
  Beta virt. eigenvalues --    2.67046   2.69248   2.70559   2.71052   2.71766
  Beta virt. eigenvalues --    2.73664   2.76393   2.83368   2.84562   2.86464
  Beta virt. eigenvalues --    2.88023   2.89348   2.91155   2.94488   2.97735
  Beta virt. eigenvalues --    2.99104   3.03701   3.08372   3.11366   3.14789
  Beta virt. eigenvalues --    3.29176   3.29844   3.30813   3.33609   3.37187
  Beta virt. eigenvalues --    3.73394   3.75463   3.78139   3.81551   3.83347
  Beta virt. eigenvalues --    3.85266   3.87076   3.88663   3.89307   3.90315
  Beta virt. eigenvalues --    3.91169   3.95214   3.97791   4.00032   4.01812
  Beta virt. eigenvalues --    4.08820   4.09490   4.12332   4.15121   4.21324
  Beta virt. eigenvalues --    4.22082   4.24786   4.32613   4.33718   4.34733
  Beta virt. eigenvalues --    4.40981   4.42674   4.44535   4.46083   4.49210
  Beta virt. eigenvalues --    4.55741   4.57705   4.59504   4.61815   4.62853
  Beta virt. eigenvalues --    4.63528   4.66567   4.77189   4.84827   4.90911
  Beta virt. eigenvalues --    4.92628   4.97085   4.97398   4.99407   5.07464
  Beta virt. eigenvalues --    5.09631   5.12428   5.12668   5.12925   5.13950
  Beta virt. eigenvalues --    5.20355   5.21234   5.22865   5.28430   5.29984
  Beta virt. eigenvalues --    5.30556   5.33289   5.34823   5.39448   5.40791
  Beta virt. eigenvalues --    5.44282   5.46910   5.47232   5.48755   5.50374
  Beta virt. eigenvalues --    5.52034   5.53363   5.57309   5.58179   5.59957
  Beta virt. eigenvalues --    5.61540   5.62653   5.64037   5.66534   5.67502
  Beta virt. eigenvalues --    5.70997   5.76147   6.03841   6.06121   6.10168
  Beta virt. eigenvalues --    7.13964   7.16793   7.17761   7.28849   7.34505
  Beta virt. eigenvalues --    7.38532  13.40696  13.43024  13.44014  13.99887
  Beta virt. eigenvalues --   14.03847  14.09673  28.72507
          Condensed to atoms (all electrons):
               1          2          3          4          5          6
     1  Ti  22.438935  -0.037886  -0.013393   0.121813  -0.021176  -0.316252
     2  O   -0.037886   8.078799   0.303613  -0.048828  -0.003304  -0.015507
     3  H   -0.013393   0.303613   0.289792   0.005281   0.000067  -0.009083
     4  O    0.121813  -0.048828   0.005281   8.139724   0.316013  -0.149130
     5  H   -0.021176  -0.003304   0.000067   0.316013   0.329129  -0.005395
     6  O   -0.316252  -0.015507  -0.009083  -0.149130  -0.005395   8.481538
     7  H    0.020629  -0.002806   0.000211   0.005099   0.001655   0.258571
     8  O   -0.051871   0.039861  -0.000381  -0.065960   0.009840  -0.131896
     9  H   -0.022640  -0.000168  -0.000036   0.000921  -0.000149  -0.001729
    10  O   -0.060549   0.004938   0.022013   0.014706  -0.001434  -0.010451
    11  H    0.010347   0.008385   0.000240  -0.000390   0.000045  -0.004546
    12  O   -0.377663  -0.029090  -0.010529  -0.008352  -0.021110   0.071989
    13  H   -0.013105  -0.004872   0.000338   0.014984   0.000334  -0.000469
    14  H    0.004946   0.004881  -0.000001  -0.003136   0.000183  -0.001462
    15  H   -0.011917   0.011438  -0.000194   0.292064  -0.023592  -0.001503
    16  H   -0.036259   0.332792  -0.018132  -0.007294  -0.000089   0.008588
    17  H   -0.033462  -0.002464   0.000330  -0.001194  -0.000008   0.010034
    18  H    0.019644   0.001776   0.000236   0.037551   0.005926   0.235050
    19  H    0.012788  -0.003018   0.000064   0.015096   0.008698   0.001990
               7          8          9         10         11         12
     1  Ti   0.020629  -0.051871  -0.022640  -0.060549   0.010347  -0.377663
     2  O   -0.002806   0.039861  -0.000168   0.004938   0.008385  -0.029090
     3  H    0.000211  -0.000381  -0.000036   0.022013   0.000240  -0.010529
     4  O    0.005099  -0.065960   0.000921   0.014706  -0.000390  -0.008352
     5  H    0.001655   0.009840  -0.000149  -0.001434   0.000045  -0.021110
     6  O    0.258571  -0.131896  -0.001729  -0.010451  -0.004546   0.071989
     7  H    0.335103   0.007289  -0.001210  -0.004427  -0.000004  -0.005967
     8  O    0.007289   8.172176   0.314918  -0.049801  -0.004513  -0.029513
     9  H   -0.001210   0.314918   0.291878   0.006017   0.001346   0.003987
    10  O   -0.004427  -0.049801   0.006017   8.160725   0.275144  -0.063435
    11  H   -0.000004  -0.004513   0.001346   0.275144   0.316686  -0.003325
    12  O   -0.005967  -0.029513   0.003987  -0.063435  -0.003325   8.459619
    13  H    0.000029  -0.003356  -0.000076   0.004596  -0.000273   0.305400
    14  H   -0.000043   0.007894   0.001512  -0.008475   0.006757   0.277315
    15  H   -0.000042   0.001236  -0.000028  -0.001838  -0.000002   0.004008
    16  H   -0.000420  -0.000239   0.000012  -0.003993   0.000053   0.001559
    17  H    0.002537  -0.000165  -0.002052   0.320896  -0.026422   0.000465
    18  H   -0.014807   0.000408   0.000130  -0.003273   0.000063  -0.006077
    19  H    0.015518   0.266768  -0.022771  -0.010783   0.000483  -0.016819
              13         14         15         16         17         18
     1  Ti  -0.013105   0.004946  -0.011917  -0.036259  -0.033462   0.019644
     2  O   -0.004872   0.004881   0.011438   0.332792  -0.002464   0.001776
     3  H    0.000338  -0.000001  -0.000194  -0.018132   0.000330   0.000236
     4  O    0.014984  -0.003136   0.292064  -0.007294  -0.001194   0.037551
     5  H    0.000334   0.000183  -0.023592  -0.000089  -0.000008   0.005926
     6  O   -0.000469  -0.001462  -0.001503   0.008588   0.010034   0.235050
     7  H    0.000029  -0.000043  -0.000042  -0.000420   0.002537  -0.014807
     8  O   -0.003356   0.007894   0.001236  -0.000239  -0.000165   0.000408
     9  H   -0.000076   0.001512  -0.000028   0.000012  -0.002052   0.000130
    10  O    0.004596  -0.008475  -0.001838  -0.003993   0.320896  -0.003273
    11  H   -0.000273   0.006757  -0.000002   0.000053  -0.026422   0.000063
    12  O    0.305400   0.277315   0.004008   0.001559   0.000465  -0.006077
    13  H    0.273127  -0.019369  -0.000467  -0.000099  -0.000012  -0.000027
    14  H   -0.019369   0.325041   0.000024  -0.000011  -0.000323   0.000047
    15  H   -0.000467   0.000024   0.283170   0.001433  -0.000000  -0.000006
    16  H   -0.000099  -0.000011   0.001433   0.292404  -0.000114   0.000278
    17  H   -0.000012  -0.000323  -0.000000  -0.000114   0.296531  -0.000298
    18  H   -0.000027   0.000047  -0.000006   0.000278  -0.000298   0.324311
    19  H    0.000149   0.000059  -0.000209  -0.000065   0.000483   0.002803
              19
     1  Ti   0.012788
     2  O   -0.003018
     3  H    0.000064
     4  O    0.015096
     5  H    0.008698
     6  O    0.001990
     7  H    0.015518
     8  O    0.266768
     9  H   -0.022771
    10  O   -0.010783
    11  H    0.000483
    12  O   -0.016819
    13  H    0.000149
    14  H    0.000059
    15  H   -0.000209
    16  H   -0.000065
    17  H    0.000483
    18  H    0.002803
    19  H    0.354189
          Atomic-Atomic Spin Densities.
               1          2          3          4          5          6
     1  Ti   3.126787  -0.080846  -0.009360  -0.004234  -0.015580  -0.401055
     2  O   -0.080846   0.067233  -0.001053  -0.011315  -0.003352   0.018952
     3  H   -0.009360  -0.001053   0.031028   0.003645   0.000095  -0.009916
[...]
    16  H   -0.000028   0.000002  -0.000008   0.300184   0.000000  -0.000003
    17  H    0.000002  -0.000004   0.000000   0.000000   0.297894  -0.000022
    18  H    0.000000   0.000000  -0.000004  -0.000003  -0.000022   0.297926
    19  H    0.000000  -0.000022  -0.000023   0.000000  -0.000004  -0.000004
              19
     1  Ti   0.002828
     2  O   -0.000279
     3  H    0.000000
     4  O    0.002461
     5  H   -0.000003
     6  O    0.002242
     7  H   -0.000009
     8  O    0.287545
     9  H   -0.015101
    10  O    0.000471
    11  H    0.000002
    12  O    0.001154
    13  H    0.000000
    14  H   -0.000022
    15  H   -0.000023
    16  H    0.000000
    17  H   -0.000004
    18  H   -0.000004
    19  H    0.297930
          Atomic-Atomic Spin Densities.
               1          2          3          4          5          6
     1  Ti   2.218013  -0.015415  -0.003774  -0.015354  -0.004939  -0.015345
     2  O   -0.015415  -0.010610   0.001955   0.000958  -0.000058   0.000477
     3  H   -0.003774   0.001955   0.003242  -0.000061   0.000001  -0.000264
     4  O   -0.015354   0.000958  -0.000061  -0.010739   0.004000   0.000969
     5  H   -0.004939  -0.000058   0.000001   0.004000   0.004183   0.000567
     6  O   -0.015345   0.000477  -0.000264   0.000969   0.000567  -0.010741
     7  H   -0.004942  -0.000261   0.000001  -0.000056  -0.000015   0.004001
     8  O   -0.015415   0.000031  -0.000028   0.000487   0.000254   0.000952
     9  H   -0.004928  -0.000003  -0.000000  -0.000262  -0.000002  -0.000057
    10  O   -0.015354   0.000488   0.000975   0.000028  -0.000003   0.000500
    11  H   -0.004939   0.000254   0.000023  -0.000003   0.000000  -0.000261
    12  O   -0.015345   0.000952   0.000285   0.000500  -0.000261   0.000026
    13  H   -0.004942   0.000567   0.000024   0.000255  -0.000002  -0.000003
    14  H   -0.003779  -0.000061  -0.000002  -0.000265   0.000001  -0.000028
    15  H   -0.003778   0.000285  -0.000002   0.001962  -0.001291  -0.000061
    16  H   -0.004928   0.003998  -0.001289   0.000562  -0.000015   0.000253
    17  H   -0.003778  -0.000265  -0.000011  -0.000028  -0.000000   0.000974
    18  H   -0.003779   0.000977  -0.000011   0.000283   0.000024   0.001959
    19  H   -0.003774  -0.000028   0.000000   0.000975   0.000023   0.000285
               7          8          9         10         11         12
     1  Ti  -0.004942  -0.015415  -0.004928  -0.015354  -0.004939  -0.015345
     2  O   -0.000261   0.000031  -0.000003   0.000488   0.000254   0.000952
     3  H    0.000001  -0.000028  -0.000000   0.000975   0.000023   0.000285
     4  O   -0.000056   0.000487  -0.000262   0.000028  -0.000003   0.000500
     5  H   -0.000015   0.000254  -0.000002  -0.000003   0.000000  -0.000261
     6  O    0.004001   0.000952  -0.000057   0.000500  -0.000261   0.000026
     7  H    0.004180   0.000567  -0.000015   0.000255  -0.000002  -0.000003
     8  O    0.000567  -0.010611   0.003998   0.000958  -0.000058   0.000477
     9  H   -0.000015   0.003998   0.004172   0.000562  -0.000015   0.000253
    10  O    0.000255   0.000958   0.000562  -0.010739   0.004000   0.000969
    11  H   -0.000002  -0.000058  -0.000015   0.004000   0.004183   0.000567
    12  O   -0.000003   0.000477   0.000253   0.000969   0.000567  -0.010740
    13  H    0.000000  -0.000261  -0.000002  -0.000056  -0.000015   0.004001
    14  H   -0.000000   0.000977   0.000023   0.000283   0.000024   0.001959
    15  H    0.000001  -0.000265   0.000001  -0.000028  -0.000000   0.000974
    16  H   -0.000002  -0.000003   0.000000  -0.000262  -0.000002  -0.000057
    17  H    0.000023   0.000285   0.000024   0.001962  -0.001291  -0.000061
    18  H   -0.001292  -0.000061   0.000001  -0.000265   0.000001  -0.000028
    19  H    0.000024   0.001955  -0.001289  -0.000061   0.000001  -0.000264
              13         14         15         16         17         18
     1  Ti  -0.004942  -0.003779  -0.003778  -0.004928  -0.003778  -0.003779
     2  O    0.000567  -0.000061   0.000285   0.003998  -0.000265   0.000977
     3  H    0.000024  -0.000002  -0.000002  -0.001289  -0.000011  -0.000011
     4  O    0.000255  -0.000265   0.001962   0.000562  -0.000028   0.000283
     5  H   -0.000002   0.000001  -0.001291  -0.000015  -0.000000   0.000024
     6  O   -0.000003  -0.000028  -0.000061   0.000253   0.000974   0.001959
     7  H    0.000000  -0.000000   0.000001  -0.000002   0.000023  -0.001292
     8  O   -0.000261   0.000977  -0.000265  -0.000003   0.000285  -0.000061
     9  H   -0.000002   0.000023   0.000001   0.000000   0.000024   0.000001
    10  O   -0.000056   0.000283  -0.000028  -0.000262   0.001962  -0.000265
    11  H   -0.000015   0.000024  -0.000000  -0.000002  -0.001291   0.000001
    12  O    0.004001   0.001959   0.000974  -0.000057  -0.000061  -0.000028
    13  H    0.004180  -0.001292   0.000023  -0.000015   0.000001  -0.000000
    14  H   -0.001292   0.003252  -0.000011   0.000001  -0.000002   0.000000
    15  H    0.000023  -0.000011   0.003246   0.000024   0.000000  -0.000002
    16  H   -0.000015   0.000001   0.000024   0.004172   0.000001   0.000023
    17  H    0.000001  -0.000002   0.000000   0.000001   0.003246  -0.000011
    18  H   -0.000000   0.000000  -0.000002   0.000023  -0.000011   0.003252
    19  H    0.000001  -0.000011  -0.000011  -0.000000  -0.000002  -0.000002
              19
     1  Ti  -0.003774
     2  O   -0.000028
     3  H    0.000000
     4  O    0.000975
     5  H    0.000023
     6  O    0.000285
     7  H    0.000024
     8  O    0.001955
     9  H   -0.001289
    10  O   -0.000061
    11  H    0.000001
    12  O   -0.000264
    13  H    0.000001
    14  H   -0.000011
    15  H   -0.000011
    16  H   -0.000000
    17  H   -0.000002
    18  H   -0.000002
    19  H    0.003242
 Mulliken charges and spin densities:
               1          2
     1  Ti   1.355818   2.073505
     2  O   -0.729961  -0.015760
     3  H    0.420813   0.001064
     4  O   -0.730092  -0.015788
     5  H    0.416505   0.002469
     6  O   -0.729886  -0.015797
     7  H    0.416500   0.002463
     8  O   -0.729960  -0.015760
     9  H    0.416524   0.002463
    10  O   -0.730090  -0.015788
    11  H    0.416505   0.002469
    12  O   -0.729885  -0.015797
    13  H    0.416500   0.002463
    14  H    0.420824   0.001068
    15  H    0.420862   0.001066
    16  H    0.416524   0.002463
    17  H    0.420862   0.001066
    18  H    0.420824   0.001068
    19  H    0.420813   0.001064
 Sum of Mulliken charges =   2.00000   2.00000
 Mulliken charges and spin densities with hydrogens summed into heavy atoms:
               1          2
     1  Ti   1.355818   2.073505
     2  O    0.107376  -0.012234
     4  O    0.107275  -0.012253
     6  O    0.107438  -0.012266
     8  O    0.107377  -0.012234
    10  O    0.107276  -0.012253
    12  O    0.107439  -0.012266
 Electronic spatial extent (au):  <R**2>=           1218.7608
 Charge=              2.0000 electrons
 Dipole moment (field-independent basis, Debye):
    X=              0.0000    Y=             -0.0000    Z=              0.0000  Tot=              0.0000
 Quadrupole moment (field-independent basis, Debye-Ang):
   XX=            -13.9212   YY=            -13.9271   ZZ=            -18.6676
   XY=             -0.0016   XZ=             -0.0014   YZ=              0.0014
 Traceless Quadrupole moment (field-independent basis, Debye-Ang):
   XX=              1.5841   YY=              1.5782   ZZ=             -3.1623
   XY=             -0.0016   XZ=             -0.0014   YZ=              0.0014
 Octapole moment (field-independent basis, Debye-Ang**2):
  XXX=              0.0001  YYY=             -0.0002  ZZZ=              0.0001  XYY=              0.0000
  XXY=             -0.0000  XXZ=             -0.0000  XZZ=             -0.0000  YZZ=              0.0001
  YYZ=             -0.0000  XYZ=              0.0000
 Hexadecapole moment (field-independent basis, Debye-Ang**3):
 XXXX=           -240.7616 YYYY=           -240.5553 ZZZZ=           -295.1524 XXXY=             -0.0666
 XXXZ=             27.2484 YYYX=              0.0763 YYYZ=            -34.7645 ZZZX=              0.0600
 ZZZY=              0.1538 XXYY=            -80.2809 XXZZ=            -25.7901 YYZZ=            -25.9253
 XXYZ=             34.6319 YYXZ=            -27.3143 ZZXY=             -0.0135
 N-N= 5.857251460545D+02 E-N=-4.240500392736D+03  KE= 1.303410357799D+03
                          Isotropic Fermi Contact Couplings
        Atom                 a.u.       MegaHertz       Gauss      10(-4) cm-1
     1  Ti(47)            -0.11122      14.03528       5.00814       4.68167
     2  O(17)             -0.01417       4.29628       1.53302       1.43308
     3  H(1)               0.00110       2.45830       0.87718       0.82000
     4  O(17)             -0.01422       4.30900       1.53756       1.43733
     5  H(1)               0.00185       4.13436       1.47524       1.37908
     6  O(17)             -0.01424       4.31674       1.54032       1.43991
     7  H(1)               0.00185       4.12816       1.47303       1.37701
     8  O(17)             -0.01417       4.29631       1.53303       1.43310
     9  H(1)               0.00185       4.12554       1.47209       1.37613
    10  O(17)             -0.01422       4.30904       1.53757       1.43734
    11  H(1)               0.00185       4.13440       1.47526       1.37909
    12  O(17)             -0.01424       4.31673       1.54032       1.43991
    13  H(1)               0.00185       4.12812       1.47302       1.37699
    14  H(1)               0.00110       2.46466       0.87945       0.82212
    15  H(1)               0.00110       2.46170       0.87839       0.82113
    16  H(1)               0.00185       4.12549       1.47208       1.37611
    17  H(1)               0.00110       2.46181       0.87844       0.82117
    18  H(1)               0.00110       2.46463       0.87944       0.82211
    19  H(1)               0.00110       2.45837       0.87721       0.82002
 --------------------------------------------------------
       Center         ----  Spin Dipole Couplings  ----
                      3XX-RR        3YY-RR        3ZZ-RR
 --------------------------------------------------------
     1   Atom        0.290943      0.290192     -0.581134
     2   Atom       -0.003289      0.004516     -0.001227
     3   Atom       -0.006931      0.002340      0.004591
     4   Atom       -0.013799      0.015077     -0.001278
     5   Atom        0.010909     -0.005678     -0.005231
     6   Atom        0.018955     -0.017786     -0.001169
     7   Atom        0.009075     -0.003864     -0.005211
     8   Atom       -0.003290      0.004517     -0.001227
     9   Atom       -0.012137      0.017386     -0.005249
    10   Atom       -0.013798      0.015076     -0.001277
    11   Atom        0.010909     -0.005678     -0.005231
    12   Atom        0.018955     -0.017787     -0.001169
    13   Atom        0.009075     -0.003864     -0.005211
    14   Atom        0.007503     -0.012122      0.004619
    15   Atom       -0.007479      0.002856      0.004623
    16   Atom       -0.012137      0.017386     -0.005250
    17   Atom       -0.007479      0.002856      0.004623
    18   Atom        0.007503     -0.012122      0.004619
    19   Atom       -0.006930      0.002340      0.004591
 --------------------------------------------------------
                        XY            XZ            YZ
 --------------------------------------------------------
     1   Atom        0.000892      0.000995      0.000280
     2   Atom        0.018989      0.014056     -0.008104
     3   Atom        0.008673     -0.008908     -0.014878
     4   Atom       -0.012838     -0.014053     -0.008005
     5   Atom       -0.012245     -0.012161      0.006221
     6   Atom       -0.006106      0.000023      0.016177
     7   Atom        0.013290      0.011487      0.007423
     8   Atom        0.018989      0.014056     -0.008103
     9   Atom       -0.001044      0.000685     -0.013626
    10   Atom       -0.012839     -0.014052     -0.008005
    11   Atom       -0.012245     -0.012161      0.006221
    12   Atom       -0.006106      0.000023      0.016177
    13   Atom        0.013290      0.011487      0.007423
    14   Atom       -0.000334      0.017340     -0.000285
    15   Atom       -0.008345     -0.008447      0.015145
    16   Atom       -0.001044      0.000685     -0.013626
    17   Atom       -0.008346     -0.008447      0.015145
    18   Atom       -0.000334      0.017340     -0.000285
    19   Atom        0.008673     -0.008908     -0.014878
 --------------------------------------------------------


 ---------------------------------------------------------------------------------
              Anisotropic Spin Dipole Couplings in Principal Axis System
 ---------------------------------------------------------------------------------

       Atom             a.u.   MegaHertz   Gauss  10(-4) cm-1        Axes

              Baa    -0.5811    17.508     6.247     5.840 -0.0011 -0.0003  1.0000
     1 Ti(47) Bbb     0.2896    -8.725    -3.113    -2.910 -0.5530  0.8332 -0.0004
              Bcc     0.2915    -8.783    -3.134    -2.930  0.8332  0.5530  0.0011
 
              Baa    -0.0283     2.048     0.731     0.683  0.6833 -0.5216 -0.5110
     2 O(17)  Bbb     0.0078    -0.568    -0.203    -0.189  0.2789 -0.4603  0.8428
              Bcc     0.0204    -1.480    -0.528    -0.494  0.6748  0.7184  0.1691
 
              Baa    -0.0121    -6.472    -2.309    -2.159  0.8549 -0.5187 -0.0061
     3 H(1)   Bbb    -0.0113    -6.050    -2.159    -2.018  0.3548  0.5760  0.7364
              Bcc     0.0235    12.522     4.468     4.177 -0.3785 -0.6317  0.6765
 
              Baa    -0.0282     2.041     0.728     0.681  0.7931  0.3299  0.5119
     4 O(17)  Bbb     0.0078    -0.567    -0.202    -0.189 -0.5366 -0.0189  0.8436
              Bcc     0.0204    -1.474    -0.526    -0.492 -0.2880  0.9438 -0.1621
 
              Baa    -0.0122    -6.527    -2.329    -2.177  0.5583  0.7831  0.2740
     5 H(1)   Bbb    -0.0116    -6.185    -2.207    -2.063  0.2175 -0.4569  0.8625
              Bcc     0.0238    12.712     4.536     4.240  0.8006 -0.4220 -0.4254
 
              Baa    -0.0282     2.044     0.729     0.682  0.1106  0.8531 -0.5098
     6 O(17)  Bbb     0.0079    -0.569    -0.203    -0.190  0.2575  0.4709  0.8438
              Bcc     0.0204    -1.475    -0.526    -0.492  0.9599 -0.2246 -0.1676
 
              Baa    -0.0122    -6.527    -2.329    -2.177 -0.3986  0.8754 -0.2734
     7 H(1)   Bbb    -0.0116    -6.186    -2.207    -2.063 -0.5047  0.0395  0.8624
              Bcc     0.0238    12.713     4.536     4.241  0.7658  0.4817  0.4261
 
              Baa    -0.0283     2.047     0.731     0.683  0.6833 -0.5216 -0.5109
     8 O(17)  Bbb     0.0078    -0.568    -0.203    -0.189  0.2789 -0.4603  0.8428
              Bcc     0.0204    -1.479    -0.528    -0.494  0.6748  0.7184  0.1690
 
              Baa    -0.0122    -6.526    -2.329    -2.177  0.9572 -0.0925 -0.2744
     9 H(1)   Bbb    -0.0116    -6.185    -2.207    -2.063  0.2875  0.4160  0.8627
              Bcc     0.0238    12.711     4.536     4.240 -0.0344  0.9046 -0.4248
 
              Baa    -0.0282     2.041     0.728     0.681  0.7932  0.3299  0.5119
    10 O(17)  Bbb     0.0078    -0.567    -0.202    -0.189 -0.5366 -0.0189  0.8436
              Bcc     0.0204    -1.474    -0.526    -0.492 -0.2880  0.9438 -0.1621
 
              Baa    -0.0122    -6.527    -2.329    -2.177  0.5583  0.7831  0.2740
    11 H(1)   Bbb    -0.0116    -6.185    -2.207    -2.063  0.2175 -0.4569  0.8625
              Bcc     0.0238    12.712     4.536     4.240  0.8006 -0.4220 -0.4254
 
              Baa    -0.0282     2.044     0.729     0.682  0.1106  0.8531 -0.5098
    12 O(17)  Bbb     0.0079    -0.569    -0.203    -0.190  0.2575  0.4709  0.8438
              Bcc     0.0204    -1.475    -0.526    -0.492  0.9599 -0.2246 -0.1676
 
              Baa    -0.0122    -6.527    -2.329    -2.177 -0.3986  0.8754 -0.2734
    13 H(1)   Bbb    -0.0116    -6.186    -2.207    -2.063 -0.5047  0.0395  0.8624
              Bcc     0.0238    12.713     4.536     4.241  0.7658  0.4817  0.4261
 
              Baa    -0.0121    -6.471    -2.309    -2.158  0.0230  0.9997 -0.0068
    14 H(1)   Bbb    -0.0113    -6.050    -2.159    -2.018 -0.6768  0.0206  0.7358
              Bcc     0.0235    12.520     4.468     4.176  0.7358 -0.0123  0.6771
 
              Baa    -0.0121    -6.471    -2.309    -2.158  0.8768  0.4808  0.0075
    15 H(1)   Bbb    -0.0113    -6.049    -2.158    -2.018  0.3208 -0.5964  0.7358
              Bcc     0.0235    12.520     4.467     4.176 -0.3582  0.6427  0.6772
 
              Baa    -0.0122    -6.526    -2.329    -2.177  0.9572 -0.0925 -0.2744
    16 H(1)   Bbb    -0.0116    -6.185    -2.207    -2.063  0.2875  0.4160  0.8627
              Bcc     0.0238    12.711     4.536     4.240 -0.0343  0.9046 -0.4248
 
              Baa    -0.0121    -6.471    -2.309    -2.158  0.8768  0.4808  0.0075
    17 H(1)   Bbb    -0.0113    -6.049    -2.158    -2.018  0.3208 -0.5964  0.7358
              Bcc     0.0235    12.520     4.467     4.176 -0.3582  0.6427  0.6772
 
              Baa    -0.0121    -6.471    -2.309    -2.158  0.0230  0.9997 -0.0068
    18 H(1)   Bbb    -0.0113    -6.050    -2.159    -2.018 -0.6768  0.0206  0.7358
              Bcc     0.0235    12.520     4.468     4.176  0.7358 -0.0123  0.6771
 
              Baa    -0.0121    -6.472    -2.309    -2.159  0.8549 -0.5187 -0.0061
    19 H(1)   Bbb    -0.0113    -6.050    -2.159    -2.018  0.3548  0.5761  0.7364
              Bcc     0.0235    12.522     4.468     4.177 -0.3785 -0.6317  0.6765
 

 ---------------------------------------------------------------------------------

 No NMR shielding tensors so no spin-rotation constants.
 Leave Link  601 at Thu May 23 17:26:04 2024, MaxMem= 26843545600 cpu:              28.9 elap:               0.3
 (Enter /gpfs/fs1/soft/improv/software/custom-built/gaussian/g16/l9999.exe)
 Unable to Open any file for archive entry.
 1\1\GINC-I222\SP\UPBE1PBE\Gen\H12O6Ti1(2+,3)\HHARB\23-May-2024\0\\#p P
 BE1PBE empiricaldispersion=gd3 scf=(maxcycles=500,xqc,maxconventional=
 50) scrf=(cpcm,solvent=water) geom=allcheck guess=read chkbasis\\Title
 \\2,3\Ti,-0.7848177488,0.7129503506,0.0317929471\O,-1.2610012215,2.836
 4911962,-0.2808517228\H,-2.1047012808,3.2089295477,-0.5621338527\O,1.3
 323185088,1.289326552,0.1712090495\H,1.8728892941,1.2844072973,0.96980
 818\O,-0.9049417921,0.926426132,2.2167637265\H,-0.9961010379,0.2095374
 911,2.8553282507\O,-0.3086311777,-1.4105891478,0.3444369128\H,-0.88500
 34745,-2.1587621585,0.1494083932\O,-2.9019532203,0.1365756736,-0.10762
 70688\H,-3.4425238355,0.1415066377,-0.9062267877\O,-0.6646911622,0.499
 4798293,-2.1531785178\H,-0.573533494,1.2163719079,-2.7917395296\H,-0.6
 131987964,-0.3214034711,-2.6563309205\H,1.9226908731,1.5189026779,-0.5
 557111075\H,-0.6846229542,3.5846617998,-0.0858328569\H,-3.4923241129,-
 0.0930199964,0.6192889692\H,-0.956438131,1.7473116998,2.7199112449\H,0
 .5350671938,-1.7830242492,0.6257301004\\Version=ES64L-G16RevC.02\State
 =3-A\HF=-1307.2430585\S2=2.00199\S2-1=0.\S2A=2.000003\RMSD=1.578e-09\D
 ipole=-0.0000017,-0.0000036,-0.0000018\Quadrupole=-0.7506036,0.3631895
 ,0.3874142,1.2499037,1.234363,-0.7982179\PG=C01 [X(H12O6Ti1)]\\@
 The archive entry for this job was punched.


 IT IS THE BEHAVIOR AND DISTRIBUTION OF THE ELECTRONS 
 AROUND THE NUCLEUS THAT GIVES THE FUNDAMENTAL 
 CHARACTER OF AN ATOM:  IT MUST BE THE SAME FOR MOLECULES.

                               -- C. A. COULSON, 1951
 Job cpu time:       0 days  0 hours 56 minutes  1.4 seconds.
 Elapsed time:       0 days  0 hours  0 minutes 30.4 seconds.
 File lengths (MBytes):  RWF=    124 Int=      0 D2E=      0 Chk=     32 Scr=      1
 Normal termination of Gaussian 16 at Thu May 23 17:26:04 2024.
