 Entering Gaussian System, Link 0=g16
 Input=Ti_2_BLYP.com
 Output=Ti_2_BLYP.log
 Initial command:
 /gpfs/fs1/soft/improv/software/custom-built/gaussian/g16/l1.exe "/scratch/Gau-270319.inp" -scrdir="/scratch/"
 Default CPUs for threads: 0-127
 Default linda workers: i068.lcrc.anl.gov
 Default is to use 128 SMP processors on each worker.
 Entering Link 1 = /gpfs/fs1/soft/improv/software/custom-built/gaussian/g16/l1.exe PID=    270320.
  
 Copyright (c) 1988-2021, Gaussian, Inc.  All Rights Reserved.
  
 This is part of the Gaussian(R) 16 program.  It is based on
 the Gaussian(R) 09 system (copyright 2009, Gaussian, Inc.),
 the Gaussian(R) 03 system (copyright 2003, Gaussian, Inc.),
 the Gaussian(R) 98 system (copyright 1998, Gaussian, Inc.),
 the Gaussian(R) 94 system (copyright 1995, Gaussian, Inc.),
 the Gaussian 92(TM) system (copyright 1992, Gaussian, Inc.),
 the Gaussian 90(TM) system (copyright 1990, Gaussian, Inc.),
 the Gaussian 88(TM) system (copyright 1988, Gaussian, Inc.),
 the Gaussian 86(TM) system (copyright 1986, Carnegie Mellon
 University), and the Gaussian 82(TM) system (copyright 1983,
 Carnegie Mellon University). Gaussian is a federally registered
 trademark of Gaussian, Inc.
  
 This software contains proprietary and confidential information,
 including trade secrets, belonging to Gaussian, Inc.
  
 This software is provided under written license and may be
 used, copied, transmitted, or stored only in accord with that
 written license.
  
 The following legend is applicable only to US Government
 contracts under FAR:
  
                    RESTRICTED RIGHTS LEGEND
  
 Use, reproduction and disclosure by the US Government is
 subject to restrictions as set forth in subparagraphs (a)
 and (c) of the Commercial Computer Software - Restricted
 Rights clause in FAR 52.227-19.
  
 Gaussian, Inc.
 340 Quinnipiac St., Bldg. 40, Wallingford CT 06492
  
  
 ---------------------------------------------------------------
 Warning -- This program may not be used in any manner that
 competes with the business of Gaussian, Inc. or will provide
 assistance to any competitor of Gaussian, Inc.  The licensee
 of this program is prohibited from giving any competitor of
 Gaussian, Inc. access to this program.  By using this program,
 the user acknowledges that Gaussian, Inc. is engaged in the
 business of creating and licensing software in the field of
 computational chemistry and represents and warrants to the
 licensee that it is not a competitor of Gaussian, Inc. and that
 it will not use this program in any manner prohibited above.
 ---------------------------------------------------------------
  

 Cite this work as:
 Gaussian 16, Revision C.02,
 M. J. Frisch, G. W. Trucks, H. B. Schlegel, G. E. Scuseria, 
 M. A. Robb, J. R. Cheeseman, G. Scalmani, V. Barone, 
 G. A. Petersson, H. Nakatsuji, X. Li, M. Caricato, A. V. Marenich, 
 J. Bloino, B. G. Janesko, R. Gomperts, B. Mennucci, H. P. Hratchian, 
 J. V. Ortiz, A. F. Izmaylov, J. L. Sonnenberg, D. Williams-Young, 
 F. Ding, F. Lipparini, F. Egidi, J. Goings, B. Peng, A. Petrone, 
 T. Henderson, D. Ranasinghe, V. G. Zakrzewski, J. Gao, N. Rega, 
 G. Zheng, W. Liang, M. Hada, M. Ehara, K. Toyota, R. Fukuda, 
 J. Hasegawa, M. Ishida, T. Nakajima, Y. Honda, O. Kitao, H. Nakai, 
 T. Vreven, K. Throssell, J. A. Montgomery, Jr., J. E. Peralta, 
 F. Ogliaro, M. J. Bearpark, J. J. Heyd, E. N. Brothers, K. N. Kudin, 
 V. N. Staroverov, T. A. Keith, R. Kobayashi, J. Normand, 
 K. Raghavachari, A. P. Rendell, J. C. Burant, S. S. Iyengar, 
 J. Tomasi, M. Cossi, J. M. Millam, M. Klene, C. Adamo, R. Cammi, 
 J. W. Ochterski, R. L. Martin, K. Morokuma, O. Farkas, 
 J. B. Foresman, and D. J. Fox, Gaussian, Inc., Wallingford CT, 2019.
 
 ******************************************
 Gaussian 16:  ES64L-G16RevC.02  7-Dec-2021
                23-May-2024 
 ******************************************
 %chk=Ti_2_BLYP.chk
 SetSPE:  set environment variable "OMP_PROC_BIND" = "true"
 SetSPE:  set environment variable "OMP_PLACES" = "{0},{1},{2},{3},{4},{5},{6},{7},{8},{9},{10},{11},{12},{13},{14},{15},{16},{17},{18},{19},{20},{21},{22},{23},{24},{25},{26},{27},{28},{29},{30},{31},{32},{33},{34},{35},{36},{37},{38},{39},{40},{41},{42},{43},{44},{45},{46},{47},{48},{49},{50},{51},{52},{53},{54},{55},{56},{57},{58},{59},{60},{61},{62},{63},{64},{65},{66},{67},{68},{69},{70},{71},{72},{73},{74},{75},{76},{77},{78},{79},{80},{81},{82},{83},{84},{85},{86},{87},{88},{89},{90},{91},{92},{93},{94},{95},{96},{97},{98},{99},{100},{101},{102},{103},{104},{105},{106},{107},{108},{109},{110},{111},{112},{113},{114},{115},{116},{117},{118},{119},{120},{121},{122},{123},{124},{125},{126},{127}"
 SetLPE:    new flags="-opt 'Tsnet.Node.lindarsharg: ssh'  -nodelist 'i068.lcrc.anl.gov' -env GAUSS_MDEF=26843545600 -env GAUSS_EXEDIR="/gpfs/fs1/soft/improv/software/custom-built/gaussian/g16/bsd:/gpfs/fs1/soft/improv/software/custom-built/gaussian/g16" -env "OMP_PROC_BIND=true" -env "OMP_PLACES={0},{1},{2},{3},{4},{5},{6},{7},{8},{9},{10},{11},{12},{13},{14},{15},{16},{17},{18},{19},{20},{21},{22},{23},{24},{25},{26},{27},{28},{29},{30},{31},{32},{33},{34},{35},{36},{37},{38},{39},{40},{41},{42},{43},{44},{45},{46},{47},{48},{49},{50},{51},{52},{53},{54},{55},{56},{57},{58},{59},{60},{61},{62},{63},{64},{65},{66},{67},{68},{69},{70},{71},{72},{73},{74},{75},{76},{77},{78},{79},{80},{81},{82},{83},{84},{85},{86},{87},{88},{89},{90},{91},{92},{93},{94},{95},{96},{97},{98},{99},{100},{101},{102},{103},{104},{105},{106},{107},{108},{109},{110},{111},{112},{113},{114},{115},{116},{117},{118},{119},{120},{121},{122},{123},{124},{125},{126},{127}" -env GAUSS_ADEF="0,1,2,3,4,5,6,7,8,9,10,11,12,13,14,15,16,17,18,19,20,21,22,23,24,25,26,27,28,29,30,31,32,33,34,35,36,37,38,39,40,41,42,43,44,45,46,47,48,49,50,51,52,53,54,55,56,57,58,59,60,61,62,63,64,65,66,67,68,69,70,71,72,73,74,75,76,77,78,79,80,81,82,83,84,85,86,87,88,89,90,91,92,93,94,95,96,97,98,99,100,101,102,103,104,105,106,107,108,109,110,111,112,113,114,115,116,117,118,119,120,121,122,123,124,125,126,127""
 Will use up to    1 processors via Linda.
 ----------------------------------------------------------------------
 #p BLYP empiricaldispersion=gd3 6-31+G(2df,p) opt=(cartesian,calcall,m
 axcycles=500) freq scf=(maxcycles=500,xqc,maxconventional=50)
 ----------------------------------------------------------------------
 1/6=500,10=4,18=10,26=3,38=1/1,3;
 2/12=2,17=6,18=5,29=2,40=1/2;
 3/5=1,6=6,7=114,11=2,25=1,30=1,71=2,74=402,124=31,140=1/1,2,3;
 4//1;
 5/5=2,7=500,8=3,13=1,38=5,85=50/2,8;
 8/6=4,10=90,11=11/1;
 11/6=1,8=1,9=11,15=111,16=1/1,2,10;
 10/6=1/2;
 6/7=2,8=2,9=2,10=2,18=1,28=1/1;
 7/7=1,10=1,25=1/1,2,3,16;
 1/6=500,10=4,18=10,26=3/3(3);
 2/29=1/2;
 7/7=1,8=1,9=1,25=1,44=-1/16;
 99/12=1/99;
 2/29=1/2;
 3/5=1,6=6,7=114,11=2,25=1,30=1,71=2,74=402,124=31,140=1/1,2,3;
 4/5=5,16=3,69=1/1;
 5/5=2,7=500,8=3,13=1,38=5,85=50/2,8;
 8/6=4,10=90,11=11/1;
 11/6=1,8=1,9=11,15=111,16=1/1,2,10;
 10/6=1/2;
 7/7=1,10=1,25=1/1,2,3,16;
 1/6=500,10=4,18=10,26=3/3(-8);
 2/29=1/2;
 6/7=2,8=2,9=2,10=2,18=1,19=2,28=1/1;
 7/7=1,8=1,9=1,25=1,44=-1/16;
 99/12=1/99;
 Leave Link    1 at Thu May 23 15:10:23 2024, MaxMem=           0 cpu:               4.8 elap:               0.1
 (Enter /gpfs/fs1/soft/improv/software/custom-built/gaussian/g16/l101.exe)
 -----
 Title
 -----
 Symbolic Z-matrix:
 Charge =  2 Multiplicity = 3
 Ti                   -0.79304   0.81881  -0.09491 
 O                    -1.20497   2.57394  -0.35687 
 H                    -2.12106   2.64974  -0.63312 
 O                     0.99012   1.19063  -0.05794 
 H                     1.42696   0.5998    0.55971 
 O                    -0.81752   1.03069   1.71365 
 H                    -1.02108   0.1906    2.13133 
 O                    -0.38507  -0.93351   0.17118 
 H                    -1.15682  -1.47369  -0.01433 
 O                    -2.57341   0.45178  -0.12186 
 H                    -2.77756  -0.08744  -0.88929 
 O                    -0.76966   0.60461  -1.90111 
 H                     0.09872   0.83457  -2.23949 
 H                    -0.96534  -0.30999  -2.11742 
 H                     1.12208   2.09943   0.22124 
 H                    -1.07671   3.0584    0.46184 
 H                    -2.81407  -0.02398   0.6765 
 H                     0.0422    1.33615   2.01181 
 H                    -0.11532  -1.06446   1.08312 
 
 ITRead=  0  0  0  0  0  0  0  0  0  0  0  0  0  0  0  0  0  0  0
 MicOpt= -1 -1 -1 -1 -1 -1 -1 -1 -1 -1 -1 -1 -1 -1 -1 -1 -1 -1 -1
 NAtoms=     19 NQM=       19 NQMF=       0 NMMI=      0 NMMIF=      0
                NMic=       0 NMicF=      0.
                    Isotopes and Nuclear Properties:
 (Nuclear quadrupole moments (NQMom) in fm**2, nuclear magnetic moments (NMagM)
  in nuclear magnetons)

  Atom         1           2           3           4           5           6           7           8           9          10
 IAtWgt=          48          16           1          16           1          16           1          16           1          16
 AtmWgt=  47.9479467  15.9949146   1.0078250  15.9949146   1.0078250  15.9949146   1.0078250  15.9949146   1.0078250  15.9949146
 NucSpn=           0           0           1           0           1           0           1           0           1           0
 AtZEff=  -0.0000000  -0.0000000  -0.0000000  -0.0000000  -0.0000000  -0.0000000  -0.0000000  -0.0000000  -0.0000000  -0.0000000
 NQMom=    0.0000000   0.0000000   0.0000000   0.0000000   0.0000000   0.0000000   0.0000000   0.0000000   0.0000000   0.0000000
 NMagM=    0.0000000   0.0000000   2.7928460   0.0000000   2.7928460   0.0000000   2.7928460   0.0000000   2.7928460   0.0000000
 AtZNuc=  22.0000000   8.0000000   1.0000000   8.0000000   1.0000000   8.0000000   1.0000000   8.0000000   1.0000000   8.0000000

  Atom        11          12          13          14          15          16          17          18          19
 IAtWgt=           1          16           1           1           1           1           1           1           1
 AtmWgt=   1.0078250  15.9949146   1.0078250   1.0078250   1.0078250   1.0078250   1.0078250   1.0078250   1.0078250
 NucSpn=           1           0           1           1           1           1           1           1           1
 AtZEff=  -0.0000000  -0.0000000  -0.0000000  -0.0000000  -0.0000000  -0.0000000  -0.0000000  -0.0000000  -0.0000000
 NQMom=    0.0000000   0.0000000   0.0000000   0.0000000   0.0000000   0.0000000   0.0000000   0.0000000   0.0000000
 NMagM=    2.7928460   0.0000000   2.7928460   2.7928460   2.7928460   2.7928460   2.7928460   2.7928460   2.7928460
 AtZNuc=   1.0000000   8.0000000   1.0000000   1.0000000   1.0000000   1.0000000   1.0000000   1.0000000   1.0000000
 Leave Link  101 at Thu May 23 15:10:24 2024, MaxMem= 26843545600 cpu:               0.4 elap:               0.0
 (Enter /gpfs/fs1/soft/improv/software/custom-built/gaussian/g16/l103.exe)

 GradGradGradGradGradGradGradGradGradGradGradGradGradGradGradGradGradGrad
 Berny optimization.
 Initialization pass.
 No Z-matrix variables, so optimization will use Cartesian coordinates.
 Trust Radius=3.00D-01 FncErr=1.00D-07 GrdErr=1.00D-06 EigMax=2.50D+02 EigMin=1.00D-04
 Number of steps in this run=    114 maximum allowed number of steps=    114.
 GradGradGradGradGradGradGradGradGradGradGradGradGradGradGradGradGradGrad

 Leave Link  103 at Thu May 23 15:10:24 2024, MaxMem= 26843545600 cpu:               0.4 elap:               0.0
 (Enter /gpfs/fs1/soft/improv/software/custom-built/gaussian/g16/l202.exe)
 ---------------------------------------------------------------------------------------------------
                            Z-MATRIX (ANGSTROMS AND DEGREES)
   CD    Cent   Atom    N1       Length/X        N2       Alpha/Y        N3        Beta/Z          J
 ---------------------------------------------------------------------------------------------------
      1      1  Ti       0  -0.793037          0.818805         -0.094905
      2      2  O        0  -1.204971          2.573941         -0.356874
      3      3  H        0  -2.121063          2.649743         -0.633122
      4      4  O        0   0.990122          1.190635         -0.057941
      5      5  H        0   1.426962          0.599798          0.559707
      6      6  O        0  -0.817519          1.030691          1.713650
      7      7  H        0  -1.021079          0.190602          2.131326
      8      8  O        0  -0.385068         -0.933506          0.171177
      9      9  H        0  -1.156817         -1.473692         -0.014327
     10     10  O        0  -2.573405          0.451778         -0.121857
     11     11  H        0  -2.777557         -0.087440         -0.889285
     12     12  O        0  -0.769659          0.604612         -1.901109
     13     13  H        0   0.098725          0.834573         -2.239490
     14     14  H        0  -0.965336         -0.309994         -2.117418
     15     15  H        0   1.122081          2.099426          0.221242
     16     16  H        0  -1.076711          3.058396          0.461841
     17     17  H        0  -2.814074         -0.023981          0.676500
     18     18  H        0   0.042204          1.336153          2.011809
     19     19  H        0  -0.115315         -1.064459          1.083123
 ---------------------------------------------------------------------------------------------------
                         Z-Matrix orientation:                         
 ---------------------------------------------------------------------
 Center     Atomic      Atomic             Coordinates (Angstroms)
 Number     Number       Type             X           Y           Z
 ---------------------------------------------------------------------
      1         22           0       -0.793037    0.818805   -0.094905
      2          8           0       -1.204971    2.573941   -0.356874
      3          1           0       -2.121063    2.649743   -0.633122
      4          8           0        0.990122    1.190635   -0.057941
      5          1           0        1.426962    0.599798    0.559707
      6          8           0       -0.817519    1.030691    1.713650
      7          1           0       -1.021079    0.190602    2.131326
      8          8           0       -0.385068   -0.933506    0.171177
      9          1           0       -1.156817   -1.473692   -0.014327
     10          8           0       -2.573405    0.451778   -0.121857
     11          1           0       -2.777557   -0.087440   -0.889285
     12          8           0       -0.769659    0.604612   -1.901109
     13          1           0        0.098725    0.834573   -2.239490
     14          1           0       -0.965336   -0.309994   -2.117418
     15          1           0        1.122081    2.099426    0.221242
     16          1           0       -1.076711    3.058396    0.461841
     17          1           0       -2.814074   -0.023981    0.676500
     18          1           0        0.042204    1.336153    2.011809
     19          1           0       -0.115315   -1.064459    1.083123
 ---------------------------------------------------------------------
                    Distance matrix (angstroms):
                    1          2          3          4          5
     1  Ti   0.000000
     2  O    1.821762   0.000000
     3  H    2.325008   0.959835   0.000000
     4  O    1.821889   2.611767   3.484150   0.000000
     5  H    2.324839   3.415322   4.267739   0.959899   0.000000
     6  O    1.821090   2.611285   3.134947   2.536076   2.560263
     7  H    2.324381   3.450400   3.859988   3.136540   2.937743
     8  O    1.818745   3.640503   4.062050   2.540791   2.405292
     9  H    2.322579   4.062387   4.279649   3.421971   3.362259
    10  O    1.818006   2.536025   2.301533   3.639880   4.060711
    11  H    2.321775   3.136788   2.826442   4.064482   4.499984
    12  O    1.819010   2.540161   2.759827   2.614866   3.298603
    13  H    2.322657   2.875634   3.286750   2.383386   3.107223
    14  H    2.322591   3.387332   3.506977   3.212032   3.703756
    15  H    2.325429   2.444290   3.398642   0.959822   1.567289
    16  H    2.325125   0.959918   1.567358   2.833814   3.510364
    17  H    2.321626   3.225876   3.056824   4.060370   4.288255
    18  H    2.324547   2.949275   3.660724   2.281137   2.137375
    19  H    2.322443   4.061883   4.556733   2.758526   2.328591
                    6          7          8          9         10
     6  O    0.000000
     7  H    0.960021   0.000000
     8  O    2.534622   2.347406   0.000000
     9  H    3.061530   2.718847   0.960108   0.000000
    10  O    2.605257   2.748593   2.606473   2.392848   0.000000
    11  H    3.444886   3.505227   2.750347   2.305222   0.959885
    12  O    3.640099   4.061422   2.609231   2.833582   2.538227
    13  H    4.062670   4.557707   3.028445   3.443229   3.430916
    14  H    4.061572   4.278496   2.441955   2.411193   2.673658
    15  H    2.670492   3.447487   3.387136   4.244531   4.060675
    16  H    2.397039   3.318813   4.061790   4.557738   3.061904
    17  H    2.484803   2.318921   2.642472   2.307685   0.960023
    18  H    0.959858   1.567527   2.953276   3.665802   3.489421
    19  H    2.297892   1.869309   0.959980   1.567353   3.129403
                   11         12         13         14         15
    11  H    0.000000
    12  O    2.352526   0.000000
    13  H    3.308498   0.959935   0.000000
    14  H    2.200452   0.959991   1.567533   0.000000
    15  H    4.606825   3.212091   2.949969   3.953725   0.000000
    16  H    3.822919   3.420362   3.691102   4.243941   2.410850
    17  H    1.567497   3.349453   4.210050   3.362383   4.495491
    18  H    4.288824   4.062660   4.281159   4.558009   2.225950
    19  H    3.454344   3.481323   3.833001   3.396353   3.504877
                   16         17         18         19
    16  H    0.000000
    17  H    3.544793   0.000000
    18  H    2.573032   3.433851   0.000000
    19  H    4.278809   2.920828   2.578800   0.000000
 Stoichiometry    H12O6Ti(2+,3)
 Framework group  C1[X(H12O6Ti)]
 Deg. of freedom    51
 Full point group                 C1      NOp   1
 Largest Abelian subgroup         C1      NOp   1
 Largest concise Abelian subgroup C1      NOp   1
                         Standard orientation:                         
 ---------------------------------------------------------------------
 Center     Atomic      Atomic             Coordinates (Angstroms)
 Number     Number       Type             X           Y           Z
 ---------------------------------------------------------------------
      1         22           0       -0.021180   -0.031230    0.010242
      2          8           0       -0.320919   -1.688924   -0.683318
      3          1           0       -1.137185   -1.681640   -1.188234
      4          8           0        1.254245   -0.678703    1.138670
      5          1           0        1.942694   -0.019880    1.254406
      6          8           0        1.297272    0.293478   -1.203273
      7          1           0        1.380717    1.240156   -1.339207
      8          8           0        0.279127    1.625671    0.697504
      9          1           0       -0.432969    2.214440    0.436587
     10          8           0       -1.286964    0.614116   -1.123984
     11          1           0       -2.036002    0.936648   -0.617728
     12          8           0       -1.338898   -0.352897    1.222244
     13          1           0       -0.972045   -0.816749    1.978376
     14          1           0       -1.718130    0.480302    1.511284
     15          1           0        1.635288   -1.477345    0.766869
     16          1           0        0.408469   -1.932016   -1.258072
     17          1           0       -0.916621    1.333448   -1.640754
     18          1           0        2.128227   -0.056953   -0.874579
     19          1           0        1.112611    1.964725    0.362979
 ---------------------------------------------------------------------
 Rotational constants (GHZ):           2.0397079           1.9739543           1.9252950
 Leave Link  202 at Thu May 23 15:10:24 2024, MaxMem= 26843545600 cpu:               0.4 elap:               0.0
 (Enter /gpfs/fs1/soft/improv/software/custom-built/gaussian/g16/l301.exe)
 Standard basis: 6-31+G(2df,p) (6D, 7F)
 Ernie: Thresh=  0.10000D-02 Tol=  0.10000D-05 Strict=F.
 There are   347 symmetry adapted cartesian basis functions of A   symmetry.
 There are   317 symmetry adapted basis functions of A   symmetry.
   317 basis functions,   514 primitive gaussians,   347 cartesian basis functions
    41 alpha electrons       39 beta electrons
       nuclear repulsion energy       701.0339313636 Hartrees.
 IExCor=  402 DFT=T Ex=B Corr=LYP ExCW=0 ScaHFX=  0.000000
 ScaDFX=  1.000000  1.000000  1.000000  1.000000 ScalE2=  1.000000  1.000000
 IRadAn=      5 IRanWt=     -1 IRanGd=            0 ICorTp=0 IEmpDi=131
 NAtoms=   19 NActive=   19 NUniq=   19 SFac= 1.00D+00 NAtFMM=   60 NAOKFM=F Big=F
 Integral buffers will be    131072 words long.
 Raffenetti 2 integral format.
 Two-electron integral symmetry is turned on.
 R6Disp:  Grimme-D3 Dispersion energy=       -0.0259622839 Hartrees.
 Nuclear repulsion after empirical dispersion term =      701.0079690797 Hartrees.
 Leave Link  301 at Thu May 23 15:10:24 2024, MaxMem= 26843545600 cpu:               0.4 elap:               0.0
 (Enter /gpfs/fs1/soft/improv/software/custom-built/gaussian/g16/l302.exe)
 NPDir=0 NMtPBC=     1 NCelOv=     1 NCel=       1 NClECP=     1 NCelD=      1
         NCelK=      1 NCelE2=     1 NClLst=     1 CellRange=     0.0.
 One-electron integrals computed using PRISM.
 One-electron integral symmetry used in STVInt
 NBasis=   317 RedAO= T EigKep=  4.19D-05  NBF=   317
 NBsUse=   317 1.00D-06 EigRej= -1.00D+00 NBFU=   317
 Precomputing XC quadrature grid using
 IXCGrd= 4 IRadAn=           5 IRanWt=          -1 IRanGd=           0 AccXCQ= 0.00D+00.
 Generated NRdTot=       0 NPtTot=           0 NUsed=           0 NTot=          32
 NSgBfM=   347   347   347   347   347 MxSgAt=    19 MxSgA2=    19.
 Leave Link  302 at Thu May 23 15:10:24 2024, MaxMem= 26843545600 cpu:              22.0 elap:               0.3
 (Enter /gpfs/fs1/soft/improv/software/custom-built/gaussian/g16/l303.exe)
 DipDrv:  MaxL=1.
 Leave Link  303 at Thu May 23 15:10:24 2024, MaxMem= 26843545600 cpu:               1.0 elap:               0.0
 (Enter /gpfs/fs1/soft/improv/software/custom-built/gaussian/g16/l401.exe)
 ExpMin= 9.99D-03 ExpMax= 4.32D+04 ExpMxC= 6.48D+03 IAcc=3 IRadAn=         5 AccDes= 0.00D+00
 Harris functional with IExCor=  402 and IRadAn=       5 diagonalized for initial guess.
 HarFok:  IExCor=  402 AccDes= 0.00D+00 IRadAn=         5 IDoV= 1 UseB2=F ITyADJ=14
 ICtDFT=  3500011 ScaDFX=  1.000000  1.000000  1.000000  1.000000
 FoFCou: FMM=F IPFlag=           0 FMFlag=      100000 FMFlg1=           0
         NFxFlg=           0 DoJE=T BraDBF=F KetDBF=T FulRan=T
         wScrn=  0.000000 ICntrl=       500 IOpCl=  0 I1Cent=   200000004 NGrid=           0
         NMat0=    1 NMatS0=      1 NMatT0=    0 NMatD0=    1 NMtDS0=    0 NMtDT0=    0
 Petite list used in FoFCou.
 Harris En= -1307.66873674037    
 JPrj=0 DoOrth=F DoCkMO=F.
 Initial guess <Sx>= 0.0000 <Sy>= 0.0000 <Sz>= 1.0000 <S**2>= 2.0000 S= 1.0000
 Leave Link  401 at Thu May 23 15:10:25 2024, MaxMem= 26843545600 cpu:              39.6 elap:               0.4
 (Enter /gpfs/fs1/soft/improv/software/custom-built/gaussian/g16/l502.exe)
 Integral symmetry usage will be decided dynamically.
 UHF open shell SCF:
 Using DIIS extrapolation, IDIIS=  1040.
 NGot= 26843545600 LenX= 26843256607 LenY= 26843135757
 Requested convergence on RMS density matrix=1.00D-08 within  50 cycles.
 Requested convergence on MAX density matrix=1.00D-06.
 Requested convergence on             energy=1.00D-06.
 No special actions if energy rises.
 Fock matrices will be formed incrementally for  20 cycles.

 Cycle   1  Pass 1  IDiag  1:
 FoFJK:  IHMeth= 1 ICntrl=     500 DoSepK=F KAlg= 0 I1Cent=           0 FoldK=F
 IRaf= 990000000 NMat=       1 IRICut=       1 DoRegI=T DoRafI=F ISym2E= 0 IDoP0=0 IntGTp=1.
 FoFCou: FMM=F IPFlag=           0 FMFlag=      100000 FMFlg1=           0
         NFxFlg=           0 DoJE=T BraDBF=F KetDBF=F FulRan=T
         wScrn=  0.000000 ICntrl=       500 IOpCl=  0 I1Cent=           0 NGrid=           0
         NMat0=    1 NMatS0=      1 NMatT0=    0 NMatD0=    1 NMtDS0=    0 NMtDT0=    0
 Symmetry not used in FoFCou.
 E= -1306.70327026695    
 DIIS: error= 3.87D-02 at cycle   1 NSaved=   1.
 NSaved= 1 IEnMin= 1 EnMin= -1306.70327026695     IErMin= 1 ErrMin= 3.87D-02
 ErrMax= 3.87D-02  0.00D+00 EMaxC= 1.00D-01 BMatC= 2.87D+00 BMatP= 2.87D+00
 IDIUse=3 WtCom= 6.13D-01 WtEn= 3.87D-01
 Coeff-Com:  0.100D+01
 Coeff-En:   0.100D+01
 Coeff:      0.100D+01
 Gap=     0.023 Goal=   None    Shift=    0.000
 Gap=     0.305 Goal=   None    Shift=    0.000
 GapD=    0.023 DampG=0.250 DampE=0.250 DampFc=0.1250 IDamp=-1.
 Damping current iteration by 1.25D-01
 RMSDP=6.11D-02 MaxDP=4.56D+00              OVMax= 9.37D-01

 Cycle   2  Pass 1  IDiag  1:
 RMSU=  7.63D-03    CP:  1.00D+00
 E= -1306.86044786864     Delta-E=       -0.157177601693 Rises=F Damp=T
 DIIS: error= 2.53D-02 at cycle   2 NSaved=   2.
 NSaved= 2 IEnMin= 2 EnMin= -1306.86044786864     IErMin= 2 ErrMin= 2.53D-02
 ErrMax= 2.53D-02  0.00D+00 EMaxC= 1.00D-01 BMatC= 1.12D+00 BMatP= 2.87D+00
 IDIUse=3 WtCom= 7.47D-01 WtEn= 2.53D-01
 Coeff-Com: -0.146D+01 0.246D+01
 Coeff-En:   0.000D+00 0.100D+01
 Coeff:     -0.109D+01 0.209D+01
 Gap=     0.019 Goal=   None    Shift=    0.000
 Gap=     0.219 Goal=   None    Shift=    0.000
 RMSDP=8.12D-03 MaxDP=5.42D-01 DE=-1.57D-01 OVMax= 9.95D-01

 Cycle   3  Pass 1  IDiag  1:
 RMSU=  4.52D-03    CP:  9.50D-01  1.24D-01
 E= -1307.02037894732     Delta-E=       -0.159931078675 Rises=F Damp=F
 DIIS: error= 2.12D-02 at cycle   3 NSaved=   3.
 NSaved= 3 IEnMin= 3 EnMin= -1307.02037894732     IErMin= 3 ErrMin= 2.12D-02
 ErrMax= 2.12D-02  0.00D+00 EMaxC= 1.00D-01 BMatC= 1.18D+00 BMatP= 1.12D+00
 IDIUse=3 WtCom= 7.88D-01 WtEn= 2.12D-01
 EnCoef did    25 forward-backward iterations
 Coeff-Com: -0.102D+01 0.176D+01 0.258D+00
 Coeff-En:   0.903D-01 0.177D+00 0.733D+00
 Coeff:     -0.785D+00 0.143D+01 0.359D+00
 Gap=     0.019 Goal=   None    Shift=    0.000
 Gap=     0.333 Goal=   None    Shift=    0.000
 RMSDP=2.19D-02 MaxDP=2.57D+00 DE=-1.60D-01 OVMax= 9.94D-01

 Cycle   4  Pass 1  IDiag  1:
 RMSU=  2.03D-02    CP:  9.84D-01  1.14D+00  3.53D-01
 E= -1307.08271154036     Delta-E=       -0.062332593045 Rises=F Damp=F
 DIIS: error= 1.93D-02 at cycle   4 NSaved=   4.
 NSaved= 4 IEnMin= 4 EnMin= -1307.08271154036     IErMin= 4 ErrMin= 1.93D-02
 ErrMax= 1.93D-02  0.00D+00 EMaxC= 1.00D-01 BMatC= 6.45D-01 BMatP= 1.12D+00
 IDIUse=3 WtCom= 8.07D-01 WtEn= 1.93D-01
 Coeff-Com: -0.525D+00 0.986D+00 0.310D+00 0.229D+00
 Coeff-En:   0.000D+00 0.000D+00 0.451D+00 0.549D+00
 Coeff:     -0.424D+00 0.796D+00 0.337D+00 0.291D+00
 Gap=     0.023 Goal=   None    Shift=    0.000
 Gap=     0.259 Goal=   None    Shift=    0.000
 RMSDP=2.05D-02 MaxDP=2.48D+00 DE=-6.23D-02 OVMax= 9.06D-01

 Cycle   5  Pass 1  IDiag  1:
 RMSU=  3.21D-03    CP:  9.68D-01  2.06D-01  7.28D-01  6.81D-02
 E= -1307.21508851017     Delta-E=       -0.132376969808 Rises=F Damp=F
 DIIS: error= 7.45D-03 at cycle   5 NSaved=   5.
 NSaved= 5 IEnMin= 5 EnMin= -1307.21508851017     IErMin= 5 ErrMin= 7.45D-03
 ErrMax= 7.45D-03  0.00D+00 EMaxC= 1.00D-01 BMatC= 1.09D-01 BMatP= 6.45D-01
 IDIUse=3 WtCom= 9.25D-01 WtEn= 7.45D-02
 Coeff-Com: -0.474D+00 0.641D+00-0.282D-01 0.111D+00 0.751D+00
 Coeff-En:   0.000D+00 0.000D+00 0.000D+00 0.274D+00 0.726D+00
 Coeff:     -0.439D+00 0.593D+00-0.261D-01 0.123D+00 0.749D+00
 Gap=    -0.003 Goal=   None    Shift=    0.000
 Gap=     0.247 Goal=   None    Shift=    0.000
 RMSDP=1.33D-02 MaxDP=2.05D+00 DE=-1.32D-01 OVMax= 7.96D-01

 Cycle   6  Pass 1  IDiag  1:
 RMSU=  8.51D-03    CP:  9.64D-01  6.80D-01  4.58D-01  5.36D-01  7.60D-01
 E= -1307.21333930070     Delta-E=        0.001749209468 Rises=F Damp=F
 DIIS: error= 8.26D-03 at cycle   6 NSaved=   6.
 NSaved= 6 IEnMin= 5 EnMin= -1307.21508851017     IErMin= 5 ErrMin= 7.45D-03
 ErrMax= 8.26D-03  0.00D+00 EMaxC= 1.00D-01 BMatC= 1.23D-01 BMatP= 1.09D-01
 IDIUse=3 WtCom= 9.25D-01 WtEn= 7.45D-02
 Coeff-Com: -0.318D+00 0.412D+00-0.516D-01-0.802D-01 0.642D+00 0.396D+00
 Coeff-En:   0.000D+00 0.000D+00 0.000D+00 0.000D+00 0.507D+00 0.493D+00
 Coeff:     -0.294D+00 0.381D+00-0.477D-01-0.743D-01 0.632D+00 0.403D+00
 Gap=     0.010 Goal=   None    Shift=    0.000
 Gap=     0.248 Goal=   None    Shift=    0.000
 RMSDP=3.28D-03 MaxDP=5.19D-01 DE= 1.75D-03 OVMax= 2.08D-01

 Cycle   7  Pass 1  IDiag  1:
 RMSU=  1.15D-03    CP:  9.65D-01  5.83D-01  5.10D-01  4.40D-01  1.29D+00
                    CP:  8.28D-01
 E= -1307.23462152952     Delta-E=       -0.021282228823 Rises=F Damp=F
 DIIS: error= 5.00D-03 at cycle   7 NSaved=   7.
 NSaved= 7 IEnMin= 7 EnMin= -1307.23462152952     IErMin= 7 ErrMin= 5.00D-03
 ErrMax= 5.00D-03  0.00D+00 EMaxC= 1.00D-01 BMatC= 4.67D-02 BMatP= 1.09D-01
 IDIUse=3 WtCom= 9.50D-01 WtEn= 5.00D-02
 Coeff-Com: -0.198D+00 0.255D+00-0.232D-01-0.602D-01 0.460D+00-0.140D-01
 Coeff-Com:  0.581D+00
 Coeff-En:   0.000D+00 0.000D+00 0.000D+00 0.000D+00 0.374D+00 0.000D+00
 Coeff-En:   0.626D+00
 Coeff:     -0.188D+00 0.242D+00-0.220D-01-0.572D-01 0.455D+00-0.133D-01
 Coeff:      0.584D+00
 Gap=     0.006 Goal=   None    Shift=    0.000
 Gap=     0.248 Goal=   None    Shift=    0.000
 RMSDP=1.41D-03 MaxDP=1.33D-01 DE=-2.13D-02 OVMax= 8.73D-02

 Cycle   8  Pass 1  IDiag  1:
 RMSU=  9.22D-04    CP:  9.66D-01  5.28D-01  5.29D-01  3.99D-01  1.31D+00
                    CP:  7.74D-01  8.18D-01
 E= -1307.24144208311     Delta-E=       -0.006820553582 Rises=F Damp=F
 DIIS: error= 3.35D-03 at cycle   8 NSaved=   8.
 NSaved= 8 IEnMin= 8 EnMin= -1307.24144208311     IErMin= 8 ErrMin= 3.35D-03
 ErrMax= 3.35D-03  0.00D+00 EMaxC= 1.00D-01 BMatC= 2.17D-02 BMatP= 4.67D-02
 IDIUse=3 WtCom= 9.67D-01 WtEn= 3.35D-02
 Coeff-Com: -0.140D+00 0.171D+00-0.202D-01 0.776D-02 0.327D+00-0.297D+00
 Coeff-Com:  0.108D+00 0.845D+00
 Coeff-En:   0.000D+00 0.000D+00 0.000D+00 0.000D+00 0.278D+00 0.000D+00
 Coeff-En:   0.000D+00 0.722D+00
 Coeff:     -0.135D+00 0.165D+00-0.195D-01 0.750D-02 0.325D+00-0.287D+00
 Coeff:      0.104D+00 0.841D+00
 Gap=     0.007 Goal=   None    Shift=    0.000
 Gap=     0.249 Goal=   None    Shift=    0.000
 RMSDP=1.04D-03 MaxDP=1.55D-01 DE=-6.82D-03 OVMax= 4.07D-02

 Cycle   9  Pass 1  IDiag  1:
 RMSU=  2.72D-04    CP:  9.66D-01  5.27D-01  5.43D-01  3.82D-01  1.44D+00
                    CP:  7.16D-01  1.17D+00  3.75D-01
 E= -1307.24313365985     Delta-E=       -0.001691576747 Rises=F Damp=F
 DIIS: error= 2.80D-03 at cycle   9 NSaved=   9.
 NSaved= 9 IEnMin= 9 EnMin= -1307.24313365985     IErMin= 9 ErrMin= 2.80D-03
 ErrMax= 2.80D-03  0.00D+00 EMaxC= 1.00D-01 BMatC= 1.55D-02 BMatP= 2.17D-02
 IDIUse=3 WtCom= 9.72D-01 WtEn= 2.80D-02
 Coeff-Com: -0.989D-01 0.115D+00-0.205D-01 0.253D-01 0.245D+00-0.184D+00
 Coeff-Com: -0.545D+00 0.678D+00 0.785D+00
 Coeff-En:   0.000D+00 0.000D+00 0.000D+00 0.000D+00 0.241D+00 0.000D+00
 Coeff-En:   0.000D+00 0.000D+00 0.759D+00
 Coeff:     -0.961D-01 0.112D+00-0.199D-01 0.246D-01 0.245D+00-0.179D+00
 Coeff:     -0.530D+00 0.659D+00 0.784D+00
 Gap=     0.007 Goal=   None    Shift=    0.000
 Gap=     0.249 Goal=   None    Shift=    0.000
 RMSDP=6.64D-04 MaxDP=8.62D-02 DE=-1.69D-03 OVMax= 4.06D-02

 Cycle  10  Pass 1  IDiag  1:
 RMSU=  1.18D-04    CP:  9.66D-01  5.01D-01  5.58D-01  3.61D-01  1.47D+00
                    CP:  6.72D-01  1.14D+00  6.00D-01  7.80D-01
 E= -1307.24500167316     Delta-E=       -0.001868013309 Rises=F Damp=F
 DIIS: error= 2.12D-03 at cycle  10 NSaved=  10.
 NSaved=10 IEnMin=10 EnMin= -1307.24500167316     IErMin=10 ErrMin= 2.12D-03
 ErrMax= 2.12D-03  0.00D+00 EMaxC= 1.00D-01 BMatC= 8.72D-03 BMatP= 1.55D-02
 IDIUse=3 WtCom= 9.79D-01 WtEn= 2.12D-02
 Coeff-Com: -0.567D-01 0.642D-01-0.132D-01 0.207D-01 0.160D+00-0.337D-01
 Coeff-Com: -0.763D+00 0.281D+00 0.617D+00 0.723D+00
 Coeff-En:   0.000D+00 0.000D+00 0.000D+00 0.000D+00 0.183D+00 0.000D+00
 Coeff-En:   0.000D+00 0.000D+00 0.000D+00 0.817D+00
 Coeff:     -0.555D-01 0.628D-01-0.130D-01 0.202D-01 0.161D+00-0.330D-01
 Coeff:     -0.747D+00 0.275D+00 0.604D+00 0.725D+00
 Gap=     0.007 Goal=   None    Shift=    0.000
 Gap=     0.249 Goal=   None    Shift=    0.000
 RMSDP=6.86D-04 MaxDP=1.02D-01 DE=-1.87D-03 OVMax= 4.33D-02

 Cycle  11  Pass 1  IDiag  1:
 RMSU=  5.02D-05    CP:  9.66D-01  4.76D-01  5.73D-01  3.38D-01  1.50D+00
                    CP:  6.21D-01  1.15D+00  7.13D-01  8.39D-01  1.21D+00
 E= -1307.24641537051     Delta-E=       -0.001413697344 Rises=F Damp=F
 DIIS: error= 1.35D-03 at cycle  11 NSaved=  11.
 NSaved=11 IEnMin=11 EnMin= -1307.24641537051     IErMin=11 ErrMin= 1.35D-03
 ErrMax= 1.35D-03  0.00D+00 EMaxC= 1.00D-01 BMatC= 3.52D-03 BMatP= 8.72D-03
 IDIUse=3 WtCom= 9.87D-01 WtEn= 1.35D-02
 Coeff-Com: -0.302D-01 0.347D-01-0.635D-02 0.948D-02 0.892D-01 0.308D-01
 Coeff-Com: -0.479D+00 0.161D-01 0.139D+00 0.280D+00 0.917D+00
 Coeff-En:   0.000D+00 0.000D+00 0.000D+00 0.000D+00 0.108D+00 0.000D+00
 Coeff-En:   0.000D+00 0.000D+00 0.000D+00 0.000D+00 0.892D+00
 Coeff:     -0.298D-01 0.343D-01-0.626D-02 0.935D-02 0.894D-01 0.304D-01
 Coeff:     -0.473D+00 0.159D-01 0.137D+00 0.276D+00 0.916D+00
 Gap=     0.007 Goal=   None    Shift=    0.000
 Gap=     0.249 Goal=   None    Shift=    0.000
 RMSDP=2.47D-04 MaxDP=2.65D-02 DE=-1.41D-03 OVMax= 1.72D-02

 Cycle  12  Pass 1  IDiag  1:
 RMSU=  3.37D-05    CP:  9.66D-01  4.66D-01  5.77D-01  3.30D-01  1.50D+00
                    CP:  6.06D-01  1.14D+00  7.93D-01  1.05D+00  1.27D+00
                    CP:  9.46D-01
 E= -1307.24684199726     Delta-E=       -0.000426626754 Rises=F Damp=F
 DIIS: error= 9.76D-04 at cycle  12 NSaved=  12.
 NSaved=12 IEnMin=12 EnMin= -1307.24684199726     IErMin=12 ErrMin= 9.76D-04
 ErrMax= 9.76D-04  0.00D+00 EMaxC= 1.00D-01 BMatC= 1.88D-03 BMatP= 3.52D-03
 IDIUse=3 WtCom= 9.90D-01 WtEn= 9.76D-03
 Coeff-Com: -0.961D-02 0.110D-01-0.961D-03 0.139D-02 0.378D-01 0.426D-01
 Coeff-Com: -0.157D+00-0.874D-01-0.135D+00-0.240D+00 0.722D+00 0.815D+00
 Coeff-En:   0.000D+00 0.000D+00 0.000D+00 0.000D+00 0.704D-01 0.000D+00
 Coeff-En:   0.000D+00 0.000D+00 0.000D+00 0.000D+00 0.000D+00 0.930D+00
 Coeff:     -0.951D-02 0.109D-01-0.951D-03 0.138D-02 0.381D-01 0.422D-01
 Coeff:     -0.156D+00-0.865D-01-0.134D+00-0.237D+00 0.715D+00 0.817D+00
 Gap=     0.007 Goal=   None    Shift=    0.000
 Gap=     0.249 Goal=   None    Shift=    0.000
 RMSDP=4.84D-04 MaxDP=7.80D-02 DE=-4.27D-04 OVMax= 2.91D-02

 Cycle  13  Pass 1  IDiag  1:
 RMSU=  3.22D-05    CP:  9.66D-01  4.50D-01  5.88D-01  3.13D-01  1.52D+00
                    CP:  5.69D-01  1.16D+00  7.81D-01  9.89D-01  1.40D+00
                    CP:  1.52D+00  1.46D+00
 E= -1307.24724255712     Delta-E=       -0.000400559860 Rises=F Damp=F
 DIIS: error= 4.50D-04 at cycle  13 NSaved=  13.
 NSaved=13 IEnMin=13 EnMin= -1307.24724255712     IErMin=13 ErrMin= 4.50D-04
 ErrMax= 4.50D-04  0.00D+00 EMaxC= 1.00D-01 BMatC= 3.89D-04 BMatP= 1.88D-03
 IDIUse=3 WtCom= 9.95D-01 WtEn= 4.50D-03
 Coeff-Com: -0.252D-02 0.294D-02 0.261D-03-0.818D-03 0.134D-01 0.154D-01
 Coeff-Com:  0.237D-01-0.469D-01-0.138D+00-0.304D+00 0.176D+00 0.454D+00
 Coeff-Com:  0.806D+00
 Coeff-En:   0.000D+00 0.000D+00 0.000D+00 0.000D+00 0.641D-02 0.000D+00
 Coeff-En:   0.000D+00 0.000D+00 0.000D+00 0.000D+00 0.000D+00 0.000D+00
 Coeff-En:   0.994D+00
 Coeff:     -0.250D-02 0.292D-02 0.260D-03-0.815D-03 0.133D-01 0.153D-01
 Coeff:      0.236D-01-0.467D-01-0.137D+00-0.302D+00 0.175D+00 0.452D+00
 Coeff:      0.807D+00
 Gap=     0.006 Goal=   None    Shift=    0.000
 Gap=     0.249 Goal=   None    Shift=    0.000
 RMSDP=2.35D-04 MaxDP=2.98D-02 DE=-4.01D-04 OVMax= 1.55D-02

 Cycle  14  Pass 1  IDiag  1:
 RMSU=  9.92D-06    CP:  9.67D-01  4.40D-01  5.93D-01  3.05D-01  1.52D+00
                    CP:  5.53D-01  1.15D+00  8.41D-01  9.78D-01  1.44D+00
                    CP:  1.70D+00  1.89D+00  1.09D+00
 E= -1307.24733534104     Delta-E=       -0.000092783922 Rises=F Damp=F
 DIIS: error= 1.45D-04 at cycle  14 NSaved=  14.
 NSaved=14 IEnMin=14 EnMin= -1307.24733534104     IErMin=14 ErrMin= 1.45D-04
 ErrMax= 1.45D-04  0.00D+00 EMaxC= 1.00D-01 BMatC= 4.18D-05 BMatP= 3.89D-04
 IDIUse=3 WtCom= 9.99D-01 WtEn= 1.45D-03
 Coeff-Com: -0.366D-03 0.307D-03 0.166D-04-0.299D-03 0.317D-02-0.130D-02
 Coeff-Com:  0.274D-01 0.301D-02-0.217D-01-0.807D-01-0.762D-01-0.420D-01
 Coeff-Com:  0.309D+00 0.880D+00
 Coeff-En:   0.000D+00 0.000D+00 0.000D+00 0.000D+00 0.000D+00 0.000D+00
 Coeff-En:   0.000D+00 0.000D+00 0.000D+00 0.000D+00 0.000D+00 0.000D+00
 Coeff-En:   0.000D+00 0.100D+01
 Coeff:     -0.365D-03 0.306D-03 0.165D-04-0.299D-03 0.317D-02-0.130D-02
 Coeff:      0.273D-01 0.301D-02-0.216D-01-0.806D-01-0.761D-01-0.420D-01
 Coeff:      0.309D+00 0.880D+00
 Gap=     0.006 Goal=   None    Shift=    0.000
 Gap=     0.249 Goal=   None    Shift=    0.000
 RMSDP=1.42D-04 MaxDP=2.18D-02 DE=-9.28D-05 OVMax= 9.22D-03

 Cycle  15  Pass 1  IDiag  1:
 RMSU=  5.99D-06    CP:  9.67D-01  4.35D-01  5.96D-01  3.00D-01  1.52D+00
                    CP:  5.42D-01  1.15D+00  8.39D-01  9.72D-01  1.42D+00
                    CP:  1.78D+00  2.01D+00  1.21D+00  1.20D+00
 E= -1307.24734653499     Delta-E=       -0.000011193943 Rises=F Damp=F
 DIIS: error= 1.62D-05 at cycle  15 NSaved=  15.
 NSaved=15 IEnMin=15 EnMin= -1307.24734653499     IErMin=15 ErrMin= 1.62D-05
 ErrMax= 1.62D-05  0.00D+00 EMaxC= 1.00D-01 BMatC= 6.82D-07 BMatP= 4.18D-05
 IDIUse=1 WtCom= 1.00D+00 WtEn= 0.00D+00
 Coeff-Com: -0.332D-03 0.317D-03-0.114D-03 0.766D-04 0.117D-02-0.221D-02
 Coeff-Com:  0.556D-02 0.785D-02 0.560D-02-0.383D-02-0.445D-01-0.677D-01
 Coeff-Com:  0.532D-01 0.485D+00 0.560D+00
 Coeff:     -0.332D-03 0.317D-03-0.114D-03 0.766D-04 0.117D-02-0.221D-02
 Coeff:      0.556D-02 0.785D-02 0.560D-02-0.383D-02-0.445D-01-0.677D-01
 Coeff:      0.532D-01 0.485D+00 0.560D+00
 Gap=     0.006 Goal=   None    Shift=    0.000
 Gap=     0.249 Goal=   None    Shift=    0.000
 RMSDP=4.70D-06 MaxDP=2.81D-04 DE=-1.12D-05 OVMax= 4.35D-04

 Cycle  16  Pass 1  IDiag  1:
 RMSU=  1.74D-06    CP:  9.67D-01  4.35D-01  5.96D-01  3.00D-01  1.52D+00
                    CP:  5.42D-01  1.15D+00  8.41D-01  9.71D-01  1.42D+00
                    CP:  1.74D+00  1.98D+00  1.18D+00  1.33D+00  1.05D+00
 E= -1307.24734652533     Delta-E=        0.000000009656 Rises=F Damp=F
 DIIS: error= 1.90D-05 at cycle  16 NSaved=  16.
 NSaved=16 IEnMin=15 EnMin= -1307.24734653499     IErMin=15 ErrMin= 1.62D-05
 ErrMax= 1.90D-05  0.00D+00 EMaxC= 1.00D-01 BMatC= 6.69D-07 BMatP= 6.82D-07
 IDIUse=1 WtCom= 1.00D+00 WtEn= 0.00D+00
 Coeff-Com: -0.161D-03 0.150D-03-0.678D-04 0.975D-04 0.302D-03-0.106D-02
 Coeff-Com: -0.138D-02 0.439D-02 0.584D-02 0.886D-02-0.117D-01-0.283D-01
 Coeff-Com: -0.890D-02 0.177D+00 0.304D+00 0.551D+00
 Coeff:     -0.161D-03 0.150D-03-0.678D-04 0.975D-04 0.302D-03-0.106D-02
 Coeff:     -0.138D-02 0.439D-02 0.584D-02 0.886D-02-0.117D-01-0.283D-01
 Coeff:     -0.890D-02 0.177D+00 0.304D+00 0.551D+00
 Gap=     0.006 Goal=   None    Shift=    0.000
 Gap=     0.249 Goal=   None    Shift=    0.000
 RMSDP=7.58D-06 MaxDP=1.21D-03 DE= 9.66D-09 OVMax= 4.39D-04

 Cycle  17  Pass 1  IDiag  1:
 RMSU=  7.02D-07    CP:  9.67D-01  4.35D-01  5.96D-01  3.01D-01  1.52D+00
                    CP:  5.42D-01  1.15D+00  8.42D-01  9.70D-01  1.42D+00
                    CP:  1.72D+00  1.95D+00  1.14D+00  1.34D+00  1.10D+00
                    CP:  1.17D+00
 E= -1307.24734665546     Delta-E=       -0.000000130130 Rises=F Damp=F
 DIIS: error= 9.23D-06 at cycle  17 NSaved=  17.
 NSaved=17 IEnMin=17 EnMin= -1307.24734665546     IErMin=17 ErrMin= 9.23D-06
 ErrMax= 9.23D-06  0.00D+00 EMaxC= 1.00D-01 BMatC= 1.76D-07 BMatP= 6.69D-07
 IDIUse=1 WtCom= 1.00D+00 WtEn= 0.00D+00
 Coeff-Com:  0.487D-04-0.619D-04 0.143D-04 0.259D-04-0.287D-03-0.181D-03
 Coeff-Com: -0.102D-02 0.585D-03 0.744D-03 0.407D-02 0.534D-02 0.355D-02
 Coeff-Com: -0.117D-01-0.167D-01-0.241D-01 0.197D+00 0.842D+00
 Coeff:      0.487D-04-0.619D-04 0.143D-04 0.259D-04-0.287D-03-0.181D-03
 Coeff:     -0.102D-02 0.585D-03 0.744D-03 0.407D-02 0.534D-02 0.355D-02
 Coeff:     -0.117D-01-0.167D-01-0.241D-01 0.197D+00 0.842D+00
 Gap=     0.006 Goal=   None    Shift=    0.000
 Gap=     0.249 Goal=   None    Shift=    0.000
 RMSDP=6.10D-06 MaxDP=8.26D-04 DE=-1.30D-07 OVMax= 3.49D-04

 Cycle  18  Pass 1  IDiag  1:
 RMSU=  5.53D-07    CP:  9.67D-01  4.35D-01  5.96D-01  3.01D-01  1.52D+00
                    CP:  5.43D-01  1.15D+00  8.41D-01  9.73D-01  1.42D+00
                    CP:  1.70D+00  1.93D+00  1.12D+00  1.34D+00  1.17D+00
                    CP:  1.36D+00  1.10D+00
 E= -1307.24734670015     Delta-E=       -0.000000044687 Rises=F Damp=F
 DIIS: error= 2.52D-06 at cycle  18 NSaved=  18.
 NSaved=18 IEnMin=18 EnMin= -1307.24734670015     IErMin=18 ErrMin= 2.52D-06
 ErrMax= 2.52D-06  0.00D+00 EMaxC= 1.00D-01 BMatC= 1.19D-08 BMatP= 1.76D-07
 IDIUse=1 WtCom= 1.00D+00 WtEn= 0.00D+00
 Coeff-Com:  0.599D-05-0.862D-05 0.112D-05 0.768D-05-0.214D-04 0.295D-04
 Coeff-Com: -0.411D-03-0.217D-03-0.566D-03 0.594D-03 0.445D-02 0.363D-02
 Coeff-Com: -0.753D-03-0.243D-01-0.600D-01-0.442D-01 0.303D+00 0.819D+00
 Coeff:      0.599D-05-0.862D-05 0.112D-05 0.768D-05-0.214D-04 0.295D-04
 Coeff:     -0.411D-03-0.217D-03-0.566D-03 0.594D-03 0.445D-02 0.363D-02
 Coeff:     -0.753D-03-0.243D-01-0.600D-01-0.442D-01 0.303D+00 0.819D+00
 Gap=     0.006 Goal=   None    Shift=    0.000
 Gap=     0.249 Goal=   None    Shift=    0.000
 RMSDP=3.22D-06 MaxDP=4.58D-04 DE=-4.47D-08 OVMax= 2.09D-04

 Cycle  19  Pass 1  IDiag  1:
 RMSU=  1.57D-07    CP:  9.67D-01  4.35D-01  5.96D-01  3.01D-01  1.52D+00
                    CP:  5.43D-01  1.15D+00  8.41D-01  9.73D-01  1.41D+00
                    CP:  1.70D+00  1.91D+00  1.11D+00  1.33D+00  1.19D+00
                    CP:  1.42D+00  1.28D+00  1.18D+00
 E= -1307.24734670189     Delta-E=       -0.000000001742 Rises=F Damp=F
 DIIS: error= 1.66D-06 at cycle  19 NSaved=  19.
 NSaved=19 IEnMin=19 EnMin= -1307.24734670189     IErMin=19 ErrMin= 1.66D-06
 ErrMax= 1.66D-06  0.00D+00 EMaxC= 1.00D-01 BMatC= 5.53D-09 BMatP= 1.19D-08
 IDIUse=1 WtCom= 1.00D+00 WtEn= 0.00D+00
 Coeff-Com:  0.650D-05-0.689D-05 0.123D-05-0.612D-06 0.192D-04-0.229D-05
 Coeff-Com:  0.247D-03-0.823D-04-0.186D-03-0.790D-06-0.929D-03-0.280D-02
 Coeff-Com:  0.161D-02 0.278D-02-0.110D-01-0.541D-01-0.585D-01 0.219D+00
 Coeff-Com:  0.904D+00
 Coeff:      0.650D-05-0.689D-05 0.123D-05-0.612D-06 0.192D-04-0.229D-05
 Coeff:      0.247D-03-0.823D-04-0.186D-03-0.790D-06-0.929D-03-0.280D-02
 Coeff:      0.161D-02 0.278D-02-0.110D-01-0.541D-01-0.585D-01 0.219D+00
 Coeff:      0.904D+00
 Gap=     0.006 Goal=   None    Shift=    0.000
 Gap=     0.249 Goal=   None    Shift=    0.000
 RMSDP=1.49D-06 MaxDP=2.25D-04 DE=-1.74D-09 OVMax= 9.96D-05

 Cycle  20  Pass 1  IDiag  1:
 RMSU=  1.16D-07    CP:  9.67D-01  4.35D-01  5.96D-01  3.01D-01  1.52D+00
                    CP:  5.43D-01  1.15D+00  8.41D-01  9.73D-01  1.41D+00
                    CP:  1.70D+00  1.91D+00  1.10D+00  1.33D+00  1.21D+00
                    CP:  1.43D+00  1.34D+00  1.45D+00  1.30D+00
 E= -1307.24734670340     Delta-E=       -0.000000001511 Rises=F Damp=F
 DIIS: error= 1.61D-07 at cycle  20 NSaved=  20.
 NSaved=20 IEnMin=20 EnMin= -1307.24734670340     IErMin=20 ErrMin= 1.61D-07
 ErrMax= 1.61D-07  0.00D+00 EMaxC= 1.00D-01 BMatC= 8.56D-11 BMatP= 5.53D-09
 IDIUse=1 WtCom= 1.00D+00 WtEn= 0.00D+00
 Coeff-Com: -0.290D-06 0.155D-05 0.365D-06-0.602D-06 0.291D-04 0.175D-04
 Coeff-Com:  0.185D-03-0.534D-04-0.709D-04-0.206D-03-0.148D-02-0.274D-02
 Coeff-Com:  0.160D-02 0.855D-02 0.513D-02-0.293D-01-0.114D+00-0.927D-01
 Coeff-Com:  0.582D+00 0.644D+00
 Coeff:     -0.290D-06 0.155D-05 0.365D-06-0.602D-06 0.291D-04 0.175D-04
 Coeff:      0.185D-03-0.534D-04-0.709D-04-0.206D-03-0.148D-02-0.274D-02
 Coeff:      0.160D-02 0.855D-02 0.513D-02-0.293D-01-0.114D+00-0.927D-01
 Coeff:      0.582D+00 0.644D+00
 Gap=     0.006 Goal=   None    Shift=    0.000
 Gap=     0.249 Goal=   None    Shift=    0.000
 RMSDP=2.21D-07 MaxDP=2.68D-05 DE=-1.51D-09 OVMax= 2.00D-05

 Cycle  21  Pass 1  IDiag  1:
 Restarting incremental Fock formation.
 E= -1307.24734670342     Delta-E=       -0.000000000023 Rises=F Damp=F
 DIIS: error= 2.14D-07 at cycle  21 NSaved=  20.
 NSaved=20 IEnMin=20 EnMin= -1307.24734670342     IErMin=19 ErrMin= 1.61D-07
 ErrMax= 2.14D-07  0.00D+00 EMaxC= 1.00D-01 BMatC= 9.37D-11 BMatP= 8.56D-11
 IDIUse=1 WtCom= 1.00D+00 WtEn= 0.00D+00
 Coeff-Com:  0.520D-06 0.719D-06 0.537D-06 0.864D-05 0.233D-04 0.178D-04
 Coeff-Com: -0.344D-04-0.160D-04-0.121D-03-0.606D-03-0.923D-03 0.706D-03
 Coeff-Com:  0.512D-02 0.457D-02-0.612D-02-0.524D-01-0.130D+00 0.105D+00
 Coeff-Com:  0.370D+00 0.704D+00
 Coeff:      0.520D-06 0.719D-06 0.537D-06 0.864D-05 0.233D-04 0.178D-04
 Coeff:     -0.344D-04-0.160D-04-0.121D-03-0.606D-03-0.923D-03 0.706D-03
 Coeff:      0.512D-02 0.457D-02-0.612D-02-0.524D-01-0.130D+00 0.105D+00
 Coeff:      0.370D+00 0.704D+00
 Gap=     0.006 Goal=   None    Shift=    0.000
 Gap=     0.249 Goal=   None    Shift=    0.000
 RMSDP=9.68D-08 MaxDP=4.80D-06 DE=-2.25D-11 OVMax= 1.25D-05

 Cycle  22  Pass 1  IDiag  1:
 RMSU=  9.68D-08    CP:  1.00D+00
 E= -1307.24734670341     Delta-E=        0.000000000010 Rises=F Damp=F
 DIIS: error= 1.45D-07 at cycle  22 NSaved=  20.
 NSaved=20 IEnMin=19 EnMin= -1307.24734670342     IErMin=20 ErrMin= 1.45D-07
 ErrMax= 1.45D-07  0.00D+00 EMaxC= 1.00D-01 BMatC= 4.18D-11 BMatP= 8.56D-11
 IDIUse=1 WtCom= 1.00D+00 WtEn= 0.00D+00
 Coeff-Com:  0.207D-06 0.281D-06-0.230D-05 0.223D-05-0.242D-04-0.364D-05
 Coeff-Com:  0.174D-04 0.349D-04 0.381D-04 0.894D-04 0.393D-04 0.344D-03
 Coeff-Com: -0.363D-03 0.325D-03 0.333D-02-0.592D-02-0.317D-01-0.615D-01
 Coeff-Com:  0.128D+00 0.967D+00
 Coeff:      0.207D-06 0.281D-06-0.230D-05 0.223D-05-0.242D-04-0.364D-05
 Coeff:      0.174D-04 0.349D-04 0.381D-04 0.894D-04 0.393D-04 0.344D-03
 Coeff:     -0.363D-03 0.325D-03 0.333D-02-0.592D-02-0.317D-01-0.615D-01
 Coeff:      0.128D+00 0.967D+00
 Gap=     0.006 Goal=   None    Shift=    0.000
 Gap=     0.249 Goal=   None    Shift=    0.000
 RMSDP=1.49D-07 MaxDP=2.14D-05 DE= 1.00D-11 OVMax= 9.54D-06

 Cycle  23  Pass 1  IDiag  1:
 RMSU=  1.26D-07    CP:  1.00D+00  1.60D+00
 E= -1307.24734670343     Delta-E=       -0.000000000014 Rises=F Damp=F
 DIIS: error= 2.48D-08 at cycle  23 NSaved=  20.
 NSaved=20 IEnMin=20 EnMin= -1307.24734670343     IErMin=20 ErrMin= 2.48D-08
 ErrMax= 2.48D-08  0.00D+00 EMaxC= 1.00D-01 BMatC= 1.22D-12 BMatP= 4.18D-11
 IDIUse=1 WtCom= 1.00D+00 WtEn= 0.00D+00
 Coeff-Com:  0.647D-07-0.147D-05-0.110D-05-0.862D-05 0.170D-05 0.879D-05
 Coeff-Com:  0.260D-04 0.381D-04 0.645D-04-0.267D-04-0.157D-03-0.418D-03
 Coeff-Com:  0.315D-03 0.421D-02 0.668D-02-0.201D-01-0.543D-01-0.251D-02
 Coeff-Com:  0.381D+00 0.686D+00
 Coeff:      0.647D-07-0.147D-05-0.110D-05-0.862D-05 0.170D-05 0.879D-05
 Coeff:      0.260D-04 0.381D-04 0.645D-04-0.267D-04-0.157D-03-0.418D-03
 Coeff:      0.315D-03 0.421D-02 0.668D-02-0.201D-01-0.543D-01-0.251D-02
 Coeff:      0.381D+00 0.686D+00
 Gap=     0.006 Goal=   None    Shift=    0.000
 Gap=     0.249 Goal=   None    Shift=    0.000
 RMSDP=8.72D-09 MaxDP=1.12D-06 DE=-1.36D-11 OVMax= 7.29D-07

 Cycle  24  Pass 1  IDiag  1:
 RMSU=  5.07D-09    CP:  1.00D+00  1.63D+00  9.54D-01
 E= -1307.24734670342     Delta-E=        0.000000000010 Rises=F Damp=F
 DIIS: error= 1.67D-08 at cycle  24 NSaved=  20.
 NSaved=20 IEnMin=19 EnMin= -1307.24734670343     IErMin=20 ErrMin= 1.67D-08
 ErrMax= 1.67D-08  0.00D+00 EMaxC= 1.00D-01 BMatC= 6.02D-13 BMatP= 1.22D-12
 IDIUse=1 WtCom= 1.00D+00 WtEn= 0.00D+00
 Coeff-Com: -0.276D-06-0.851D-06-0.148D-08 0.991D-06-0.163D-07 0.542D-05
 Coeff-Com:  0.133D-04 0.199D-04-0.487D-05-0.104D-03-0.171D-03 0.113D-03
 Coeff-Com:  0.184D-02 0.436D-02-0.796D-02-0.218D-01-0.156D-01 0.806D-01
 Coeff-Com:  0.328D+00 0.631D+00
 Coeff:     -0.276D-06-0.851D-06-0.148D-08 0.991D-06-0.163D-07 0.542D-05
 Coeff:      0.133D-04 0.199D-04-0.487D-05-0.104D-03-0.171D-03 0.113D-03
 Coeff:      0.184D-02 0.436D-02-0.796D-02-0.218D-01-0.156D-01 0.806D-01
 Coeff:      0.328D+00 0.631D+00
 Gap=     0.006 Goal=   None    Shift=    0.000
 Gap=     0.249 Goal=   None    Shift=    0.000
 RMSDP=6.68D-09 MaxDP=8.75D-07 DE= 1.05D-11 OVMax= 3.91D-07

 SCF Done:  E(UB-LYP) =  -1307.24734670     A.U. after   24 cycles
            NFock= 24  Conv=0.67D-08     -V/T= 2.0003
 <Sx>= 0.0000 <Sy>= 0.0000 <Sz>= 1.0000 <S**2>= 2.0017 S= 1.0006
 <L.S>=  0.00000000000    
 KE= 1.306842495920D+03 PE=-4.468198082700D+03 EE= 1.153100270997D+03
 Annihilation of the first spin contaminant:
 S**2 before annihilation     2.0017,   after     2.0000
 Leave Link  502 at Thu May 23 15:11:47 2024, MaxMem= 26843545600 cpu:            9911.1 elap:              82.3
 (Enter /gpfs/fs1/soft/improv/software/custom-built/gaussian/g16/l508.exe)
 QCSCF skips out because SCF is already converged.
 Leave Link  508 at Thu May 23 15:11:47 2024, MaxMem= 26843545600 cpu:               0.2 elap:               0.0
 (Enter /gpfs/fs1/soft/improv/software/custom-built/gaussian/g16/l801.exe)
 DoSCS=F DFT=T ScalE2(SS,OS)=  1.000000  1.000000
 Range of M.O.s used for correlation:     1   317
 NBasis=   317 NAE=    41 NBE=    39 NFC=     0 NFV=     0
 NROrb=    317 NOA=    41 NOB=    39 NVA=   276 NVB=   278

 **** Warning!!: The largest alpha MO coefficient is  0.78990429D+02


 **** Warning!!: The smallest alpha delta epsilon is  0.64612047D-02


 **** Warning!!: The largest beta MO coefficient is  0.78984321D+02

 Leave Link  801 at Thu May 23 15:11:47 2024, MaxMem= 26843545600 cpu:               0.4 elap:               0.0
 (Enter /gpfs/fs1/soft/improv/software/custom-built/gaussian/g16/l1101.exe)
 Using compressed storage, NAtomX=    19.
 Will process     20 centers per pass.
 R6Disp: Adding Grimme-D3 dispersion energy 1st derivatives to the gradient.
 Leave Link 1101 at Thu May 23 15:11:48 2024, MaxMem= 26843545600 cpu:              51.2 elap:               0.5
 (Enter /gpfs/fs1/soft/improv/software/custom-built/gaussian/g16/l1102.exe)
 Symmetrizing basis deriv contribution to polar:
 IMax=3 JMax=2 DiffMx= 0.00D+00
 Leave Link 1102 at Thu May 23 15:11:48 2024, MaxMem= 26843545600 cpu:               0.9 elap:               0.0
 (Enter /gpfs/fs1/soft/improv/software/custom-built/gaussian/g16/l1110.exe)
 Forming Gx(P) for the SCF density, NAtomX=    19.
 Integral derivatives from FoFJK, PRISM(SPDF).
 Do as many integral derivatives as possible in FoFJK.
 G2DrvN: MDV=   26843543431.
 G2DrvN: will do    20 centers at a time, making    1 passes.
 Calling FoFCou, ICntrl=  3507 FMM=F I1Cent=   0 AccDes= 0.00D+00.
 FoFJK:  IHMeth= 1 ICntrl=    3507 DoSepK=F KAlg= 0 I1Cent=           0 FoldK=F
 IRaf=         0 NMat=       1 IRICut=       1 DoRegI=T DoRafI=F ISym2E= 0 IDoP0=0 IntGTp=1.
 FoFCou: FMM=F IPFlag=           0 FMFlag=      100000 FMFlg1=           0
         NFxFlg=           0 DoJE=F BraDBF=F KetDBF=F FulRan=T
         wScrn=  0.000000 ICntrl=      3507 IOpCl=  0 I1Cent=           0 NGrid=           0
         NMat0=    1 NMatS0=      1 NMatT0=    0 NMatD0=    1 NMtDS0=    0 NMtDT0=    0
 Symmetry not used in FoFCou.
 End of G2Drv F.D. properties file   721 does not exist.
 End of G2Drv F.D. properties file   722 does not exist.
 End of G2Drv F.D. properties file   788 does not exist.
 Leave Link 1110 at Thu May 23 15:12:02 2024, MaxMem= 26843545600 cpu:            1767.2 elap:              14.1
 (Enter /gpfs/fs1/soft/improv/software/custom-built/gaussian/g16/l1002.exe)
 Minotr:  UHF open shell wavefunction.
          IDoAtm=1111111111111111111
          Direct CPHF calculation.
          Differentiating once with respect to electric field.
                with respect to dipole field.
          Differentiating once with respect to nuclear coordinates.
          Requested convergence is 1.0D-08 RMS, and 1.0D-07 maximum.
          Secondary convergence is 1.0D-12 RMS, and 1.0D-12 maximum.
          NewPWx=T KeepS1=F KeepF1=F KeepIn=T MapXYZ=F SortEE=F KeepMc=T.
         6034 words used for storage of precomputed grid.
 Two-electron integrals replicated using symmetry.
          MDV=   26843545600 using IRadAn=       1.
          Solving linear equations simultaneously, MaxMat=     384.
 FoF2E skips out because all densities are zero.
 CalDSu exits because no D1Ps are significant.
 FoFJK:  IHMeth= 1 ICntrl=     500 DoSepK=F KAlg= 0 I1Cent=           0 FoldK=F
 IRaf= 990000000 NMat=      57 IRICut=       1 DoRegI=T DoRafI=F ISym2E= 2 IDoP0=3 IntGTp=2.
 FoFCou: FMM=F IPFlag=           0 FMFlag=      100000 FMFlg1=           0
         NFxFlg=           0 DoJE=F BraDBF=F KetDBF=F FulRan=T
         wScrn=  0.000000 ICntrl=       500 IOpCl=  0 I1Cent=           0 NGrid=           0
         NMat0=   57 NMatS0=     57 NMatT0=    0 NMatD0=   57 NMtDS0=    0 NMtDT0=    0
 Integrals replicated using symmetry in FoFCou.
          There are    60 degrees of freedom in the 1st order CPHF.  IDoFFX=6 NUNeed=     3.
     57 vectors produced by pass  0 Test12= 3.69D-14 1.67D-09 XBig12= 1.38D+04 8.68D+01.
 AX will form    57 AO Fock derivatives at one time.
     57 vectors produced by pass  1 Test12= 3.69D-14 1.67D-09 XBig12= 4.08D+03 1.59D+01.
     57 vectors produced by pass  2 Test12= 3.69D-14 1.67D-09 XBig12= 3.00D+01 7.16D-01.
     57 vectors produced by pass  3 Test12= 3.69D-14 1.67D-09 XBig12= 1.26D-01 3.43D-02.
     57 vectors produced by pass  4 Test12= 3.69D-14 1.67D-09 XBig12= 6.16D-04 2.35D-03.
     57 vectors produced by pass  5 Test12= 3.69D-14 1.67D-09 XBig12= 1.88D-06 1.75D-04.
     26 vectors produced by pass  6 Test12= 3.69D-14 1.67D-09 XBig12= 2.54D-09 4.22D-06.
      3 vectors produced by pass  7 Test12= 3.69D-14 1.67D-09 XBig12= 3.60D-12 1.71D-07.
      2 vectors produced by pass  8 Test12= 3.69D-14 1.67D-09 XBig12= 5.85D-15 6.30D-09.
 InvSVY:  IOpt=1 It=  1 EMax= 1.85D-13
 Solved reduced A of dimension   373 with    60 vectors.
 FullF1:  Do perturbations      1 to       3.
 Isotropic polarizability for W=    0.000000      118.01 Bohr**3.
 End of Minotr F.D. properties file   721 does not exist.
 End of Minotr F.D. properties file   722 does not exist.
 End of Minotr F.D. properties file   788 does not exist.
 Leave Link 1002 at Thu May 23 15:12:50 2024, MaxMem= 26843545600 cpu:            5791.7 elap:              48.3
 (Enter /gpfs/fs1/soft/improv/software/custom-built/gaussian/g16/l601.exe)
 Copying SCF densities to generalized density rwf, IOpCl= 1 IROHF=0.

 **********************************************************************

            Population analysis using the SCF Density.

 **********************************************************************

 Orbital symmetries:
 Alpha Orbitals:
       Occupied  (A) (A) (A) (A) (A) (A) (A) (A) (A) (A) (A) (A)
                 (A) (A) (A) (A) (A) (A) (A) (A) (A) (A) (A) (A)
                 (A) (A) (A) (A) (A) (A) (A) (A) (A) (A) (A) (A)
                 (A) (A) (A) (A) (A)
       Virtual   (A) (A) (A) (A) (A) (A) (A) (A) (A) (A) (A) (A)
                 (A) (A) (A) (A) (A) (A) (A) (A) (A) (A) (A) (A)
                 (A) (A) (A) (A) (A) (A) (A) (A) (A) (A) (A) (A)
                 (A) (A) (A) (A) (A) (A) (A) (A) (A) (A) (A) (A)
                 (A) (A) (A) (A) (A) (A) (A) (A) (A) (A) (A) (A)
                 (A) (A) (A) (A) (A) (A) (A) (A) (A) (A) (A) (A)
                 (A) (A) (A) (A) (A) (A) (A) (A) (A) (A) (A) (A)
                 (A) (A) (A) (A) (A) (A) (A) (A) (A) (A) (A) (A)
                 (A) (A) (A) (A) (A) (A) (A) (A) (A) (A) (A) (A)
                 (A) (A) (A) (A) (A) (A) (A) (A) (A) (A) (A) (A)
                 (A) (A) (A) (A) (A) (A) (A) (A) (A) (A) (A) (A)
                 (A) (A) (A) (A) (A) (A) (A) (A) (A) (A) (A) (A)
                 (A) (A) (A) (A) (A) (A) (A) (A) (A) (A) (A) (A)
                 (A) (A) (A) (A) (A) (A) (A) (A) (A) (A) (A) (A)
                 (A) (A) (A) (A) (A) (A) (A) (A) (A) (A) (A) (A)
                 (A) (A) (A) (A) (A) (A) (A) (A) (A) (A) (A) (A)
                 (A) (A) (A) (A) (A) (A) (A) (A) (A) (A) (A) (A)
                 (A) (A) (A) (A) (A) (A) (A) (A) (A) (A) (A) (A)
                 (A) (A) (A) (A) (A) (A) (A) (A) (A) (A) (A) (A)
                 (A) (A) (A) (A) (A) (A) (A) (A) (A) (A) (A) (A)
                 (A) (A) (A) (A) (A) (A) (A) (A) (A) (A) (A) (A)
                 (A) (A) (A) (A) (A) (A) (A) (A) (A) (A) (A) (A)
                 (A) (A) (A) (A) (A) (A) (A) (A) (A) (A) (A) (A)
 Beta  Orbitals:
       Occupied  (A) (A) (A) (A) (A) (A) (A) (A) (A) (A) (A) (A)
                 (A) (A) (A) (A) (A) (A) (A) (A) (A) (A) (A) (A)
                 (A) (A) (A) (A) (A) (A) (A) (A) (A) (A) (A) (A)
                 (A) (A) (A)
       Virtual   (A) (A) (A) (A) (A) (A) (A) (A) (A) (A) (A) (A)
                 (A) (A) (A) (A) (A) (A) (A) (A) (A) (A) (A) (A)
                 (A) (A) (A) (A) (A) (A) (A) (A) (A) (A) (A) (A)
                 (A) (A) (A) (A) (A) (A) (A) (A) (A) (A) (A) (A)
                 (A) (A) (A) (A) (A) (A) (A) (A) (A) (A) (A) (A)
                 (A) (A) (A) (A) (A) (A) (A) (A) (A) (A) (A) (A)
                 (A) (A) (A) (A) (A) (A) (A) (A) (A) (A) (A) (A)
                 (A) (A) (A) (A) (A) (A) (A) (A) (A) (A) (A) (A)
                 (A) (A) (A) (A) (A) (A) (A) (A) (A) (A) (A) (A)
                 (A) (A) (A) (A) (A) (A) (A) (A) (A) (A) (A) (A)
                 (A) (A) (A) (A) (A) (A) (A) (A) (A) (A) (A) (A)
                 (A) (A) (A) (A) (A) (A) (A) (A) (A) (A) (A) (A)
                 (A) (A) (A) (A) (A) (A) (A) (A) (A) (A) (A) (A)
                 (A) (A) (A) (A) (A) (A) (A) (A) (A) (A) (A) (A)
                 (A) (A) (A) (A) (A) (A) (A) (A) (A) (A) (A) (A)
                 (A) (A) (A) (A) (A) (A) (A) (A) (A) (A) (A) (A)
                 (A) (A) (A) (A) (A) (A) (A) (A) (A) (A) (A) (A)
                 (A) (A) (A) (A) (A) (A) (A) (A) (A) (A) (A) (A)
                 (A) (A) (A) (A) (A) (A) (A) (A) (A) (A) (A) (A)
                 (A) (A) (A) (A) (A) (A) (A) (A) (A) (A) (A) (A)
                 (A) (A) (A) (A) (A) (A) (A) (A) (A) (A) (A) (A)
                 (A) (A) (A) (A) (A) (A) (A) (A) (A) (A) (A) (A)
                 (A) (A) (A) (A) (A) (A) (A) (A) (A) (A) (A) (A)
                 (A) (A)
 The electronic state is 3-A.
 Alpha  occ. eigenvalues -- -177.99578 -19.72208 -19.21041 -19.21010 -19.20248
 Alpha  occ. eigenvalues --  -19.19941 -19.19469 -19.19454 -16.51777 -16.51531
 Alpha  occ. eigenvalues --  -16.50858  -2.51807  -1.70005  -1.69682  -1.69045
 Alpha  occ. eigenvalues --   -1.36161  -1.34465  -1.33710  -1.32961  -1.32264
 Alpha  occ. eigenvalues --   -1.31995  -0.93184  -0.92117  -0.90036  -0.89778
 Alpha  occ. eigenvalues --   -0.89133  -0.87712  -0.80326  -0.79882  -0.79111
 Alpha  occ. eigenvalues --   -0.76962  -0.76036  -0.73721  -0.71853  -0.69655
 Alpha  occ. eigenvalues --   -0.69248  -0.68188  -0.66792  -0.65179  -0.42030
 Alpha  occ. eigenvalues --   -0.41221
 Alpha virt. eigenvalues --   -0.40575  -0.38359  -0.35633  -0.33502  -0.32318
 Alpha virt. eigenvalues --   -0.29958  -0.29605  -0.26801  -0.26419  -0.24314
 Alpha virt. eigenvalues --   -0.22701  -0.22341  -0.21828  -0.20786  -0.20047
 Alpha virt. eigenvalues --   -0.19234  -0.18746  -0.18267  -0.17210  -0.15942
 Alpha virt. eigenvalues --   -0.15036  -0.14748  -0.13803  -0.12911  -0.12393
 Alpha virt. eigenvalues --   -0.10824  -0.10676  -0.10506  -0.09607  -0.08016
 Alpha virt. eigenvalues --   -0.07345  -0.06625  -0.05009  -0.04901  -0.04090
 Alpha virt. eigenvalues --   -0.03786  -0.03635  -0.01738  -0.01386   0.00097
 Alpha virt. eigenvalues --    0.01160   0.01720   0.02517   0.04329   0.04912
 Alpha virt. eigenvalues --    0.05207   0.07134   0.07596   0.08905   0.09534
 Alpha virt. eigenvalues --    0.11753   0.13846   0.14888   0.17351   0.20002
 Alpha virt. eigenvalues --    0.21856   0.35945   0.36527   0.36865   0.38161
 Alpha virt. eigenvalues --    0.40139   0.40809   0.41376   0.42072   0.45753
 Alpha virt. eigenvalues --    0.46789   0.48369   0.48789   0.48913   0.51313
 Alpha virt. eigenvalues --    0.51767   0.51939   0.52317   0.54093   0.54477
 Alpha virt. eigenvalues --    0.57486   0.59240   0.60656   0.61332   0.63188
 Alpha virt. eigenvalues --    0.64400   0.65406   0.65934   0.67255   0.68127
 Alpha virt. eigenvalues --    0.69911   0.70567   0.71210   0.73391   0.73725
 Alpha virt. eigenvalues --    0.76714   0.76959   0.80839   0.81752   0.83335
 Alpha virt. eigenvalues --    0.85659   0.87999   0.90033   0.90811   0.91305
 Alpha virt. eigenvalues --    0.92881   0.95169   0.96711   0.98092   1.01252
 Alpha virt. eigenvalues --    1.01930   1.07316   1.09009   1.12246   1.13623
 Alpha virt. eigenvalues --    1.17757   1.22388   1.24151   1.26778   1.29898
 Alpha virt. eigenvalues --    1.34408   1.35164   1.38995   1.41050   1.44943
 Alpha virt. eigenvalues --    1.46635   1.48859   1.50575   1.52226   1.57910
 Alpha virt. eigenvalues --    1.61223   1.79976   1.81177   1.83135   1.83469
 Alpha virt. eigenvalues --    1.84467   1.86307   1.87630   1.88772   1.93048
 Alpha virt. eigenvalues --    1.95815   1.98984   2.00632   2.02215   2.04810
 Alpha virt. eigenvalues --    2.09056   2.09995   2.12903   2.17468   2.19307
 Alpha virt. eigenvalues --    2.24250   2.30889   2.32600   2.38999   2.40725
 Alpha virt. eigenvalues --    2.42673   2.44834   2.46836   2.47768   2.49313
 Alpha virt. eigenvalues --    2.50804   2.52945   2.54897   2.55937   2.58231
 Alpha virt. eigenvalues --    2.59174   2.60327   2.61063   2.62650   2.65303
 Alpha virt. eigenvalues --    2.72055   2.73640   2.75130   2.76692   2.77555
 Alpha virt. eigenvalues --    2.79329   2.82051   2.86329   2.87617   2.90587
 Alpha virt. eigenvalues --    2.96162   2.99137   3.02263   3.17050   3.17714
 Alpha virt. eigenvalues --    3.18307   3.21123   3.24293   3.60175   3.62413
 Alpha virt. eigenvalues --    3.65168   3.68183   3.69990   3.72158   3.73512
 Alpha virt. eigenvalues --    3.74885   3.75669   3.76598   3.77933   3.81189
 Alpha virt. eigenvalues --    3.84336   3.86569   3.88427   3.95222   3.95830
 Alpha virt. eigenvalues --    3.98723   4.01795   4.07249   4.07717   4.10688
 Alpha virt. eigenvalues --    4.14064   4.17182   4.18498   4.26215   4.27391
 Alpha virt. eigenvalues --    4.27666   4.31787   4.32406   4.41160   4.42813
 Alpha virt. eigenvalues --    4.45153   4.46672   4.48299   4.48864   4.51389
 Alpha virt. eigenvalues --    4.60057   4.72032   4.77173   4.79302   4.83500
 Alpha virt. eigenvalues --    4.84410   4.85762   4.94585   4.96805   4.99348
 Alpha virt. eigenvalues --    4.99565   4.99934   5.00641   5.06597   5.07853
 Alpha virt. eigenvalues --    5.09246   5.14198   5.15318   5.16730   5.18669
 Alpha virt. eigenvalues --    5.21035   5.25757   5.26905   5.30293   5.33420
 Alpha virt. eigenvalues --    5.33519   5.34797   5.36490   5.37952   5.39238
 Alpha virt. eigenvalues --    5.43183   5.44466   5.45560   5.47693   5.48414
 Alpha virt. eigenvalues --    5.50052   5.52166   5.53636   5.57262   5.62092
 Alpha virt. eigenvalues --    5.89664   5.91839   5.96269   6.97409   7.00164
 Alpha virt. eigenvalues --    7.01265   7.11962   7.17646   7.21804  13.17490
 Alpha virt. eigenvalues --   13.20038  13.21011  13.76927  13.80667  13.86599
 Alpha virt. eigenvalues --   28.45941
  Beta  occ. eigenvalues -- -177.99571 -19.71063 -19.20979 -19.20946 -19.20184
  Beta  occ. eigenvalues --  -19.19861 -19.19456 -19.19437 -16.51134 -16.50713
  Beta  occ. eigenvalues --  -16.49650  -2.47812  -1.67242  -1.66266  -1.64091
  Beta  occ. eigenvalues --   -1.35903  -1.34241  -1.33462  -1.32581  -1.32028
  Beta  occ. eigenvalues --   -1.31596  -0.92744  -0.91815  -0.89740  -0.89456
  Beta  occ. eigenvalues --   -0.88910  -0.87489  -0.79987  -0.79521  -0.78743
  Beta  occ. eigenvalues --   -0.76720  -0.75765  -0.73480  -0.71544  -0.69490
  Beta  occ. eigenvalues --   -0.69025  -0.67892  -0.66614  -0.65024
  Beta virt. eigenvalues --   -0.40110  -0.37484  -0.36306  -0.35874  -0.34828
  Beta virt. eigenvalues --   -0.32710  -0.31918  -0.29292  -0.29096  -0.26187
  Beta virt. eigenvalues --   -0.25846  -0.23512  -0.22342  -0.21937  -0.20548
  Beta virt. eigenvalues --   -0.19968  -0.19463  -0.19001  -0.18169  -0.18048
  Beta virt. eigenvalues --   -0.16916  -0.15710  -0.14952  -0.14637  -0.13682
  Beta virt. eigenvalues --   -0.12667  -0.12291  -0.10609  -0.10500  -0.10237
  Beta virt. eigenvalues --   -0.09365  -0.07888  -0.06869  -0.06636  -0.04762
  Beta virt. eigenvalues --   -0.04636  -0.03744  -0.03530  -0.03425  -0.01471
  Beta virt. eigenvalues --   -0.01159   0.00492   0.01521   0.01874   0.02854
  Beta virt. eigenvalues --    0.04621   0.05376   0.05418   0.07451   0.07885
  Beta virt. eigenvalues --    0.09136   0.09821   0.12307   0.14639   0.15632
  Beta virt. eigenvalues --    0.17825   0.20635   0.22364   0.36404   0.37209
  Beta virt. eigenvalues --    0.37965   0.38905   0.41005   0.41560   0.42077
  Beta virt. eigenvalues --    0.42937   0.46099   0.47248   0.48720   0.49107
  Beta virt. eigenvalues --    0.49320   0.51744   0.52246   0.52323   0.52759
  Beta virt. eigenvalues --    0.54453   0.54926   0.57765   0.59485   0.61004
  Beta virt. eigenvalues --    0.61760   0.63503   0.64645   0.65831   0.66464
  Beta virt. eigenvalues --    0.67502   0.68346   0.70175   0.70875   0.71767
  Beta virt. eigenvalues --    0.73741   0.74140   0.77039   0.77256   0.81288
  Beta virt. eigenvalues --    0.81914   0.83630   0.85859   0.88918   0.90422
  Beta virt. eigenvalues --    0.91122   0.91660   0.93121   0.96335   0.97169
  Beta virt. eigenvalues --    0.98322   1.01787   1.02306   1.08249   1.09741
  Beta virt. eigenvalues --    1.13148   1.14215   1.18289   1.24967   1.25541
  Beta virt. eigenvalues --    1.28314   1.31901   1.36118   1.36971   1.39992
  Beta virt. eigenvalues --    1.41916   1.45728   1.47099   1.49885   1.51368
  Beta virt. eigenvalues --    1.53805   1.58987   1.62018   1.80718   1.81884
  Beta virt. eigenvalues --    1.83598   1.84325   1.85399   1.86858   1.88246
  Beta virt. eigenvalues --    1.89411   1.93733   1.96411   1.99611   2.01480
  Beta virt. eigenvalues --    2.02876   2.05552   2.09967   2.10851   2.13827
  Beta virt. eigenvalues --    2.18543   2.20533   2.26086   2.31928   2.33466
  Beta virt. eigenvalues --    2.39836   2.41666   2.43564   2.45934   2.47667
  Beta virt. eigenvalues --    2.48645   2.50152   2.51586   2.53956   2.55827
  Beta virt. eigenvalues --    2.56869   2.59230   2.60205   2.61198   2.61819
  Beta virt. eigenvalues --    2.63684   2.66082   2.72887   2.74255   2.75922
  Beta virt. eigenvalues --    2.77294   2.78700   2.80568   2.83810   2.87481
  Beta virt. eigenvalues --    2.89143   2.92975   2.97449   3.00466   3.03583
  Beta virt. eigenvalues --    3.18770   3.19079   3.19952   3.22733   3.26206
  Beta virt. eigenvalues --    3.60508   3.62706   3.65366   3.68848   3.70335
  Beta virt. eigenvalues --    3.72697   3.73740   3.75361   3.76069   3.76975
  Beta virt. eigenvalues --    3.78149   3.81606   3.84716   3.86848   3.88609
  Beta virt. eigenvalues --    3.95554   3.96158   3.98992   4.02332   4.07714
  Beta virt. eigenvalues --    4.08430   4.11369   4.18068   4.18938   4.19548
  Beta virt. eigenvalues --    4.26816   4.28297   4.29788   4.32491   4.34328
  Beta virt. eigenvalues --    4.41792   4.43561   4.46037   4.47721   4.48819
  Beta virt. eigenvalues --    4.49695   4.52290   4.62154   4.72225   4.77670
  Beta virt. eigenvalues --    4.79671   4.83890   4.84773   4.86203   4.94764
  Beta virt. eigenvalues --    4.96992   4.99587   4.99702   5.00126   5.00920
  Beta virt. eigenvalues --    5.06973   5.08210   5.09673   5.14652   5.16288
  Beta virt. eigenvalues --    5.17178   5.19405   5.21460   5.26097   5.27458
  Beta virt. eigenvalues --    5.30700   5.33719   5.33824   5.35165   5.36840
  Beta virt. eigenvalues --    5.38518   5.39776   5.43604   5.44779   5.46167
  Beta virt. eigenvalues --    5.48077   5.49027   5.50384   5.52831   5.54118
  Beta virt. eigenvalues --    5.57745   5.62801   5.89856   5.92057   5.96580
  Beta virt. eigenvalues --    6.97741   7.00547   7.01668   7.12202   7.17887
  Beta virt. eigenvalues --    7.22089  13.17725  13.20259  13.21238  13.77062
  Beta virt. eigenvalues --   13.80802  13.86725  28.47257
          Condensed to atoms (all electrons):
               1          2          3          4          5          6
     1  Ti  22.766274  -0.066105  -0.005942   0.012336   0.016584  -0.369990
     2  O   -0.066105   7.993451   0.292365  -0.044810  -0.004511   0.021657
     3  H   -0.005942   0.292365   0.325330   0.005640   0.000106  -0.011276
     4  O    0.012336  -0.044810   0.005640   8.118714   0.274184  -0.094961
     5  H    0.016584  -0.004511   0.000106   0.274184   0.361551  -0.008154
     6  O   -0.369990   0.021657  -0.011276  -0.094961  -0.008154   8.436476
     7  H    0.060485  -0.005161   0.000403   0.004063   0.003306   0.212364
     8  O   -0.122456   0.031170  -0.000148  -0.066939   0.001995  -0.115761
     9  H    0.015106  -0.000103   0.000003   0.002168   0.000463  -0.005440
    10  O   -0.185875  -0.015463   0.022950   0.014675  -0.002264   0.027729
    11  H    0.046642   0.008034   0.000814  -0.001934   0.000086  -0.005949
    12  O   -0.471246   0.012669  -0.016101   0.053133  -0.023116   0.052693
    13  H    0.000390  -0.009562   0.000724   0.020095   0.000859  -0.000698
    14  H    0.030991   0.006232   0.000191  -0.009034   0.000452  -0.001482
    15  H   -0.001686   0.010044  -0.000001   0.282754  -0.018382  -0.004045
    16  H   -0.034671   0.336023  -0.018649  -0.009399   0.000168   0.004840
    17  H   -0.002998  -0.001787   0.000945  -0.000168   0.000062  -0.004848
    18  H    0.043378  -0.001085   0.000359   0.021346   0.009109   0.213255
    19  H    0.052713  -0.004149   0.000095   0.002912   0.012513  -0.010300
               7          8          9         10         11         12
     1  Ti   0.060485  -0.122456   0.015106  -0.185875   0.046642  -0.471246
     2  O   -0.005161   0.031170  -0.000103  -0.015463   0.008034   0.012669
     3  H    0.000403  -0.000148   0.000003   0.022950   0.000814  -0.016101
     4  O    0.004063  -0.066939   0.002168   0.014675  -0.001934   0.053133
     5  H    0.003306   0.001995   0.000463  -0.002264   0.000086  -0.023116
     6  O    0.212364  -0.115761  -0.005440   0.027729  -0.005949   0.052693
     7  H    0.384107   0.000307   0.000071  -0.015182   0.000469  -0.008730
     8  O    0.000307   8.174662   0.289732  -0.028670  -0.004277   0.010840
     9  H    0.000071   0.289732   0.327513  -0.005155   0.005090  -0.011911
    10  O   -0.015182  -0.028670  -0.005155   8.205360   0.229335  -0.017219
    11  H    0.000469  -0.004277   0.005090   0.229335   0.366628  -0.015284
    12  O   -0.008730   0.010840  -0.011911  -0.017219  -0.015284   8.381326
    13  H    0.000051  -0.006800   0.000062   0.006685  -0.000001   0.286027
    14  H    0.000029   0.007719   0.004365  -0.017821   0.011949   0.243602
    15  H    0.000188   0.002346  -0.000010  -0.002681   0.000020  -0.002422
    16  H   -0.000198   0.000132   0.000022  -0.007601   0.000183   0.000030
    17  H    0.005127  -0.003721  -0.001368   0.305765  -0.022471  -0.004913
    18  H   -0.006981  -0.001133   0.000478  -0.004968   0.000132  -0.007114
    19  H    0.027167   0.226375  -0.014260  -0.015208   0.001086  -0.021761
              13         14         15         16         17         18
     1  Ti   0.000390   0.030991  -0.001686  -0.034671  -0.002998   0.043378
     2  O   -0.009562   0.006232   0.010044   0.336023  -0.001787  -0.001085
     3  H    0.000724   0.000191  -0.000001  -0.018649   0.000945   0.000359
     4  O    0.020095  -0.009034   0.282754  -0.009399  -0.000168   0.021346
     5  H    0.000859   0.000452  -0.018382   0.000168   0.000062   0.009109
     6  O   -0.000698  -0.001482  -0.004045   0.004840  -0.004848   0.213255
     7  H    0.000051   0.000029   0.000188  -0.000198   0.005127  -0.006981
     8  O   -0.006800   0.007719   0.002346   0.000132  -0.003721  -0.001133
     9  H    0.000062   0.004365  -0.000010   0.000022  -0.001368   0.000478
    10  O    0.006685  -0.017821  -0.002681  -0.007601   0.305765  -0.004968
    11  H   -0.000001   0.011949   0.000020   0.000183  -0.022471   0.000132
    12  O    0.286027   0.243602  -0.002422   0.000030  -0.004913  -0.007114
    13  H    0.305616  -0.019206  -0.000480  -0.000076   0.000005   0.000011
    14  H   -0.019206   0.369043   0.000119   0.000027   0.000002   0.000084
    15  H   -0.000480   0.000119   0.313809   0.001930   0.000003   0.003097
    16  H   -0.000076   0.000027   0.001930   0.320287  -0.000091   0.001564
    17  H    0.000005   0.000002   0.000003  -0.000091   0.318221   0.000105
    18  H    0.000011   0.000084   0.003097   0.001564   0.000105   0.364279
    19  H    0.000329   0.000718   0.000147  -0.000017   0.001903   0.005021
              19
     1  Ti   0.052713
     2  O   -0.004149
     3  H    0.000095
     4  O    0.002912
     5  H    0.012513
     6  O   -0.010300
     7  H    0.027167
     8  O    0.226375
     9  H   -0.014260
    10  O   -0.015208
    11  H    0.001086
    12  O   -0.021761
    13  H    0.000329
    14  H    0.000718
    15  H    0.000147
    16  H   -0.000017
    17  H    0.001903
    18  H    0.005021
    19  H    0.406665
          Atomic-Atomic Spin Densities.
               1          2          3          4          5          6
     1  Ti   3.068829  -0.105846   0.006644  -0.094119   0.031348  -0.437796
     2  O   -0.105846   0.098490  -0.020087  -0.022498  -0.004137   0.048200
     3  H    0.006644  -0.020087   0.041112   0.003277   0.000138  -0.010384
     4  O   -0.094119  -0.022498   0.003277   0.183937  -0.034149  -0.032571
     5  H    0.031348  -0.004137   0.000138  -0.034149   0.069415  -0.007335
     6  O   -0.437796   0.048200  -0.010384  -0.032571  -0.007335   0.464684
     7  H    0.070247  -0.008246   0.000412   0.006022   0.003319  -0.095468
     8  O   -0.148595   0.001454   0.000355  -0.022664   0.001747  -0.009967
     9  H    0.019933   0.001218   0.000012  -0.001979   0.000445  -0.006281
    10  O   -0.287540  -0.045248   0.016831   0.006534  -0.001410   0.063990
    11  H    0.051209   0.005911   0.001070  -0.000728   0.000077  -0.007706
    12  O   -0.534297   0.004872  -0.011235   0.017864  -0.024182   0.027676
    13  H    0.017529  -0.002445   0.000638   0.012221   0.000935  -0.000357
    14  H    0.030270   0.004192   0.000188  -0.009919   0.000427  -0.001316
    15  H    0.004111   0.007163  -0.000026  -0.014851   0.002182   0.002091
    16  H   -0.022573   0.023101  -0.002941  -0.000379   0.000094   0.002823
    17  H    0.009899  -0.003029   0.000907   0.001011   0.000072  -0.005038
    18  H    0.051949   0.001925   0.000299   0.013581   0.009897  -0.086167
    19  H    0.063465  -0.002869   0.000093   0.010352   0.012145  -0.015418
               7          8          9         10         11         12
     1  Ti   0.070247  -0.148595   0.019933  -0.287540   0.051209  -0.534297
     2  O   -0.008246   0.001454   0.001218  -0.045248   0.005911   0.004872
     3  H    0.000412   0.000355   0.000012   0.016831   0.001070  -0.011235
     4  O    0.006022  -0.022664  -0.001979   0.006534  -0.000728   0.017864
     5  H    0.003319   0.001747   0.000445  -0.001410   0.000077  -0.024182
     6  O   -0.095468  -0.009967  -0.006281   0.063990  -0.007706   0.027676
     7  H    0.081283  -0.001403   0.000183  -0.008494   0.000395  -0.007404
     8  O   -0.001403   0.171935  -0.008019   0.017392   0.002329   0.047310
     9  H    0.000183  -0.008019   0.018440  -0.010890   0.005037  -0.006692
    10  O   -0.008494   0.017392  -0.010890   0.275609  -0.068206   0.020349
    11  H    0.000395   0.002329   0.005037  -0.068206   0.071157  -0.017008
    12  O   -0.007404   0.047310  -0.006692   0.020349  -0.017008   0.509907
    13  H    0.000049  -0.003297  -0.000071   0.002250   0.000032  -0.029160
    14  H    0.000041   0.008897   0.004219  -0.007104   0.010118  -0.058630
    15  H   -0.000033   0.000192   0.000042  -0.001279   0.000027  -0.004457
    16  H   -0.000192   0.000102   0.000021  -0.007556   0.000196  -0.001559
    17  H    0.004294  -0.003552  -0.000641   0.002289  -0.001232  -0.006111
    18  H    0.009305  -0.000764   0.000417  -0.007935   0.000171  -0.006051
    19  H    0.024364  -0.082866   0.002553  -0.012319   0.000866  -0.025274
              13         14         15         16         17         18
     1  Ti   0.017529   0.030270   0.004111  -0.022573   0.009899   0.051949
     2  O   -0.002445   0.004192   0.007163   0.023101  -0.003029   0.001925
     3  H    0.000638   0.000188  -0.000026  -0.002941   0.000907   0.000299
     4  O    0.012221  -0.009919  -0.014851  -0.000379   0.001011   0.013581
     5  H    0.000935   0.000427   0.002182   0.000094   0.000072   0.009897
     6  O   -0.000357  -0.001316   0.002091   0.002823  -0.005038  -0.086167
     7  H    0.000049   0.000041  -0.000033  -0.000192   0.004294   0.009305
     8  O   -0.003297   0.008897   0.000192   0.000102  -0.003552  -0.000764
     9  H   -0.000071   0.004219   0.000042   0.000021  -0.000641   0.000417
    10  O    0.002250  -0.007104  -0.001279  -0.007556   0.002289  -0.007935
    11  H    0.000032   0.010118   0.000027   0.000196  -0.001232   0.000171
    12  O   -0.029160  -0.058630  -0.004457  -0.001559  -0.006111  -0.006051
    13  H    0.016861  -0.003192  -0.000265  -0.000084   0.000056   0.000021
    14  H   -0.003192   0.054187   0.000141   0.000076  -0.000068   0.000084
    15  H   -0.000265   0.000141   0.014100   0.001355  -0.000007   0.003386
    16  H   -0.000084   0.000076   0.001355   0.013324  -0.000108   0.001924
    17  H    0.000056  -0.000068  -0.000007  -0.000108   0.007531   0.000118
    18  H    0.000021   0.000084   0.003386   0.001924   0.000118   0.081481
    19  H    0.000335   0.000712   0.000066  -0.000002   0.001914   0.005225
              19
     1  Ti   0.063465
     2  O   -0.002869
     3  H    0.000093
     4  O    0.010352
     5  H    0.012145
     6  O   -0.015418
     7  H    0.024364
     8  O   -0.082866
     9  H    0.002553
    10  O   -0.012319
    11  H    0.000866
    12  O   -0.025274
    13  H    0.000335
    14  H    0.000712
    15  H    0.000066
    16  H   -0.000002
    17  H    0.001914
    18  H    0.005225
    19  H    0.118723
 Mulliken charges and spin densities:
               1          2
     1  Ti   0.216068   1.794667
     2  O   -0.558910  -0.017879
     3  H    0.402191   0.027305
     4  O   -0.584777   0.020941
     5  H    0.374989   0.061027
     6  O   -0.336109  -0.106339
     7  H    0.338114   0.078674
     8  O   -0.395373  -0.029412
     9  H    0.393174   0.017949
    10  O   -0.494393  -0.052736
    11  H    0.379450   0.053715
    12  O   -0.440502  -0.104080
    13  H    0.415971   0.012054
    14  H    0.372021   0.033324
    15  H    0.415249   0.013937
    16  H    0.405497   0.007620
    17  H    0.410226   0.008303
    18  H    0.359062   0.078865
    19  H    0.328050   0.102065
 Sum of Mulliken charges =   2.00000   2.00000
 Mulliken charges and spin densities with hydrogens summed into heavy atoms:
               1          2
     1  Ti   0.216068   1.794667
     2  O    0.248779   0.017046
     4  O    0.205461   0.095905
     6  O    0.361068   0.051200
     8  O    0.325851   0.090602
    10  O    0.295283   0.009282
    12  O    0.347490  -0.058702
 APT charges:
               1
     1  Ti   0.761626
     2  O   -0.359459
[...]
              19
     1  Ti  -0.004990
     2  O   -0.000259
     3  H    0.000000
     4  O    0.001967
     5  H   -0.000031
     6  O    0.003397
     7  H   -0.000001
     8  O    0.287176
     9  H   -0.018401
    10  O    0.001214
    11  H    0.000002
    12  O    0.000185
    13  H    0.000002
    14  H   -0.000002
    15  H   -0.000002
    16  H   -0.000000
    17  H   -0.000046
    18  H   -0.000046
    19  H    0.335121
          Atomic-Atomic Spin Densities.
               1          2          3          4          5          6
     1  Ti   2.255008  -0.024848  -0.005522  -0.024832  -0.004756  -0.024877
     2  O   -0.024848   0.004676   0.003126  -0.000225  -0.000020   0.000053
     3  H   -0.005522   0.003126   0.006829   0.000119   0.000001  -0.000426
     4  O   -0.024832  -0.000225   0.000119   0.004653   0.002189  -0.000204
     5  H   -0.004756  -0.000020   0.000001   0.002189   0.004862   0.000164
     6  O   -0.024877   0.000053  -0.000426  -0.000204   0.000164   0.004676
     7  H   -0.004753  -0.000492   0.000002  -0.000022  -0.000003   0.002188
     8  O   -0.024903   0.000672  -0.000019   0.000048   0.001462  -0.000224
     9  H   -0.004750  -0.000027  -0.000000  -0.000488  -0.000016  -0.000022
    10  O   -0.024868   0.000027   0.000630   0.000654  -0.000027   0.000070
    11  H   -0.004746   0.001460   0.000025  -0.000027   0.000000  -0.000489
    12  O   -0.024860  -0.000225   0.000699   0.000046  -0.000489   0.000661
    13  H   -0.004753   0.000160   0.000053   0.001465  -0.000016  -0.000027
    14  H   -0.005544   0.000124  -0.000026  -0.000425   0.000002  -0.000019
    15  H   -0.005520   0.000693  -0.000026   0.003137  -0.001898   0.000121
    16  H   -0.004761   0.002183  -0.001904   0.000166  -0.000003   0.001464
    17  H   -0.005523  -0.000425  -0.000003  -0.000019  -0.000000   0.000626
    18  H   -0.005535   0.000631  -0.000003   0.000704   0.000053   0.003128
    19  H   -0.005512  -0.000019   0.000000   0.000628   0.000025   0.000703
               7          8          9         10         11         12
     1  Ti  -0.004753  -0.024903  -0.004750  -0.024868  -0.004746  -0.024860
     2  O   -0.000492   0.000672  -0.000027   0.000027   0.001460  -0.000225
     3  H    0.000002  -0.000019  -0.000000   0.000630   0.000025   0.000699
     4  O   -0.000022   0.000048  -0.000488   0.000654  -0.000027   0.000046
     5  H   -0.000003   0.001462  -0.000016  -0.000027   0.000000  -0.000489
     6  O    0.002188  -0.000224  -0.000022   0.000070  -0.000489   0.000661
     7  H    0.004880   0.000160  -0.000003   0.001463  -0.000016  -0.000027
     8  O    0.000160   0.004738   0.002182  -0.000225  -0.000020   0.000056
     9  H   -0.000003   0.002182   0.004868   0.000166  -0.000003   0.001461
    10  O    0.001463  -0.000225   0.000166   0.004693   0.002179  -0.000205
    11  H   -0.000016  -0.000020  -0.000003   0.002179   0.004863   0.000164
    12  O   -0.000027   0.000056   0.001461  -0.000205   0.000164   0.004668
    13  H    0.000000  -0.000491  -0.000016  -0.000022  -0.000003   0.002178
    14  H   -0.000000   0.000631   0.000025   0.000704   0.000053   0.003139
    15  H    0.000001  -0.000426   0.000002  -0.000019  -0.000000   0.000628
    16  H   -0.000016  -0.000027   0.000000  -0.000488  -0.000016  -0.000021
    17  H    0.000025   0.000697   0.000053   0.003142  -0.001896   0.000122
    18  H   -0.001901   0.000125   0.000001  -0.000425   0.000002  -0.000019
    19  H    0.000053   0.003118  -0.001896   0.000121   0.000001  -0.000425
              13         14         15         16         17         18
     1  Ti  -0.004753  -0.005544  -0.005520  -0.004761  -0.005523  -0.005535
     2  O    0.000160   0.000124   0.000693   0.002183  -0.000425   0.000631
     3  H    0.000053  -0.000026  -0.000026  -0.001904  -0.000003  -0.000003
     4  O    0.001465  -0.000425   0.003137   0.000166  -0.000019   0.000704
     5  H   -0.000016   0.000002  -0.001898  -0.000003  -0.000000   0.000053
     6  O   -0.000027  -0.000019   0.000121   0.001464   0.000626   0.003128
     7  H    0.000000  -0.000000   0.000001  -0.000016   0.000025  -0.001901
     8  O   -0.000491   0.000631  -0.000426  -0.000027   0.000697   0.000125
     9  H   -0.000016   0.000025   0.000002   0.000000   0.000053   0.000001
    10  O   -0.000022   0.000704  -0.000019  -0.000488   0.003142  -0.000425
    11  H   -0.000003   0.000053  -0.000000  -0.000016  -0.001896   0.000002
    12  O    0.002178   0.003139   0.000628  -0.000021   0.000122  -0.000019
    13  H    0.004903  -0.001906   0.000025  -0.000003   0.000001  -0.000000
    14  H   -0.001906   0.006826  -0.000003   0.000001  -0.000026   0.000000
    15  H    0.000025  -0.000003   0.006803   0.000053   0.000000  -0.000026
    16  H   -0.000003   0.000001   0.000053   0.004891   0.000002   0.000025
    17  H    0.000001  -0.000026   0.000000   0.000002   0.006794  -0.000003
    18  H   -0.000000   0.000000  -0.000026   0.000025  -0.000003   0.006820
    19  H    0.000002  -0.000003  -0.000003  -0.000000  -0.000026  -0.000026
              19
     1  Ti  -0.005512
     2  O   -0.000019
     3  H    0.000000
     4  O    0.000628
     5  H    0.000025
     6  O    0.000703
     7  H    0.000053
     8  O    0.003118
     9  H   -0.001896
    10  O    0.000121
    11  H    0.000001
    12  O   -0.000425
    13  H    0.000002
    14  H   -0.000003
    15  H   -0.000003
    16  H   -0.000000
    17  H   -0.000026
    18  H   -0.000026
    19  H    0.006811
 Mulliken charges and spin densities:
               1          2
     1  Ti   1.315389   2.044144
     2  O   -0.679352  -0.012476
     3  H    0.394708   0.003555
     4  O   -0.679311  -0.012433
     5  H    0.398804   0.001531
     6  O   -0.679611  -0.012432
     7  H    0.398809   0.001540
     8  O   -0.679593  -0.012448
     9  H    0.398783   0.001537
    10  O   -0.679263  -0.012432
    11  H    0.398793   0.001531
    12  O   -0.679317  -0.012450
    13  H    0.398765   0.001550
    14  H    0.394732   0.003552
    15  H    0.394734   0.003542
    16  H    0.398749   0.001548
    17  H    0.394714   0.003540
    18  H    0.394754   0.003551
    19  H    0.394714   0.003551
 Sum of Mulliken charges =   2.00000   2.00000
 Mulliken charges and spin densities with hydrogens summed into heavy atoms:
               1          2
     1  Ti   1.315389   2.044144
     2  O    0.114105  -0.007373
     4  O    0.114227  -0.007361
     6  O    0.113952  -0.007341
     8  O    0.113904  -0.007360
    10  O    0.114244  -0.007361
    12  O    0.114179  -0.007349
 Electronic spatial extent (au):  <R**2>=           1244.4034
 Charge=              2.0000 electrons
 Dipole moment (field-independent basis, Debye):
    X=              0.0004    Y=              0.0009    Z=             -0.0001  Tot=              0.0010
 Quadrupole moment (field-independent basis, Debye-Ang):
   XX=            -14.5198   YY=            -14.5305   ZZ=            -19.5275
   XY=              0.0030   XZ=             -0.0049   YZ=              0.0002
 Traceless Quadrupole moment (field-independent basis, Debye-Ang):
   XX=              1.6728   YY=              1.6621   ZZ=             -3.3350
   XY=              0.0030   XZ=             -0.0049   YZ=              0.0002
 Octapole moment (field-independent basis, Debye-Ang**2):
  XXX=             -0.0090  YYY=              0.0023  ZZZ=             -0.0064  XYY=             -0.0026
  XXY=              0.0055  XXZ=              0.0031  XZZ=              0.0134  YZZ=              0.0155
  YYZ=              0.0029  XYZ=             -0.0038
 Hexadecapole moment (field-independent basis, Debye-Ang**3):
 XXXX=           -258.2258 YYYY=           -258.1548 ZZZZ=           -317.6093 XXXY=              0.0029
 XXXZ=            -40.9403 YYYX=              0.0470 YYYZ=             18.5812 ZZZX=             -0.0451
 ZZZY=             -0.1356 XXYY=            -86.0456 XXZZ=            -29.6322 YYZZ=            -29.6535
 XXYZ=            -18.4341 YYXZ=             40.9017 ZZXY=             -0.0398
 N-N= 5.797375446356D+02 E-N=-4.228315199199D+03  KE= 1.303230780851D+03
                          Isotropic Fermi Contact Couplings
        Atom                 a.u.       MegaHertz       Gauss      10(-4) cm-1
     1  Ti(47)            -0.02540       3.20493       1.14360       1.06905
     2  O(17)             -0.00490       1.48482       0.52982       0.49528
     3  H(1)               0.00239       5.33094       1.90221       1.77821
     4  O(17)             -0.00494       1.49814       0.53457       0.49973
     5  H(1)               0.00143       3.18855       1.13775       1.06358
     6  O(17)             -0.00494       1.49864       0.53475       0.49989
     7  H(1)               0.00143       3.20245       1.14271       1.06822
     8  O(17)             -0.00490       1.48541       0.53003       0.49548
     9  H(1)               0.00143       3.19547       1.14022       1.06589
    10  O(17)             -0.00494       1.49748       0.53434       0.49951
    11  H(1)               0.00143       3.18814       1.13761       1.06345
    12  O(17)             -0.00494       1.49726       0.53426       0.49943
    13  H(1)               0.00144       3.21617       1.14761       1.07280
    14  H(1)               0.00238       5.32727       1.90090       1.77699
    15  H(1)               0.00238       5.31503       1.89653       1.77290
    16  H(1)               0.00144       3.21148       1.14594       1.07123
    17  H(1)               0.00238       5.30981       1.89467       1.77116
    18  H(1)               0.00238       5.32467       1.89997       1.77612
    19  H(1)               0.00238       5.31948       1.89812       1.77439
 --------------------------------------------------------
       Center         ----  Spin Dipole Couplings  ----
                      3XX-RR        3YY-RR        3ZZ-RR
 --------------------------------------------------------
     1   Atom        0.289580      0.286423     -0.576003
     2   Atom        0.000746     -0.002776      0.002030
     3   Atom       -0.011303      0.016357     -0.005053
     4   Atom        0.017321     -0.019371      0.002049
     5   Atom        0.006554     -0.010834      0.004281
     6   Atom       -0.021174      0.019191      0.001983
     7   Atom       -0.009490      0.005189      0.004301
     8   Atom        0.000864     -0.002845      0.001981
     9   Atom       -0.003493     -0.000769      0.004262
    10   Atom        0.017310     -0.019376      0.002066
    11   Atom        0.006567     -0.010835      0.004268
    12   Atom       -0.021170      0.019139      0.002031
    13   Atom       -0.009489      0.005202      0.004287
    14   Atom        0.006712     -0.001656     -0.005056
    15   Atom        0.012187     -0.007131     -0.005056
    16   Atom       -0.003477     -0.000775      0.004252
    17   Atom        0.012199     -0.007125     -0.005074
    18   Atom        0.006709     -0.001642     -0.005067
    19   Atom       -0.011303      0.016386     -0.005083
 --------------------------------------------------------
                        XY            XZ            YZ
 --------------------------------------------------------
     1   Atom       -0.001269     -0.000606     -0.001616
     2   Atom        0.022152     -0.015339      0.010851
     3   Atom        0.003168      0.001433      0.013007
     4   Atom       -0.012764     -0.001545     -0.018833
     5   Atom       -0.003478     -0.016434      0.003310
     6   Atom       -0.009457      0.017126      0.007960
     7   Atom       -0.005799      0.005370     -0.015885
     8   Atom        0.022152     -0.015419      0.010878
     9   Atom        0.009272      0.011063      0.012591
    10   Atom       -0.012770     -0.001516     -0.018864
    11   Atom       -0.003471     -0.016432      0.003300
    12   Atom       -0.009521      0.017083      0.007953
    13   Atom       -0.005802      0.005367     -0.015887
    14   Atom       -0.013562      0.010559     -0.007744
    15   Atom        0.010395     -0.011983     -0.005266
    16   Atom        0.009281      0.011078      0.012586
    17   Atom        0.010408     -0.011971     -0.005265
    18   Atom       -0.013569      0.010548     -0.007740
    19   Atom        0.003174      0.001430      0.012984
 --------------------------------------------------------


 ---------------------------------------------------------------------------------
              Anisotropic Spin Dipole Couplings in Principal Axis System
 ---------------------------------------------------------------------------------

       Atom             a.u.   MegaHertz   Gauss  10(-4) cm-1        Axes

              Baa    -0.5760    17.353     6.192     5.788  0.0007  0.0019  1.0000
     1 Ti(47) Bbb     0.2860    -8.616    -3.074    -2.874  0.3323  0.9432 -0.0020
              Bcc     0.2900    -8.738    -3.118    -2.915  0.9432 -0.3323 -0.0000
 
              Baa    -0.0330     2.385     0.851     0.796 -0.6241  0.6260 -0.4676
     2 O(17)  Bbb     0.0106    -0.766    -0.273    -0.255 -0.0825  0.5423  0.8361
              Bcc     0.0224    -1.620    -0.578    -0.540  0.7770  0.5604 -0.2868
 
              Baa    -0.0117    -6.223    -2.221    -2.076  0.9877 -0.1422  0.0658
     3 H(1)   Bbb    -0.0112    -5.969    -2.130    -1.991 -0.1195 -0.4127  0.9030
              Bcc     0.0229    12.192     4.351     4.067  0.1013  0.8997  0.4246
 
              Baa    -0.0331     2.397     0.855     0.799  0.2303  0.8536  0.4672
     4 O(17)  Bbb     0.0105    -0.759    -0.271    -0.253 -0.4405 -0.3367  0.8322
              Bcc     0.0226    -1.638    -0.584    -0.546  0.8677 -0.3975  0.2985
 
              Baa    -0.0115    -6.151    -2.195    -2.052  0.0369  0.9851 -0.1679
     5 H(1)   Bbb    -0.0111    -5.897    -2.104    -1.967  0.6893  0.0966  0.7180
              Bcc     0.0226    12.048     4.299     4.019  0.7235 -0.1422 -0.6755
 
              Baa    -0.0331     2.393     0.854     0.798  0.8541  0.2259 -0.4686
     6 O(17)  Bbb     0.0105    -0.762    -0.272    -0.254  0.5121 -0.2070  0.8336
              Bcc     0.0225    -1.631    -0.582    -0.544 -0.0914  0.9519  0.2924
 
              Baa    -0.0115    -6.151    -2.195    -2.052  0.8718  0.4607  0.1665
     7 H(1)   Bbb    -0.0111    -5.898    -2.105    -1.967 -0.4275  0.5495  0.7179
              Bcc     0.0226    12.049     4.299     4.019 -0.2392  0.6971 -0.6759
 
              Baa    -0.0330     2.389     0.853     0.797 -0.6228  0.6262 -0.4690
     8 O(17)  Bbb     0.0106    -0.764    -0.273    -0.255 -0.0791  0.5459  0.8341
              Bcc     0.0225    -1.625    -0.580    -0.542  0.7784  0.5566 -0.2904
 
              Baa    -0.0115    -6.150    -2.195    -2.052  0.8353 -0.5236 -0.1678
     9 H(1)   Bbb    -0.0111    -5.896    -2.104    -1.967 -0.2601 -0.6452  0.7184
              Bcc     0.0226    12.047     4.299     4.018  0.4844  0.5565  0.6751
 
              Baa    -0.0331     2.398     0.856     0.800  0.2301  0.8536  0.4673
    10 O(17)  Bbb     0.0105    -0.759    -0.271    -0.253 -0.4433 -0.3355  0.8312
              Bcc     0.0227    -1.639    -0.585    -0.547  0.8663 -0.3984  0.3013
 
              Baa    -0.0115    -6.150    -2.194    -2.051  0.0376  0.9853 -0.1668
    11 H(1)   Bbb    -0.0110    -5.896    -2.104    -1.967  0.6889  0.0954  0.7185
              Bcc     0.0226    12.045     4.298     4.018  0.7238 -0.1419 -0.6752
 
              Baa    -0.0330     2.391     0.853     0.798  0.8543  0.2271 -0.4675
    12 O(17)  Bbb     0.0105    -0.763    -0.272    -0.254  0.5113 -0.2056  0.8344
              Bcc     0.0225    -1.629    -0.581    -0.543 -0.0934  0.9519  0.2918
 
              Baa    -0.0115    -6.151    -2.195    -2.052  0.8703  0.4625  0.1692
    13 H(1)   Bbb    -0.0111    -5.899    -2.105    -1.968 -0.4305  0.5476  0.7176
              Bcc     0.0226    12.050     4.300     4.019 -0.2392  0.6974 -0.6756
 
              Baa    -0.0117    -6.225    -2.221    -2.077  0.6173  0.7838 -0.0678
    14 H(1)   Bbb    -0.0112    -5.973    -2.131    -1.992 -0.2964  0.3116  0.9028
              Bcc     0.0229    12.198     4.353     4.069  0.7288 -0.5372  0.4246
 
              Baa    -0.0117    -6.224    -2.221    -2.076 -0.3691  0.9268  0.0693
    15 H(1)   Bbb    -0.0112    -5.971    -2.131    -1.992  0.4186  0.0992  0.9027
              Bcc     0.0229    12.195     4.351     4.068  0.8298  0.3622 -0.4246
 
              Baa    -0.0115    -6.152    -2.195    -2.052  0.8364 -0.5203 -0.1722
    16 H(1)   Bbb    -0.0111    -5.898    -2.105    -1.968 -0.2554 -0.6480  0.7176
              Bcc     0.0226    12.050     4.300     4.020  0.4849  0.5562  0.6749
 
              Baa    -0.0117    -6.225    -2.221    -2.076 -0.3694  0.9267  0.0692
    17 H(1)   Bbb    -0.0112    -5.972    -2.131    -1.992  0.4180  0.0991  0.9030
              Bcc     0.0229    12.197     4.352     4.069  0.8299  0.3625 -0.4240
 
              Baa    -0.0117    -6.224    -2.221    -2.076  0.6182  0.7829 -0.0699
    18 H(1)   Bbb    -0.0112    -5.972    -2.131    -1.992 -0.2946  0.3132  0.9029
              Bcc     0.0229    12.197     4.352     4.068  0.7287 -0.5376  0.4242
 
              Baa    -0.0117    -6.224    -2.221    -2.076  0.9873 -0.1434  0.0684
    19 H(1)   Bbb    -0.0112    -5.970    -2.130    -1.991 -0.1223 -0.4113  0.9033
              Bcc     0.0229    12.193     4.351     4.067  0.1014  0.9002  0.4236
 

 ---------------------------------------------------------------------------------

 No NMR shielding tensors so no spin-rotation constants.
 Leave Link  601 at Thu May 23 17:02:59 2024, MaxMem= 26843545600 cpu:              29.3 elap:               0.3
 (Enter /gpfs/fs1/soft/improv/software/custom-built/gaussian/g16/l9999.exe)
 Unable to Open any file for archive entry.
 1\1\GINC-I068\SP\UBLYP\Gen\H12O6Ti1(2+,3)\HHARB\23-May-2024\0\\#p BLYP
  empiricaldispersion=gd3 scf=(maxcycles=500,xqc,maxconventional=50) sc
 rf=(cpcm,solvent=water) geom=allcheck guess=read chkbasis\\Title\\2,3\
 Ti,-0.7848251059,0.7132128956,0.0315707824\O,-1.2911391443,2.843813058
 2,-0.3308790387\H,-1.6167788828,3.2296515296,-1.1681321579\O,1.3493265
 454,1.3152115583,0.1389262847\H,2.0999763711,0.7763462305,0.4570825808
 \O,-0.8945537606,0.9847423024,2.2320239432\H,-1.6131824652,0.695552033
 8,2.827860619\O,-0.2790758015,-1.4174865506,0.3950804587\H,-0.26266045
 83,-2.1411819501,-0.2614797728\O,-2.9187515106,0.1103426444,-0.0757316
 628\H,-3.6698838467,0.6484588884,-0.3940064446\O,-0.6747367366,0.44108
 3187,-2.1686703355\H,0.0430072199,0.7317632655,-2.7648474545\H,-1.3034
 768994,-0.060843297,-2.7242412425\H,1.7352763241,2.1491555967,-0.19496
 90243\H,-1.3055405606,3.567421872,0.3258329298\H,-3.3038529679,-0.7241
 849415,0.2576798156\H,-0.2653994338,1.4859831736,2.7877445058\H,0.0447
 535437,-1.8029617267,1.2332006236\\Version=ES64L-G16RevC.02\State=3-A\
 HF=-1307.8535571\S2=2.001455\S2-1=0.\S2A=2.000001\RMSD=3.225e-09\Dipol
 e=0.0001156,0.0003116,-0.0002215\Quadrupole=-0.7934976,0.3665939,0.426
 9037,1.3364444,1.28381,-0.8387062\PG=C01 [X(H12O6Ti1)]\\@
 The archive entry for this job was punched.


      HUMANKIND PERIODICALLY GOES THROUGH A SPEEDUP OF ITS AFFAIRS, 
      THEREBY EXPERIENCING THE RACE BETWEEN THE RENEWABLE VITALITY
      OF THE LIVING, AND THE BECKONING VITIATION OF DECADENCE.
      IN THIS PERIODIC RACE, ANY PAUSE BECOMES A LUXURY.
      ONLY THEN CAN ONE REFLECT THAT ALL IS PERMITTED;
      ALL IS POSSIBLE.

                              -- THE APOCRYPHA OF MUAD'DIB
                                 CHILDREN OF DUNE, BY FRANK HERBERT
 Job cpu time:       0 days  1 hours 31 minutes 37.4 seconds.
 Elapsed time:       0 days  0 hours  0 minutes 46.7 seconds.
 File lengths (MBytes):  RWF=    125 Int=      0 D2E=      0 Chk=     32 Scr=      1
 Normal termination of Gaussian 16 at Thu May 23 17:02:59 2024.
