 Entering Gaussian System, Link 0=g16
 Input=Cr_2_PBE0-secondrun.com
 Output=Cr_2_PBE0-secondrun.log
 Initial command:
 /gpfs/fs1/soft/improv/software/custom-built/gaussian/g16/l1.exe "/scratch/Gau-221188.inp" -scrdir="/scratch/"
 Default CPUs for threads: 0-127
 Default linda workers: i663.lcrc.anl.gov
 Default is to use 128 SMP processors on each worker.
 Entering Link 1 = /gpfs/fs1/soft/improv/software/custom-built/gaussian/g16/l1.exe PID=    221189.
  
 Copyright (c) 1988-2021, Gaussian, Inc.  All Rights Reserved.
  
 This is part of the Gaussian(R) 16 program.  It is based on
 the Gaussian(R) 09 system (copyright 2009, Gaussian, Inc.),
 the Gaussian(R) 03 system (copyright 2003, Gaussian, Inc.),
 the Gaussian(R) 98 system (copyright 1998, Gaussian, Inc.),
 the Gaussian(R) 94 system (copyright 1995, Gaussian, Inc.),
 the Gaussian 92(TM) system (copyright 1992, Gaussian, Inc.),
 the Gaussian 90(TM) system (copyright 1990, Gaussian, Inc.),
 the Gaussian 88(TM) system (copyright 1988, Gaussian, Inc.),
 the Gaussian 86(TM) system (copyright 1986, Carnegie Mellon
 University), and the Gaussian 82(TM) system (copyright 1983,
 Carnegie Mellon University). Gaussian is a federally registered
 trademark of Gaussian, Inc.
  
 This software contains proprietary and confidential information,
 including trade secrets, belonging to Gaussian, Inc.
  
 This software is provided under written license and may be
 used, copied, transmitted, or stored only in accord with that
 written license.
  
 The following legend is applicable only to US Government
 contracts under FAR:
  
                    RESTRICTED RIGHTS LEGEND
  
 Use, reproduction and disclosure by the US Government is
 subject to restrictions as set forth in subparagraphs (a)
 and (c) of the Commercial Computer Software - Restricted
 Rights clause in FAR 52.227-19.
  
 Gaussian, Inc.
 340 Quinnipiac St., Bldg. 40, Wallingford CT 06492
  
  
 ---------------------------------------------------------------
 Warning -- This program may not be used in any manner that
 competes with the business of Gaussian, Inc. or will provide
 assistance to any competitor of Gaussian, Inc.  The licensee
 of this program is prohibited from giving any competitor of
 Gaussian, Inc. access to this program.  By using this program,
 the user acknowledges that Gaussian, Inc. is engaged in the
 business of creating and licensing software in the field of
 computational chemistry and represents and warrants to the
 licensee that it is not a competitor of Gaussian, Inc. and that
 it will not use this program in any manner prohibited above.
 ---------------------------------------------------------------
  

 Cite this work as:
 Gaussian 16, Revision C.02,
 M. J. Frisch, G. W. Trucks, H. B. Schlegel, G. E. Scuseria, 
 M. A. Robb, J. R. Cheeseman, G. Scalmani, V. Barone, 
 G. A. Petersson, H. Nakatsuji, X. Li, M. Caricato, A. V. Marenich, 
 J. Bloino, B. G. Janesko, R. Gomperts, B. Mennucci, H. P. Hratchian, 
 J. V. Ortiz, A. F. Izmaylov, J. L. Sonnenberg, D. Williams-Young, 
 F. Ding, F. Lipparini, F. Egidi, J. Goings, B. Peng, A. Petrone, 
 T. Henderson, D. Ranasinghe, V. G. Zakrzewski, J. Gao, N. Rega, 
 G. Zheng, W. Liang, M. Hada, M. Ehara, K. Toyota, R. Fukuda, 
 J. Hasegawa, M. Ishida, T. Nakajima, Y. Honda, O. Kitao, H. Nakai, 
 T. Vreven, K. Throssell, J. A. Montgomery, Jr., J. E. Peralta, 
 F. Ogliaro, M. J. Bearpark, J. J. Heyd, E. N. Brothers, K. N. Kudin, 
 V. N. Staroverov, T. A. Keith, R. Kobayashi, J. Normand, 
 K. Raghavachari, A. P. Rendell, J. C. Burant, S. S. Iyengar, 
 J. Tomasi, M. Cossi, J. M. Millam, M. Klene, C. Adamo, R. Cammi, 
 J. W. Ochterski, R. L. Martin, K. Morokuma, O. Farkas, 
 J. B. Foresman, and D. J. Fox, Gaussian, Inc., Wallingford CT, 2019.
 
 ******************************************
 Gaussian 16:  ES64L-G16RevC.02  7-Dec-2021
                25-May-2024 
 ******************************************
 %oldchk=Cr_2_BLYP.chk
 %chk=Cr_2_PBE0.chk
 SetSPE:  set environment variable "OMP_PROC_BIND" = "true"
 SetSPE:  set environment variable "OMP_PLACES" = "{0},{1},{2},{3},{4},{5},{6},{7},{8},{9},{10},{11},{12},{13},{14},{15},{16},{17},{18},{19},{20},{21},{22},{23},{24},{25},{26},{27},{28},{29},{30},{31},{32},{33},{34},{35},{36},{37},{38},{39},{40},{41},{42},{43},{44},{45},{46},{47},{48},{49},{50},{51},{52},{53},{54},{55},{56},{57},{58},{59},{60},{61},{62},{63},{64},{65},{66},{67},{68},{69},{70},{71},{72},{73},{74},{75},{76},{77},{78},{79},{80},{81},{82},{83},{84},{85},{86},{87},{88},{89},{90},{91},{92},{93},{94},{95},{96},{97},{98},{99},{100},{101},{102},{103},{104},{105},{106},{107},{108},{109},{110},{111},{112},{113},{114},{115},{116},{117},{118},{119},{120},{121},{122},{123},{124},{125},{126},{127}"
 SetLPE:    new flags="-opt 'Tsnet.Node.lindarsharg: ssh'  -nodelist 'i663.lcrc.anl.gov' -env GAUSS_MDEF=26843545600 -env GAUSS_EXEDIR="/gpfs/fs1/soft/improv/software/custom-built/gaussian/g16/bsd:/gpfs/fs1/soft/improv/software/custom-built/gaussian/g16" -env "OMP_PROC_BIND=true" -env "OMP_PLACES={0},{1},{2},{3},{4},{5},{6},{7},{8},{9},{10},{11},{12},{13},{14},{15},{16},{17},{18},{19},{20},{21},{22},{23},{24},{25},{26},{27},{28},{29},{30},{31},{32},{33},{34},{35},{36},{37},{38},{39},{40},{41},{42},{43},{44},{45},{46},{47},{48},{49},{50},{51},{52},{53},{54},{55},{56},{57},{58},{59},{60},{61},{62},{63},{64},{65},{66},{67},{68},{69},{70},{71},{72},{73},{74},{75},{76},{77},{78},{79},{80},{81},{82},{83},{84},{85},{86},{87},{88},{89},{90},{91},{92},{93},{94},{95},{96},{97},{98},{99},{100},{101},{102},{103},{104},{105},{106},{107},{108},{109},{110},{111},{112},{113},{114},{115},{116},{117},{118},{119},{120},{121},{122},{123},{124},{125},{126},{127}" -env GAUSS_ADEF="0,1,2,3,4,5,6,7,8,9,10,11,12,13,14,15,16,17,18,19,20,21,22,23,24,25,26,27,28,29,30,31,32,33,34,35,36,37,38,39,40,41,42,43,44,45,46,47,48,49,50,51,52,53,54,55,56,57,58,59,60,61,62,63,64,65,66,67,68,69,70,71,72,73,74,75,76,77,78,79,80,81,82,83,84,85,86,87,88,89,90,91,92,93,94,95,96,97,98,99,100,101,102,103,104,105,106,107,108,109,110,111,112,113,114,115,116,117,118,119,120,121,122,123,124,125,126,127""
 Will use up to    1 processors via Linda.
 Copying data from "Cr_2_BLYP.chk" to current chk file "Cr_2_PBE0.chk"
 IOpt=  2 FromEx=T IUOpen= 4 IOptOp= 5 NList=   0 IFRang= 0 IUIn= 4 IUOut= 2.
 ----------------------------------------------------------------------
 #p PBE1PBE empiricaldispersion=gd3 geom=allcheck guess=read chkbasis o
 pt=(loose,cartesian,calcall,maxcycles=500) freq scf=(maxcycles=500,xqc
 ,maxconventional=50)
 ----------------------------------------------------------------------
 1/6=500,7=-1,10=4,18=10,26=3,29=7,38=1/1,3;
 2/12=2,29=2,40=1/2;
 3/5=7,6=2,11=2,14=-4,25=1,30=1,67=1,71=2,74=-13,116=-2,124=31,140=1/1,2,3;
 4/5=1/1;
 5/5=2,7=500,8=3,13=1,38=6,85=50/2,8;
 8/6=4,10=90,11=11/1;
 11/6=1,8=1,9=11,15=111,16=1/1,2,10;
 10/6=1/2;
 6/7=2,8=2,9=2,10=2,18=1,28=1/1;
 7/7=1,10=1,25=1/1,2,3,16;
 1/6=500,7=-1,10=4,18=10,26=3/3(3);
 2/29=1/2;
 7/7=1,8=1,9=1,25=1,44=-1/16;
 99/12=1/99;
 2/29=1/2;
 3/5=7,6=1,11=2,14=-2,25=1,30=1,71=2,74=-13,82=7,124=31,140=1/1,2,3;
 4/5=5,16=3,69=1/1;
 5/5=2,7=500,8=3,13=1,38=5,85=50/2,8;
 8/6=4,10=90,11=11/1;
 11/6=1,8=1,9=11,15=111,16=1/1,2,10;
 10/6=1/2;
 7/7=1,10=1,25=1/1,2,3,16;
 1/6=500,7=-1,10=4,18=10,26=3/3(-8);
 2/29=1/2;
 6/7=2,8=2,9=2,10=2,18=1,19=2,28=1/1;
 7/7=1,8=1,9=1,25=1,44=-1/16;
 99/12=1/99;
 Leave Link    1 at Sat May 25 12:56:12 2024, MaxMem= 26843545600 cpu:               4.9 elap:               0.1
 (Enter /gpfs/fs1/soft/improv/software/custom-built/gaussian/g16/l101.exe)
 Structure from the checkpoint file:  "Cr_2_PBE0.chk"
 -----
 Title
 -----
 Charge =  2 Multiplicity = 5
 No Z-Matrix found in chk file; cartesian coordinates used.
  Cr                                               -0.784810661947      0.712958783750      0.031790937836
  O                                                -1.342345346310      2.683133272811     -0.392579552944
  H                                                -1.430407162741      3.009706825525     -1.310292028242
  O                                                 1.229401007542      1.285229305967      0.042309432588
  H                                                 1.995074858777      0.694784072123      0.182142357388
  O                                                -0.842674582083      0.872420654670      2.455785047936
  H                                                -1.629989553742      0.794977364750      3.030565981494
  O                                                -0.227274067004     -1.257217653618      0.456147899722
  H                                                -0.015987870826     -1.989674478373     -0.155472595603
  O                                                -2.799024405852      0.140688028469      0.021269723835
  H                                                -3.564706993142      0.731161076816     -0.118402403012
  O                                                -0.726978486479      0.553453317112     -2.392195547679
  H                                                 0.060330249469      0.630845091061     -2.966992980722
  H                                                -1.431913202403      0.206935741285     -2.974628616908
  H                                                 1.571573784938      2.190400352795     -0.091928769429
  H                                                -1.553569084968      3.415616045820      0.219032151743
  H                                                -3.141192221908     -0.764499493773      0.155402448601
  H                                                -0.137772196016      1.218974527612      3.038236061932
  H                                                -0.139251635306     -1.583813064802      1.373855861462
 Recover connectivity data from disk.
 ITRead=  0  0  0  0  0  0  0  0  0  0  0  0  0  0  0  0  0  0  0
 MicOpt= -1 -1 -1 -1 -1 -1 -1 -1 -1 -1 -1 -1 -1 -1 -1 -1 -1 -1 -1
 NAtoms=     19 NQM=       19 NQMF=       0 NMMI=      0 NMMIF=      0
                NMic=       0 NMicF=      0.
                    Isotopes and Nuclear Properties:
 (Nuclear quadrupole moments (NQMom) in fm**2, nuclear magnetic moments (NMagM)
  in nuclear magnetons)

  Atom         1           2           3           4           5           6           7           8           9          10
 IAtWgt=          52          16           1          16           1          16           1          16           1          16
 AtmWgt=  51.9405097  15.9949146   1.0078250  15.9949146   1.0078250  15.9949146   1.0078250  15.9949146   1.0078250  15.9949146
 NucSpn=           0           0           1           0           1           0           1           0           1           0
 AtZEff=  24.7200000   5.6000000   1.0000000   5.6000000   1.0000000   5.6000000   1.0000000   5.6000000   1.0000000   5.6000000
 NQMom=    0.0000000   0.0000000   0.0000000   0.0000000   0.0000000   0.0000000   0.0000000   0.0000000   0.0000000   0.0000000
 NMagM=    0.0000000   0.0000000   2.7928460   0.0000000   2.7928460   0.0000000   2.7928460   0.0000000   2.7928460   0.0000000
 AtZNuc=  24.0000000   8.0000000   1.0000000   8.0000000   1.0000000   8.0000000   1.0000000   8.0000000   1.0000000   8.0000000

  Atom        11          12          13          14          15          16          17          18          19
 IAtWgt=           1          16           1           1           1           1           1           1           1
 AtmWgt=   1.0078250  15.9949146   1.0078250   1.0078250   1.0078250   1.0078250   1.0078250   1.0078250   1.0078250
 NucSpn=           1           0           1           1           1           1           1           1           1
 AtZEff=   1.0000000   5.6000000   1.0000000   1.0000000   1.0000000   1.0000000   1.0000000   1.0000000   1.0000000
 NQMom=    0.0000000   0.0000000   0.0000000   0.0000000   0.0000000   0.0000000   0.0000000   0.0000000   0.0000000
 NMagM=    2.7928460   0.0000000   2.7928460   2.7928460   2.7928460   2.7928460   2.7928460   2.7928460   2.7928460
 AtZNuc=   1.0000000   8.0000000   1.0000000   1.0000000   1.0000000   1.0000000   1.0000000   1.0000000   1.0000000
 Leave Link  101 at Sat May 25 12:56:13 2024, MaxMem= 26843545600 cpu:               0.4 elap:               0.1
 (Enter /gpfs/fs1/soft/improv/software/custom-built/gaussian/g16/l103.exe)

 GradGradGradGradGradGradGradGradGradGradGradGradGradGradGradGradGradGrad
 Berny optimization.
 Initialization pass.
 No Z-matrix variables, so optimization will use Cartesian coordinates.
 Trust Radius=3.00D-01 FncErr=1.00D-07 GrdErr=1.00D-06 EigMax=2.50D+02 EigMin=1.00D-04
 Number of steps in this run=    114 maximum allowed number of steps=    114.
 GradGradGradGradGradGradGradGradGradGradGradGradGradGradGradGradGradGrad

 Leave Link  103 at Sat May 25 12:56:13 2024, MaxMem= 26843545600 cpu:               0.4 elap:               0.1
 (Enter /gpfs/fs1/soft/improv/software/custom-built/gaussian/g16/l202.exe)
                          Input orientation:                          
 ---------------------------------------------------------------------
 Center     Atomic      Atomic             Coordinates (Angstroms)
 Number     Number       Type             X           Y           Z
 ---------------------------------------------------------------------
      1         24           0       -0.784811    0.712959    0.031791
      2          8           0       -1.342345    2.683133   -0.392580
      3          1           0       -1.430407    3.009707   -1.310292
      4          8           0        1.229401    1.285229    0.042309
      5          1           0        1.995075    0.694784    0.182142
      6          8           0       -0.842675    0.872421    2.455785
      7          1           0       -1.629990    0.794977    3.030566
      8          8           0       -0.227274   -1.257218    0.456148
      9          1           0       -0.015988   -1.989674   -0.155473
     10          8           0       -2.799024    0.140688    0.021270
     11          1           0       -3.564707    0.731161   -0.118402
     12          8           0       -0.726978    0.553453   -2.392196
     13          1           0        0.060330    0.630845   -2.966993
     14          1           0       -1.431913    0.206936   -2.974629
     15          1           0        1.571574    2.190400   -0.091929
     16          1           0       -1.553569    3.415616    0.219032
     17          1           0       -3.141192   -0.764499    0.155402
     18          1           0       -0.137772    1.218975    3.038236
     19          1           0       -0.139252   -1.583813    1.373856
 ---------------------------------------------------------------------
                    Distance matrix (angstroms):
                    1          2          3          4          5
     1  Cr   0.000000
     2  O    2.091058   0.000000
     3  H    2.737341   0.978060   0.000000
     4  O    2.093956   2.959247   3.446438   0.000000
     5  H    2.784008   3.927112   4.395470   0.976952   0.000000
     6  O    2.429923   3.411969   4.369984   3.207612   3.640581
     7  H    3.116682   3.919923   4.877285   4.164870   4.611361
     8  O    2.091057   4.182115   4.772262   2.959257   2.970560
     9  H    2.816094   4.863186   5.322406   3.509289   3.371153
    10  O    2.093958   2.959259   3.446366   4.187915   4.828694
    11  H    2.784010   2.970566   3.341797   4.828695   5.568018
    12  O    2.429917   2.985411   2.774619   3.207761   3.749235
    13  H    3.116683   3.578686   3.259745   3.294062   3.696536
    14  H    3.116626   3.578625   3.259685   4.165000   4.684810
    15  H    2.784006   2.970539   3.341790   0.976953   1.578397
    16  H    2.816097   0.977351   1.587061   3.509231   4.471819
    17  H    2.784007   3.927124   4.395416   4.828692   5.339613
    18  H    3.116636   3.919854   4.877225   3.293802   3.602927
    19  H    2.737343   4.772270   5.474683   3.446394   3.341786
                    6          7          8          9         10
     6  O    0.000000
     7  H    0.977873   0.000000
     8  O    2.985402   3.578651   0.000000
     9  H    3.961523   4.528811   0.977351   0.000000
    10  O    3.207741   3.294025   2.959250   3.509270   0.000000
    11  H    3.749114   3.696377   3.927113   4.471882   0.976953
    12  O    4.859840   5.502736   3.411934   3.460627   3.207579
    13  H    5.502754   6.233365   3.919871   3.844164   4.164838
    14  H    5.502678   6.037167   3.919838   3.844162   3.293750
    15  H    3.749201   4.684782   3.927125   4.471847   4.828692
    16  H    3.460676   3.844257   4.863194   5.632191   3.509334
    17  H    3.640666   3.603091   2.970545   3.371142   0.976952
    18  H    0.977873   1.551304   3.578647   4.528801   4.164979
    19  H    2.774610   3.259698   0.978060   1.587061   3.446416
                   11         12         13         14         15
    11  H    0.000000
    12  O    3.640662   0.000000
    13  H    4.611445   0.977874   0.000000
    14  H    3.603006   0.977873   1.551305   0.000000
    15  H    5.339612   3.640627   3.603063   4.611402   0.000000
    16  H    3.371177   3.961532   4.528838   4.528786   3.371108
    17  H    1.578396   3.749091   4.684665   3.696271   5.568013
    18  H    4.684678   5.502697   6.037211   6.233263   3.696412
    19  H    4.395416   4.369951   4.877244   4.877199   4.395468
                   16         17         18         19
    16  H    0.000000
    17  H    4.471908   0.000000
    18  H    3.844168   4.611446   0.000000
    19  H    5.322425   3.341789   3.259721   0.000000
 Stoichiometry    CrH12O6(2+,5)
 Framework group  C1[X(CrH12O6)]
 Deg. of freedom    51
 Full point group                 C1      NOp   1
 RotChk:  IX=1 Diff= 1.33D-15
 Largest Abelian subgroup         C1      NOp   1
 Largest concise Abelian subgroup C1      NOp   1
                         Standard orientation:                         
 ---------------------------------------------------------------------
 Center     Atomic      Atomic             Coordinates (Angstroms)
 Number     Number       Type             X           Y           Z
 ---------------------------------------------------------------------
      1         24           0       -0.000000   -0.000005   -0.000004
      2          8           0       -0.867660   -0.000737   -1.902552
      3          1           0       -1.837520   -0.000841   -2.028933
      4          8           0        0.000282   -2.093962    0.000664
      5          1           0        0.306168   -2.669539    0.728386
      6          8           0        2.326224   -0.000012   -0.702287
      7          1           0        2.859229    0.775584   -0.967980
      8          8           0        0.867646    0.000725    1.902549
      9          1           0        0.440200    0.000958    2.781471
     10          8           0       -0.000285    2.093953   -0.000672
     11          1           0       -0.306021    2.669530   -0.728458
     12          8           0       -2.326210    0.000044    0.702310
     13          1           0       -2.859220   -0.775532    0.968052
     14          1           0       -2.859289    0.775773    0.967465
     15          1           0       -0.305628   -2.670082   -0.726620
     16          1           0       -0.440224   -0.001037   -2.781480
     17          1           0        0.305525    2.670074    0.726652
     18          1           0        2.859311   -0.775720   -0.967489
     19          1           0        1.837505    0.000873    2.028941
 ---------------------------------------------------------------------
 Rotational constants (GHZ):           1.5185839           1.2663207           1.2352077
 Leave Link  202 at Sat May 25 12:56:13 2024, MaxMem= 26843545600 cpu:               0.5 elap:               0.1
 (Enter /gpfs/fs1/soft/improv/software/custom-built/gaussian/g16/l301.exe)
 Basis read from chk: "Cr_2_PBE0.chk" (6D, 7F)
 No pseudopotential information found on chk file.
 There are   347 symmetry adapted cartesian basis functions of A   symmetry.
 There are   317 symmetry adapted basis functions of A   symmetry.
   317 basis functions,   514 primitive gaussians,   347 cartesian basis functions
    43 alpha electrons       39 beta electrons
       nuclear repulsion energy       612.7495301045 Hartrees.
 IExCor= 1009 DFT=T Ex+Corr=PBE1PBE ExCW=0 ScaHFX=  0.250000
 ScaDFX=  0.750000  0.750000  1.000000  1.000000 ScalE2=  1.000000  1.000000
 IRadAn=      5 IRanWt=     -1 IRanGd=            0 ICorTp=0 IEmpDi=131
 NAtoms=   19 NActive=   19 NUniq=   19 SFac= 1.00D+00 NAtFMM=   60 NAOKFM=F Big=F
 Integral buffers will be    131072 words long.
 Raffenetti 2 integral format.
 Two-electron integral symmetry is turned on.
 R6Disp:  Grimme-D3 Dispersion energy=       -0.0083779074 Hartrees.
 Nuclear repulsion after empirical dispersion term =      612.7411521971 Hartrees.
 No density basis found on file  20724.
 Leave Link  301 at Sat May 25 12:56:14 2024, MaxMem= 26843545600 cpu:               0.4 elap:               0.0
 (Enter /gpfs/fs1/soft/improv/software/custom-built/gaussian/g16/l302.exe)
 NPDir=0 NMtPBC=     1 NCelOv=     1 NCel=       1 NClECP=     1 NCelD=      1
         NCelK=      1 NCelE2=     1 NClLst=     1 CellRange=     0.0.
 One-electron integrals computed using PRISM.
 One-electron integral symmetry used in STVInt
 NBasis=   317 RedAO= T EigKep=  2.73D-05  NBF=   317
 NBsUse=   317 1.00D-06 EigRej= -1.00D+00 NBFU=   317
 Precomputing XC quadrature grid using
 IXCGrd= 4 IRadAn=           5 IRanWt=          -1 IRanGd=           0 AccXCQ= 0.00D+00.
 Generated NRdTot=       0 NPtTot=           0 NUsed=           0 NTot=          32
 NSgBfM=   346   346   346   346   346 MxSgAt=    19 MxSgA2=    19.
 Leave Link  302 at Sat May 25 12:56:14 2024, MaxMem= 26843545600 cpu:              22.1 elap:               0.3
 (Enter /gpfs/fs1/soft/improv/software/custom-built/gaussian/g16/l303.exe)
 DipDrv:  MaxL=1.
 Leave Link  303 at Sat May 25 12:56:14 2024, MaxMem= 26843545600 cpu:               1.0 elap:               0.0
 (Enter /gpfs/fs1/soft/improv/software/custom-built/gaussian/g16/l401.exe)
 Initial guess from the checkpoint file:  "Cr_2_PBE0.chk"
 B after Tr=    -0.000000    0.000000   -0.000000
         Rot=    1.000000    0.000000   -0.000000    0.000000 Ang=   0.00 deg.
 Guess basis will be translated and rotated to current coordinates.
 JPrj=2 DoOrth=T DoCkMO=T.
 Initial guess <Sx>= 0.0000 <Sy>= 0.0000 <Sz>= 2.0000 <S**2>= 6.0052 S= 2.0010
 Leave Link  401 at Sat May 25 12:56:15 2024, MaxMem= 26843545600 cpu:              11.2 elap:               0.2
 (Enter /gpfs/fs1/soft/improv/software/custom-built/gaussian/g16/l502.exe)
 Integral symmetry usage will be decided dynamically.
 UHF open shell SCF:
 Using DIIS extrapolation, IDIIS=  1040.
 NGot= 26843545600 LenX= 26843256607 LenY= 26843135757
 Requested convergence on RMS density matrix=1.00D-08 within  50 cycles.
 Requested convergence on MAX density matrix=1.00D-06.
 Requested convergence on             energy=1.00D-06.
 No special actions if energy rises.
 Fock matrices will be formed incrementally for  20 cycles.

 Cycle   1  Pass 1  IDiag  1:
 FoFJK:  IHMeth= 1 ICntrl=       0 DoSepK=F KAlg= 0 I1Cent=           0 FoldK=F
 IRaf= 950000000 NMat=       1 IRICut=       1 DoRegI=T DoRafI=F ISym2E= 0 IDoP0=0 IntGTp=1.
 FoFCou: FMM=F IPFlag=           0 FMFlag=      100000 FMFlg1=           0
         NFxFlg=           0 DoJE=F BraDBF=F KetDBF=F FulRan=T
         wScrn=  0.000000 ICntrl=         0 IOpCl=  1 I1Cent=           0 NGrid=           0
         NMat0=    1 NMatS0=      1 NMatT0=    0 NMatD0=    1 NMtDS0=    0 NMtDT0=    0
 Symmetry not used in FoFCou.
 E= -1501.89543330306    
 DIIS: error= 1.05D-02 at cycle   1 NSaved=   1.
 NSaved= 1 IEnMin= 1 EnMin= -1501.89543330306     IErMin= 1 ErrMin= 1.05D-02
 ErrMax= 1.05D-02  0.00D+00 EMaxC= 1.00D-01 BMatC= 9.17D-02 BMatP= 9.17D-02
 IDIUse=3 WtCom= 8.95D-01 WtEn= 1.05D-01
 Coeff-Com:  0.100D+01
 Coeff-En:   0.100D+01
 Coeff:      0.100D+01
 Gap=     0.179 Goal=   None    Shift=    0.000
 Gap=     0.356 Goal=   None    Shift=    0.000
 GapD=    0.179 DampG=1.000 DampE=0.250 DampFc=0.2500 IDamp=-1.
 Damping current iteration by 2.50D-01
 RMSDP=1.50D-03 MaxDP=5.50D-02              OVMax= 3.91D-02

 Cycle   2  Pass 1  IDiag  1:
 RMSU=  3.73D-04    CP:  9.98D-01
 E= -1501.89886660537     Delta-E=       -0.003433302306 Rises=F Damp=T
 DIIS: error= 8.09D-03 at cycle   2 NSaved=   2.
 NSaved= 2 IEnMin= 2 EnMin= -1501.89886660537     IErMin= 2 ErrMin= 8.09D-03
 ErrMax= 8.09D-03  0.00D+00 EMaxC= 1.00D-01 BMatC= 5.23D-02 BMatP= 9.17D-02
 IDIUse=3 WtCom= 9.19D-01 WtEn= 8.09D-02
 Coeff-Com: -0.307D+01 0.407D+01
 Coeff-En:   0.000D+00 0.100D+01
 Coeff:     -0.283D+01 0.383D+01
 Gap=     0.182 Goal=   None    Shift=    0.000
 Gap=     0.337 Goal=   None    Shift=    0.000
 RMSDP=1.15D-03 MaxDP=4.10D-02 DE=-3.43D-03 OVMax= 8.43D-03

 Cycle   3  Pass 1  IDiag  1:
 RMSU=  4.17D-04    CP:  9.94D-01  3.00D+00
 E= -1501.90978285412     Delta-E=       -0.010916248751 Rises=F Damp=F
 DIIS: error= 4.38D-04 at cycle   3 NSaved=   3.
 NSaved= 3 IEnMin= 3 EnMin= -1501.90978285412     IErMin= 3 ErrMin= 4.38D-04
 ErrMax= 4.38D-04  0.00D+00 EMaxC= 1.00D-01 BMatC= 1.65D-04 BMatP= 5.23D-02
 IDIUse=3 WtCom= 9.96D-01 WtEn= 4.38D-03
 Coeff-Com: -0.107D+01 0.141D+01 0.653D+00
 Coeff-En:   0.000D+00 0.000D+00 0.100D+01
 Coeff:     -0.106D+01 0.141D+01 0.655D+00
 Gap=     0.183 Goal=   None    Shift=    0.000
 Gap=     0.338 Goal=   None    Shift=    0.000
 RMSDP=9.20D-05 MaxDP=7.19D-03 DE=-1.09D-02 OVMax= 2.59D-03

 Cycle   4  Pass 1  IDiag  1:
 RMSU=  8.86D-05    CP:  9.93D-01  3.00D+00  9.58D-01
 E= -1501.90980530247     Delta-E=       -0.000022448353 Rises=F Damp=F
 DIIS: error= 1.88D-04 at cycle   4 NSaved=   4.
 NSaved= 4 IEnMin= 4 EnMin= -1501.90980530247     IErMin= 4 ErrMin= 1.88D-04
 ErrMax= 1.88D-04  0.00D+00 EMaxC= 1.00D-01 BMatC= 2.60D-05 BMatP= 1.65D-04
 IDIUse=3 WtCom= 9.98D-01 WtEn= 1.88D-03
 Coeff-Com:  0.105D+00-0.141D+00 0.262D+00 0.775D+00
 Coeff-En:   0.000D+00 0.000D+00 0.427D-01 0.957D+00
 Coeff:      0.105D+00-0.141D+00 0.261D+00 0.775D+00
 Gap=     0.183 Goal=   None    Shift=    0.000
 Gap=     0.337 Goal=   None    Shift=    0.000
 RMSDP=2.36D-05 MaxDP=2.03D-03 DE=-2.24D-05 OVMax= 1.32D-03

 Cycle   5  Pass 1  IDiag  1:
 RMSU=  1.25D-05    CP:  9.93D-01  3.00D+00  9.79D-01  8.02D-01
 E= -1501.90981029053     Delta-E=       -0.000004988057 Rises=F Damp=F
 DIIS: error= 3.59D-05 at cycle   5 NSaved=   5.
 NSaved= 5 IEnMin= 5 EnMin= -1501.90981029053     IErMin= 5 ErrMin= 3.59D-05
 ErrMax= 3.59D-05  0.00D+00 EMaxC= 1.00D-01 BMatC= 2.13D-06 BMatP= 2.60D-05
 IDIUse=1 WtCom= 1.00D+00 WtEn= 0.00D+00
 Coeff-Com:  0.766D-01-0.102D+00 0.545D-01 0.308D+00 0.662D+00
 Coeff:      0.766D-01-0.102D+00 0.545D-01 0.308D+00 0.662D+00
 Gap=     0.183 Goal=   None    Shift=    0.000
 Gap=     0.338 Goal=   None    Shift=    0.000
 RMSDP=2.83D-06 MaxDP=2.32D-04 DE=-4.99D-06 OVMax= 1.84D-04

 Cycle   6  Pass 1  IDiag  1:
 RMSU=  2.12D-06    CP:  9.93D-01  3.00D+00  9.78D-01  8.22D-01  1.00D+00
 E= -1501.90981066876     Delta-E=       -0.000000378228 Rises=F Damp=F
 DIIS: error= 1.48D-05 at cycle   6 NSaved=   6.
 NSaved= 6 IEnMin= 6 EnMin= -1501.90981066876     IErMin= 6 ErrMin= 1.48D-05
 ErrMax= 1.48D-05  0.00D+00 EMaxC= 1.00D-01 BMatC= 3.15D-07 BMatP= 2.13D-06
 IDIUse=1 WtCom= 1.00D+00 WtEn= 0.00D+00
 Coeff-Com:  0.988D-02-0.131D-01-0.177D-01 0.230D-01 0.310D+00 0.687D+00
 Coeff:      0.988D-02-0.131D-01-0.177D-01 0.230D-01 0.310D+00 0.687D+00
 Gap=     0.183 Goal=   None    Shift=    0.000
 Gap=     0.338 Goal=   None    Shift=    0.000
 RMSDP=1.75D-06 MaxDP=1.07D-04 DE=-3.78D-07 OVMax= 1.15D-04

 Cycle   7  Pass 1  IDiag  1:
 RMSU=  1.10D-06    CP:  9.93D-01  3.00D+00  9.77D-01  8.35D-01  1.02D+00
                    CP:  1.07D+00
 E= -1501.90981073073     Delta-E=       -0.000000061974 Rises=F Damp=F
 DIIS: error= 5.00D-06 at cycle   7 NSaved=   7.
 NSaved= 7 IEnMin= 7 EnMin= -1501.90981073073     IErMin= 7 ErrMin= 5.00D-06
 ErrMax= 5.00D-06  0.00D+00 EMaxC= 1.00D-01 BMatC= 2.11D-08 BMatP= 3.15D-07
 IDIUse=1 WtCom= 1.00D+00 WtEn= 0.00D+00
 Coeff-Com: -0.343D-02 0.459D-02-0.127D-01-0.299D-01 0.314D-01 0.256D+00
 Coeff-Com:  0.754D+00
 Coeff:     -0.343D-02 0.459D-02-0.127D-01-0.299D-01 0.314D-01 0.256D+00
 Coeff:      0.754D+00
 Gap=     0.183 Goal=   None    Shift=    0.000
 Gap=     0.338 Goal=   None    Shift=    0.000
 RMSDP=5.92D-07 MaxDP=4.08D-05 DE=-6.20D-08 OVMax= 9.00D-05

 Cycle   8  Pass 1  IDiag  1:
 RMSU=  4.80D-07    CP:  9.93D-01  3.00D+00  9.77D-01  8.36D-01  1.04D+00
                    CP:  1.13D+00  9.78D-01
 E= -1501.90981073909     Delta-E=       -0.000000008357 Rises=F Damp=F
 DIIS: error= 1.86D-06 at cycle   8 NSaved=   8.
 NSaved= 8 IEnMin= 8 EnMin= -1501.90981073909     IErMin= 8 ErrMin= 1.86D-06
 ErrMax= 1.86D-06  0.00D+00 EMaxC= 1.00D-01 BMatC= 1.59D-09 BMatP= 2.11D-08
 IDIUse=1 WtCom= 1.00D+00 WtEn= 0.00D+00
 Coeff-Com: -0.139D-02 0.184D-02 0.190D-02-0.223D-02-0.326D-01-0.547D-01
 Coeff-Com: -0.577D-01 0.114D+01
 Coeff:     -0.139D-02 0.184D-02 0.190D-02-0.223D-02-0.326D-01-0.547D-01
 Coeff:     -0.577D-01 0.114D+01
 Gap=     0.183 Goal=   None    Shift=    0.000
 Gap=     0.338 Goal=   None    Shift=    0.000
 RMSDP=4.51D-07 MaxDP=4.64D-05 DE=-8.36D-09 OVMax= 9.76D-05

 Cycle   9  Pass 1  IDiag  1:
 RMSU=  2.12D-07    CP:  9.93D-01  3.00D+00  9.77D-01  8.36D-01  1.04D+00
                    CP:  1.18D+00  1.13D+00  1.71D+00
 E= -1501.90981074227     Delta-E=       -0.000000003179 Rises=F Damp=F
 DIIS: error= 1.59D-06 at cycle   9 NSaved=   9.
 NSaved= 9 IEnMin= 9 EnMin= -1501.90981074227     IErMin= 9 ErrMin= 1.59D-06
 ErrMax= 1.59D-06  0.00D+00 EMaxC= 1.00D-01 BMatC= 8.33D-10 BMatP= 1.59D-09
 IDIUse=1 WtCom= 1.00D+00 WtEn= 0.00D+00
 Coeff-Com:  0.250D-03-0.334D-03 0.107D-02 0.273D-02-0.288D-02-0.191D-01
 Coeff-Com: -0.538D-01-0.385D-01 0.111D+01
 Coeff:      0.250D-03-0.334D-03 0.107D-02 0.273D-02-0.288D-02-0.191D-01
 Coeff:     -0.538D-01-0.385D-01 0.111D+01
 Gap=     0.183 Goal=   None    Shift=    0.000
 Gap=     0.338 Goal=   None    Shift=    0.000
 RMSDP=3.61D-07 MaxDP=3.72D-05 DE=-3.18D-09 OVMax= 8.03D-05

 Cycle  10  Pass 1  IDiag  1:
 RMSU=  5.78D-08    CP:  9.93D-01  3.00D+00  9.77D-01  8.35D-01  1.04D+00
                    CP:  1.20D+00  1.23D+00  2.24D+00  2.02D+00
 E= -1501.90981074424     Delta-E=       -0.000000001971 Rises=F Damp=F
 DIIS: error= 1.30D-06 at cycle  10 NSaved=  10.
 NSaved=10 IEnMin=10 EnMin= -1501.90981074424     IErMin=10 ErrMin= 1.30D-06
 ErrMax= 1.30D-06  0.00D+00 EMaxC= 1.00D-01 BMatC= 7.16D-10 BMatP= 8.33D-10
 IDIUse=1 WtCom= 1.00D+00 WtEn= 0.00D+00
 Coeff-Com:  0.133D-02-0.177D-02-0.138D-02 0.347D-02 0.312D-01 0.438D-01
 Coeff-Com:  0.243D-01-0.121D+01 0.928D+00 0.118D+01
 Coeff:      0.133D-02-0.177D-02-0.138D-02 0.347D-02 0.312D-01 0.438D-01
 Coeff:      0.243D-01-0.121D+01 0.928D+00 0.118D+01
 Gap=     0.183 Goal=   None    Shift=    0.000
 Gap=     0.338 Goal=   None    Shift=    0.000
 RMSDP=6.46D-07 MaxDP=6.64D-05 DE=-1.97D-09 OVMax= 1.44D-04

 Cycle  11  Pass 1  IDiag  1:
 RMSU=  2.18D-07    CP:  9.93D-01  3.00D+00  9.77D-01  8.35D-01  1.04D+00
                    CP:  1.23D+00  1.42D+00  3.00D+00  3.00D+00  2.26D+00
 E= -1501.90981074692     Delta-E=       -0.000000002686 Rises=F Damp=F
 DIIS: error= 8.32D-07 at cycle  11 NSaved=  11.
 NSaved=11 IEnMin=11 EnMin= -1501.90981074692     IErMin=11 ErrMin= 8.32D-07
 ErrMax= 8.32D-07  0.00D+00 EMaxC= 1.00D-01 BMatC= 2.27D-10 BMatP= 7.16D-10
 IDIUse=1 WtCom= 1.00D+00 WtEn= 0.00D+00
 Coeff-Com: -0.337D-03 0.451D-03-0.113D-02-0.349D-02 0.367D-02 0.179D-01
 Coeff-Com:  0.383D-01 0.118D+00-0.104D+01-0.135D+00 0.200D+01
 Coeff:     -0.337D-03 0.451D-03-0.113D-02-0.349D-02 0.367D-02 0.179D-01
 Coeff:      0.383D-01 0.118D+00-0.104D+01-0.135D+00 0.200D+01
 Gap=     0.183 Goal=   None    Shift=    0.000
 Gap=     0.338 Goal=   None    Shift=    0.000
 RMSDP=8.91D-07 MaxDP=9.16D-05 DE=-2.69D-09 OVMax= 1.99D-04

 Cycle  12  Pass 1  IDiag  1:
 RMSU=  4.94D-07    CP:  9.93D-01  3.00D+00  9.77D-01  8.35D-01  1.04D+00
                    CP:  1.28D+00  1.66D+00  3.00D+00  3.00D+00  3.00D+00
                    CP:  3.00D+00
 E= -1501.90981074857     Delta-E=       -0.000000001641 Rises=F Damp=F
 DIIS: error= 2.15D-07 at cycle  12 NSaved=  12.
 NSaved=12 IEnMin=12 EnMin= -1501.90981074857     IErMin=12 ErrMin= 2.15D-07
 ErrMax= 2.15D-07  0.00D+00 EMaxC= 1.00D-01 BMatC= 1.83D-11 BMatP= 2.27D-10
 IDIUse=1 WtCom= 1.00D+00 WtEn= 0.00D+00
 Coeff-Com: -0.112D-03 0.149D-03 0.430D-03 0.677D-03-0.530D-02-0.989D-02
 Coeff-Com: -0.113D-01 0.128D+00 0.115D+00-0.118D+00-0.446D+00 0.135D+01
 Coeff:     -0.112D-03 0.149D-03 0.430D-03 0.677D-03-0.530D-02-0.989D-02
 Coeff:     -0.113D-01 0.128D+00 0.115D+00-0.118D+00-0.446D+00 0.135D+01
 Gap=     0.183 Goal=   None    Shift=    0.000
 Gap=     0.338 Goal=   None    Shift=    0.000
 RMSDP=1.50D-07 MaxDP=1.47D-05 DE=-1.64D-09 OVMax= 3.27D-05

 Cycle  13  Pass 1  IDiag  1:
 RMSU=  6.10D-08    CP:  9.93D-01  3.00D+00  9.77D-01  8.35D-01  1.04D+00
                    CP:  1.29D+00  1.70D+00  3.00D+00  3.00D+00  3.00D+00
                    CP:  3.00D+00  1.26D+00
 E= -1501.90981074862     Delta-E=       -0.000000000058 Rises=F Damp=F
 DIIS: error= 8.79D-08 at cycle  13 NSaved=  13.
 NSaved=13 IEnMin=13 EnMin= -1501.90981074862     IErMin=13 ErrMin= 8.79D-08
 ErrMax= 8.79D-08  0.00D+00 EMaxC= 1.00D-01 BMatC= 4.07D-12 BMatP= 1.83D-11
 IDIUse=1 WtCom= 1.00D+00 WtEn= 0.00D+00
 Coeff-Com:  0.602D-04-0.804D-04 0.107D-03 0.334D-03 0.466D-04-0.130D-02
 Coeff-Com: -0.279D-02-0.270D-01 0.109D+00 0.266D-01-0.184D+00-0.208D+00
 Coeff-Com:  0.129D+01
 Coeff:      0.602D-04-0.804D-04 0.107D-03 0.334D-03 0.466D-04-0.130D-02
 Coeff:     -0.279D-02-0.270D-01 0.109D+00 0.266D-01-0.184D+00-0.208D+00
 Coeff:      0.129D+01
 Gap=     0.183 Goal=   None    Shift=    0.000
 Gap=     0.338 Goal=   None    Shift=    0.000
 RMSDP=4.15D-08 MaxDP=4.48D-06 DE=-5.78D-11 OVMax= 7.44D-06

 Cycle  14  Pass 1  IDiag  1:
 RMSU=  1.52D-08    CP:  9.93D-01  3.00D+00  9.77D-01  8.35D-01  1.04D+00
                    CP:  1.29D+00  1.71D+00  3.00D+00  3.00D+00  3.00D+00
                    CP:  3.00D+00  1.32D+00  1.35D+00
 E= -1501.90981074863     Delta-E=       -0.000000000003 Rises=F Damp=F
 DIIS: error= 4.79D-08 at cycle  14 NSaved=  14.
 NSaved=14 IEnMin=14 EnMin= -1501.90981074863     IErMin=14 ErrMin= 4.79D-08
 ErrMax= 4.79D-08  0.00D+00 EMaxC= 1.00D-01 BMatC= 2.08D-12 BMatP= 4.07D-12
 IDIUse=1 WtCom= 1.00D+00 WtEn= 0.00D+00
 Coeff-Com:  0.535D-04-0.711D-04-0.841D-04-0.128D-03 0.149D-02 0.231D-02
 Coeff-Com:  0.254D-02-0.425D-01-0.210D-02 0.406D-01 0.802D-01-0.477D+00
 Coeff-Com:  0.451D+00 0.943D+00
 Coeff:      0.535D-04-0.711D-04-0.841D-04-0.128D-03 0.149D-02 0.231D-02
 Coeff:      0.254D-02-0.425D-01-0.210D-02 0.406D-01 0.802D-01-0.477D+00
 Coeff:      0.451D+00 0.943D+00
 Gap=     0.183 Goal=   None    Shift=    0.000
 Gap=     0.338 Goal=   None    Shift=    0.000
 RMSDP=1.84D-08 MaxDP=2.33D-06 DE=-2.73D-12 OVMax= 3.89D-06

 Cycle  15  Pass 1  IDiag  1:
 RMSU=  3.33D-09    CP:  9.93D-01  3.00D+00  9.77D-01  8.35D-01  1.04D+00
                    CP:  1.29D+00  1.71D+00  3.00D+00  3.00D+00  3.00D+00
                    CP:  3.00D+00  1.34D+00  1.52D+00  1.77D+00
 E= -1501.90981074864     Delta-E=       -0.000000000015 Rises=F Damp=F
 DIIS: error= 2.80D-08 at cycle  15 NSaved=  15.
 NSaved=15 IEnMin=15 EnMin= -1501.90981074864     IErMin=15 ErrMin= 2.80D-08
 ErrMax= 2.80D-08  0.00D+00 EMaxC= 1.00D-01 BMatC= 9.86D-13 BMatP= 2.08D-12
 IDIUse=1 WtCom= 1.00D+00 WtEn= 0.00D+00
 Coeff-Com: -0.684D-05 0.933D-05-0.104D-03-0.274D-03 0.741D-03 0.193D-02
 Coeff-Com:  0.309D-02-0.517D-02-0.700D-01 0.409D-02 0.158D+00-0.154D+00
 Coeff-Com: -0.478D+00 0.525D+00 0.101D+01
 Coeff:     -0.684D-05 0.933D-05-0.104D-03-0.274D-03 0.741D-03 0.193D-02
 Coeff:      0.309D-02-0.517D-02-0.700D-01 0.409D-02 0.158D+00-0.154D+00
 Coeff:     -0.478D+00 0.525D+00 0.101D+01
 Gap=     0.183 Goal=   None    Shift=    0.000
 Gap=     0.338 Goal=   None    Shift=    0.000
 RMSDP=1.79D-08 MaxDP=2.24D-06 DE=-1.46D-11 OVMax= 3.65D-06

 Cycle  16  Pass 1  IDiag  1:
 RMSU=  1.97D-09    CP:  9.93D-01  3.00D+00  9.77D-01  8.35D-01  1.04D+00
                    CP:  1.29D+00  1.71D+00  3.00D+00  3.00D+00  3.00D+00
                    CP:  3.00D+00  1.35D+00  1.69D+00  2.48D+00  1.60D+00
 E= -1501.90981074865     Delta-E=       -0.000000000006 Rises=F Damp=F
 DIIS: error= 1.09D-08 at cycle  16 NSaved=  16.
 NSaved=16 IEnMin=16 EnMin= -1501.90981074865     IErMin=16 ErrMin= 1.09D-08
 ErrMax= 1.09D-08  0.00D+00 EMaxC= 1.00D-01 BMatC= 1.34D-13 BMatP= 9.86D-13
 IDIUse=1 WtCom= 1.00D+00 WtEn= 0.00D+00
 Coeff-Com: -0.203D-04 0.270D-04 0.166D-04 0.303D-04-0.437D-03-0.579D-03
 Coeff-Com: -0.479D-03 0.144D-01-0.985D-02-0.137D-01-0.435D-02 0.147D+00
 Coeff-Com: -0.228D+00-0.259D+00 0.158D+00 0.120D+01
 Coeff:     -0.203D-04 0.270D-04 0.166D-04 0.303D-04-0.437D-03-0.579D-03
 Coeff:     -0.479D-03 0.144D-01-0.985D-02-0.137D-01-0.435D-02 0.147D+00
 Coeff:     -0.228D+00-0.259D+00 0.158D+00 0.120D+01
 Gap=     0.183 Goal=   None    Shift=    0.000
 Gap=     0.338 Goal=   None    Shift=    0.000
 RMSDP=8.47D-09 MaxDP=1.08D-06 DE=-6.37D-12 OVMax= 1.88D-06

 Cycle  17  Pass 1  IDiag  1:
 RMSU=  1.12D-09    CP:  9.93D-01  3.00D+00  9.77D-01  8.35D-01  1.04D+00
                    CP:  1.29D+00  1.71D+00  3.00D+00  3.00D+00  3.00D+00
                    CP:  3.00D+00  1.36D+00  1.77D+00  2.86D+00  1.92D+00
                    CP:  1.29D+00
 E= -1501.90981074863     Delta-E=        0.000000000012 Rises=F Damp=F
 DIIS: error= 1.41D-09 at cycle  17 NSaved=  17.
 NSaved=17 IEnMin=16 EnMin= -1501.90981074865     IErMin=17 ErrMin= 1.41D-09
 ErrMax= 1.41D-09  0.00D+00 EMaxC= 1.00D-01 BMatC= 3.13D-15 BMatP= 1.34D-13
 IDIUse=1 WtCom= 1.00D+00 WtEn= 0.00D+00
 Coeff-Com:  0.230D-06-0.317D-06 0.578D-05 0.148D-04-0.516D-04-0.116D-03
 Coeff-Com: -0.205D-03 0.627D-03 0.377D-02-0.366D-03-0.895D-02 0.855D-02
 Coeff-Com:  0.287D-01-0.378D-01-0.634D-01 0.164D-01 0.105D+01
 Coeff:      0.230D-06-0.317D-06 0.578D-05 0.148D-04-0.516D-04-0.116D-03
 Coeff:     -0.205D-03 0.627D-03 0.377D-02-0.366D-03-0.895D-02 0.855D-02
 Coeff:      0.287D-01-0.378D-01-0.634D-01 0.164D-01 0.105D+01
 Gap=     0.183 Goal=   None    Shift=    0.000
 Gap=     0.338 Goal=   None    Shift=    0.000
 RMSDP=9.20D-10 MaxDP=1.16D-07 DE= 1.18D-11 OVMax= 2.10D-07

 SCF Done:  E(UPBE1PBE) =  -1501.90981075     A.U. after   17 cycles
            NFock= 17  Conv=0.92D-09     -V/T= 2.0028
 <Sx>= 0.0000 <Sy>= 0.0000 <Sz>= 2.0000 <S**2>= 6.0052 S= 2.0010
 <L.S>=  0.00000000000    
 KE= 1.497755637952D+03 PE=-4.760251653271D+03 EE= 1.147845052373D+03
 Annihilation of the first spin contaminant:
 S**2 before annihilation     6.0052,   after     6.0000
 Leave Link  502 at Sat May 25 12:56:42 2024, MaxMem= 26843545600 cpu:            3077.4 elap:              27.2
 (Enter /gpfs/fs1/soft/improv/software/custom-built/gaussian/g16/l508.exe)
 QCSCF skips out because SCF is already converged.
 Leave Link  508 at Sat May 25 12:56:43 2024, MaxMem= 26843545600 cpu:               0.2 elap:               0.0
 (Enter /gpfs/fs1/soft/improv/software/custom-built/gaussian/g16/l801.exe)
 DoSCS=F DFT=T ScalE2(SS,OS)=  1.000000  1.000000
 Range of M.O.s used for correlation:     1   317
 NBasis=   317 NAE=    43 NBE=    39 NFC=     0 NFV=     0
 NROrb=    317 NOA=    43 NOB=    39 NVA=   274 NVB=   278

 **** Warning!!: The largest alpha MO coefficient is  0.62395215D+02


 **** Warning!!: The largest beta MO coefficient is  0.68810403D+02

 Leave Link  801 at Sat May 25 12:56:43 2024, MaxMem= 26843545600 cpu:               0.4 elap:               0.0
 (Enter /gpfs/fs1/soft/improv/software/custom-built/gaussian/g16/l1101.exe)
 Using compressed storage, NAtomX=    19.
 Will process     20 centers per pass.
 R6Disp: Adding Grimme-D3 dispersion energy 1st derivatives to the gradient.
 Leave Link 1101 at Sat May 25 12:56:43 2024, MaxMem= 26843545600 cpu:              51.5 elap:               0.5
 (Enter /gpfs/fs1/soft/improv/software/custom-built/gaussian/g16/l1102.exe)
 Symmetrizing basis deriv contribution to polar:
 IMax=3 JMax=2 DiffMx= 0.00D+00
 Leave Link 1102 at Sat May 25 12:56:44 2024, MaxMem= 26843545600 cpu:               0.9 elap:               0.0
 (Enter /gpfs/fs1/soft/improv/software/custom-built/gaussian/g16/l1110.exe)
 Forming Gx(P) for the SCF density, NAtomX=    19.
 Integral derivatives from FoFJK, PRISM(SPDF).
 Do as many integral derivatives as possible in FoFJK.
 G2DrvN: MDV=   26843543431.
 G2DrvN: will do    20 centers at a time, making    1 passes.
 Calling FoFCou, ICntrl=  3107 FMM=F I1Cent=   0 AccDes= 0.00D+00.
 FoFJK:  IHMeth= 1 ICntrl=    3107 DoSepK=F KAlg= 0 I1Cent=           0 FoldK=F
 IRaf=         0 NMat=       1 IRICut=       1 DoRegI=T DoRafI=F ISym2E= 0 IDoP0=0 IntGTp=1.
 FoFCou: FMM=F IPFlag=           0 FMFlag=      100000 FMFlg1=           0
         NFxFlg=           0 DoJE=F BraDBF=F KetDBF=F FulRan=T
         wScrn=  0.000000 ICntrl=      3107 IOpCl=  1 I1Cent=           0 NGrid=           0
         NMat0=    1 NMatS0=      1 NMatT0=    0 NMatD0=    1 NMtDS0=    0 NMtDT0=    0
 Symmetry not used in FoFCou.
 End of G2Drv F.D. properties file   721 does not exist.
 End of G2Drv F.D. properties file   722 does not exist.
 End of G2Drv F.D. properties file   788 does not exist.
 Leave Link 1110 at Sat May 25 12:56:57 2024, MaxMem= 26843545600 cpu:            1613.1 elap:              13.0
 (Enter /gpfs/fs1/soft/improv/software/custom-built/gaussian/g16/l1002.exe)
 Minotr:  UHF open shell wavefunction.
          IDoAtm=1111111111111111111
          Direct CPHF calculation.
          Differentiating once with respect to electric field.
                with respect to dipole field.
          Differentiating once with respect to nuclear coordinates.
          Requested convergence is 1.0D-08 RMS, and 1.0D-07 maximum.
          Secondary convergence is 1.0D-12 RMS, and 1.0D-12 maximum.
          NewPWx=T KeepS1=F KeepF1=F KeepIn=T MapXYZ=F SortEE=F KeepMc=T.
         6034 words used for storage of precomputed grid.
 Two-electron integrals replicated using symmetry.
          MDV=   26843545600 using IRadAn=       1.
          Solving linear equations simultaneously, MaxMat=     384.
 FoF2E skips out because all densities are zero.
 CalDSu exits because no D1Ps are significant.
 FoFJK:  IHMeth= 1 ICntrl=       0 DoSepK=F KAlg= 0 I1Cent=           0 FoldK=F
 IRaf= 950000000 NMat=      57 IRICut=     142 DoRegI=T DoRafI=T ISym2E= 2 IDoP0=3 IntGTp=2.
 FoFCou: FMM=F IPFlag=           0 FMFlag=      100000 FMFlg1=           0
         NFxFlg=           0 DoJE=F BraDBF=F KetDBF=F FulRan=T
         wScrn=  0.000000 ICntrl=         0 IOpCl=  1 I1Cent=           0 NGrid=           0
         NMat0=   57 NMatS0=     57 NMatT0=    0 NMatD0=   57 NMtDS0=    0 NMtDT0=    0
 Integrals replicated using symmetry in FoFCou.
 Raff kept on since  92.54% of shell-pairs survive, threshold=   0.20 IRatSp=93.
          There are    60 degrees of freedom in the 1st order CPHF.  IDoFFX=6 NUNeed=     3.
     57 vectors produced by pass  0 Test12= 3.77D-14 1.67D-09 XBig12= 5.20D+01 1.99D+00.
 AX will form    57 AO Fock derivatives at one time.
     57 vectors produced by pass  1 Test12= 3.77D-14 1.67D-09 XBig12= 2.07D+00 3.19D-01.
     57 vectors produced by pass  2 Test12= 3.77D-14 1.67D-09 XBig12= 3.39D-02 4.08D-02.
     57 vectors produced by pass  3 Test12= 3.77D-14 1.67D-09 XBig12= 3.61D-04 4.72D-03.
     57 vectors produced by pass  4 Test12= 3.77D-14 1.67D-09 XBig12= 3.18D-06 3.25D-04.
     57 vectors produced by pass  5 Test12= 3.77D-14 1.67D-09 XBig12= 2.49D-08 2.17D-05.
     52 vectors produced by pass  6 Test12= 3.77D-14 1.67D-09 XBig12= 1.09D-10 1.56D-06.
     14 vectors produced by pass  7 Test12= 3.77D-14 1.67D-09 XBig12= 3.64D-13 8.58D-08.
      3 vectors produced by pass  8 Test12= 3.77D-14 1.67D-09 XBig12= 1.36D-15 5.07D-09.
 InvSVY:  IOpt=1 It=  1 EMax= 4.44D-15
 Solved reduced A of dimension   411 with    60 vectors.
 FullF1:  Do perturbations      1 to       3.
 Isotropic polarizability for W=    0.000000       57.55 Bohr**3.
 End of Minotr F.D. properties file   721 does not exist.
 End of Minotr F.D. properties file   722 does not exist.
 End of Minotr F.D. properties file   788 does not exist.
 Leave Link 1002 at Sat May 25 12:57:59 2024, MaxMem= 26843545600 cpu:            7419.3 elap:              61.6
 (Enter /gpfs/fs1/soft/improv/software/custom-built/gaussian/g16/l601.exe)
 Copying SCF densities to generalized density rwf, IOpCl= 1 IROHF=0.

 **********************************************************************

            Population analysis using the SCF Density.

 **********************************************************************

 Orbital symmetries:
 Alpha Orbitals:
       Occupied  (A) (A) (A) (A) (A) (A) (A) (A) (A) (A) (A) (A)
                 (A) (A) (A) (A) (A) (A) (A) (A) (A) (A) (A) (A)
                 (A) (A) (A) (A) (A) (A) (A) (A) (A) (A) (A) (A)
                 (A) (A) (A) (A) (A) (A) (A)
       Virtual   (A) (A) (A) (A) (A) (A) (A) (A) (A) (A) (A) (A)
                 (A) (A) (A) (A) (A) (A) (A) (A) (A) (A) (A) (A)
                 (A) (A) (A) (A) (A) (A) (A) (A) (A) (A) (A) (A)
                 (A) (A) (A) (A) (A) (A) (A) (A) (A) (A) (A) (A)
                 (A) (A) (A) (A) (A) (A) (A) (A) (A) (A) (A) (A)
                 (A) (A) (A) (A) (A) (A) (A) (A) (A) (A) (A) (A)
                 (A) (A) (A) (A) (A) (A) (A) (A) (A) (A) (A) (A)
                 (A) (A) (A) (A) (A) (A) (A) (A) (A) (A) (A) (A)
                 (A) (A) (A) (A) (A) (A) (A) (A) (A) (A) (A) (A)
                 (A) (A) (A) (A) (A) (A) (A) (A) (A) (A) (A) (A)
                 (A) (A) (A) (A) (A) (A) (A) (A) (A) (A) (A) (A)
                 (A) (A) (A) (A) (A) (A) (A) (A) (A) (A) (A) (A)
                 (A) (A) (A) (A) (A) (A) (A) (A) (A) (A) (A) (A)
                 (A) (A) (A) (A) (A) (A) (A) (A) (A) (A) (A) (A)
                 (A) (A) (A) (A) (A) (A) (A) (A) (A) (A) (A) (A)
                 (A) (A) (A) (A) (A) (A) (A) (A) (A) (A) (A) (A)
                 (A) (A) (A) (A) (A) (A) (A) (A) (A) (A) (A) (A)
                 (A) (A) (A) (A) (A) (A) (A) (A) (A) (A) (A) (A)
                 (A) (A) (A) (A) (A) (A) (A) (A) (A) (A) (A) (A)
                 (A) (A) (A) (A) (A) (A) (A) (A) (A) (A) (A) (A)
                 (A) (A) (A) (A) (A) (A) (A) (A) (A) (A) (A) (A)
                 (A) (A) (A) (A) (A) (A) (A) (A) (A) (A) (A) (A)
                 (A) (A) (A) (A) (A) (A) (A) (A) (A) (A)
 Beta  Orbitals:
       Occupied  (A) (A) (A) (A) (A) (A) (A) (A) (A) (A) (A) (A)
                 (A) (A) (A) (A) (A) (A) (A) (A) (A) (A) (A) (A)
                 (A) (A) (A) (A) (A) (A) (A) (A) (A) (A) (A) (A)
                 (A) (A) (A)
       Virtual   (A) (A) (A) (A) (A) (A) (A) (A) (A) (A) (A) (A)
                 (A) (A) (A) (A) (A) (A) (A) (A) (A) (A) (A) (A)
                 (A) (A) (A) (A) (A) (A) (A) (A) (A) (A) (A) (A)
                 (A) (A) (A) (A) (A) (A) (A) (A) (A) (A) (A) (A)
                 (A) (A) (A) (A) (A) (A) (A) (A) (A) (A) (A) (A)
                 (A) (A) (A) (A) (A) (A) (A) (A) (A) (A) (A) (A)
                 (A) (A) (A) (A) (A) (A) (A) (A) (A) (A) (A) (A)
                 (A) (A) (A) (A) (A) (A) (A) (A) (A) (A) (A) (A)
                 (A) (A) (A) (A) (A) (A) (A) (A) (A) (A) (A) (A)
                 (A) (A) (A) (A) (A) (A) (A) (A) (A) (A) (A) (A)
                 (A) (A) (A) (A) (A) (A) (A) (A) (A) (A) (A) (A)
                 (A) (A) (A) (A) (A) (A) (A) (A) (A) (A) (A) (A)
                 (A) (A) (A) (A) (A) (A) (A) (A) (A) (A) (A) (A)
                 (A) (A) (A) (A) (A) (A) (A) (A) (A) (A) (A) (A)
                 (A) (A) (A) (A) (A) (A) (A) (A) (A) (A) (A) (A)
                 (A) (A) (A) (A) (A) (A) (A) (A) (A) (A) (A) (A)
                 (A) (A) (A) (A) (A) (A) (A) (A) (A) (A) (A) (A)
                 (A) (A) (A) (A) (A) (A) (A) (A) (A) (A) (A) (A)
                 (A) (A) (A) (A) (A) (A) (A) (A) (A) (A) (A) (A)
                 (A) (A) (A) (A) (A) (A) (A) (A) (A) (A) (A) (A)
                 (A) (A) (A) (A) (A) (A) (A) (A) (A) (A) (A) (A)
                 (A) (A) (A) (A) (A) (A) (A) (A) (A) (A) (A) (A)
                 (A) (A) (A) (A) (A) (A) (A) (A) (A) (A) (A) (A)
                 (A) (A)
 The electronic state is 5-A.
 Alpha  occ. eigenvalues -- -216.27961 -25.13201 -21.39022 -21.39007 -21.37985
 Alpha  occ. eigenvalues --  -19.57679 -19.57679 -19.57390 -19.57390 -19.53478
 Alpha  occ. eigenvalues --  -19.53478  -3.29642  -2.23695  -2.23613  -2.23137
 Alpha  occ. eigenvalues --   -1.38671  -1.38254  -1.38022  -1.38000  -1.34042
 Alpha  occ. eigenvalues --   -1.34024  -0.89190  -0.89058  -0.88941  -0.88757
 Alpha  occ. eigenvalues --   -0.84296  -0.84262  -0.81914  -0.79053  -0.77854
 Alpha  occ. eigenvalues --   -0.77850  -0.74436  -0.73392  -0.69356  -0.68875
 Alpha  occ. eigenvalues --   -0.68186  -0.67751  -0.64204  -0.63833  -0.58150
 Alpha  occ. eigenvalues --   -0.56579  -0.55775  -0.52402
 Alpha virt. eigenvalues --   -0.34080  -0.30169  -0.26053  -0.25917  -0.24954
 Alpha virt. eigenvalues --   -0.20148  -0.19802  -0.17251  -0.16872  -0.15932
 Alpha virt. eigenvalues --   -0.15741  -0.15457  -0.15186  -0.14340  -0.11539
 Alpha virt. eigenvalues --   -0.10213  -0.10075  -0.09573  -0.09244  -0.08938
 Alpha virt. eigenvalues --   -0.08601  -0.08112  -0.07451  -0.06944  -0.06881
 Alpha virt. eigenvalues --   -0.05988  -0.04927  -0.04850  -0.03835  -0.03815
 Alpha virt. eigenvalues --    0.01442   0.01841   0.02544   0.03357   0.03555
 Alpha virt. eigenvalues --    0.03791   0.04829   0.04903   0.04960   0.07011
 Alpha virt. eigenvalues --    0.08626   0.09887   0.11179   0.12773   0.15219
 Alpha virt. eigenvalues --    0.15242   0.15397   0.15768   0.17080   0.20427
 Alpha virt. eigenvalues --    0.21264   0.21265   0.29951   0.33768   0.45608
 Alpha virt. eigenvalues --    0.49182   0.49928   0.52234   0.53359   0.53513
 Alpha virt. eigenvalues --    0.55485   0.57408   0.59294   0.59377   0.59442
 Alpha virt. eigenvalues --    0.61018   0.61409   0.62803   0.63041   0.63758
 Alpha virt. eigenvalues --    0.63930   0.63998   0.65101   0.65374   0.65786
 Alpha virt. eigenvalues --    0.66187   0.66895   0.69260   0.72371   0.72613
 Alpha virt. eigenvalues --    0.72768   0.74173   0.74327   0.75071   0.78403
 Alpha virt. eigenvalues --    0.79506   0.81208   0.82384   0.82835   0.83854
 Alpha virt. eigenvalues --    0.85743   0.86201   0.86671   0.87901   0.88954
 Alpha virt. eigenvalues --    0.90471   0.95522   0.95920   0.96286   0.97634
 Alpha virt. eigenvalues --    1.00903   1.01912   1.05639   1.08286   1.11081
 Alpha virt. eigenvalues --    1.12148   1.15547   1.15975   1.22644   1.22964
 Alpha virt. eigenvalues --    1.24861   1.28704   1.34403   1.34421   1.36688
 Alpha virt. eigenvalues --    1.44773   1.51618   1.51943   1.52541   1.58477
 Alpha virt. eigenvalues --    1.69292   1.69586   1.72998   1.90893   1.91100
 Alpha virt. eigenvalues --    1.92509   1.94367   1.94604   1.96087   1.96901
 Alpha virt. eigenvalues --    1.97188   2.00437   2.02834   2.03066   2.05631
 Alpha virt. eigenvalues --    2.08990   2.14298   2.16564   2.18181   2.18500
 Alpha virt. eigenvalues --    2.19394   2.20425   2.20741   2.23236   2.23288
 Alpha virt. eigenvalues --    2.23347   2.25237   2.25447   2.26485   2.28818
 Alpha virt. eigenvalues --    2.29105   2.52316   2.53008   2.53169   2.58014
 Alpha virt. eigenvalues --    2.65480   2.66752   2.67082   2.67372   2.68774
 Alpha virt. eigenvalues --    2.75069   2.77677   2.83617   2.83787   2.85169
 Alpha virt. eigenvalues --    2.86962   2.87209   2.87675   2.89486   2.89645
 Alpha virt. eigenvalues --    2.90135   2.94907   3.05981   3.33589   3.33868
 Alpha virt. eigenvalues --    3.35495   3.40374   3.43518   3.51522   3.52313
 Alpha virt. eigenvalues --    3.54742   3.69310   3.76357   3.79317   3.80875
 Alpha virt. eigenvalues --    3.81698   3.82530   3.85072   3.90598   3.91615
 Alpha virt. eigenvalues --    3.92989   4.01054   4.02231   4.03346   4.03948
 Alpha virt. eigenvalues --    4.04995   4.05150   4.05291   4.07122   4.16907
 Alpha virt. eigenvalues --    4.18174   4.19374   4.20429   4.22202   4.22426
 Alpha virt. eigenvalues --    4.24942   4.25750   4.29249   4.29968   4.30032
 Alpha virt. eigenvalues --    4.44758   4.48484   4.51037   4.53362   4.55288
 Alpha virt. eigenvalues --    4.55398   4.57193   4.58192   4.61303   4.71534
 Alpha virt. eigenvalues --    4.76390   4.76622   4.78128   4.87883   4.89050
 Alpha virt. eigenvalues --    4.89547   5.00489   5.02327   5.02676   5.04271
 Alpha virt. eigenvalues --    5.04693   5.04922   5.06708   5.07342   5.08603
 Alpha virt. eigenvalues --    5.08820   5.09819   5.12229   5.13762   5.14230
 Alpha virt. eigenvalues --    5.14441   5.14569   5.14581   5.14597   5.15830
 Alpha virt. eigenvalues --    5.18476   5.19699   5.20604   5.26492   5.47035
 Alpha virt. eigenvalues --    5.48962   5.48987   5.50533   5.54512   5.55334
 Alpha virt. eigenvalues --    5.60275   5.61835   5.63082   5.69152   5.69412
 Alpha virt. eigenvalues --    5.73089   7.00845   7.03131   7.09459   7.13008
 Alpha virt. eigenvalues --    7.14425   7.35278  13.01381  13.29471  13.39804
 Alpha virt. eigenvalues --   13.43458  13.50101  13.82739  15.10525
  Beta  occ. eigenvalues -- -216.27911 -25.07174 -21.34401 -21.34386 -21.31939
  Beta  occ. eigenvalues --  -19.57681 -19.57681 -19.57392 -19.57392 -19.53388
  Beta  occ. eigenvalues --  -19.53388  -3.12023  -2.06299  -2.06249  -2.00632
  Beta  occ. eigenvalues --   -1.38598  -1.38183  -1.37959  -1.37954  -1.33897
  Beta  occ. eigenvalues --   -1.33880  -0.89048  -0.88992  -0.88796  -0.88707
  Beta  occ. eigenvalues --   -0.84181  -0.84171  -0.81200  -0.78615  -0.77812
  Beta  occ. eigenvalues --   -0.77809  -0.73177  -0.72977  -0.68299  -0.67952
  Beta  occ. eigenvalues --   -0.67930  -0.67485  -0.63698  -0.63641
  Beta virt. eigenvalues --   -0.29884  -0.28238  -0.27282  -0.26855  -0.26386
  Beta virt. eigenvalues --   -0.25904  -0.25773  -0.24727  -0.24116  -0.19087
  Beta virt. eigenvalues --   -0.18485  -0.17076  -0.16732  -0.15613  -0.15256
  Beta virt. eigenvalues --   -0.15128  -0.14488  -0.14123  -0.11058  -0.10119
  Beta virt. eigenvalues --   -0.09793  -0.09357  -0.08728  -0.08552  -0.07691
  Beta virt. eigenvalues --   -0.06895  -0.06442  -0.06421  -0.06299  -0.05545
  Beta virt. eigenvalues --   -0.04623  -0.04344  -0.03734  -0.02899   0.03289
  Beta virt. eigenvalues --    0.03501   0.03683   0.03869   0.04150   0.04581
  Beta virt. eigenvalues --    0.05510   0.05649   0.06197   0.08346   0.08748
  Beta virt. eigenvalues --    0.10178   0.11951   0.14267   0.16017   0.16120
  Beta virt. eigenvalues --    0.16132   0.17086   0.17392   0.21440   0.22562
  Beta virt. eigenvalues --    0.23023   0.31202   0.34173   0.46528   0.49753
  Beta virt. eigenvalues --    0.50402   0.53450   0.53893   0.54568   0.56543
  Beta virt. eigenvalues --    0.57424   0.59369   0.60211   0.60346   0.61279
  Beta virt. eigenvalues --    0.61658   0.62927   0.63226   0.63880   0.64224
  Beta virt. eigenvalues --    0.64354   0.65377   0.65818   0.66076   0.66280
  Beta virt. eigenvalues --    0.67357   0.70079   0.73194   0.73240   0.73398
  Beta virt. eigenvalues --    0.74556   0.74612   0.75558   0.78768   0.79777
  Beta virt. eigenvalues --    0.81626   0.82933   0.83853   0.84227   0.86611
  Beta virt. eigenvalues --    0.86890   0.87993   0.88075   0.89235   0.91600
  Beta virt. eigenvalues --    0.96496   0.97267   0.98667   1.02651   1.03784
  Beta virt. eigenvalues --    1.03880   1.07217   1.09201   1.16923   1.17148
  Beta virt. eigenvalues --    1.19309   1.20286   1.26090   1.26474   1.31769
  Beta virt. eigenvalues --    1.32453   1.38108   1.38880   1.39609   1.45812
  Beta virt. eigenvalues --    1.53952   1.54032   1.54585   1.58991   1.70287
  Beta virt. eigenvalues --    1.73425   1.74107   1.91438   1.91551   1.94251
  Beta virt. eigenvalues --    1.94483   1.94759   1.96155   1.97982   2.00502
  Beta virt. eigenvalues --    2.01936   2.02970   2.06107   2.07992   2.10535
  Beta virt. eigenvalues --    2.17075   2.18510   2.18740   2.19482   2.20226
  Beta virt. eigenvalues --    2.20550   2.21437   2.23375   2.23488   2.23630
  Beta virt. eigenvalues --    2.25419   2.25587   2.26780   2.29125   2.29289
  Beta virt. eigenvalues --    2.54651   2.56081   2.56405   2.60068   2.65772
  Beta virt. eigenvalues --    2.67205   2.67660   2.67668   2.69528   2.75671
  Beta virt. eigenvalues --    2.78288   2.83809   2.84100   2.86417   2.87157
  Beta virt. eigenvalues --    2.87978   2.88585   2.90171   2.90872   2.92800
  Beta virt. eigenvalues --    2.98549   3.09812   3.43715   3.43865   3.45074
  Beta virt. eigenvalues --    3.48827   3.52632   3.58586   3.59328   3.62055
  Beta virt. eigenvalues --    3.73819   3.77128   3.79403   3.81272   3.81969
  Beta virt. eigenvalues --    3.83044   3.85255   3.91297   3.92305   3.93595
  Beta virt. eigenvalues --    4.01560   4.02727   4.03518   4.04450   4.05264
  Beta virt. eigenvalues --    4.05372   4.07601   4.07615   4.19107   4.21258
  Beta virt. eigenvalues --    4.21325   4.23551   4.25206   4.29435   4.30127
  Beta virt. eigenvalues --    4.31350   4.33521   4.33591   4.39860   4.50571
  Beta virt. eigenvalues --    4.53541   4.55289   4.55483   4.56423   4.56587
  Beta virt. eigenvalues --    4.57346   4.61025   4.65611   4.71664   4.76958
  Beta virt. eigenvalues --    4.77178   4.79829   4.88016   4.90469   4.92118
  Beta virt. eigenvalues --    5.01995   5.02788   5.03654   5.04531   5.04767
  Beta virt. eigenvalues --    5.04998   5.07281   5.08219   5.08763   5.09671
  Beta virt. eigenvalues --    5.10215   5.12305   5.13828   5.14249   5.14499
  Beta virt. eigenvalues --    5.14582   5.14649   5.15905   5.15943   5.19280
  Beta virt. eigenvalues --    5.19785   5.22925   5.28513   5.47251   5.49020
  Beta virt. eigenvalues --    5.49388   5.50566   5.54584   5.55411   5.60299
  Beta virt. eigenvalues --    5.61926   5.63343   5.69240   5.70011   5.73720
  Beta virt. eigenvalues --    7.01070   7.03256   7.09522   7.13047   7.14648
  Beta virt. eigenvalues --    7.35426  13.02354  13.29563  13.39891  13.43544
  Beta virt. eigenvalues --   13.50248  13.83594  15.17029
          Condensed to atoms (all electrons):
               1          2          3          4          5          6
     1  Cr  22.776412   0.032424  -0.007141   0.004111  -0.006135   0.008681
     2  O    0.032424   8.217403   0.294513  -0.041036   0.000823  -0.024462
     3  H   -0.007141   0.294513   0.288519   0.001067  -0.000001   0.000311
     4  O    0.004111  -0.041036   0.001067   8.223313   0.297095  -0.032510
     5  H   -0.006135   0.000823  -0.000001   0.297095   0.290326   0.000721
     6  O    0.008681  -0.024462   0.000311  -0.032510   0.000721   8.229062
     7  H    0.002409   0.000524  -0.000000   0.000493  -0.000001   0.286165
     8  O    0.032424   0.029511  -0.000403  -0.041034   0.003543  -0.051027
     9  H   -0.004579  -0.000321   0.000001   0.000723  -0.000031   0.000978
    10  O    0.004118  -0.041033   0.001067   0.029159  -0.000333  -0.032506
    11  H   -0.006134   0.003543  -0.000031  -0.000333   0.000000   0.000820
    12  O    0.008682  -0.051027   0.006667  -0.032503   0.000820   0.010164
    13  H    0.002409   0.001335  -0.000098   0.001918  -0.000031  -0.000097
    14  H    0.002407   0.001335  -0.000098   0.000493  -0.000001  -0.000097
    15  H   -0.006136   0.003543  -0.000031   0.297097  -0.014194   0.000820
    16  H   -0.004579   0.294830  -0.014154   0.000724   0.000000   0.000955
    17  H   -0.006136   0.000823  -0.000001  -0.000333   0.000000   0.000721
    18  H    0.002408   0.000524  -0.000000   0.001919  -0.000032   0.286167
    19  H   -0.007142  -0.000403  -0.000000   0.001067  -0.000031   0.006668
               7          8          9         10         11         12
     1  Cr   0.002409   0.032424  -0.004579   0.004118  -0.006134   0.008682
     2  O    0.000524   0.029511  -0.000321  -0.041033   0.003543  -0.051027
     3  H   -0.000000  -0.000403   0.000001   0.001067  -0.000031   0.006667
     4  O    0.000493  -0.041034   0.000723   0.029159  -0.000333  -0.032503
     5  H   -0.000001   0.003543  -0.000031  -0.000333   0.000000   0.000820
     6  O    0.286165  -0.051027   0.000978  -0.032506   0.000820   0.010164
     7  H    0.309643   0.001335  -0.000003   0.001919  -0.000031  -0.000097
     8  O    0.001335   8.217402   0.294830  -0.041035   0.000823  -0.024464
     9  H   -0.000003   0.294830   0.287394   0.000724   0.000000   0.000955
    10  O    0.001919  -0.041035   0.000724   8.223311   0.297093  -0.032513
    11  H   -0.000031   0.000823   0.000000   0.297093   0.290326   0.000721
    12  O   -0.000097  -0.024464   0.000955  -0.032513   0.000721   8.229061
    13  H    0.000000   0.000524  -0.000021   0.000493  -0.000001   0.286165
    14  H    0.000000   0.000524  -0.000021   0.001920  -0.000032   0.286167
    15  H   -0.000001   0.000823   0.000000  -0.000333   0.000000   0.000721
    16  H   -0.000021  -0.000321  -0.000000   0.000723  -0.000031   0.000978
    17  H   -0.000032   0.003543  -0.000031   0.297096  -0.014194   0.000820
    18  H   -0.013090   0.001335  -0.000003   0.000493  -0.000001  -0.000097
    19  H   -0.000098   0.294514  -0.014154   0.001067  -0.000001   0.000311
              13         14         15         16         17         18
     1  Cr   0.002409   0.002407  -0.006136  -0.004579  -0.006136   0.002408
     2  O    0.001335   0.001335   0.003543   0.294830   0.000823   0.000524
     3  H   -0.000098  -0.000098  -0.000031  -0.014154  -0.000001  -0.000000
     4  O    0.001918   0.000493   0.297097   0.000724  -0.000333   0.001919
     5  H   -0.000031  -0.000001  -0.014194   0.000000   0.000000  -0.000032
     6  O   -0.000097  -0.000097   0.000820   0.000955   0.000721   0.286167
     7  H    0.000000   0.000000  -0.000001  -0.000021  -0.000032  -0.013090
     8  O    0.000524   0.000524   0.000823  -0.000321   0.003543   0.001335
     9  H   -0.000021  -0.000021   0.000000  -0.000000  -0.000031  -0.000003
    10  O    0.000493   0.001920  -0.000333   0.000723   0.297096   0.000493
    11  H   -0.000001  -0.000032   0.000000  -0.000031  -0.014194  -0.000001
    12  O    0.286165   0.286167   0.000721   0.000978   0.000820  -0.000097
    13  H    0.309642  -0.013090  -0.000032  -0.000003  -0.000001   0.000000
    14  H   -0.013090   0.309643  -0.000001  -0.000003  -0.000031   0.000000
    15  H   -0.000032  -0.000001   0.290325  -0.000031   0.000000  -0.000031
    16  H   -0.000003  -0.000003  -0.000031   0.287394   0.000000  -0.000021
    17  H   -0.000001  -0.000031   0.000000   0.000000   0.290325  -0.000001
    18  H    0.000000   0.000000  -0.000031  -0.000021  -0.000001   0.309643
    19  H   -0.000000  -0.000000  -0.000001   0.000001  -0.000031  -0.000098
              19
     1  Cr  -0.007142
     2  O   -0.000403
     3  H   -0.000000
     4  O    0.001067
     5  H   -0.000031
     6  O    0.006668
     7  H   -0.000098
     8  O    0.294514
     9  H   -0.014154
    10  O    0.001067
    11  H   -0.000001
    12  O    0.000311
    13  H   -0.000000
    14  H   -0.000000
    15  H   -0.000001
    16  H    0.000001
    17  H   -0.000031
    18  H   -0.000098
    19  H    0.288519
          Atomic-Atomic Spin Densities.
               1          2          3          4          5          6
     1  Cr   4.231156  -0.021110  -0.002834  -0.024912  -0.001544  -0.049043
     2  O   -0.021110  -0.001976   0.001723   0.016607  -0.000327  -0.011538
     3  H   -0.002834   0.001723   0.003274  -0.000335   0.000001   0.000126
     4  O   -0.024912   0.016607  -0.000335   0.006396   0.001279  -0.013574
     5  H   -0.001544  -0.000327   0.000001   0.001279   0.002254   0.000339
     6  O   -0.049043  -0.011538   0.000126  -0.013574   0.000339   0.088709
     7  H    0.002355   0.000324  -0.000000   0.000242  -0.000001  -0.004865
     8  O   -0.021110   0.003137  -0.000068   0.016607  -0.000098  -0.014729
     9  H   -0.002131  -0.000056  -0.000000  -0.000458   0.000009   0.000108
    10  O   -0.024913   0.016607  -0.000335   0.003563  -0.000060  -0.013574
    11  H   -0.001544  -0.000098   0.000010  -0.000060   0.000000   0.000296
    12  O   -0.049043  -0.014729   0.001561  -0.013574   0.000296   0.004661
    13  H    0.002355   0.000607  -0.000037   0.000882  -0.000011  -0.000047
    14  H    0.002355   0.000607  -0.000037   0.000242  -0.000001  -0.000047
    15  H   -0.001544  -0.000098   0.000010   0.001279  -0.000818   0.000296
    16  H   -0.002131   0.002287  -0.000953  -0.000458   0.000001   0.000430
    17  H   -0.001544  -0.000327   0.000001  -0.000060  -0.000000   0.000339
    18  H    0.002355   0.000324  -0.000000   0.000882  -0.000015  -0.004865
    19  H   -0.002834  -0.000068   0.000000  -0.000335   0.000010   0.001561
               7          8          9         10         11         12
     1  Cr   0.002355  -0.021110  -0.002131  -0.024913  -0.001544  -0.049043
     2  O    0.000324   0.003137  -0.000056   0.016607  -0.000098  -0.014729
     3  H   -0.000000  -0.000068  -0.000000  -0.000335   0.000010   0.001561
     4  O    0.000242   0.016607  -0.000458   0.003563  -0.000060  -0.013574
     5  H   -0.000001  -0.000098   0.000009  -0.000060   0.000000   0.000296
     6  O   -0.004865  -0.014729   0.000108  -0.013574   0.000296   0.004661
     7  H    0.003080   0.000607  -0.000001   0.000882  -0.000011  -0.000047
     8  O    0.000607  -0.001975   0.002287   0.016607  -0.000327  -0.011538
     9  H   -0.000001   0.002287   0.002127  -0.000458   0.000001   0.000430
    10  O    0.000882   0.016607  -0.000458   0.006397   0.001279  -0.013575
    11  H   -0.000011  -0.000327   0.000001   0.001279   0.002254   0.000339
    12  O   -0.000047  -0.011538   0.000430  -0.013575   0.000339   0.088709
    13  H    0.000000   0.000324  -0.000008   0.000242  -0.000001  -0.004865
    14  H    0.000000   0.000324  -0.000008   0.000882  -0.000015  -0.004865
    15  H   -0.000001  -0.000327   0.000001  -0.000060  -0.000000   0.000339
    16  H   -0.000008  -0.000056   0.000000  -0.000458   0.000009   0.000108
    17  H   -0.000015  -0.000098   0.000009   0.001279  -0.000818   0.000296
    18  H    0.000745   0.000607  -0.000001   0.000242  -0.000001  -0.000047
    19  H   -0.000037   0.001722  -0.000953  -0.000335   0.000001   0.000126
              13         14         15         16         17         18
     1  Cr   0.002355   0.002355  -0.001544  -0.002131  -0.001544   0.002355
     2  O    0.000607   0.000607  -0.000098   0.002287  -0.000327   0.000324
     3  H   -0.000037  -0.000037   0.000010  -0.000953   0.000001  -0.000000
     4  O    0.000882   0.000242   0.001279  -0.000458  -0.000060   0.000882
     5  H   -0.000011  -0.000001  -0.000818   0.000001  -0.000000  -0.000015
     6  O   -0.000047  -0.000047   0.000296   0.000430   0.000339  -0.004865
     7  H    0.000000   0.000000  -0.000001  -0.000008  -0.000015   0.000745
     8  O    0.000324   0.000324  -0.000327  -0.000056  -0.000098   0.000607
     9  H   -0.000008  -0.000008   0.000001   0.000000   0.000009  -0.000001
    10  O    0.000242   0.000882  -0.000060  -0.000458   0.001279   0.000242
    11  H   -0.000001  -0.000015  -0.000000   0.000009  -0.000818  -0.000001
    12  O   -0.004865  -0.004865   0.000339   0.000108   0.000296  -0.000047
    13  H    0.003080   0.000745  -0.000015  -0.000001  -0.000001   0.000000
    14  H    0.000745   0.003080  -0.000001  -0.000001  -0.000011   0.000000
    15  H   -0.000015  -0.000001   0.002254   0.000009   0.000000  -0.000011
    16  H   -0.000001  -0.000001   0.000009   0.002127   0.000001  -0.000008
    17  H   -0.000001  -0.000011   0.000000   0.000001   0.002254  -0.000001
    18  H    0.000000   0.000000  -0.000011  -0.000008  -0.000001   0.003079
    19  H   -0.000000  -0.000000   0.000001  -0.000000   0.000010  -0.000037
              19
     1  Cr  -0.002834
     2  O   -0.000068
     3  H    0.000000
     4  O   -0.000335
     5  H    0.000010
     6  O    0.001561
     7  H   -0.000037
     8  O    0.001722
     9  H   -0.000953
    10  O   -0.000335
    11  H    0.000001
    12  O    0.000126
    13  H   -0.000000
    14  H   -0.000000
    15  H    0.000001
    16  H   -0.000000
    17  H    0.000010
    18  H   -0.000037
    19  H    0.003273
 Mulliken charges and spin densities:
               1          2
     1  Cr   1.171498   4.034338
     2  O   -0.722850  -0.008103
     3  H    0.429812   0.002106
     4  O   -0.711430  -0.005789
     5  H    0.427462   0.001316
     6  O   -0.691535  -0.015416
     7  H    0.410886   0.003250
     8  O   -0.722848  -0.008103
     9  H    0.433559   0.000900
    10  O   -0.711430  -0.005789
    11  H    0.427463   0.001316
    12  O   -0.691535  -0.015416
    13  H    0.410887   0.003250
    14  H    0.410884   0.003250
    15  H    0.427462   0.001316
    16  H    0.433559   0.000900
    17  H    0.427462   0.001316
    18  H    0.410884   0.003250
    19  H    0.429812   0.002106
 Sum of Mulliken charges =   2.00000   4.00000
 Mulliken charges and spin densities with hydrogens summed into heavy atoms:
               1          2
     1  Cr   1.171498   4.034338
     2  O    0.140521  -0.005097
     4  O    0.143494  -0.003156
     6  O    0.130235  -0.008916
     8  O    0.140522  -0.005097
    10  O    0.143494  -0.003156
    12  O    0.130236  -0.008916
 APT charges:
               1
     1  Cr   1.660208
     2  O   -0.632634
     3  H    0.356776
     4  O   -0.617377
     5  H    0.349295
     6  O   -0.619295
     7  H    0.312534
     8  O   -0.632635
     9  H    0.358768
    10  O   -0.617377
    11  H    0.349295
    12  O   -0.619296
    13  H    0.312535
    14  H    0.312534
    15  H    0.349295
    16  H    0.358768
    17  H    0.349294
    18  H    0.312534
    19  H    0.356776
 Sum of APT charges =   2.00000
 APT charges with hydrogens summed into heavy atoms:
               1
     1  Cr   1.660208
     2  O    0.082910
     4  O    0.081212
     6  O    0.005774
     8  O    0.082910
    10  O    0.081212
    12  O    0.005774
 Electronic spatial extent (au):  <R**2>=           1229.4637
 Charge=              2.0000 electrons
 Dipole moment (field-independent basis, Debye):
    X=              0.0001    Y=             -0.0000    Z=             -0.0000  Tot=              0.0001
 Quadrupole moment (field-independent basis, Debye-Ang):
   XX=            -12.7883   YY=            -14.4906   ZZ=            -15.9212
   XY=              0.0011   XZ=              1.2517   YZ=             -0.0004
 Traceless Quadrupole moment (field-independent basis, Debye-Ang):
   XX=              1.6117   YY=             -0.0906   ZZ=             -1.5212
   XY=              0.0011   XZ=              1.2517   YZ=             -0.0004
 Octapole moment (field-independent basis, Debye-Ang**2):
  XXX=              0.0004  YYY=             -0.0001  ZZZ=             -0.0003  XYY=              0.0008
  XXY=              0.0002  XXZ=              0.0001  XZZ=             -0.0005  YZZ=             -0.0002
  YYZ=             -0.0004  XYZ=             -0.0007
 Hexadecapole moment (field-independent basis, Debye-Ang**3):
 XXXX=           -198.0080 YYYY=           -100.0746 ZZZZ=           -137.5005 XXXY=             -0.0029
 XXXZ=            -75.7352 YYYX=             -0.0127 YYYZ=             -0.0700 ZZZX=             56.1526
 ZZZY=              0.0556 XXYY=           -117.1009 XXZZ=            -72.0620 YYZZ=            -97.4954
 XXYZ=              0.0065 YYXZ=              0.4380 ZZXY=              0.0234
 N-N= 6.127411521971D+02 E-N=-4.760251653367D+03  KE= 1.497755637952D+03
  Exact polarizability:      59.121       0.000      56.629       0.040       0.000      56.903
 Approx polarizability:      68.042       0.000      67.522       0.044       0.000      67.983
                          Isotropic Fermi Contact Couplings
        Atom                 a.u.       MegaHertz       Gauss      10(-4) cm-1
     1  Cr(53)             0.15250      -9.65189      -3.44403      -3.21952
     2  O(17)             -0.02023       3.06570       1.09392       1.02261
     3  H(1)               0.00133       1.48489       0.52985       0.49531
     4  O(17)             -0.02018       3.05827       1.09127       1.02013
     5  H(1)               0.00089       0.99518       0.35510       0.33196
     6  O(17)              0.08309     -12.59239      -4.49328      -4.20037
     7  H(1)               0.00109       1.22109       0.43571       0.40731
     8  O(17)             -0.02023       3.06562       1.09389       1.02258
     9  H(1)               0.00086       0.96364       0.34385       0.32144
    10  O(17)             -0.02018       3.05817       1.09123       1.02010
    11  H(1)               0.00089       0.99519       0.35511       0.33196
    12  O(17)              0.08309     -12.59251      -4.49332      -4.20041
    13  H(1)               0.00109       1.22112       0.43573       0.40732
    14  H(1)               0.00109       1.22088       0.43564       0.40724
    15  H(1)               0.00089       0.99518       0.35511       0.33196
    16  H(1)               0.00086       0.96367       0.34386       0.32145
    17  H(1)               0.00089       0.99518       0.35511       0.33196
    18  H(1)               0.00109       1.22087       0.43564       0.40724
    19  H(1)               0.00133       1.48490       0.52985       0.49531
 --------------------------------------------------------
       Center         ----  Spin Dipole Couplings  ----
                      3XX-RR        3YY-RR        3ZZ-RR
 --------------------------------------------------------
     1   Atom        1.312905     -0.872029     -0.440876
     2   Atom       -0.047486      0.023522      0.023964
     3   Atom        0.009989     -0.027247      0.017258
     4   Atom        0.014153      0.036707     -0.050860
     5   Atom       -0.024333      0.045442     -0.021109
     6   Atom        0.098995     -0.071286     -0.027709
     7   Atom        0.030083     -0.014566     -0.015517
     8   Atom       -0.047486      0.023522      0.023964
     9   Atom       -0.024433     -0.024939      0.049372
    10   Atom        0.014162      0.036708     -0.050870
    11   Atom       -0.024334      0.045442     -0.021108
    12   Atom        0.098995     -0.071286     -0.027708
    13   Atom        0.030083     -0.014567     -0.015516
    14   Atom        0.030089     -0.014564     -0.015525
    15   Atom       -0.024337      0.045473     -0.021136
    16   Atom       -0.024433     -0.024939      0.049372
    17   Atom       -0.024337      0.045473     -0.021135
    18   Atom        0.030089     -0.014565     -0.015525
    19   Atom        0.009988     -0.027247      0.017258
 --------------------------------------------------------
                        XY            XZ            YZ
 --------------------------------------------------------
     1   Atom       -0.000055     -0.970905      0.000026
     2   Atom        0.000009      0.036554      0.000001
     3   Atom        0.000017      0.041239      0.000018
     4   Atom       -0.000015     -0.033888     -0.000032
     5   Atom       -0.008732      0.001639     -0.020626
     6   Atom        0.000004     -0.030933      0.000011
     7   Atom        0.015260     -0.017243     -0.005380
     8   Atom        0.000004      0.036554      0.000004
     9   Atom        0.000004      0.011575      0.000026
    10   Atom       -0.000016     -0.033877     -0.000032
    11   Atom       -0.008728      0.001638     -0.020627
    12   Atom        0.000001     -0.030935      0.000014
    13   Atom        0.015259     -0.017245     -0.005380
    14   Atom       -0.015266     -0.017235      0.005377
    15   Atom        0.008719      0.001629      0.020582
    16   Atom        0.000004      0.011575      0.000028
    17   Atom        0.008716      0.001628      0.020583
    18   Atom       -0.015264     -0.017235      0.005376
    19   Atom        0.000018      0.041239      0.000019
 --------------------------------------------------------


 ---------------------------------------------------------------------------------
              Anisotropic Spin Dipole Couplings in Principal Axis System
 ---------------------------------------------------------------------------------

       Atom             a.u.   MegaHertz   Gauss  10(-4) cm-1        Axes

              Baa    -0.8723    26.359     9.406     8.792  0.4060 -0.0038  0.9138
     1 Cr(53) Bbb    -0.8720    26.352     9.403     8.790  0.0016  1.0000  0.0035
              Bcc     1.7443   -52.711   -18.809   -17.582  0.9139 -0.0000 -0.4060
 
              Baa    -0.0629     4.549     1.623     1.518  0.9217 -0.0001 -0.3880
     2 O(17)  Bbb     0.0235    -1.702    -0.607    -0.568 -0.0000  1.0000 -0.0003
              Bcc     0.0394    -2.847    -1.016    -0.950  0.3880  0.0003  0.9217
 
              Baa    -0.0278   -14.820    -5.288    -4.943  0.7375 -0.0003 -0.6754
     3 H(1)   Bbb    -0.0272   -14.538    -5.187    -4.849  0.0000  1.0000 -0.0004
              Bcc     0.0550    29.358    10.476     9.793  0.6754  0.0003  0.7375
 
              Baa    -0.0653     4.726     1.686     1.576  0.3923  0.0003  0.9199
     4 O(17)  Bbb     0.0286    -2.070    -0.739    -0.690  0.9199  0.0002 -0.3923
              Bcc     0.0367    -2.656    -0.948    -0.886 -0.0003  1.0000 -0.0002
 
              Baa    -0.0273   -14.575    -5.201    -4.862  0.3791  0.2942  0.8773
     5 H(1)   Bbb    -0.0250   -13.349    -4.763    -4.453  0.9182 -0.0021 -0.3961
              Bcc     0.0523    27.924     9.964     9.315 -0.1146  0.9557 -0.2710
 
              Baa    -0.0713     5.158     1.841     1.721 -0.0001  1.0000 -0.0003
     6 O(17)  Bbb    -0.0349     2.522     0.900     0.841  0.2252  0.0003  0.9743
              Bcc     0.1061    -7.680    -2.741    -2.562  0.9743  0.0000 -0.2252
 
              Baa    -0.0213   -11.381    -4.061    -3.796  0.2861  0.1114  0.9517
     7 H(1)   Bbb    -0.0193   -10.288    -3.671    -3.432 -0.3019  0.9531 -0.0208
              Bcc     0.0406    21.669     7.732     7.228  0.9094  0.2814 -0.3063
 
              Baa    -0.0629     4.549     1.623     1.518  0.9217 -0.0000 -0.3880
     8 O(17)  Bbb     0.0235    -1.702    -0.607    -0.568 -0.0001  1.0000 -0.0003
              Bcc     0.0394    -2.847    -1.016    -0.950  0.3880  0.0004  0.9217
 
              Baa    -0.0262   -13.982    -4.989    -4.664  0.9885  0.0001 -0.1514
     9 H(1)   Bbb    -0.0249   -13.306    -4.748    -4.439 -0.0001  1.0000 -0.0003
              Bcc     0.0511    27.288     9.737     9.102  0.1514  0.0003  0.9885
 
              Baa    -0.0653     4.726     1.686     1.576  0.3921  0.0003  0.9199
    10 O(17)  Bbb     0.0286    -2.070    -0.739    -0.690  0.9199  0.0003 -0.3921
              Bcc     0.0367    -2.656    -0.948    -0.886 -0.0004  1.0000 -0.0002
 
              Baa    -0.0273   -14.575    -5.201    -4.862  0.3789  0.2942  0.8774
    11 H(1)   Bbb    -0.0250   -13.349    -4.763    -4.453  0.9183 -0.0021 -0.3959
              Bcc     0.0523    27.924     9.964     9.315 -0.1146  0.9557 -0.2710
 
              Baa    -0.0713     5.158     1.841     1.721 -0.0001  1.0000 -0.0004
    12 O(17)  Bbb    -0.0349     2.522     0.900     0.841  0.2252  0.0004  0.9743
              Bcc     0.1061    -7.681    -2.741    -2.562  0.9743 -0.0000 -0.2252
 
              Baa    -0.0213   -11.381    -4.061    -3.796  0.2861  0.1114  0.9517
[...]
    18  H    0.000000   0.000000  -0.000037  -0.000044  -0.000002   0.310766
    19  H   -0.000001  -0.000001  -0.000001   0.000001  -0.000022  -0.000062
              19
     1  Cr  -0.006527
     2  O   -0.000401
     3  H   -0.000000
     4  O    0.000957
     5  H   -0.000022
     6  O    0.004043
     7  H   -0.000062
     8  O    0.299843
     9  H   -0.014819
    10  O    0.000957
    11  H   -0.000001
    12  O    0.000615
    13  H   -0.000001
    14  H   -0.000001
    15  H   -0.000001
    16  H    0.000001
    17  H   -0.000022
    18  H   -0.000062
    19  H    0.289080
          Atomic-Atomic Spin Densities.
               1          2          3          4          5          6
     1  Cr   4.286025  -0.022693  -0.002684  -0.029784  -0.001457  -0.066832
     2  O   -0.022693   0.000668   0.002024   0.020390  -0.000371  -0.017752
     3  H   -0.002684   0.002024   0.002981  -0.000446   0.000001   0.000174
     4  O   -0.029784   0.020390  -0.000446   0.018491   0.000893  -0.022105
     5  H   -0.001457  -0.000371   0.000001   0.000893   0.002424   0.000494
     6  O   -0.066832  -0.017752   0.000174  -0.022105   0.000494   0.126526
     7  H    0.003209   0.000515  -0.000001   0.000351  -0.000001  -0.006414
     8  O   -0.022693   0.003691  -0.000069   0.020390  -0.000134  -0.018743
     9  H   -0.002525  -0.000064  -0.000000  -0.000471   0.000010   0.000165
    10  O   -0.029784   0.020390  -0.000446   0.005343  -0.000077  -0.022105
    11  H   -0.001457  -0.000134   0.000010  -0.000077   0.000000   0.000478
    12  O   -0.066832  -0.018743   0.001237  -0.022105   0.000478   0.008919
    13  H    0.003209   0.000595  -0.000023   0.001255  -0.000016  -0.000083
    14  H    0.003209   0.000595  -0.000023   0.000351  -0.000001  -0.000083
    15  H   -0.001457  -0.000134   0.000010   0.000893  -0.000784   0.000478
    16  H   -0.002525   0.002189  -0.001031  -0.000471   0.000001   0.000923
    17  H   -0.001457  -0.000371   0.000001  -0.000077  -0.000000   0.000494
    18  H    0.003209   0.000515  -0.000001   0.001255  -0.000018  -0.006414
    19  H   -0.002684  -0.000069   0.000000  -0.000446   0.000010   0.001237
               7          8          9         10         11         12
     1  Cr   0.003209  -0.022693  -0.002525  -0.029784  -0.001457  -0.066832
     2  O    0.000515   0.003691  -0.000064   0.020390  -0.000134  -0.018743
     3  H   -0.000001  -0.000069  -0.000000  -0.000446   0.000010   0.001237
     4  O    0.000351   0.020390  -0.000471   0.005343  -0.000077  -0.022105
     5  H   -0.000001  -0.000134   0.000010  -0.000077   0.000000   0.000478
     6  O   -0.006414  -0.018743   0.000165  -0.022105   0.000478   0.008919
     7  H    0.003722   0.000595  -0.000001   0.001255  -0.000016  -0.000083
     8  O    0.000595   0.000668   0.002189   0.020390  -0.000371  -0.017752
     9  H   -0.000001   0.002189   0.002713  -0.000471   0.000001   0.000923
    10  O    0.001255   0.020390  -0.000471   0.018491   0.000893  -0.022105
    11  H   -0.000016  -0.000371   0.000001   0.000893   0.002424   0.000494
    12  O   -0.000083  -0.017752   0.000923  -0.022105   0.000494   0.126526
    13  H    0.000000   0.000515  -0.000016   0.000351  -0.000001  -0.006414
    14  H    0.000000   0.000515  -0.000016   0.001255  -0.000018  -0.006414
    15  H   -0.000001  -0.000371   0.000001  -0.000077  -0.000000   0.000494
    16  H   -0.000016  -0.000064   0.000000  -0.000471   0.000010   0.000165
    17  H   -0.000018  -0.000134   0.000010   0.000893  -0.000784   0.000478
    18  H    0.000790   0.000595  -0.000001   0.000351  -0.000001  -0.000083
    19  H   -0.000023   0.002024  -0.001031  -0.000446   0.000001   0.000174
              13         14         15         16         17         18
     1  Cr   0.003209   0.003209  -0.001457  -0.002525  -0.001457   0.003209
     2  O    0.000595   0.000595  -0.000134   0.002189  -0.000371   0.000515
     3  H   -0.000023  -0.000023   0.000010  -0.001031   0.000001  -0.000001
     4  O    0.001255   0.000351   0.000893  -0.000471  -0.000077   0.001255
     5  H   -0.000016  -0.000001  -0.000784   0.000001  -0.000000  -0.000018
     6  O   -0.000083  -0.000083   0.000478   0.000923   0.000494  -0.006414
     7  H    0.000000   0.000000  -0.000001  -0.000016  -0.000018   0.000790
     8  O    0.000515   0.000515  -0.000371  -0.000064  -0.000134   0.000595
     9  H   -0.000016  -0.000016   0.000001   0.000000   0.000010  -0.000001
    10  O    0.000351   0.001255  -0.000077  -0.000471   0.000893   0.000351
    11  H   -0.000001  -0.000018  -0.000000   0.000010  -0.000784  -0.000001
    12  O   -0.006414  -0.006414   0.000494   0.000165   0.000478  -0.000083
    13  H    0.003722   0.000790  -0.000018  -0.000001  -0.000001   0.000000
    14  H    0.000790   0.003722  -0.000001  -0.000001  -0.000016   0.000000
    15  H   -0.000018  -0.000001   0.002424   0.000010   0.000000  -0.000016
    16  H   -0.000001  -0.000001   0.000010   0.002713   0.000001  -0.000016
    17  H   -0.000001  -0.000016   0.000000   0.000001   0.002424  -0.000001
    18  H    0.000000   0.000000  -0.000016  -0.000016  -0.000001   0.003722
    19  H   -0.000001  -0.000001   0.000001  -0.000000   0.000010  -0.000023
              19
     1  Cr  -0.002684
     2  O   -0.000069
     3  H    0.000000
     4  O   -0.000446
     5  H    0.000010
     6  O    0.001237
     7  H   -0.000023
     8  O    0.002024
     9  H   -0.001031
    10  O   -0.000446
    11  H    0.000001
    12  O    0.000174
    13  H   -0.000001
    14  H   -0.000001
    15  H    0.000001
    16  H   -0.000000
    17  H    0.000010
    18  H   -0.000023
    19  H    0.002981
 Mulliken charges and spin densities:
               1          2
     1  Cr   1.212116   4.043998
     2  O   -0.718139  -0.008757
     3  H    0.426423   0.001717
     4  O   -0.714969  -0.006369
     5  H    0.425612   0.001452
     6  O   -0.690198  -0.020641
     7  H    0.405896   0.003864
     8  O   -0.718139  -0.008757
     9  H    0.427806   0.001420
    10  O   -0.714969  -0.006369
    11  H    0.425612   0.001452
    12  O   -0.690198  -0.020641
    13  H    0.405896   0.003864
    14  H    0.405896   0.003864
    15  H    0.425612   0.001452
    16  H    0.427806   0.001420
    17  H    0.425612   0.001452
    18  H    0.405896   0.003864
    19  H    0.426423   0.001717
 Sum of Mulliken charges =   2.00000   4.00000
 Mulliken charges and spin densities with hydrogens summed into heavy atoms:
               1          2
     1  Cr   1.212116   4.043998
     2  O    0.136091  -0.005620
     4  O    0.136256  -0.003465
     6  O    0.121595  -0.012913
     8  O    0.136091  -0.005620
    10  O    0.136256  -0.003465
    12  O    0.121595  -0.012913
 Electronic spatial extent (au):  <R**2>=           1199.2863
 Charge=              2.0000 electrons
 Dipole moment (field-independent basis, Debye):
    X=             -0.0000    Y=              0.0000    Z=             -0.0000  Tot=              0.0000
 Quadrupole moment (field-independent basis, Debye-Ang):
   XX=            -16.1473   YY=            -15.2930   ZZ=            -15.1981
   XY=             -0.0000   XZ=              0.5559   YZ=              0.0000
 Traceless Quadrupole moment (field-independent basis, Debye-Ang):
   XX=             -0.6012   YY=              0.2532   ZZ=              0.3480
   XY=             -0.0000   XZ=              0.5559   YZ=              0.0000
 Octapole moment (field-independent basis, Debye-Ang**2):
  XXX=              0.0000  YYY=              0.0000  ZZZ=             -0.0001  XYY=              0.0000
  XXY=              0.0000  XXZ=              0.0000  XZZ=             -0.0000  YZZ=             -0.0000
  YYZ=             -0.0000  XYZ=              0.0000
 Hexadecapole moment (field-independent basis, Debye-Ang**3):
 XXXX=           -153.4014 YYYY=           -107.8617 ZZZZ=           -113.0169 XXXY=              0.0004
 XXXZ=            -29.5277 YYYX=             -0.0005 YYYZ=             -0.0013 ZZZX=             25.7682
 ZZZY=              0.0013 XXYY=           -113.6778 XXZZ=           -115.4246 YYZZ=            -99.6679
 XXYZ=             -0.0001 YYXZ=              0.2370 ZZXY=              0.0002
 N-N= 6.200740244598D+02 E-N=-4.774693215504D+03  KE= 1.498078896187D+03
                          Isotropic Fermi Contact Couplings
        Atom                 a.u.       MegaHertz       Gauss      10(-4) cm-1
     1  Cr(53)             0.10786      -6.82640      -2.43583      -2.27704
     2  O(17)             -0.01949       2.95293       1.05368       0.98499
     3  H(1)               0.00122       1.36466       0.48694       0.45520
     4  O(17)             -0.01826       2.76707       0.98736       0.92299
     5  H(1)               0.00096       1.07227       0.38261       0.35767
     6  O(17)              0.09585     -14.52574      -5.18314      -4.84526
     7  H(1)               0.00129       1.43713       0.51280       0.47938
     8  O(17)             -0.01948       2.95292       1.05368       0.98499
     9  H(1)               0.00111       1.24240       0.44332       0.41442
    10  O(17)             -0.01826       2.76707       0.98736       0.92299
    11  H(1)               0.00096       1.07227       0.38261       0.35767
    12  O(17)              0.09585     -14.52574      -5.18314      -4.84526
    13  H(1)               0.00129       1.43713       0.51280       0.47938
    14  H(1)               0.00129       1.43713       0.51280       0.47937
    15  H(1)               0.00096       1.07227       0.38261       0.35767
    16  H(1)               0.00111       1.24240       0.44332       0.41442
    17  H(1)               0.00096       1.07227       0.38261       0.35767
    18  H(1)               0.00129       1.43713       0.51280       0.47937
    19  H(1)               0.00122       1.36466       0.48694       0.45520
 --------------------------------------------------------
       Center         ----  Spin Dipole Couplings  ----
                      3XX-RR        3YY-RR        3ZZ-RR
 --------------------------------------------------------
     1   Atom        1.713240     -0.865161     -0.848079
     2   Atom       -0.062212      0.022270      0.039942
     3   Atom       -0.012990     -0.026757      0.039747
     4   Atom        0.025288      0.040141     -0.065429
     5   Atom       -0.025449      0.046406     -0.020957
     6   Atom        0.106076     -0.075623     -0.030453
     7   Atom        0.037623     -0.015628     -0.021995
     8   Atom       -0.062212      0.022270      0.039942
     9   Atom       -0.025465     -0.026214      0.051678
    10   Atom        0.025288      0.040141     -0.065429
    11   Atom       -0.025449      0.046406     -0.020957
    12   Atom        0.106076     -0.075623     -0.030453
    13   Atom        0.037623     -0.015628     -0.021995
    14   Atom        0.037623     -0.015628     -0.021995
    15   Atom       -0.025449      0.046406     -0.020958
    16   Atom       -0.025465     -0.026214      0.051678
    17   Atom       -0.025449      0.046406     -0.020958
    18   Atom        0.037623     -0.015628     -0.021995
    19   Atom       -0.012990     -0.026757      0.039747
 --------------------------------------------------------
                        XY            XZ            YZ
 --------------------------------------------------------
     1   Atom        0.000006     -0.357133     -0.000001
     2   Atom       -0.000000      0.013766      0.000000
     3   Atom        0.000000      0.031433      0.000001
     4   Atom       -0.000000     -0.012315     -0.000001
     5   Atom       -0.002990      0.000603     -0.022526
     6   Atom        0.000000     -0.012323      0.000000
     7   Atom        0.017352     -0.006889     -0.002033
     8   Atom       -0.000000      0.013766      0.000000
     9   Atom       -0.000000     -0.011983      0.000000
    10   Atom       -0.000000     -0.012315     -0.000001
    11   Atom       -0.002989      0.000603     -0.022526
    12   Atom        0.000000     -0.012323      0.000000
    13   Atom        0.017352     -0.006889     -0.002033
    14   Atom       -0.017352     -0.006889      0.002033
    15   Atom        0.002989      0.000602      0.022525
    16   Atom       -0.000000     -0.011983      0.000000
    17   Atom        0.002989      0.000602      0.022525
    18   Atom       -0.017352     -0.006889      0.002033
    19   Atom        0.000000      0.031433      0.000001
 --------------------------------------------------------


 ---------------------------------------------------------------------------------
              Anisotropic Spin Dipole Couplings in Principal Axis System
 ---------------------------------------------------------------------------------

       Atom             a.u.   MegaHertz   Gauss  10(-4) cm-1        Axes

              Baa    -0.8969    27.105     9.672     9.041  0.1356  0.0000  0.9908
     1 Cr(53) Bbb    -0.8652    26.144     9.329     8.721 -0.0000  1.0000 -0.0000
              Bcc     1.7621   -53.249   -19.001   -17.762  0.9908  0.0000 -0.1356
 
              Baa    -0.0640     4.633     1.653     1.546  0.9913  0.0000 -0.1313
     2 O(17)  Bbb     0.0223    -1.611    -0.575    -0.538 -0.0000  1.0000 -0.0000
              Bcc     0.0418    -3.022    -1.078    -1.008  0.1313  0.0000  0.9913
 
              Baa    -0.0276   -14.753    -5.264    -4.921  0.9063 -0.0000 -0.4227
     3 H(1)   Bbb    -0.0268   -14.276    -5.094    -4.762 -0.0000  1.0000 -0.0000
              Bcc     0.0544    29.029    10.358     9.683  0.4227  0.0000  0.9063
 
              Baa    -0.0671     4.853     1.732     1.619  0.1322  0.0000  0.9912
     4 O(17)  Bbb     0.0269    -1.949    -0.695    -0.650  0.9912  0.0000 -0.1322
              Bcc     0.0401    -2.905    -1.036    -0.969 -0.0000  1.0000 -0.0000
 
              Baa    -0.0278   -14.850    -5.299    -4.954  0.1275  0.2927  0.9477
     5 H(1)   Bbb    -0.0255   -13.621    -4.860    -4.543  0.9911 -0.0005 -0.1331
              Bcc     0.0534    28.471    10.159     9.497 -0.0385  0.9562 -0.2901
 
              Baa    -0.0756     5.472     1.953     1.825 -0.0000  1.0000 -0.0000
     6 O(17)  Bbb    -0.0316     2.283     0.815     0.762  0.0892  0.0000  0.9960
              Bcc     0.1072    -7.755    -2.767    -2.587  0.9960  0.0000 -0.0892
 
              Baa    -0.0228   -12.155    -4.337    -4.055  0.1062  0.0249  0.9940
     7 H(1)   Bbb    -0.0208   -11.089    -3.957    -3.699 -0.2841  0.9588  0.0063
              Bcc     0.0436    23.244     8.294     7.753  0.9529  0.2831 -0.1089
 
              Baa    -0.0640     4.633     1.653     1.546  0.9913  0.0000 -0.1313
     8 O(17)  Bbb     0.0223    -1.611    -0.575    -0.538 -0.0000  1.0000 -0.0000
              Bcc     0.0418    -3.022    -1.078    -1.008  0.1313  0.0000  0.9913
 
              Baa    -0.0273   -14.557    -5.194    -4.856  0.9887  0.0000  0.1500
     9 H(1)   Bbb    -0.0262   -13.986    -4.991    -4.665 -0.0000  1.0000 -0.0000
              Bcc     0.0535    28.543    10.185     9.521 -0.1500  0.0000  0.9887
 
              Baa    -0.0671     4.853     1.732     1.619  0.1322  0.0000  0.9912
    10 O(17)  Bbb     0.0269    -1.949    -0.695    -0.650  0.9912  0.0000 -0.1322
              Bcc     0.0401    -2.905    -1.036    -0.969 -0.0000  1.0000 -0.0000
 
              Baa    -0.0278   -14.850    -5.299    -4.954  0.1275  0.2927  0.9477
    11 H(1)   Bbb    -0.0255   -13.621    -4.860    -4.543  0.9911 -0.0005 -0.1331
              Bcc     0.0534    28.471    10.159     9.497 -0.0385  0.9562 -0.2901
 
              Baa    -0.0756     5.472     1.953     1.825 -0.0000  1.0000 -0.0000
    12 O(17)  Bbb    -0.0316     2.283     0.815     0.762  0.0892  0.0000  0.9960
              Bcc     0.1072    -7.755    -2.767    -2.587  0.9960  0.0000 -0.0892
 
              Baa    -0.0228   -12.155    -4.337    -4.055  0.1062  0.0249  0.9940
    13 H(1)   Bbb    -0.0208   -11.089    -3.957    -3.699 -0.2841  0.9588  0.0063
              Bcc     0.0436    23.244     8.294     7.753  0.9529  0.2831 -0.1089
 
              Baa    -0.0228   -12.155    -4.337    -4.055  0.1062 -0.0249  0.9940
    14 H(1)   Bbb    -0.0208   -11.089    -3.957    -3.699  0.2841  0.9588 -0.0063
              Bcc     0.0436    23.244     8.294     7.753  0.9529 -0.2831 -0.1089
 
              Baa    -0.0278   -14.850    -5.299    -4.954  0.1275 -0.2927  0.9477
    15 H(1)   Bbb    -0.0255   -13.621    -4.860    -4.543  0.9911  0.0005 -0.1331
              Bcc     0.0534    28.471    10.159     9.497  0.0385  0.9562  0.2901
 
              Baa    -0.0273   -14.557    -5.194    -4.856  0.9887  0.0000  0.1500
    16 H(1)   Bbb    -0.0262   -13.986    -4.991    -4.665 -0.0000  1.0000 -0.0000
              Bcc     0.0535    28.543    10.185     9.521 -0.1500  0.0000  0.9887
 
              Baa    -0.0278   -14.850    -5.299    -4.954  0.1275 -0.2927  0.9477
    17 H(1)   Bbb    -0.0255   -13.621    -4.860    -4.543  0.9911  0.0005 -0.1331
              Bcc     0.0534    28.471    10.159     9.497  0.0385  0.9562  0.2901
 
              Baa    -0.0228   -12.155    -4.337    -4.055  0.1062 -0.0249  0.9940
    18 H(1)   Bbb    -0.0208   -11.089    -3.957    -3.699  0.2841  0.9588 -0.0063
              Bcc     0.0436    23.244     8.294     7.753  0.9529 -0.2831 -0.1089
 
              Baa    -0.0276   -14.753    -5.264    -4.921  0.9063  0.0000 -0.4227
    19 H(1)   Bbb    -0.0268   -14.276    -5.094    -4.762 -0.0000  1.0000 -0.0000
              Bcc     0.0544    29.029    10.358     9.683  0.4227  0.0000  0.9063
 

 ---------------------------------------------------------------------------------

 No NMR shielding tensors so no spin-rotation constants.
 Leave Link  601 at Sat May 25 13:09:43 2024, MaxMem= 26843545600 cpu:              29.5 elap:               0.3
 (Enter /gpfs/fs1/soft/improv/software/custom-built/gaussian/g16/l9999.exe)
 Unable to Open any file for archive entry.
 1\1\GINC-I663\SP\UPBE1PBE\Gen\Cr1H12O6(2+,5)\HHARB\25-May-2024\0\\#p P
 BE1PBE empiricaldispersion=gd3 scf=(maxcycles=500,xqc,maxconventional=
 50) scrf=(cpcm,solvent=water) geom=allcheck guess=read chkbasis\\Title
 \\2,5\Cr,-0.7848167702,0.7129521057,0.0317919415\O,-1.3440092871,2.687
 4181361,-0.3093118382\H,-1.4538266965,3.0898043654,-1.1793717097\O,1.2
 196566858,1.282435544,0.0421672367\H,1.976547209,0.6985916369,0.167065
 7019\O,-0.8811656729,1.0094235752,2.3735700093\H,-1.64945136,0.8964067
 585,2.9452057101\O,-0.2256241275,-1.261513959,0.3728949989\H,-0.031905
 7995,-1.9312178474,-0.2939458749\O,-2.7892903162,0.1434688917,0.021416
 6177\H,-3.5461808574,0.727313099,-0.1034803309\O,-0.6884673649,0.41647
 71288,-2.3099857139\H,0.0798184556,0.5294928201,-2.8816214781\H,-1.395
 9007461,0.1102336967,-2.8892576827\H,1.5576856023,2.1773525855,-0.0770
 658391\H,-1.5377274155,3.3571226673,0.357528481\H,-3.1273192706,-0.751
 4482891,0.1406485377\H,-0.1737326997,1.3156677859,2.9528420869\H,-0.11
 58071388,-1.6639009312,1.2429545557\\Version=ES64L-G16RevC.02\State=5-
 A\HF=-1502.1872911\S2=6.005062\S2-1=0.\S2A=6.000008\RMSD=8.101e-09\Dip
 ole=-0.0000006,0.0000009,-0.0000004\Quadrupole=0.1906903,0.2341233,-0.
 4248136,-0.0108996,0.1207797,-0.4139486\PG=C01 [X(Cr1H12O6)]\\@
 The archive entry for this job was punched.


 GOD GAVE US TWO ENDS... ONE TO SIT ON...    
 AND THE OTHER TO THINK WITH...              
 YOUR SUCCESS DEPENDS UPON WHICH END YOU     
 USE THE MOST...                             
                                             
 IT'S A CASE OF HEADS YOU WIN TAILS YOU LOSE.
          SOURCE UNKNOWN(IT'S JUST AS WELL.) 
 Job cpu time:       0 days  0 hours 52 minutes 42.0 seconds.
 Elapsed time:       0 days  0 hours  0 minutes 28.7 seconds.
 File lengths (MBytes):  RWF=    123 Int=      0 D2E=      0 Chk=     32 Scr=      1
 Normal termination of Gaussian 16 at Sat May 25 13:09:43 2024.
