 Entering Gaussian System, Link 0=g16
 Input=Cr_3_BLYP.com
 Output=Cr_3_BLYP.log
 Initial command:
 /gpfs/fs1/soft/improv/software/custom-built/gaussian/g16/l1.exe "/scratch/Gau-190712.inp" -scrdir="/scratch/"
 Default CPUs for threads: 0-127
 Default linda workers: i184.lcrc.anl.gov
 Default is to use 128 SMP processors on each worker.
 Entering Link 1 = /gpfs/fs1/soft/improv/software/custom-built/gaussian/g16/l1.exe PID=    190713.
  
 Copyright (c) 1988-2021, Gaussian, Inc.  All Rights Reserved.
  
 This is part of the Gaussian(R) 16 program.  It is based on
 the Gaussian(R) 09 system (copyright 2009, Gaussian, Inc.),
 the Gaussian(R) 03 system (copyright 2003, Gaussian, Inc.),
 the Gaussian(R) 98 system (copyright 1998, Gaussian, Inc.),
 the Gaussian(R) 94 system (copyright 1995, Gaussian, Inc.),
 the Gaussian 92(TM) system (copyright 1992, Gaussian, Inc.),
 the Gaussian 90(TM) system (copyright 1990, Gaussian, Inc.),
 the Gaussian 88(TM) system (copyright 1988, Gaussian, Inc.),
 the Gaussian 86(TM) system (copyright 1986, Carnegie Mellon
 University), and the Gaussian 82(TM) system (copyright 1983,
 Carnegie Mellon University). Gaussian is a federally registered
 trademark of Gaussian, Inc.
  
 This software contains proprietary and confidential information,
 including trade secrets, belonging to Gaussian, Inc.
  
 This software is provided under written license and may be
 used, copied, transmitted, or stored only in accord with that
 written license.
  
 The following legend is applicable only to US Government
 contracts under FAR:
  
                    RESTRICTED RIGHTS LEGEND
  
 Use, reproduction and disclosure by the US Government is
 subject to restrictions as set forth in subparagraphs (a)
 and (c) of the Commercial Computer Software - Restricted
 Rights clause in FAR 52.227-19.
  
 Gaussian, Inc.
 340 Quinnipiac St., Bldg. 40, Wallingford CT 06492
  
  
 ---------------------------------------------------------------
 Warning -- This program may not be used in any manner that
 competes with the business of Gaussian, Inc. or will provide
 assistance to any competitor of Gaussian, Inc.  The licensee
 of this program is prohibited from giving any competitor of
 Gaussian, Inc. access to this program.  By using this program,
 the user acknowledges that Gaussian, Inc. is engaged in the
 business of creating and licensing software in the field of
 computational chemistry and represents and warrants to the
 licensee that it is not a competitor of Gaussian, Inc. and that
 it will not use this program in any manner prohibited above.
 ---------------------------------------------------------------
  

 Cite this work as:
 Gaussian 16, Revision C.02,
 M. J. Frisch, G. W. Trucks, H. B. Schlegel, G. E. Scuseria, 
 M. A. Robb, J. R. Cheeseman, G. Scalmani, V. Barone, 
 G. A. Petersson, H. Nakatsuji, X. Li, M. Caricato, A. V. Marenich, 
 J. Bloino, B. G. Janesko, R. Gomperts, B. Mennucci, H. P. Hratchian, 
 J. V. Ortiz, A. F. Izmaylov, J. L. Sonnenberg, D. Williams-Young, 
 F. Ding, F. Lipparini, F. Egidi, J. Goings, B. Peng, A. Petrone, 
 T. Henderson, D. Ranasinghe, V. G. Zakrzewski, J. Gao, N. Rega, 
 G. Zheng, W. Liang, M. Hada, M. Ehara, K. Toyota, R. Fukuda, 
 J. Hasegawa, M. Ishida, T. Nakajima, Y. Honda, O. Kitao, H. Nakai, 
 T. Vreven, K. Throssell, J. A. Montgomery, Jr., J. E. Peralta, 
 F. Ogliaro, M. J. Bearpark, J. J. Heyd, E. N. Brothers, K. N. Kudin, 
 V. N. Staroverov, T. A. Keith, R. Kobayashi, J. Normand, 
 K. Raghavachari, A. P. Rendell, J. C. Burant, S. S. Iyengar, 
 J. Tomasi, M. Cossi, J. M. Millam, M. Klene, C. Adamo, R. Cammi, 
 J. W. Ochterski, R. L. Martin, K. Morokuma, O. Farkas, 
 J. B. Foresman, and D. J. Fox, Gaussian, Inc., Wallingford CT, 2019.
 
 ******************************************
 Gaussian 16:  ES64L-G16RevC.02  7-Dec-2021
                23-May-2024 
 ******************************************
 %chk=Cr_3_BLYP.chk
 SetSPE:  set environment variable "OMP_PROC_BIND" = "true"
 SetSPE:  set environment variable "OMP_PLACES" = "{0},{1},{2},{3},{4},{5},{6},{7},{8},{9},{10},{11},{12},{13},{14},{15},{16},{17},{18},{19},{20},{21},{22},{23},{24},{25},{26},{27},{28},{29},{30},{31},{32},{33},{34},{35},{36},{37},{38},{39},{40},{41},{42},{43},{44},{45},{46},{47},{48},{49},{50},{51},{52},{53},{54},{55},{56},{57},{58},{59},{60},{61},{62},{63},{64},{65},{66},{67},{68},{69},{70},{71},{72},{73},{74},{75},{76},{77},{78},{79},{80},{81},{82},{83},{84},{85},{86},{87},{88},{89},{90},{91},{92},{93},{94},{95},{96},{97},{98},{99},{100},{101},{102},{103},{104},{105},{106},{107},{108},{109},{110},{111},{112},{113},{114},{115},{116},{117},{118},{119},{120},{121},{122},{123},{124},{125},{126},{127}"
 SetLPE:    new flags="-opt 'Tsnet.Node.lindarsharg: ssh'  -nodelist 'i184.lcrc.anl.gov' -env GAUSS_MDEF=26843545600 -env GAUSS_EXEDIR="/gpfs/fs1/soft/improv/software/custom-built/gaussian/g16/bsd:/gpfs/fs1/soft/improv/software/custom-built/gaussian/g16" -env "OMP_PROC_BIND=true" -env "OMP_PLACES={0},{1},{2},{3},{4},{5},{6},{7},{8},{9},{10},{11},{12},{13},{14},{15},{16},{17},{18},{19},{20},{21},{22},{23},{24},{25},{26},{27},{28},{29},{30},{31},{32},{33},{34},{35},{36},{37},{38},{39},{40},{41},{42},{43},{44},{45},{46},{47},{48},{49},{50},{51},{52},{53},{54},{55},{56},{57},{58},{59},{60},{61},{62},{63},{64},{65},{66},{67},{68},{69},{70},{71},{72},{73},{74},{75},{76},{77},{78},{79},{80},{81},{82},{83},{84},{85},{86},{87},{88},{89},{90},{91},{92},{93},{94},{95},{96},{97},{98},{99},{100},{101},{102},{103},{104},{105},{106},{107},{108},{109},{110},{111},{112},{113},{114},{115},{116},{117},{118},{119},{120},{121},{122},{123},{124},{125},{126},{127}" -env GAUSS_ADEF="0,1,2,3,4,5,6,7,8,9,10,11,12,13,14,15,16,17,18,19,20,21,22,23,24,25,26,27,28,29,30,31,32,33,34,35,36,37,38,39,40,41,42,43,44,45,46,47,48,49,50,51,52,53,54,55,56,57,58,59,60,61,62,63,64,65,66,67,68,69,70,71,72,73,74,75,76,77,78,79,80,81,82,83,84,85,86,87,88,89,90,91,92,93,94,95,96,97,98,99,100,101,102,103,104,105,106,107,108,109,110,111,112,113,114,115,116,117,118,119,120,121,122,123,124,125,126,127""
 Will use up to    1 processors via Linda.
 ----------------------------------------------------------------------
 #p BLYP empiricaldispersion=gd3 6-31+G(2df,p) opt=(cartesian,calcall,m
 axcycles=500) freq scf=(maxcycles=500,xqc,maxconventional=50)
 ----------------------------------------------------------------------
 1/6=500,10=4,18=10,26=3,38=1/1,3;
 2/12=2,17=6,18=5,29=2,40=1/2;
 3/5=1,6=6,7=114,11=2,25=1,30=1,71=2,74=402,124=31,140=1/1,2,3;
 4//1;
 5/5=2,7=500,8=3,13=1,38=5,85=50/2,8;
 8/6=4,10=90,11=11/1;
 11/6=1,8=1,9=11,15=111,16=1/1,2,10;
 10/6=1/2;
 6/7=2,8=2,9=2,10=2,18=1,28=1/1;
 7/7=1,10=1,25=1/1,2,3,16;
 1/6=500,10=4,18=10,26=3/3(3);
 2/29=1/2;
 7/7=1,8=1,9=1,25=1,44=-1/16;
 99/12=1/99;
 2/29=1/2;
 3/5=1,6=6,7=114,11=2,25=1,30=1,71=2,74=402,124=31,140=1/1,2,3;
 4/5=5,16=3,69=1/1;
 5/5=2,7=500,8=3,13=1,38=5,85=50/2,8;
 8/6=4,10=90,11=11/1;
 11/6=1,8=1,9=11,15=111,16=1/1,2,10;
 10/6=1/2;
 7/7=1,10=1,25=1/1,2,3,16;
 1/6=500,10=4,18=10,26=3/3(-8);
 2/29=1/2;
 6/7=2,8=2,9=2,10=2,18=1,19=2,28=1/1;
 7/7=1,8=1,9=1,25=1,44=-1/16;
 99/12=1/99;
 Leave Link    1 at Thu May 23 12:33:33 2024, MaxMem=           0 cpu:               3.2 elap:               0.1
 (Enter /gpfs/fs1/soft/improv/software/custom-built/gaussian/g16/l101.exe)
 -----
 Title
 -----
 Symbolic Z-matrix:
 Charge =  3 Multiplicity = 4
 Cr                   -0.79304   0.81881  -0.09491 
 O                    -1.20497   2.57394  -0.35687 
 H                    -2.12106   2.64974  -0.63312 
 O                     0.99012   1.19063  -0.05794 
 H                     1.42696   0.5998    0.55971 
 O                    -0.81752   1.03069   1.71365 
 H                    -1.02108   0.1906    2.13133 
 O                    -0.38507  -0.93351   0.17118 
 H                    -1.15682  -1.47369  -0.01433 
 O                    -2.57341   0.45178  -0.12186 
 H                    -2.77756  -0.08744  -0.88929 
 O                    -0.76966   0.60461  -1.90111 
 H                     0.09872   0.83457  -2.23949 
 H                    -0.96534  -0.30999  -2.11742 
 H                     1.12208   2.09943   0.22124 
 H                    -1.07671   3.0584    0.46184 
 H                    -2.81407  -0.02398   0.6765 
 H                     0.0422    1.33615   2.01181 
 H                    -0.11532  -1.06446   1.08312 
 
 ITRead=  0  0  0  0  0  0  0  0  0  0  0  0  0  0  0  0  0  0  0
 MicOpt= -1 -1 -1 -1 -1 -1 -1 -1 -1 -1 -1 -1 -1 -1 -1 -1 -1 -1 -1
 NAtoms=     19 NQM=       19 NQMF=       0 NMMI=      0 NMMIF=      0
                NMic=       0 NMicF=      0.
                    Isotopes and Nuclear Properties:
 (Nuclear quadrupole moments (NQMom) in fm**2, nuclear magnetic moments (NMagM)
  in nuclear magnetons)

  Atom         1           2           3           4           5           6           7           8           9          10
 IAtWgt=          52          16           1          16           1          16           1          16           1          16
 AtmWgt=  51.9405097  15.9949146   1.0078250  15.9949146   1.0078250  15.9949146   1.0078250  15.9949146   1.0078250  15.9949146
 NucSpn=           0           0           1           0           1           0           1           0           1           0
 AtZEff=  -0.0000000  -0.0000000  -0.0000000  -0.0000000  -0.0000000  -0.0000000  -0.0000000  -0.0000000  -0.0000000  -0.0000000
 NQMom=    0.0000000   0.0000000   0.0000000   0.0000000   0.0000000   0.0000000   0.0000000   0.0000000   0.0000000   0.0000000
 NMagM=    0.0000000   0.0000000   2.7928460   0.0000000   2.7928460   0.0000000   2.7928460   0.0000000   2.7928460   0.0000000
 AtZNuc=  24.0000000   8.0000000   1.0000000   8.0000000   1.0000000   8.0000000   1.0000000   8.0000000   1.0000000   8.0000000

  Atom        11          12          13          14          15          16          17          18          19
 IAtWgt=           1          16           1           1           1           1           1           1           1
 AtmWgt=   1.0078250  15.9949146   1.0078250   1.0078250   1.0078250   1.0078250   1.0078250   1.0078250   1.0078250
 NucSpn=           1           0           1           1           1           1           1           1           1
 AtZEff=  -0.0000000  -0.0000000  -0.0000000  -0.0000000  -0.0000000  -0.0000000  -0.0000000  -0.0000000  -0.0000000
 NQMom=    0.0000000   0.0000000   0.0000000   0.0000000   0.0000000   0.0000000   0.0000000   0.0000000   0.0000000
 NMagM=    2.7928460   0.0000000   2.7928460   2.7928460   2.7928460   2.7928460   2.7928460   2.7928460   2.7928460
 AtZNuc=   1.0000000   8.0000000   1.0000000   1.0000000   1.0000000   1.0000000   1.0000000   1.0000000   1.0000000
 Leave Link  101 at Thu May 23 12:33:33 2024, MaxMem= 26843545600 cpu:               0.4 elap:               0.0
 (Enter /gpfs/fs1/soft/improv/software/custom-built/gaussian/g16/l103.exe)

 GradGradGradGradGradGradGradGradGradGradGradGradGradGradGradGradGradGrad
 Berny optimization.
 Initialization pass.
 No Z-matrix variables, so optimization will use Cartesian coordinates.
 Trust Radius=3.00D-01 FncErr=1.00D-07 GrdErr=1.00D-06 EigMax=2.50D+02 EigMin=1.00D-04
 Number of steps in this run=    114 maximum allowed number of steps=    114.
 GradGradGradGradGradGradGradGradGradGradGradGradGradGradGradGradGradGrad

 Leave Link  103 at Thu May 23 12:33:33 2024, MaxMem= 26843545600 cpu:               0.4 elap:               0.1
 (Enter /gpfs/fs1/soft/improv/software/custom-built/gaussian/g16/l202.exe)
 ---------------------------------------------------------------------------------------------------
                            Z-MATRIX (ANGSTROMS AND DEGREES)
   CD    Cent   Atom    N1       Length/X        N2       Alpha/Y        N3        Beta/Z          J
 ---------------------------------------------------------------------------------------------------
      1      1  Cr       0  -0.793037          0.818805         -0.094905
      2      2  O        0  -1.204971          2.573941         -0.356874
      3      3  H        0  -2.121063          2.649743         -0.633122
      4      4  O        0   0.990122          1.190635         -0.057941
      5      5  H        0   1.426962          0.599798          0.559707
      6      6  O        0  -0.817519          1.030691          1.713650
      7      7  H        0  -1.021079          0.190602          2.131326
      8      8  O        0  -0.385068         -0.933506          0.171177
      9      9  H        0  -1.156817         -1.473692         -0.014327
     10     10  O        0  -2.573405          0.451778         -0.121857
     11     11  H        0  -2.777557         -0.087440         -0.889285
     12     12  O        0  -0.769659          0.604612         -1.901109
     13     13  H        0   0.098725          0.834573         -2.239490
     14     14  H        0  -0.965336         -0.309994         -2.117418
     15     15  H        0   1.122081          2.099426          0.221242
     16     16  H        0  -1.076711          3.058396          0.461841
     17     17  H        0  -2.814074         -0.023981          0.676500
     18     18  H        0   0.042204          1.336153          2.011809
     19     19  H        0  -0.115315         -1.064459          1.083123
 ---------------------------------------------------------------------------------------------------
                         Z-Matrix orientation:                         
 ---------------------------------------------------------------------
 Center     Atomic      Atomic             Coordinates (Angstroms)
 Number     Number       Type             X           Y           Z
 ---------------------------------------------------------------------
      1         24           0       -0.793037    0.818805   -0.094905
      2          8           0       -1.204971    2.573941   -0.356874
      3          1           0       -2.121063    2.649743   -0.633122
      4          8           0        0.990122    1.190635   -0.057941
      5          1           0        1.426962    0.599798    0.559707
      6          8           0       -0.817519    1.030691    1.713650
      7          1           0       -1.021079    0.190602    2.131326
      8          8           0       -0.385068   -0.933506    0.171177
      9          1           0       -1.156817   -1.473692   -0.014327
     10          8           0       -2.573405    0.451778   -0.121857
     11          1           0       -2.777557   -0.087440   -0.889285
     12          8           0       -0.769659    0.604612   -1.901109
     13          1           0        0.098725    0.834573   -2.239490
     14          1           0       -0.965336   -0.309994   -2.117418
     15          1           0        1.122081    2.099426    0.221242
     16          1           0       -1.076711    3.058396    0.461841
     17          1           0       -2.814074   -0.023981    0.676500
     18          1           0        0.042204    1.336153    2.011809
     19          1           0       -0.115315   -1.064459    1.083123
 ---------------------------------------------------------------------
                    Distance matrix (angstroms):
                    1          2          3          4          5
     1  Cr   0.000000
     2  O    1.821762   0.000000
     3  H    2.325008   0.959835   0.000000
     4  O    1.821889   2.611767   3.484150   0.000000
     5  H    2.324839   3.415322   4.267739   0.959899   0.000000
     6  O    1.821090   2.611285   3.134947   2.536076   2.560263
     7  H    2.324381   3.450400   3.859988   3.136540   2.937743
     8  O    1.818745   3.640503   4.062050   2.540791   2.405292
     9  H    2.322579   4.062387   4.279649   3.421971   3.362259
    10  O    1.818006   2.536025   2.301533   3.639880   4.060711
    11  H    2.321775   3.136788   2.826442   4.064482   4.499984
    12  O    1.819010   2.540161   2.759827   2.614866   3.298603
    13  H    2.322657   2.875634   3.286750   2.383386   3.107223
    14  H    2.322591   3.387332   3.506977   3.212032   3.703756
    15  H    2.325429   2.444290   3.398642   0.959822   1.567289
    16  H    2.325125   0.959918   1.567358   2.833814   3.510364
    17  H    2.321626   3.225876   3.056824   4.060370   4.288255
    18  H    2.324547   2.949275   3.660724   2.281137   2.137375
    19  H    2.322443   4.061883   4.556733   2.758526   2.328591
                    6          7          8          9         10
     6  O    0.000000
     7  H    0.960021   0.000000
     8  O    2.534622   2.347406   0.000000
     9  H    3.061530   2.718847   0.960108   0.000000
    10  O    2.605257   2.748593   2.606473   2.392848   0.000000
    11  H    3.444886   3.505227   2.750347   2.305222   0.959885
    12  O    3.640099   4.061422   2.609231   2.833582   2.538227
    13  H    4.062670   4.557707   3.028445   3.443229   3.430916
    14  H    4.061572   4.278496   2.441955   2.411193   2.673658
    15  H    2.670492   3.447487   3.387136   4.244531   4.060675
    16  H    2.397039   3.318813   4.061790   4.557738   3.061904
    17  H    2.484803   2.318921   2.642472   2.307685   0.960023
    18  H    0.959858   1.567527   2.953276   3.665802   3.489421
    19  H    2.297892   1.869309   0.959980   1.567353   3.129403
                   11         12         13         14         15
    11  H    0.000000
    12  O    2.352526   0.000000
    13  H    3.308498   0.959935   0.000000
    14  H    2.200452   0.959991   1.567533   0.000000
    15  H    4.606825   3.212091   2.949969   3.953725   0.000000
    16  H    3.822919   3.420362   3.691102   4.243941   2.410850
    17  H    1.567497   3.349453   4.210050   3.362383   4.495491
    18  H    4.288824   4.062660   4.281159   4.558009   2.225950
    19  H    3.454344   3.481323   3.833001   3.396353   3.504877
                   16         17         18         19
    16  H    0.000000
    17  H    3.544793   0.000000
    18  H    2.573032   3.433851   0.000000
    19  H    4.278809   2.920828   2.578800   0.000000
 Stoichiometry    CrH12O6(3+,4)
 Framework group  C1[X(CrH12O6)]
 Deg. of freedom    51
 Full point group                 C1      NOp   1
 Largest Abelian subgroup         C1      NOp   1
 Largest concise Abelian subgroup C1      NOp   1
                         Standard orientation:                         
 ---------------------------------------------------------------------
 Center     Atomic      Atomic             Coordinates (Angstroms)
 Number     Number       Type             X           Y           Z
 ---------------------------------------------------------------------
      1         24           0       -0.020685   -0.030482    0.009994
      2          8           0       -0.320844   -1.688023   -0.683750
      3          1           0       -1.137089   -1.680465   -1.188697
      4          8           0        1.254521   -0.678417    1.138405
      5          1           0        1.943144   -0.019792    1.254236
      6          8           0        1.297903    0.293995   -1.203435
      7          1           0        1.381609    1.240665   -1.339268
      8          8           0        0.280044    1.626266    0.697440
      9          1           0       -0.431883    2.215255    0.436555
     10          8           0       -1.286249    0.615324   -1.124214
     11          1           0       -2.035220    0.938006   -0.617955
     12          8           0       -1.338537   -0.351919    1.221911
     13          1           0       -0.971839   -0.815948    1.978009
     14          1           0       -1.717555    0.481353    1.511023
     15          1           0        1.635363   -1.477123    0.766536
     16          1           0        0.408500   -1.931252   -1.258500
     17          1           0       -0.915691    1.334609   -1.640895
     18          1           0        2.128750   -0.056695   -0.874745
     19          1           0        1.113633    1.965130    0.362982
 ---------------------------------------------------------------------
 Rotational constants (GHZ):           2.0397002           1.9739464           1.9252837
 Leave Link  202 at Thu May 23 12:33:33 2024, MaxMem= 26843545600 cpu:               0.5 elap:               0.0
 (Enter /gpfs/fs1/soft/improv/software/custom-built/gaussian/g16/l301.exe)
 Standard basis: 6-31+G(2df,p) (6D, 7F)
 Ernie: Thresh=  0.10000D-02 Tol=  0.10000D-05 Strict=F.
 There are   347 symmetry adapted cartesian basis functions of A   symmetry.
 There are   317 symmetry adapted basis functions of A   symmetry.
   317 basis functions,   514 primitive gaussians,   347 cartesian basis functions
    42 alpha electrons       39 beta electrons
       nuclear repulsion energy       734.4111157916 Hartrees.
 IExCor=  402 DFT=T Ex=B Corr=LYP ExCW=0 ScaHFX=  0.000000
 ScaDFX=  1.000000  1.000000  1.000000  1.000000 ScalE2=  1.000000  1.000000
 IRadAn=      5 IRanWt=     -1 IRanGd=            0 ICorTp=0 IEmpDi=131
 NAtoms=   19 NActive=   19 NUniq=   19 SFac= 1.00D+00 NAtFMM=   60 NAOKFM=F Big=F
 Integral buffers will be    131072 words long.
 Raffenetti 2 integral format.
 Two-electron integral symmetry is turned on.
 R6Disp:  Grimme-D3 Dispersion energy=       -0.0235646312 Hartrees.
 Nuclear repulsion after empirical dispersion term =      734.3875511604 Hartrees.
 Leave Link  301 at Thu May 23 12:33:33 2024, MaxMem= 26843545600 cpu:               0.4 elap:               0.0
 (Enter /gpfs/fs1/soft/improv/software/custom-built/gaussian/g16/l302.exe)
 NPDir=0 NMtPBC=     1 NCelOv=     1 NCel=       1 NClECP=     1 NCelD=      1
         NCelK=      1 NCelE2=     1 NClLst=     1 CellRange=     0.0.
 One-electron integrals computed using PRISM.
 One-electron integral symmetry used in STVInt
 NBasis=   317 RedAO= T EigKep=  2.57D-05  NBF=   317
 NBsUse=   317 1.00D-06 EigRej= -1.00D+00 NBFU=   317
 Precomputing XC quadrature grid using
 IXCGrd= 4 IRadAn=           5 IRanWt=          -1 IRanGd=           0 AccXCQ= 0.00D+00.
 Generated NRdTot=       0 NPtTot=           0 NUsed=           0 NTot=          32
 NSgBfM=   347   346   347   347   347 MxSgAt=    19 MxSgA2=    19.
 Leave Link  302 at Thu May 23 12:33:34 2024, MaxMem= 26843545600 cpu:              22.0 elap:               0.3
 (Enter /gpfs/fs1/soft/improv/software/custom-built/gaussian/g16/l303.exe)
 DipDrv:  MaxL=1.
 Leave Link  303 at Thu May 23 12:33:34 2024, MaxMem= 26843545600 cpu:               1.0 elap:               0.0
 (Enter /gpfs/fs1/soft/improv/software/custom-built/gaussian/g16/l401.exe)
 ExpMin= 1.13D-02 ExpMax= 5.18D+04 ExpMxC= 7.78D+03 IAcc=3 IRadAn=         5 AccDes= 0.00D+00
 Harris functional with IExCor=  402 and IRadAn=       5 diagonalized for initial guess.
 HarFok:  IExCor=  402 AccDes= 0.00D+00 IRadAn=         5 IDoV= 1 UseB2=F ITyADJ=14
 ICtDFT=  3500011 ScaDFX=  1.000000  1.000000  1.000000  1.000000
 FoFCou: FMM=F IPFlag=           0 FMFlag=      100000 FMFlg1=           0
         NFxFlg=           0 DoJE=T BraDBF=F KetDBF=T FulRan=T
         wScrn=  0.000000 ICntrl=       500 IOpCl=  0 I1Cent=   200000004 NGrid=           0
         NMat0=    1 NMatS0=      1 NMatT0=    0 NMatD0=    1 NMtDS0=    0 NMtDT0=    0
 Petite list used in FoFCou.
 Harris En= -1502.64341097791    
 JPrj=0 DoOrth=F DoCkMO=F.
 Initial guess <Sx>= 0.0000 <Sy>= 0.0000 <Sz>= 1.5000 <S**2>= 3.7500 S= 1.5000
 Leave Link  401 at Thu May 23 12:33:34 2024, MaxMem= 26843545600 cpu:              37.8 elap:               0.5
 (Enter /gpfs/fs1/soft/improv/software/custom-built/gaussian/g16/l502.exe)
 Integral symmetry usage will be decided dynamically.
 UHF open shell SCF:
 Using DIIS extrapolation, IDIIS=  1040.
 NGot= 26843545600 LenX= 26843256607 LenY= 26843135757
 Requested convergence on RMS density matrix=1.00D-08 within  50 cycles.
 Requested convergence on MAX density matrix=1.00D-06.
 Requested convergence on             energy=1.00D-06.
 No special actions if energy rises.
 Fock matrices will be formed incrementally for  20 cycles.

 Cycle   1  Pass 1  IDiag  1:
 FoFJK:  IHMeth= 1 ICntrl=     500 DoSepK=F KAlg= 0 I1Cent=           0 FoldK=F
 IRaf= 990000000 NMat=       1 IRICut=       1 DoRegI=T DoRafI=F ISym2E= 0 IDoP0=0 IntGTp=1.
 FoFCou: FMM=F IPFlag=           0 FMFlag=      100000 FMFlg1=           0
         NFxFlg=           0 DoJE=T BraDBF=F KetDBF=F FulRan=T
         wScrn=  0.000000 ICntrl=       500 IOpCl=  0 I1Cent=           0 NGrid=           0
         NMat0=    1 NMatS0=      1 NMatT0=    0 NMatD0=    1 NMtDS0=    0 NMtDT0=    0
 Symmetry not used in FoFCou.
 E= -1499.84895212898    
 DIIS: error= 5.11D-02 at cycle   1 NSaved=   1.
 NSaved= 1 IEnMin= 1 EnMin= -1499.84895212898     IErMin= 1 ErrMin= 5.11D-02
 ErrMax= 5.11D-02  0.00D+00 EMaxC= 1.00D-01 BMatC= 8.96D+00 BMatP= 8.96D+00
 IDIUse=3 WtCom= 4.89D-01 WtEn= 5.11D-01
 Coeff-Com:  0.100D+01
 Coeff-En:   0.100D+01
 Coeff:      0.100D+01
 Gap=     0.020 Goal=   None    Shift=    0.000
 Gap=     0.244 Goal=   None    Shift=    0.000
 GapD=    0.020 DampG=0.250 DampE=0.250 DampFc=0.1250 IDamp=-1.
 Damping current iteration by 1.25D-01
 RMSDP=6.41D-02 MaxDP=3.56D+00              OVMax= 9.82D-01

 Cycle   2  Pass 1  IDiag  1:
 RMSU=  8.01D-03    CP:  9.93D-01
 E= -1500.67130347262     Delta-E=       -0.822351343631 Rises=F Damp=T
 DIIS: error= 3.12D-02 at cycle   2 NSaved=   2.
 NSaved= 2 IEnMin= 2 EnMin= -1500.67130347262     IErMin= 2 ErrMin= 3.12D-02
 ErrMax= 3.12D-02  0.00D+00 EMaxC= 1.00D-01 BMatC= 1.74D+00 BMatP= 8.96D+00
 IDIUse=3 WtCom= 6.88D-01 WtEn= 3.12D-01
 Coeff-Com: -0.693D+00 0.169D+01
 Coeff-En:   0.000D+00 0.100D+01
 Coeff:     -0.477D+00 0.148D+01
 Gap=    -0.014 Goal=   None    Shift=    0.000
 Gap=     0.007 Goal=   None    Shift=    0.000
 RMSDP=1.65D-02 MaxDP=2.16D+00 DE=-8.22D-01 OVMax= 9.59D-01

 Cycle   3  Pass 1  IDiag  1:
 RMSU=  1.21D-02    CP:  5.69D-01  6.26D-01
 E= -1501.37235754591     Delta-E=       -0.701054073290 Rises=F Damp=F
 DIIS: error= 4.57D-02 at cycle   3 NSaved=   3.
 NSaved= 3 IEnMin= 3 EnMin= -1501.37235754591     IErMin= 2 ErrMin= 3.12D-02
 ErrMax= 4.57D-02  0.00D+00 EMaxC= 1.00D-01 BMatC= 2.52D+00 BMatP= 1.74D+00
 IDIUse=2 WtCom= 0.00D+00 WtEn= 1.00D+00
 EnCoef did   100 forward-backward iterations
 Coeff-En:   0.252D+00 0.389D-02 0.744D+00
 Coeff:      0.252D+00 0.389D-02 0.744D+00
 Gap=     0.149 Goal=   None    Shift=    0.000
 Gap=     0.260 Goal=   None    Shift=    0.000
 RMSDP=3.13D-03 MaxDP=1.26D-01 DE=-7.01D-01 OVMax= 2.28D-01

 Cycle   4  Pass 1  IDiag  1:
 RMSU=  2.62D-03    CP:  5.68D-01  4.14D-01  9.75D-01
 E= -1501.66382195754     Delta-E=       -0.291464411634 Rises=F Damp=F
 DIIS: error= 1.32D-02 at cycle   4 NSaved=   4.
 NSaved= 4 IEnMin= 4 EnMin= -1501.66382195754     IErMin= 4 ErrMin= 1.32D-02
 ErrMax= 1.32D-02  0.00D+00 EMaxC= 1.00D-01 BMatC= 6.97D-01 BMatP= 1.74D+00
 IDIUse=3 WtCom= 8.68D-01 WtEn= 1.32D-01
 Coeff-Com: -0.672D-01 0.159D+00 0.308D+00 0.600D+00
 Coeff-En:   0.000D+00 0.000D+00 0.292D+00 0.708D+00
 Coeff:     -0.583D-01 0.138D+00 0.306D+00 0.614D+00
 Gap=     0.128 Goal=   None    Shift=    0.000
 Gap=     0.224 Goal=   None    Shift=    0.000
 RMSDP=1.45D-03 MaxDP=5.50D-02 DE=-2.91D-01 OVMax= 6.92D-02

 Cycle   5  Pass 1  IDiag  1:
 RMSU=  8.68D-04    CP:  5.70D-01  4.98D-01  9.84D-01  6.41D-01
 E= -1501.76822520752     Delta-E=       -0.104403249980 Rises=F Damp=F
 DIIS: error= 4.67D-03 at cycle   5 NSaved=   5.
 NSaved= 5 IEnMin= 5 EnMin= -1501.76822520752     IErMin= 5 ErrMin= 4.67D-03
 ErrMax= 4.67D-03  0.00D+00 EMaxC= 1.00D-01 BMatC= 8.10D-02 BMatP= 6.97D-01
 IDIUse=3 WtCom= 9.53D-01 WtEn= 4.67D-02
 Coeff-Com: -0.114D+00 0.196D+00 0.117D+00 0.334D+00 0.468D+00
 Coeff-En:   0.000D+00 0.000D+00 0.000D+00 0.000D+00 0.100D+01
 Coeff:     -0.109D+00 0.187D+00 0.112D+00 0.318D+00 0.493D+00
 Gap=     0.147 Goal=   None    Shift=    0.000
 Gap=     0.200 Goal=   None    Shift=    0.000
 RMSDP=5.15D-04 MaxDP=1.99D-02 DE=-1.04D-01 OVMax= 2.36D-02

 Cycle   6  Pass 1  IDiag  1:
 RMSU=  3.99D-04    CP:  5.71D-01  5.11D-01  9.84D-01  6.34D-01  6.43D-01
 E= -1501.78103745753     Delta-E=       -0.012812250013 Rises=F Damp=F
 DIIS: error= 1.40D-03 at cycle   6 NSaved=   6.
 NSaved= 6 IEnMin= 6 EnMin= -1501.78103745753     IErMin= 6 ErrMin= 1.40D-03
 ErrMax= 1.40D-03  0.00D+00 EMaxC= 1.00D-01 BMatC= 8.87D-03 BMatP= 8.10D-02
 IDIUse=3 WtCom= 9.86D-01 WtEn= 1.40D-02
 Coeff-Com: -0.498D-01 0.107D+00 0.119D-01-0.251D-01 0.186D+00 0.770D+00
 Coeff-En:   0.000D+00 0.000D+00 0.000D+00 0.000D+00 0.122D-01 0.988D+00
 Coeff:     -0.491D-01 0.106D+00 0.118D-01-0.248D-01 0.183D+00 0.773D+00
 Gap=     0.151 Goal=   None    Shift=    0.000
 Gap=     0.195 Goal=   None    Shift=    0.000
 RMSDP=2.06D-04 MaxDP=1.03D-02 DE=-1.28D-02 OVMax= 8.29D-03

 Cycle   7  Pass 1  IDiag  1:
 RMSU=  1.09D-04    CP:  5.72D-01  5.26D-01  9.85D-01  6.05D-01  7.56D-01
                    CP:  1.05D+00
 E= -1501.78216916066     Delta-E=       -0.001131703127 Rises=F Damp=F
 DIIS: error= 9.98D-04 at cycle   7 NSaved=   7.
 NSaved= 7 IEnMin= 7 EnMin= -1501.78216916066     IErMin= 7 ErrMin= 9.98D-04
 ErrMax= 9.98D-04  0.00D+00 EMaxC= 1.00D-01 BMatC= 2.06D-03 BMatP= 8.87D-03
 IDIUse=3 WtCom= 9.90D-01 WtEn= 9.98D-03
 Coeff-Com: -0.471D-02 0.120D-01-0.628D-02-0.673D-01 0.304D-01 0.478D+00
 Coeff-Com:  0.558D+00
 Coeff-En:   0.000D+00 0.000D+00 0.000D+00 0.000D+00 0.000D+00 0.588D-01
 Coeff-En:   0.941D+00
 Coeff:     -0.466D-02 0.119D-01-0.622D-02-0.666D-01 0.301D-01 0.474D+00
 Coeff:      0.562D+00
 Gap=     0.149 Goal=   None    Shift=    0.000
 Gap=     0.196 Goal=   None    Shift=    0.000
 RMSDP=1.13D-04 MaxDP=6.89D-03 DE=-1.13D-03 OVMax= 4.15D-03

 Cycle   8  Pass 1  IDiag  1:
 RMSU=  6.91D-05    CP:  5.72D-01  5.29D-01  9.84D-01  6.09D-01  8.31D-01
                    CP:  1.12D+00  5.87D-01
 E= -1501.78250312928     Delta-E=       -0.000333968623 Rises=F Damp=F
 DIIS: error= 2.18D-04 at cycle   8 NSaved=   8.
 NSaved= 8 IEnMin= 8 EnMin= -1501.78250312928     IErMin= 8 ErrMin= 2.18D-04
 ErrMax= 2.18D-04  0.00D+00 EMaxC= 1.00D-01 BMatC= 1.84D-04 BMatP= 2.06D-03
 IDIUse=3 WtCom= 9.98D-01 WtEn= 2.18D-03
 Coeff-Com:  0.499D-03 0.159D-03-0.164D-02-0.260D-01-0.131D-01 0.974D-01
 Coeff-Com:  0.259D+00 0.684D+00
 Coeff-En:   0.000D+00 0.000D+00 0.000D+00 0.000D+00 0.000D+00 0.000D+00
 Coeff-En:   0.000D+00 0.100D+01
 Coeff:      0.498D-03 0.159D-03-0.163D-02-0.260D-01-0.131D-01 0.972D-01
 Coeff:      0.259D+00 0.684D+00
 Gap=     0.149 Goal=   None    Shift=    0.000
 Gap=     0.196 Goal=   None    Shift=    0.000
 RMSDP=3.35D-05 MaxDP=2.18D-03 DE=-3.34D-04 OVMax= 1.32D-03

 Cycle   9  Pass 1  IDiag  1:
 RMSU=  2.48D-05    CP:  5.72D-01  5.28D-01  9.84D-01  6.06D-01  8.23D-01
                    CP:  1.14D+00  6.64D-01  7.95D-01
 E= -1501.78253535311     Delta-E=       -0.000032223831 Rises=F Damp=F
 DIIS: error= 8.00D-05 at cycle   9 NSaved=   9.
 NSaved= 9 IEnMin= 9 EnMin= -1501.78253535311     IErMin= 9 ErrMin= 8.00D-05
 ErrMax= 8.00D-05  0.00D+00 EMaxC= 1.00D-01 BMatC= 2.56D-05 BMatP= 1.84D-04
 IDIUse=1 WtCom= 1.00D+00 WtEn= 0.00D+00
 Coeff-Com: -0.207D-03 0.132D-02-0.242D-03-0.967D-02-0.881D-02 0.189D-01
 Coeff-Com:  0.100D+00 0.392D+00 0.507D+00
 Coeff:     -0.207D-03 0.132D-02-0.242D-03-0.967D-02-0.881D-02 0.189D-01
 Coeff:      0.100D+00 0.392D+00 0.507D+00
 Gap=     0.149 Goal=   None    Shift=    0.000
 Gap=     0.196 Goal=   None    Shift=    0.000
 RMSDP=9.52D-06 MaxDP=3.97D-04 DE=-3.22D-05 OVMax= 4.65D-04

 Cycle  10  Pass 1  IDiag  1:
 RMSU=  8.09D-06    CP:  5.72D-01  5.28D-01  9.84D-01  6.05D-01  8.21D-01
                    CP:  1.15D+00  6.63D-01  7.93D-01  9.06D-01
 E= -1501.78253911187     Delta-E=       -0.000003758755 Rises=F Damp=F
 DIIS: error= 3.21D-05 at cycle  10 NSaved=  10.
 NSaved=10 IEnMin=10 EnMin= -1501.78253911187     IErMin=10 ErrMin= 3.21D-05
 ErrMax= 3.21D-05  0.00D+00 EMaxC= 1.00D-01 BMatC= 3.89D-06 BMatP= 2.56D-05
 IDIUse=1 WtCom= 1.00D+00 WtEn= 0.00D+00
 Coeff-Com:  0.295D-03-0.572D-03 0.226D-04-0.855D-03-0.324D-02-0.830D-02
 Coeff-Com:  0.126D-01 0.110D+00 0.305D+00 0.585D+00
 Coeff:      0.295D-03-0.572D-03 0.226D-04-0.855D-03-0.324D-02-0.830D-02
 Coeff:      0.126D-01 0.110D+00 0.305D+00 0.585D+00
 Gap=     0.149 Goal=   None    Shift=    0.000
 Gap=     0.196 Goal=   None    Shift=    0.000
 RMSDP=5.01D-06 MaxDP=2.54D-04 DE=-3.76D-06 OVMax= 1.54D-04

 Cycle  11  Pass 1  IDiag  1:
 RMSU=  2.50D-06    CP:  5.72D-01  5.28D-01  9.84D-01  6.05D-01  8.25D-01
                    CP:  1.15D+00  6.69D-01  8.15D-01  9.06D-01  7.18D-01
 E= -1501.78253985897     Delta-E=       -0.000000747099 Rises=F Damp=F
 DIIS: error= 8.36D-06 at cycle  11 NSaved=  11.
 NSaved=11 IEnMin=11 EnMin= -1501.78253985897     IErMin=11 ErrMin= 8.36D-06
 ErrMax= 8.36D-06  0.00D+00 EMaxC= 1.00D-01 BMatC= 1.59D-07 BMatP= 3.89D-06
 IDIUse=1 WtCom= 1.00D+00 WtEn= 0.00D+00
 Coeff-Com:  0.567D-04-0.120D-03-0.299D-04 0.307D-03 0.130D-03-0.204D-02
 Coeff-Com: -0.196D-02 0.680D-02 0.595D-01 0.193D+00 0.744D+00
 Coeff:      0.567D-04-0.120D-03-0.299D-04 0.307D-03 0.130D-03-0.204D-02
 Coeff:     -0.196D-02 0.680D-02 0.595D-01 0.193D+00 0.744D+00
 Gap=     0.149 Goal=   None    Shift=    0.000
 Gap=     0.196 Goal=   None    Shift=    0.000
 RMSDP=1.08D-06 MaxDP=5.00D-05 DE=-7.47D-07 OVMax= 3.11D-05

 Cycle  12  Pass 1  IDiag  1:
 RMSU=  6.38D-07    CP:  5.72D-01  5.28D-01  9.84D-01  6.06D-01  8.24D-01
                    CP:  1.15D+00  6.68D-01  8.14D-01  9.16D-01  7.57D-01
                    CP:  9.04D-01
 E= -1501.78253988177     Delta-E=       -0.000000022802 Rises=F Damp=F
 DIIS: error= 1.99D-06 at cycle  12 NSaved=  12.
 NSaved=12 IEnMin=12 EnMin= -1501.78253988177     IErMin=12 ErrMin= 1.99D-06
 ErrMax= 1.99D-06  0.00D+00 EMaxC= 1.00D-01 BMatC= 2.31D-08 BMatP= 1.59D-07
 IDIUse=1 WtCom= 1.00D+00 WtEn= 0.00D+00
 Coeff-Com: -0.462D-05 0.474D-05-0.249D-04 0.246D-03 0.505D-03 0.217D-03
 Coeff-Com: -0.219D-02-0.875D-02-0.336D-02 0.341D-01 0.361D+00 0.618D+00
 Coeff:     -0.462D-05 0.474D-05-0.249D-04 0.246D-03 0.505D-03 0.217D-03
 Coeff:     -0.219D-02-0.875D-02-0.336D-02 0.341D-01 0.361D+00 0.618D+00
 Gap=     0.149 Goal=   None    Shift=    0.000
 Gap=     0.196 Goal=   None    Shift=    0.000
 RMSDP=4.16D-07 MaxDP=1.84D-05 DE=-2.28D-08 OVMax= 1.81D-05

 Cycle  13  Pass 1  IDiag  1:
 RMSU=  2.26D-07    CP:  5.72D-01  5.28D-01  9.84D-01  6.06D-01  8.24D-01
                    CP:  1.15D+00  6.68D-01  8.12D-01  9.20D-01  7.65D-01
                    CP:  9.46D-01  7.60D-01
 E= -1501.78253988437     Delta-E=       -0.000000002601 Rises=F Damp=F
 DIIS: error= 1.51D-06 at cycle  13 NSaved=  13.
 NSaved=13 IEnMin=13 EnMin= -1501.78253988437     IErMin=13 ErrMin= 1.51D-06
 ErrMax= 1.51D-06  0.00D+00 EMaxC= 1.00D-01 BMatC= 7.49D-09 BMatP= 2.31D-08
 IDIUse=1 WtCom= 1.00D+00 WtEn= 0.00D+00
 Coeff-Com: -0.996D-05 0.172D-04-0.125D-04 0.121D-03 0.316D-03 0.449D-03
 Coeff-Com: -0.116D-02-0.671D-02-0.104D-01-0.497D-02 0.133D+00 0.421D+00
 Coeff-Com:  0.468D+00
 Coeff:     -0.996D-05 0.172D-04-0.125D-04 0.121D-03 0.316D-03 0.449D-03
 Coeff:     -0.116D-02-0.671D-02-0.104D-01-0.497D-02 0.133D+00 0.421D+00
 Coeff:      0.468D+00
 Gap=     0.149 Goal=   None    Shift=    0.000
 Gap=     0.196 Goal=   None    Shift=    0.000
 RMSDP=1.28D-07 MaxDP=7.40D-06 DE=-2.60D-09 OVMax= 8.30D-06

 Cycle  14  Pass 1  IDiag  1:
 RMSU=  7.57D-08    CP:  5.72D-01  5.28D-01  9.84D-01  6.06D-01  8.24D-01
                    CP:  1.15D+00  6.68D-01  8.12D-01  9.21D-01  7.67D-01
                    CP:  9.52D-01  7.99D-01  6.02D-01
 E= -1501.78253988564     Delta-E=       -0.000000001271 Rises=F Damp=F
 DIIS: error= 2.67D-07 at cycle  14 NSaved=  14.
 NSaved=14 IEnMin=14 EnMin= -1501.78253988564     IErMin=14 ErrMin= 2.67D-07
 ErrMax= 2.67D-07  0.00D+00 EMaxC= 1.00D-01 BMatC= 2.55D-10 BMatP= 7.49D-09
 IDIUse=1 WtCom= 1.00D+00 WtEn= 0.00D+00
 Coeff-Com: -0.255D-05 0.526D-05-0.101D-08 0.329D-05 0.130D-04 0.706D-04
 Coeff-Com: -0.751D-04-0.753D-03-0.243D-02-0.623D-02-0.508D-02 0.555D-01
 Coeff-Com:  0.168D+00 0.791D+00
 Coeff:     -0.255D-05 0.526D-05-0.101D-08 0.329D-05 0.130D-04 0.706D-04
 Coeff:     -0.751D-04-0.753D-03-0.243D-02-0.623D-02-0.508D-02 0.555D-01
 Coeff:      0.168D+00 0.791D+00
 Gap=     0.149 Goal=   None    Shift=    0.000
 Gap=     0.196 Goal=   None    Shift=    0.000
 RMSDP=4.94D-08 MaxDP=2.50D-06 DE=-1.27D-09 OVMax= 1.19D-06

 Cycle  15  Pass 1  IDiag  1:
 RMSU=  2.50D-08    CP:  5.72D-01  5.28D-01  9.84D-01  6.06D-01  8.24D-01
                    CP:  1.15D+00  6.68D-01  8.12D-01  9.20D-01  7.65D-01
                    CP:  9.50D-01  8.07D-01  6.31D-01  8.17D-01
 E= -1501.78253988572     Delta-E=       -0.000000000082 Rises=F Damp=F
 DIIS: error= 6.79D-08 at cycle  15 NSaved=  15.
 NSaved=15 IEnMin=15 EnMin= -1501.78253988572     IErMin=15 ErrMin= 6.79D-08
 ErrMax= 6.79D-08  0.00D+00 EMaxC= 1.00D-01 BMatC= 2.17D-11 BMatP= 2.55D-10
 IDIUse=1 WtCom= 1.00D+00 WtEn= 0.00D+00
 Coeff-Com: -0.254D-06 0.411D-06 0.107D-05-0.525D-05-0.166D-04-0.136D-04
 Coeff-Com:  0.298D-04 0.115D-03-0.336D-03-0.207D-02-0.929D-02-0.283D-02
 Coeff-Com:  0.349D-01 0.284D+00 0.696D+00
 Coeff:     -0.254D-06 0.411D-06 0.107D-05-0.525D-05-0.166D-04-0.136D-04
 Coeff:      0.298D-04 0.115D-03-0.336D-03-0.207D-02-0.929D-02-0.283D-02
 Coeff:      0.349D-01 0.284D+00 0.696D+00
 Gap=     0.149 Goal=   None    Shift=    0.000
 Gap=     0.196 Goal=   None    Shift=    0.000
 RMSDP=1.15D-08 MaxDP=4.85D-07 DE=-8.19D-11 OVMax= 5.84D-07

 Cycle  16  Pass 1  IDiag  1:
 RMSU=  8.60D-09    CP:  5.72D-01  5.28D-01  9.84D-01  6.06D-01  8.24D-01
                    CP:  1.15D+00  6.68D-01  8.13D-01  9.20D-01  7.65D-01
                    CP:  9.51D-01  8.05D-01  6.34D-01  8.59D-01  8.44D-01
 E= -1501.78253988570     Delta-E=        0.000000000021 Rises=F Damp=F
 DIIS: error= 5.36D-08 at cycle  16 NSaved=  16.
 NSaved=16 IEnMin=15 EnMin= -1501.78253988572     IErMin=16 ErrMin= 5.36D-08
 ErrMax= 5.36D-08  0.00D+00 EMaxC= 1.00D-01 BMatC= 9.03D-12 BMatP= 2.17D-11
 IDIUse=1 WtCom= 1.00D+00 WtEn= 0.00D+00
 Coeff-Com: -0.595D-07 0.138D-06 0.725D-06-0.387D-05-0.116D-04-0.150D-04
 Coeff-Com:  0.266D-04 0.146D-03 0.392D-06-0.712D-03-0.519D-02-0.703D-02
 Coeff-Com:  0.447D-02 0.930D-01 0.460D+00 0.456D+00
 Coeff:     -0.595D-07 0.138D-06 0.725D-06-0.387D-05-0.116D-04-0.150D-04
 Coeff:      0.266D-04 0.146D-03 0.392D-06-0.712D-03-0.519D-02-0.703D-02
 Coeff:      0.447D-02 0.930D-01 0.460D+00 0.456D+00
 Gap=     0.149 Goal=   None    Shift=    0.000
 Gap=     0.196 Goal=   None    Shift=    0.000
 RMSDP=4.97D-09 MaxDP=2.82D-07 DE= 2.09D-11 OVMax= 2.76D-07

 SCF Done:  E(UB-LYP) =  -1501.78253989     A.U. after   16 cycles
            NFock= 16  Conv=0.50D-08     -V/T= 2.0015
 <Sx>= 0.0000 <Sy>= 0.0000 <Sz>= 1.5000 <S**2>= 3.7568 S= 1.5017
 <L.S>=  0.00000000000    
 KE= 1.499460506999D+03 PE=-4.980194531736D+03 EE= 1.244563933691D+03
 Annihilation of the first spin contaminant:
 S**2 before annihilation     3.7568,   after     3.7500
 Leave Link  502 at Thu May 23 12:34:30 2024, MaxMem= 26843545600 cpu:            6659.1 elap:              55.3
 (Enter /gpfs/fs1/soft/improv/software/custom-built/gaussian/g16/l508.exe)
 QCSCF skips out because SCF is already converged.
 Leave Link  508 at Thu May 23 12:34:30 2024, MaxMem= 26843545600 cpu:               0.2 elap:               0.0
 (Enter /gpfs/fs1/soft/improv/software/custom-built/gaussian/g16/l801.exe)
 DoSCS=F DFT=T ScalE2(SS,OS)=  1.000000  1.000000
 Range of M.O.s used for correlation:     1   317
 NBasis=   317 NAE=    42 NBE=    39 NFC=     0 NFV=     0
 NROrb=    317 NOA=    42 NOB=    39 NVA=   275 NVB=   278

 **** Warning!!: The largest alpha MO coefficient is  0.55007158D+02


 **** Warning!!: The largest beta MO coefficient is  0.57070109D+02

 Leave Link  801 at Thu May 23 12:34:30 2024, MaxMem= 26843545600 cpu:               0.4 elap:               0.0
 (Enter /gpfs/fs1/soft/improv/software/custom-built/gaussian/g16/l1101.exe)
 Using compressed storage, NAtomX=    19.
 Will process     20 centers per pass.
 R6Disp: Adding Grimme-D3 dispersion energy 1st derivatives to the gradient.
 Leave Link 1101 at Thu May 23 12:34:31 2024, MaxMem= 26843545600 cpu:              50.7 elap:               0.5
 (Enter /gpfs/fs1/soft/improv/software/custom-built/gaussian/g16/l1102.exe)
 Symmetrizing basis deriv contribution to polar:
 IMax=3 JMax=2 DiffMx= 0.00D+00
 Leave Link 1102 at Thu May 23 12:34:31 2024, MaxMem= 26843545600 cpu:               0.9 elap:               0.0
 (Enter /gpfs/fs1/soft/improv/software/custom-built/gaussian/g16/l1110.exe)
 Forming Gx(P) for the SCF density, NAtomX=    19.
 Integral derivatives from FoFJK, PRISM(SPDF).
 Do as many integral derivatives as possible in FoFJK.
 G2DrvN: MDV=   26843543431.
 G2DrvN: will do    20 centers at a time, making    1 passes.
 Calling FoFCou, ICntrl=  3507 FMM=F I1Cent=   0 AccDes= 0.00D+00.
 FoFJK:  IHMeth= 1 ICntrl=    3507 DoSepK=F KAlg= 0 I1Cent=           0 FoldK=F
 IRaf=         0 NMat=       1 IRICut=       1 DoRegI=T DoRafI=F ISym2E= 0 IDoP0=0 IntGTp=1.
 FoFCou: FMM=F IPFlag=           0 FMFlag=      100000 FMFlg1=           0
         NFxFlg=           0 DoJE=F BraDBF=F KetDBF=F FulRan=T
         wScrn=  0.000000 ICntrl=      3507 IOpCl=  0 I1Cent=           0 NGrid=           0
         NMat0=    1 NMatS0=      1 NMatT0=    0 NMatD0=    1 NMtDS0=    0 NMtDT0=    0
 Symmetry not used in FoFCou.
 End of G2Drv F.D. properties file   721 does not exist.
 End of G2Drv F.D. properties file   722 does not exist.
 End of G2Drv F.D. properties file   788 does not exist.
 Leave Link 1110 at Thu May 23 12:34:45 2024, MaxMem= 26843545600 cpu:            1772.1 elap:              14.1
 (Enter /gpfs/fs1/soft/improv/software/custom-built/gaussian/g16/l1002.exe)
 Minotr:  UHF open shell wavefunction.
          IDoAtm=1111111111111111111
          Direct CPHF calculation.
          Differentiating once with respect to electric field.
                with respect to dipole field.
          Differentiating once with respect to nuclear coordinates.
          Requested convergence is 1.0D-08 RMS, and 1.0D-07 maximum.
          Secondary convergence is 1.0D-12 RMS, and 1.0D-12 maximum.
          NewPWx=T KeepS1=F KeepF1=F KeepIn=T MapXYZ=F SortEE=F KeepMc=T.
         6034 words used for storage of precomputed grid.
 Two-electron integrals replicated using symmetry.
          MDV=   26843545600 using IRadAn=       1.
          Solving linear equations simultaneously, MaxMat=     384.
 FoF2E skips out because all densities are zero.
 CalDSu exits because no D1Ps are significant.
 FoFJK:  IHMeth= 1 ICntrl=     500 DoSepK=F KAlg= 0 I1Cent=           0 FoldK=F
 IRaf= 990000000 NMat=      57 IRICut=       1 DoRegI=T DoRafI=F ISym2E= 2 IDoP0=3 IntGTp=2.
 FoFCou: FMM=F IPFlag=           0 FMFlag=      100000 FMFlg1=           0
         NFxFlg=           0 DoJE=F BraDBF=F KetDBF=F FulRan=T
         wScrn=  0.000000 ICntrl=       500 IOpCl=  0 I1Cent=           0 NGrid=           0
         NMat0=   57 NMatS0=     57 NMatT0=    0 NMatD0=   57 NMtDS0=    0 NMtDT0=    0
 Integrals replicated using symmetry in FoFCou.
          There are    60 degrees of freedom in the 1st order CPHF.  IDoFFX=6 NUNeed=     3.
     57 vectors produced by pass  0 Test12= 3.73D-14 1.67D-09 XBig12= 9.17D+01 2.25D+00.
 AX will form    57 AO Fock derivatives at one time.
     57 vectors produced by pass  1 Test12= 3.73D-14 1.67D-09 XBig12= 1.37D+01 4.11D-01.
     57 vectors produced by pass  2 Test12= 3.73D-14 1.67D-09 XBig12= 1.23D-01 3.49D-02.
     57 vectors produced by pass  3 Test12= 3.73D-14 1.67D-09 XBig12= 5.27D-04 2.84D-03.
     57 vectors produced by pass  4 Test12= 3.73D-14 1.67D-09 XBig12= 2.25D-06 2.46D-04.
     53 vectors produced by pass  5 Test12= 3.73D-14 1.67D-09 XBig12= 4.49D-09 5.56D-06.
     20 vectors produced by pass  6 Test12= 3.73D-14 1.67D-09 XBig12= 4.94D-12 2.25D-07.
      3 vectors produced by pass  7 Test12= 3.73D-14 1.67D-09 XBig12= 8.60D-15 9.56D-09.
 InvSVY:  IOpt=1 It=  1 EMax= 8.88D-15
 Solved reduced A of dimension   361 with    60 vectors.
 FullF1:  Do perturbations      1 to       3.
 Isotropic polarizability for W=    0.000000       53.07 Bohr**3.
 End of Minotr F.D. properties file   721 does not exist.
 End of Minotr F.D. properties file   722 does not exist.
 End of Minotr F.D. properties file   788 does not exist.
 Leave Link 1002 at Thu May 23 12:35:28 2024, MaxMem= 26843545600 cpu:            5104.0 elap:              42.7
 (Enter /gpfs/fs1/soft/improv/software/custom-built/gaussian/g16/l601.exe)
 Copying SCF densities to generalized density rwf, IOpCl= 1 IROHF=0.

 **********************************************************************

            Population analysis using the SCF Density.

 **********************************************************************

 Orbital symmetries:
 Alpha Orbitals:
       Occupied  (A) (A) (A) (A) (A) (A) (A) (A) (A) (A) (A) (A)
                 (A) (A) (A) (A) (A) (A) (A) (A) (A) (A) (A) (A)
                 (A) (A) (A) (A) (A) (A) (A) (A) (A) (A) (A) (A)
                 (A) (A) (A) (A) (A) (A)
       Virtual   (A) (A) (A) (A) (A) (A) (A) (A) (A) (A) (A) (A)
                 (A) (A) (A) (A) (A) (A) (A) (A) (A) (A) (A) (A)
                 (A) (A) (A) (A) (A) (A) (A) (A) (A) (A) (A) (A)
                 (A) (A) (A) (A) (A) (A) (A) (A) (A) (A) (A) (A)
                 (A) (A) (A) (A) (A) (A) (A) (A) (A) (A) (A) (A)
                 (A) (A) (A) (A) (A) (A) (A) (A) (A) (A) (A) (A)
                 (A) (A) (A) (A) (A) (A) (A) (A) (A) (A) (A) (A)
                 (A) (A) (A) (A) (A) (A) (A) (A) (A) (A) (A) (A)
                 (A) (A) (A) (A) (A) (A) (A) (A) (A) (A) (A) (A)
                 (A) (A) (A) (A) (A) (A) (A) (A) (A) (A) (A) (A)
                 (A) (A) (A) (A) (A) (A) (A) (A) (A) (A) (A) (A)
                 (A) (A) (A) (A) (A) (A) (A) (A) (A) (A) (A) (A)
                 (A) (A) (A) (A) (A) (A) (A) (A) (A) (A) (A) (A)
                 (A) (A) (A) (A) (A) (A) (A) (A) (A) (A) (A) (A)
                 (A) (A) (A) (A) (A) (A) (A) (A) (A) (A) (A) (A)
                 (A) (A) (A) (A) (A) (A) (A) (A) (A) (A) (A) (A)
                 (A) (A) (A) (A) (A) (A) (A) (A) (A) (A) (A) (A)
                 (A) (A) (A) (A) (A) (A) (A) (A) (A) (A) (A) (A)
                 (A) (A) (A) (A) (A) (A) (A) (A) (A) (A) (A) (A)
                 (A) (A) (A) (A) (A) (A) (A) (A) (A) (A) (A) (A)
                 (A) (A) (A) (A) (A) (A) (A) (A) (A) (A) (A) (A)
                 (A) (A) (A) (A) (A) (A) (A) (A) (A) (A) (A) (A)
                 (A) (A) (A) (A) (A) (A) (A) (A) (A) (A) (A)
 Beta  Orbitals:
       Occupied  (A) (A) (A) (A) (A) (A) (A) (A) (A) (A) (A) (A)
                 (A) (A) (A) (A) (A) (A) (A) (A) (A) (A) (A) (A)
                 (A) (A) (A) (A) (A) (A) (A) (A) (A) (A) (A) (A)
                 (A) (A) (A)
       Virtual   (A) (A) (A) (A) (A) (A) (A) (A) (A) (A) (A) (A)
                 (A) (A) (A) (A) (A) (A) (A) (A) (A) (A) (A) (A)
                 (A) (A) (A) (A) (A) (A) (A) (A) (A) (A) (A) (A)
                 (A) (A) (A) (A) (A) (A) (A) (A) (A) (A) (A) (A)
                 (A) (A) (A) (A) (A) (A) (A) (A) (A) (A) (A) (A)
                 (A) (A) (A) (A) (A) (A) (A) (A) (A) (A) (A) (A)
                 (A) (A) (A) (A) (A) (A) (A) (A) (A) (A) (A) (A)
                 (A) (A) (A) (A) (A) (A) (A) (A) (A) (A) (A) (A)
                 (A) (A) (A) (A) (A) (A) (A) (A) (A) (A) (A) (A)
                 (A) (A) (A) (A) (A) (A) (A) (A) (A) (A) (A) (A)
                 (A) (A) (A) (A) (A) (A) (A) (A) (A) (A) (A) (A)
                 (A) (A) (A) (A) (A) (A) (A) (A) (A) (A) (A) (A)
                 (A) (A) (A) (A) (A) (A) (A) (A) (A) (A) (A) (A)
                 (A) (A) (A) (A) (A) (A) (A) (A) (A) (A) (A) (A)
                 (A) (A) (A) (A) (A) (A) (A) (A) (A) (A) (A) (A)
                 (A) (A) (A) (A) (A) (A) (A) (A) (A) (A) (A) (A)
                 (A) (A) (A) (A) (A) (A) (A) (A) (A) (A) (A) (A)
                 (A) (A) (A) (A) (A) (A) (A) (A) (A) (A) (A) (A)
                 (A) (A) (A) (A) (A) (A) (A) (A) (A) (A) (A) (A)
                 (A) (A) (A) (A) (A) (A) (A) (A) (A) (A) (A) (A)
                 (A) (A) (A) (A) (A) (A) (A) (A) (A) (A) (A) (A)
                 (A) (A) (A) (A) (A) (A) (A) (A) (A) (A) (A) (A)
                 (A) (A) (A) (A) (A) (A) (A) (A) (A) (A) (A) (A)
                 (A) (A)
 The electronic state is 4-A.
 Alpha  occ. eigenvalues -- -215.13644 -24.88431 -21.25739 -21.25664 -21.25616
 Alpha  occ. eigenvalues --  -19.42705 -19.42657 -19.41823 -19.41497 -19.39467
 Alpha  occ. eigenvalues --  -19.38745  -3.35877  -2.35544  -2.35284  -2.35079
 Alpha  occ. eigenvalues --   -1.57642  -1.55432  -1.54925  -1.54279  -1.52442
 Alpha  occ. eigenvalues --   -1.51662  -1.13713  -1.12225  -1.10530  -1.09796
 Alpha  occ. eigenvalues --   -1.07979  -1.06721  -1.02258  -1.01496  -1.00918
 Alpha  occ. eigenvalues --   -0.97668  -0.97045  -0.94840  -0.93905  -0.90877
 Alpha  occ. eigenvalues --   -0.89809  -0.88457  -0.86871  -0.85455  -0.76051
 Alpha  occ. eigenvalues --   -0.75209  -0.73627
 Alpha virt. eigenvalues --   -0.58720  -0.58527  -0.58304  -0.52726  -0.50568
 Alpha virt. eigenvalues --   -0.49286  -0.46145  -0.45047  -0.43546  -0.43098
 Alpha virt. eigenvalues --   -0.40616  -0.38842  -0.38518  -0.37245  -0.34314
 Alpha virt. eigenvalues --   -0.33457  -0.32453  -0.30866  -0.30153  -0.29872
 Alpha virt. eigenvalues --   -0.29269  -0.29037  -0.27179  -0.26912  -0.26391
 Alpha virt. eigenvalues --   -0.25705  -0.24068  -0.23666  -0.22944  -0.21400
 Alpha virt. eigenvalues --   -0.21128  -0.20640  -0.19342  -0.18507  -0.17435
 Alpha virt. eigenvalues --   -0.17025  -0.16589  -0.15417  -0.14599  -0.13994
 Alpha virt. eigenvalues --   -0.13656  -0.11997  -0.10672  -0.10129  -0.09246
 Alpha virt. eigenvalues --   -0.08149  -0.07742  -0.06814  -0.03665  -0.02981
 Alpha virt. eigenvalues --   -0.01342   0.03707   0.04115   0.04801   0.05949
 Alpha virt. eigenvalues --    0.17600   0.18403   0.19853   0.22880   0.24826
 Alpha virt. eigenvalues --    0.25267   0.25748   0.28363   0.29187   0.29628
 Alpha virt. eigenvalues --    0.29889   0.31023   0.33648   0.34640   0.34945
 Alpha virt. eigenvalues --    0.37130   0.37274   0.38326   0.39447   0.40305
 Alpha virt. eigenvalues --    0.42343   0.45020   0.46908   0.47272   0.48425
 Alpha virt. eigenvalues --    0.49328   0.49943   0.50444   0.52042   0.53154
 Alpha virt. eigenvalues --    0.54218   0.55911   0.57767   0.58051   0.61083
 Alpha virt. eigenvalues --    0.61360   0.63813   0.66817   0.67289   0.70739
 Alpha virt. eigenvalues --    0.71265   0.73767   0.74307   0.78089   0.78609
 Alpha virt. eigenvalues --    0.79037   0.82716   0.83484   0.84434   0.85775
 Alpha virt. eigenvalues --    0.94769   0.96741   1.01540   1.04299   1.05917
 Alpha virt. eigenvalues --    1.10412   1.12267   1.13466   1.15742   1.16484
 Alpha virt. eigenvalues --    1.16979   1.19051   1.23667   1.25431   1.28257
 Alpha virt. eigenvalues --    1.31241   1.34416   1.38774   1.42973   1.47251
 Alpha virt. eigenvalues --    1.61665   1.63166   1.64476   1.65916   1.68644
 Alpha virt. eigenvalues --    1.69864   1.71227   1.72019   1.75225   1.78298
 Alpha virt. eigenvalues --    1.80549   1.84409   1.89927   1.92821   1.96348
 Alpha virt. eigenvalues --    1.99811   2.01127   2.03746   2.11476   2.14496
 Alpha virt. eigenvalues --    2.14875   2.17402   2.20102   2.21225   2.25926
 Alpha virt. eigenvalues --    2.26981   2.29426   2.30870   2.32557   2.33472
 Alpha virt. eigenvalues --    2.35042   2.36667   2.38382   2.39909   2.42360
 Alpha virt. eigenvalues --    2.43611   2.44254   2.47906   2.48949   2.49967
 Alpha virt. eigenvalues --    2.51891   2.53792   2.61095   2.63352   2.65354
 Alpha virt. eigenvalues --    2.72575   2.74024   2.80244   3.00755   3.02762
 Alpha virt. eigenvalues --    3.05944   3.08308   3.08721   3.10849   3.14717
 Alpha virt. eigenvalues --    3.27768   3.33319   3.40121   3.43535   3.44705
 Alpha virt. eigenvalues --    3.50725   3.52929   3.55364   3.56545   3.58153
 Alpha virt. eigenvalues --    3.59000   3.59851   3.62085   3.64542   3.69336
 Alpha virt. eigenvalues --    3.71489   3.78038   3.78650   3.80949   3.82817
 Alpha virt. eigenvalues --    3.86727   3.88202   3.90860   3.94905   3.97347
 Alpha virt. eigenvalues --    3.99404   4.04080   4.06742   4.07441   4.09100
 Alpha virt. eigenvalues --    4.12324   4.14025   4.23227   4.25293   4.26681
 Alpha virt. eigenvalues --    4.29102   4.29987   4.31280   4.38393   4.46237
 Alpha virt. eigenvalues --    4.50395   4.55762   4.57875   4.60179   4.63818
 Alpha virt. eigenvalues --    4.66318   4.74848   4.76354   4.77386   4.78675
 Alpha virt. eigenvalues --    4.79078   4.80042   4.81136   4.84415   4.84873
 Alpha virt. eigenvalues --    4.87536   4.94091   4.95047   4.95457   4.98849
 Alpha virt. eigenvalues --    5.00397   5.00966   5.02496   5.07174   5.09506
 Alpha virt. eigenvalues --    5.12116   5.13774   5.15129   5.16508   5.19420
 Alpha virt. eigenvalues --    5.20713   5.22438   5.24120   5.27410   5.27590
 Alpha virt. eigenvalues --    5.28949   5.29832   5.32272   5.33112   5.57021
 Alpha virt. eigenvalues --    5.58078   6.22298   6.78519   6.81197   6.82090
 Alpha virt. eigenvalues --    6.91005   6.94920   7.08246  13.06532  13.08701
 Alpha virt. eigenvalues --   13.09000  13.60330  13.67638  13.75954  32.32218
  Beta  occ. eigenvalues -- -215.13614 -24.84647 -21.22862 -21.22768 -21.22698
  Beta  occ. eigenvalues --  -19.42696 -19.42645 -19.41807 -19.41476 -19.39426
  Beta  occ. eigenvalues --  -19.38707  -3.25408  -2.25495  -2.25211  -2.24954
  Beta  occ. eigenvalues --   -1.57482  -1.55305  -1.54800  -1.54111  -1.52256
  Beta  occ. eigenvalues --   -1.51483  -1.13394  -1.11912  -1.10348  -1.09600
  Beta  occ. eigenvalues --   -1.07742  -1.06543  -1.01790  -1.00855  -1.00197
  Beta  occ. eigenvalues --   -0.97024  -0.96729  -0.94470  -0.93322  -0.90374
  Beta  occ. eigenvalues --   -0.89274  -0.88001  -0.86263  -0.85069
  Beta virt. eigenvalues --   -0.65489  -0.64846  -0.63520  -0.58138  -0.54556
  Beta virt. eigenvalues --   -0.54363  -0.52594  -0.50388  -0.49156  -0.45848
  Beta virt. eigenvalues --   -0.44736  -0.43368  -0.42945  -0.40374  -0.38661
  Beta virt. eigenvalues --   -0.38337  -0.36996  -0.34208  -0.33398  -0.32405
  Beta virt. eigenvalues --   -0.30754  -0.30067  -0.29803  -0.29104  -0.28869
  Beta virt. eigenvalues --   -0.27120  -0.26701  -0.26308  -0.25449  -0.23817
  Beta virt. eigenvalues --   -0.23389  -0.22694  -0.21211  -0.20900  -0.20315
  Beta virt. eigenvalues --   -0.19076  -0.17998  -0.17212  -0.16746  -0.16216
  Beta virt. eigenvalues --   -0.15096  -0.14228  -0.13669  -0.13213  -0.11311
  Beta virt. eigenvalues --   -0.10485  -0.09837  -0.08876  -0.07470  -0.07391
  Beta virt. eigenvalues --   -0.06461  -0.03388  -0.01758  -0.00317   0.03986
  Beta virt. eigenvalues --    0.04517   0.05379   0.07042   0.18214   0.18891
  Beta virt. eigenvalues --    0.20445   0.23694   0.25402   0.25734   0.26638
  Beta virt. eigenvalues --    0.29068   0.29414   0.29960   0.30170   0.31410
  Beta virt. eigenvalues --    0.33890   0.35018   0.35290   0.37317   0.37527
  Beta virt. eigenvalues --    0.38536   0.39755   0.40548   0.42656   0.45474
  Beta virt. eigenvalues --    0.47227   0.47590   0.48741   0.49611   0.50184
  Beta virt. eigenvalues --    0.50717   0.52411   0.53487   0.54620   0.56412
  Beta virt. eigenvalues --    0.58131   0.58608   0.61598   0.61710   0.65018
  Beta virt. eigenvalues --    0.67232   0.67660   0.71476   0.71843   0.73971
  Beta virt. eigenvalues --    0.75163   0.78589   0.79232   0.80311   0.83606
  Beta virt. eigenvalues --    0.84221   0.85323   0.86630   0.95532   0.97311
  Beta virt. eigenvalues --    1.02960   1.05882   1.07663   1.13271   1.14644
  Beta virt. eigenvalues --    1.16294   1.18534   1.19191   1.19823   1.20590
  Beta virt. eigenvalues --    1.25926   1.26582   1.29574   1.33229   1.35788
  Beta virt. eigenvalues --    1.39371   1.44344   1.48377   1.62117   1.63660
  Beta virt. eigenvalues --    1.65011   1.66370   1.69148   1.70477   1.71879
  Beta virt. eigenvalues --    1.72747   1.75868   1.78665   1.80908   1.85071
  Beta virt. eigenvalues --    1.90577   1.93418   1.97026   2.00819   2.02110
  Beta virt. eigenvalues --    2.04613   2.12377   2.16121   2.16556   2.18251
  Beta virt. eigenvalues --    2.21491   2.22331   2.26858   2.28084   2.30046
  Beta virt. eigenvalues --    2.31490   2.33212   2.34921   2.35697   2.37917
  Beta virt. eigenvalues --    2.39042   2.40816   2.43386   2.44170   2.45337
  Beta virt. eigenvalues --    2.48914   2.50094   2.51101   2.53032   2.54242
  Beta virt. eigenvalues --    2.61469   2.63949   2.65838   2.74830   2.76166
  Beta virt. eigenvalues --    2.82084   3.04560   3.06523   3.07724   3.13814
  Beta virt. eigenvalues --    3.14737   3.17694   3.19527   3.31838   3.36790
  Beta virt. eigenvalues --    3.40311   3.43749   3.44913   3.51213   3.53259
  Beta virt. eigenvalues --    3.55712   3.57403   3.58690   3.59385   3.60917
  Beta virt. eigenvalues --    3.63113   3.65226   3.69805   3.71838   3.78631
  Beta virt. eigenvalues --    3.79788   3.81603   3.83477   3.87334   3.90248
  Beta virt. eigenvalues --    3.95368   4.00668   4.01679   4.01778   4.05681
  Beta virt. eigenvalues --    4.09305   4.11742   4.12080   4.14535   4.15320
  Beta virt. eigenvalues --    4.25021   4.27346   4.27493   4.30428   4.31031
  Beta virt. eigenvalues --    4.32340   4.40754   4.48541   4.50960   4.56567
  Beta virt. eigenvalues --    4.58708   4.60787   4.64892   4.67798   4.75160
  Beta virt. eigenvalues --    4.76567   4.78013   4.79013   4.79541   4.80582
  Beta virt. eigenvalues --    4.81593   4.85103   4.85696   4.89154   4.95155
  Beta virt. eigenvalues --    4.96117   4.96428   4.99792   5.01238   5.01752
  Beta virt. eigenvalues --    5.03110   5.08565   5.10239   5.12923   5.14771
  Beta virt. eigenvalues --    5.15952   5.17032   5.20072   5.21334   5.23268
  Beta virt. eigenvalues --    5.24769   5.28447   5.28513   5.29492   5.30151
  Beta virt. eigenvalues --    5.32502   5.33415   5.57275   5.58337   6.24599
  Beta virt. eigenvalues --    6.78912   6.81594   6.82500   6.91285   6.95206
  Beta virt. eigenvalues --    7.08774  13.06731  13.08892  13.09188  13.60464
  Beta virt. eigenvalues --   13.67758  13.76087  32.35748
          Condensed to atoms (all electrons):
               1          2          3          4          5          6
     1  Cr  23.375408  -0.083215  -0.025935  -0.061455  -0.027562  -0.053748
     2  O   -0.083215   8.146031   0.327223  -0.050757  -0.001313  -0.032876
     3  H   -0.025935   0.327223   0.270642  -0.001223  -0.000008   0.001046
     4  O   -0.061455  -0.050757  -0.001223   8.209410   0.320611  -0.059028
     5  H   -0.027562  -0.001313  -0.000008   0.320611   0.298314   0.000077
     6  O   -0.053748  -0.032876   0.001046  -0.059028   0.000077   8.127660
     7  H   -0.024506  -0.003749  -0.000002   0.001585  -0.000317   0.323127
     8  O   -0.069599   0.039427  -0.000414  -0.048914   0.001780  -0.050460
     9  H   -0.024829  -0.000241  -0.000024  -0.003365  -0.000064   0.001826
    10  O   -0.066734  -0.056688  -0.001838   0.038857  -0.000772  -0.048382
    11  H   -0.020130   0.001053  -0.000285  -0.000082   0.000011  -0.002319
    12  O   -0.080584   0.015421   0.000907  -0.064161  -0.000905   0.039583
    13  H   -0.028546  -0.002516   0.000009  -0.000722  -0.000071  -0.000139
    14  H   -0.010603  -0.001315   0.000011   0.001884   0.000052  -0.000698
    15  H   -0.022242  -0.000578  -0.000056   0.323578  -0.024967  -0.007986
    16  H   -0.018542   0.314257  -0.016155  -0.000526  -0.000003  -0.004381
    17  H   -0.029129  -0.002145   0.000044  -0.000519  -0.000020  -0.000033
    18  H   -0.024466   0.001780   0.000034  -0.005529  -0.000389   0.323335
    19  H   -0.024870  -0.000789   0.000010   0.002666   0.000434  -0.008399
               7          8          9         10         11         12
     1  Cr  -0.024506  -0.069599  -0.024829  -0.066734  -0.020130  -0.080584
     2  O   -0.003749   0.039427  -0.000241  -0.056688   0.001053   0.015421
     3  H   -0.000002  -0.000414  -0.000024  -0.001838  -0.000285   0.000907
     4  O    0.001585  -0.048914  -0.003365   0.038857  -0.000082  -0.064161
     5  H   -0.000317   0.001780  -0.000064  -0.000772   0.000011  -0.000905
     6  O    0.323127  -0.050460   0.001826  -0.048382  -0.002319   0.039583
     7  H    0.308351  -0.010308  -0.000333   0.003341   0.000040  -0.000912
     8  O   -0.010308   8.116502   0.325224  -0.027470  -0.007195  -0.007765
     9  H   -0.000333   0.325224   0.289496  -0.007341   0.000617   0.001044
    10  O    0.003341  -0.027470  -0.007341   8.188498   0.321019  -0.067277
    11  H    0.000040  -0.007195   0.000617   0.321019   0.293007  -0.001484
    12  O   -0.000912  -0.007765   0.001044  -0.067277  -0.001484   8.136671
    13  H    0.000011  -0.000784   0.000042   0.000011  -0.000154   0.330035
    14  H   -0.000035  -0.005485   0.000461  -0.002914   0.002058   0.308928
    15  H    0.000180  -0.001986  -0.000015  -0.000168   0.000000   0.000865
    16  H   -0.000119  -0.000513   0.000008   0.002890  -0.000007  -0.002044
    17  H    0.000888  -0.002013  -0.000551   0.325940  -0.024458  -0.001059
    18  H   -0.019919   0.002012   0.000034  -0.003597  -0.000008  -0.000296
    19  H    0.005121   0.321650  -0.019429   0.001612   0.000173  -0.003344
              13         14         15         16         17         18
     1  Cr  -0.028546  -0.010603  -0.022242  -0.018542  -0.029129  -0.024466
     2  O   -0.002516  -0.001315  -0.000578   0.314257  -0.002145   0.001780
     3  H    0.000009   0.000011  -0.000056  -0.016155   0.000044   0.000034
     4  O   -0.000722   0.001884   0.323578  -0.000526  -0.000519  -0.005529
     5  H   -0.000071   0.000052  -0.024967  -0.000003  -0.000020  -0.000389
     6  O   -0.000139  -0.000698  -0.007986  -0.004381  -0.000033   0.323335
     7  H    0.000011  -0.000035   0.000180  -0.000119   0.000888  -0.019919
     8  O   -0.000784  -0.005485  -0.001986  -0.000513  -0.002013   0.002012
     9  H    0.000042   0.000461  -0.000015   0.000008  -0.000551   0.000034
    10  O    0.000011  -0.002914  -0.000168   0.002890   0.325940  -0.003597
    11  H   -0.000154   0.002058   0.000000  -0.000007  -0.024458  -0.000008
    12  O    0.330035   0.308928   0.000865  -0.002044  -0.001059  -0.000296
    13  H    0.265887  -0.016923  -0.000191   0.000018  -0.000018  -0.000028
    14  H   -0.016923   0.308948  -0.000010  -0.000022  -0.000043   0.000007
    15  H   -0.000191  -0.000010   0.284439   0.000384   0.000012   0.000485
    16  H    0.000018  -0.000022   0.000384   0.297065   0.000062  -0.000129
    17  H   -0.000018  -0.000043   0.000012   0.000062   0.296719  -0.000102
    18  H   -0.000028   0.000007   0.000485  -0.000129  -0.000102   0.287932
    19  H   -0.000003  -0.000125   0.000058  -0.000042  -0.000277  -0.000246
              19
     1  Cr  -0.024870
     2  O   -0.000789
     3  H    0.000010
     4  O    0.002666
     5  H    0.000434
     6  O   -0.008399
     7  H    0.005121
     8  O    0.321650
     9  H   -0.019429
    10  O    0.001612
    11  H    0.000173
    12  O   -0.003344
    13  H   -0.000003
    14  H   -0.000125
    15  H    0.000058
    16  H   -0.000042
    17  H   -0.000277
    18  H   -0.000246
    19  H    0.307223
          Atomic-Atomic Spin Densities.
               1          2          3          4          5          6
     1  Cr   3.171551  -0.032439  -0.007040  -0.032040  -0.008769  -0.029180
     2  O   -0.032439   0.017030   0.002234   0.002707  -0.000629   0.004829
     3  H   -0.007040   0.002234   0.011437  -0.000110   0.000017   0.000071
     4  O   -0.032040   0.002707  -0.000110   0.010380   0.004623   0.001748
     5  H   -0.008769  -0.000629   0.000017   0.004623   0.011895   0.001612
     6  O   -0.029180   0.004829   0.000071   0.001748   0.001612   0.007990
     7  H   -0.009377  -0.000834   0.000009  -0.000751  -0.000069   0.003096
     8  O   -0.028489   0.001108  -0.000188   0.001056   0.000982   0.000900
     9  H   -0.008141  -0.000092  -0.000019  -0.000610  -0.000159  -0.001450
    10  O   -0.032672   0.003813   0.003190   0.000741  -0.000365   0.000839
    11  H   -0.007043  -0.000391  -0.000092  -0.000015   0.000002  -0.000597
    12  O   -0.032308   0.002808   0.001391   0.004312  -0.000046   0.001405
    13  H   -0.007476   0.000274  -0.000002   0.003221  -0.000099  -0.000088
    14  H   -0.008837  -0.000449  -0.000031  -0.000826   0.000002  -0.000186
    15  H   -0.006614   0.002441  -0.000129   0.003268  -0.002707  -0.000786
    16  H   -0.008389   0.004374  -0.001727  -0.000106  -0.000034   0.002040
    17  H   -0.008779  -0.000461  -0.000111  -0.000315  -0.000012   0.000559
    18  H   -0.007362   0.000039   0.000006   0.005118   0.000761   0.000341
    19  H   -0.009127  -0.000267   0.000006   0.000458   0.000512   0.003326
               7          8          9         10         11         12
     1  Cr  -0.009377  -0.028489  -0.008141  -0.032672  -0.007043  -0.032308
     2  O   -0.000834   0.001108  -0.000092   0.003813  -0.000391   0.002808
     3  H    0.000009  -0.000188  -0.000019   0.003190  -0.000092   0.001391
     4  O   -0.000751   0.001056  -0.000610   0.000741  -0.000015   0.004312
     5  H   -0.000069   0.000982  -0.000159  -0.000365   0.000002  -0.000046
     6  O    0.003096   0.000900  -0.001450   0.000839  -0.000597   0.001405
     7  H    0.014192   0.001984  -0.000144   0.000633  -0.000064  -0.000268
     8  O    0.001984   0.005936   0.003612   0.003612   0.000139   0.005686
     9  H   -0.000144   0.003612   0.014251   0.004297   0.000452  -0.000565
    10  O    0.000633   0.003612   0.004297   0.006237   0.002705   0.002299
    11  H   -0.000064   0.000139   0.000452   0.002705   0.014528   0.001733
    12  O   -0.000268   0.005686  -0.000565   0.002299   0.001733   0.015579
    13  H    0.000006  -0.000298  -0.000006  -0.000131  -0.000180   0.003664
    14  H   -0.000023   0.001408   0.000411  -0.000172   0.000774   0.004408
    15  H   -0.000017  -0.000364   0.000023   0.000010   0.000005  -0.000852
    16  H   -0.000179  -0.000118   0.000006  -0.000797   0.000012  -0.000606
    17  H    0.000567   0.001050   0.000430   0.006429  -0.002841  -0.000722
    18  H   -0.002560  -0.000716   0.000008  -0.000635   0.000025  -0.000153
    19  H    0.002629   0.001199  -0.002671  -0.000517  -0.000013  -0.000884
              13         14         15         16         17         18
     1  Cr  -0.007476  -0.008837  -0.006614  -0.008389  -0.008779  -0.007362
     2  O    0.000274  -0.000449   0.002441   0.004374  -0.000461   0.000039
     3  H   -0.000002  -0.000031  -0.000129  -0.001727  -0.000111   0.000006
     4  O    0.003221  -0.000826   0.003268  -0.000106  -0.000315   0.005118
     5  H   -0.000099   0.000002  -0.002707  -0.000034  -0.000012   0.000761
     6  O   -0.000088  -0.000186  -0.000786   0.002040   0.000559   0.000341
     7  H    0.000006  -0.000023  -0.000017  -0.000179   0.000567  -0.002560
     8  O   -0.000298   0.001408  -0.000364  -0.000118   0.001050  -0.000716
     9  H   -0.000006   0.000411   0.000023   0.000006   0.000430   0.000008
    10  O   -0.000131  -0.000172   0.000010  -0.000797   0.006429  -0.000635
    11  H   -0.000180   0.000774   0.000005   0.000012  -0.002841   0.000025
    12  O    0.003664   0.004408  -0.000852  -0.000606  -0.000722  -0.000153
    13  H    0.011448  -0.002006  -0.000104  -0.000014   0.000019  -0.000022
    14  H   -0.002006   0.012672   0.000013   0.000020  -0.000062   0.000007
    15  H   -0.000104   0.000013   0.012841   0.000323   0.000001   0.000524
    16  H   -0.000014   0.000020   0.000323   0.011953   0.000004   0.000140
    17  H    0.000019  -0.000062   0.000001   0.000004   0.011014  -0.000144
    18  H   -0.000022   0.000007   0.000524   0.000140  -0.000144   0.016368
    19  H    0.000008  -0.000166  -0.000050  -0.000024  -0.000058  -0.000050
              19
     1  Cr  -0.009127
     2  O   -0.000267
     3  H    0.000006
     4  O    0.000458
     5  H    0.000512
     6  O    0.003326
     7  H    0.002629
     8  O    0.001199
     9  H   -0.002671
    10  O   -0.000517
    11  H   -0.000013
    12  O   -0.000884
    13  H    0.000008
    14  H   -0.000166
    15  H   -0.000050
    16  H   -0.000024
    17  H   -0.000058
    18  H   -0.000050
    19  H    0.015722
 Mulliken charges and spin densities:
               1          2
     1  Cr   1.321288   2.887470
     2  O   -0.609009   0.006094
     3  H    0.446013   0.008911
     4  O   -0.602313   0.002859
     5  H    0.435114   0.007517
     6  O   -0.548206  -0.003531
     7  H    0.417555   0.008831
     8  O   -0.573690  -0.001500
     9  H    0.437439   0.009634
    10  O   -0.598983  -0.000485
    11  H    0.438143   0.009140
    12  O   -0.603623   0.006879
    13  H    0.454082   0.008215
    14  H    0.415824   0.006959
    15  H    0.448198   0.007826
    16  H    0.427797   0.006879
    17  H    0.436702   0.006570
    18  H    0.439090   0.011696
    19  H    0.418579   0.010035
 Sum of Mulliken charges =   3.00000   3.00000
 Mulliken charges and spin densities with hydrogens summed into heavy atoms:
               1          2
     1  Cr   1.321288   2.887470
     2  O    0.264801   0.021885
     4  O    0.280999   0.018202
     6  O    0.308439   0.016996
     8  O    0.282328   0.018169
    10  O    0.275862   0.015225
    12  O    0.266282   0.022053
 APT charges:
               1
     1  Cr   1.788592
     2  O   -0.531309
     3  H    0.388110
     4  O   -0.497553
     5  H    0.344667
     6  O   -0.491005
     7  H    0.331123
     8  O   -0.493547
     9  H    0.347826
    10  O   -0.493831
    11  H    0.352418
    12  O   -0.522913
    13  H    0.391546
    14  H    0.346903
    15  H    0.359456
    16  H    0.357192
    17  H    0.346295
    18  H    0.346960
    19  H    0.329071
 Sum of APT charges =   3.00000
 APT charges with hydrogens summed into heavy atoms:
               1
     1  Cr   1.788592
     2  O    0.213993
     4  O    0.206570
     6  O    0.187078
     8  O    0.183350
    10  O    0.204882
    12  O    0.215536
 Electronic spatial extent (au):  <R**2>=            839.1960
 Charge=              3.0000 electrons
 Dipole moment (field-independent basis, Debye):
    X=              2.2670    Y=              3.6362    Z=             -0.9868  Tot=              4.3972
 Quadrupole moment (field-independent basis, Debye-Ang):
   XX=            -12.1164   YY=            -15.8573   ZZ=            -26.4118
   XY=             -4.2144   XZ=             -1.5667   YZ=             -0.9428
 Traceless Quadrupole moment (field-independent basis, Debye-Ang):
   XX=              6.0121   YY=              2.2712   ZZ=             -8.2833
   XY=             -4.2144   XZ=             -1.5667   YZ=             -0.9428
 Octapole moment (field-independent basis, Debye-Ang**2):
  XXX=             18.0640  YYY=             16.9636  ZZZ=              5.0599  XYY=              4.0939
  XXY=              8.9588  XXZ=              3.2839  XZZ=             -8.1075  YZZ=             -3.3366
  YYZ=            -14.5102  XYZ=             -3.1724
 Hexadecapole moment (field-independent basis, Debye-Ang**3):
 XXXX=           -170.9555 YYYY=           -178.0237 ZZZZ=           -215.7153 XXXY=            -21.6403
 XXXZ=              2.2300 YYYX=             -8.4480 YYYZ=             12.1696 ZZZX=            -16.4045
 ZZZY=            -15.7445 XXYY=            -48.7480 XXZZ=            -53.5140 YYZZ=            -51.9431
 XXYZ=             -1.1565 YYXZ=              3.7873 ZZXY=              1.9418
 N-N= 7.343875511604D+02 E-N=-4.980194538238D+03  KE= 1.499460506999D+03
  Exact polarizability:      54.918      -0.446      53.962      -0.681      -0.016      50.325
 Approx polarizability:      88.816      -0.573      87.563      -1.510      -0.028      80.865
                          Isotropic Fermi Contact Couplings
        Atom                 a.u.       MegaHertz       Gauss      10(-4) cm-1
     1  Cr(53)            -0.08006       6.75605       2.41073       2.25358
     2  O(17)              0.00331      -0.66973      -0.23898      -0.22340
     3  H(1)               0.00568       8.46145       3.01926       2.82244
     4  O(17)             -0.00082       0.16579       0.05916       0.05530
     5  H(1)               0.00514       7.66144       2.73379       2.55558
     6  O(17)              0.00133      -0.26818      -0.09569      -0.08946
     7  H(1)               0.00532       7.91976       2.82597       2.64175
     8  O(17)             -0.00038       0.07737       0.02761       0.02581
     9  H(1)               0.00583       8.69331       3.10199       2.89978
    10  O(17)             -0.00358       0.72396       0.25833       0.24149
    11  H(1)               0.00611       9.10653       3.24944       3.03761
    12  O(17)              0.00056      -0.11230      -0.04007      -0.03746
    13  H(1)               0.00555       8.26662       2.94973       2.75745
    14  H(1)               0.00528       7.86315       2.80577       2.62286
    15  H(1)               0.00559       8.32518       2.97063       2.77698
    16  H(1)               0.00510       7.59612       2.71048       2.53379
    17  H(1)               0.00512       7.62138       2.71950       2.54222
    18  H(1)               0.00628       9.35927       3.33962       3.12192
    19  H(1)               0.00543       8.08457       2.88478       2.69672
 --------------------------------------------------------
       Center         ----  Spin Dipole Couplings  ----
                      3XX-RR        3YY-RR        3ZZ-RR
 --------------------------------------------------------
     1   Atom       -0.075162      0.013611      0.061551
     2   Atom       -0.073151      0.032450      0.040701
     3   Atom       -0.006443      0.013060     -0.006617
     4   Atom       -0.023684     -0.049310      0.072994
     5   Atom        0.036907     -0.032092     -0.004814
     6   Atom       -0.025660     -0.047413      0.073073
     7   Atom        0.001666     -0.001887      0.000221
     8   Atom       -0.069274     -0.006280      0.075554
     9   Atom       -0.028143      0.057176     -0.029033
    10   Atom       -0.021573      0.008987      0.012587
    11   Atom        0.041832     -0.015999     -0.025833
    12   Atom        0.028378     -0.008925     -0.019453
    13   Atom       -0.017905     -0.020123      0.038028
    14   Atom        0.019037     -0.025021      0.005984
    15   Atom        0.015245      0.007398     -0.022642
    16   Atom       -0.026635      0.029810     -0.003174
    17   Atom       -0.019489      0.002473      0.017016
    18   Atom        0.050225     -0.031928     -0.018297
    19   Atom       -0.008169      0.037240     -0.029070
 --------------------------------------------------------
                        XY            XZ            YZ
 --------------------------------------------------------
     1   Atom       -0.027246     -0.007982     -0.009150
     2   Atom        0.019754     -0.011026     -0.081702
     3   Atom        0.033069      0.025819      0.033611
     4   Atom       -0.007869     -0.022845     -0.033776
     5   Atom        0.002951      0.042655      0.001283
     6   Atom        0.016561     -0.020417      0.035204
     7   Atom        0.032087     -0.032867     -0.030137
     8   Atom        0.009699      0.019030      0.028249
     9   Atom       -0.018033     -0.003128      0.016605
    10   Atom        0.012865      0.044587      0.046270
    11   Atom       -0.034927      0.020536     -0.009665
    12   Atom        0.084728      0.040185      0.043085
    13   Atom        0.012270     -0.030278     -0.030096
    14   Atom       -0.019040     -0.044982      0.015638
    15   Atom       -0.043469      0.020684     -0.018245
    16   Atom       -0.017184     -0.012381      0.043066
    17   Atom       -0.020435      0.025160     -0.041481
    18   Atom       -0.001792     -0.032565      0.000785
    19   Atom        0.041092      0.006664      0.011760
 --------------------------------------------------------


 ---------------------------------------------------------------------------------
              Anisotropic Spin Dipole Couplings in Principal Axis System
 ---------------------------------------------------------------------------------

       Atom             a.u.   MegaHertz   Gauss  10(-4) cm-1        Axes

              Baa    -0.0836     2.525     0.901     0.842  0.9588  0.2754  0.0701
     1 Cr(53) Bbb     0.0203    -0.612    -0.219    -0.204 -0.2832  0.9465  0.1550
              Bcc     0.0633    -1.913    -0.683    -0.638 -0.0237 -0.1685  0.9854
 
              Baa    -0.0770     5.569     1.987     1.858  0.9726 -0.2234 -0.0639
     2 O(17)  Bbb    -0.0438     3.171     1.132     1.058  0.2042  0.6904  0.6940
              Bcc     0.1208    -8.740    -3.119    -2.915 -0.1109 -0.6880  0.7172
 
              Baa    -0.0324   -17.306    -6.175    -5.773 -0.5697 -0.1785  0.8022
     3 H(1)   Bbb    -0.0310   -16.536    -5.901    -5.516 -0.6406  0.7079 -0.2975
              Bcc     0.0634    33.842    12.076    11.288  0.5147  0.6834  0.5177
 
              Baa    -0.0629     4.551     1.624     1.518  0.3433  0.8964  0.2805
     4 O(17)  Bbb    -0.0226     1.633     0.583     0.545  0.9211 -0.3797  0.0860
              Bcc     0.0855    -6.184    -2.207    -2.063 -0.1836 -0.2289  0.9560
 
              Baa    -0.0324   -17.301    -6.173    -5.771 -0.2542  0.9013  0.3508
     5 H(1)   Bbb    -0.0312   -16.652    -5.942    -5.554 -0.4651 -0.4320  0.7727
              Bcc     0.0636    33.952    12.115    11.325  0.8479  0.0332  0.5290
 
              Baa    -0.0681     4.926     1.758     1.643 -0.4622  0.8424 -0.2770
     6 O(17)  Bbb    -0.0167     1.211     0.432     0.404  0.8753  0.4834  0.0095
              Bcc     0.0848    -6.137    -2.190    -2.047 -0.1419  0.2380  0.9608
 
              Baa    -0.0325   -17.341    -6.188    -5.784  0.7956 -0.5059  0.3332
     7 H(1)   Bbb    -0.0310   -16.520    -5.895    -5.510  0.1053  0.6573  0.7463
              Bcc     0.0635    33.861    12.082    11.295  0.5965  0.5586 -0.5762
 
              Baa    -0.0723     5.234     1.868     1.746  0.9892 -0.0989 -0.1084
     8 O(17)  Bbb    -0.0149     1.076     0.384     0.359  0.0610  0.9490 -0.3093
              Bcc     0.0872    -6.309    -2.251    -2.105  0.1335  0.2994  0.9448
 
              Baa    -0.0322   -17.195    -6.135    -5.735 -0.4296 -0.2479  0.8683
     9 H(1)   Bbb    -0.0317   -16.901    -6.031    -5.637  0.8817  0.0925  0.4626
              Bcc     0.0639    34.095    12.166    11.373 -0.1950  0.9644  0.1789
 
              Baa    -0.0575     4.163     1.486     1.389  0.6911  0.3179 -0.6491
    10 O(17)  Bbb    -0.0177     1.284     0.458     0.428 -0.5994  0.7539 -0.2690
              Bcc     0.0753    -5.448    -1.944    -1.817  0.4039  0.5750  0.7115
 
              Baa    -0.0324   -17.301    -6.174    -5.771  0.4242  0.9056  0.0063
    11 H(1)   Bbb    -0.0316   -16.843    -6.010    -5.618 -0.2244  0.0984  0.9695
              Bcc     0.0640    34.144    12.184    11.389  0.8773 -0.4127  0.2450
 
              Baa    -0.0788     5.702     2.035     1.902 -0.5584  0.8038 -0.2054
    12 O(17)  Bbb    -0.0420     3.039     1.084     1.014 -0.4306 -0.0692  0.8999
              Bcc     0.1208    -8.740    -3.119    -2.915  0.7091  0.5909  0.3847
 
              Baa    -0.0330   -17.615    -6.285    -5.876  0.2178  0.8619  0.4580
    13 H(1)   Bbb    -0.0308   -16.453    -5.871    -5.488  0.9027 -0.3563  0.2412
              Bcc     0.0639    34.068    12.156    11.364 -0.3710 -0.3609  0.8556
 
[...]
    15  H   -0.000054  -0.000055   0.294842  -0.000054  -0.000000   0.000003
    16  H   -0.000056   0.000003  -0.000054   0.294835   0.000003  -0.000055
    17  H    0.000003   0.000003  -0.000000   0.000003   0.294844  -0.000055
    18  H   -0.000000  -0.000000   0.000003  -0.000055  -0.000055   0.294792
    19  H    0.000003  -0.000055  -0.000055  -0.000000   0.000003   0.000003
              19
     1  Cr  -0.018364
     2  O   -0.000447
     3  H   -0.000000
     4  O    0.002881
     5  H   -0.000054
     6  O    0.001350
     7  H   -0.000055
     8  O    0.300576
     9  H   -0.015774
    10  O    0.000835
    11  H    0.000003
    12  O    0.001351
    13  H    0.000003
    14  H   -0.000055
    15  H   -0.000055
    16  H   -0.000000
    17  H    0.000003
    18  H    0.000003
    19  H    0.294823
          Atomic-Atomic Spin Densities.
               1          2          3          4          5          6
     1  Cr   3.145192  -0.031514  -0.002482  -0.031509  -0.002490  -0.031471
     2  O   -0.031514   0.018971   0.002247   0.005202  -0.000121   0.005188
     3  H   -0.002482   0.002247   0.001703  -0.000215   0.000000  -0.000122
     4  O   -0.031509   0.005202  -0.000215   0.018974   0.002254   0.005190
     5  H   -0.002490  -0.000121   0.000000   0.002254   0.001702   0.000723
     6  O   -0.031471   0.005188  -0.000122   0.005190   0.000723   0.018913
     7  H   -0.002489  -0.000214   0.000000  -0.000121   0.000003   0.002251
     8  O   -0.031509  -0.002339  -0.000015   0.005187  -0.000123   0.005185
     9  H   -0.002489  -0.000015  -0.000000  -0.000214   0.000000  -0.000122
    10  O   -0.031504   0.005198   0.000719  -0.002345  -0.000015   0.005188
    11  H   -0.002491  -0.000121   0.000003  -0.000015   0.000000  -0.000213
    12  O   -0.031471   0.005176  -0.000123   0.005191  -0.000214  -0.002344
    13  H   -0.002489   0.000720   0.000003  -0.000121   0.000000  -0.000015
    14  H   -0.002492  -0.000214   0.000000  -0.000123   0.000000  -0.000015
    15  H   -0.002487  -0.000124   0.000000   0.002255  -0.001024  -0.000214
    16  H   -0.002489   0.002252  -0.001024   0.000722   0.000003  -0.000122
    17  H   -0.002487  -0.000123   0.000003  -0.000015  -0.000000   0.000717
    18  H   -0.002492   0.000719   0.000003  -0.000123   0.000003   0.002258
    19  H   -0.002483  -0.000015   0.000000   0.000718   0.000003  -0.000121
               7          8          9         10         11         12
     1  Cr  -0.002489  -0.031509  -0.002489  -0.031504  -0.002491  -0.031471
     2  O   -0.000214  -0.002339  -0.000015   0.005198  -0.000121   0.005176
     3  H    0.000000  -0.000015  -0.000000   0.000719   0.000003  -0.000123
     4  O   -0.000121   0.005187  -0.000214  -0.002345  -0.000015   0.005191
     5  H    0.000003  -0.000123   0.000000  -0.000015   0.000000  -0.000214
     6  O    0.002251   0.005185  -0.000122   0.005188  -0.000213  -0.002344
     7  H    0.001706   0.000721   0.000003  -0.000122   0.000000  -0.000015
     8  O    0.000721   0.018938   0.002252   0.005202  -0.000123   0.005197
     9  H    0.000003   0.002252   0.001704   0.000722   0.000003  -0.000121
    10  O   -0.000122   0.005202   0.000722   0.018954   0.002254   0.005186
    11  H    0.000000  -0.000123   0.000003   0.002254   0.001702   0.000722
    12  O   -0.000015   0.005197  -0.000121   0.005186   0.000722   0.018916
    13  H    0.000000  -0.000214   0.000000  -0.000122   0.000003   0.002251
    14  H   -0.000000   0.000720   0.000003  -0.000122   0.000003   0.002258
    15  H    0.000000  -0.000122   0.000000  -0.000015  -0.000000   0.000718
    16  H    0.000000  -0.000015   0.000000  -0.000214   0.000000  -0.000122
    17  H    0.000003  -0.000122   0.000003   0.002256  -0.001024  -0.000214
    18  H   -0.001024  -0.000214   0.000000  -0.000123   0.000000  -0.000015
    19  H    0.000003   0.002249  -0.001024  -0.000215   0.000000  -0.000123
              13         14         15         16         17         18
     1  Cr  -0.002489  -0.002492  -0.002487  -0.002489  -0.002487  -0.002492
     2  O    0.000720  -0.000214  -0.000124   0.002252  -0.000123   0.000719
     3  H    0.000003   0.000000   0.000000  -0.001024   0.000003   0.000003
     4  O   -0.000121  -0.000123   0.002255   0.000722  -0.000015  -0.000123
     5  H    0.000000   0.000000  -0.001024   0.000003  -0.000000   0.000003
     6  O   -0.000015  -0.000015  -0.000214  -0.000122   0.000717   0.002258
     7  H    0.000000  -0.000000   0.000000   0.000000   0.000003  -0.001024
     8  O   -0.000214   0.000720  -0.000122  -0.000015  -0.000122  -0.000214
     9  H    0.000000   0.000003   0.000000   0.000000   0.000003   0.000000
    10  O   -0.000122  -0.000122  -0.000015  -0.000214   0.002256  -0.000123
    11  H    0.000003   0.000003  -0.000000   0.000000  -0.001024   0.000000
    12  O    0.002251   0.002258   0.000718  -0.000122  -0.000214  -0.000015
    13  H    0.001708  -0.001024   0.000003   0.000003   0.000000  -0.000000
    14  H   -0.001024   0.001700   0.000003   0.000000   0.000000   0.000000
    15  H    0.000003   0.000003   0.001700   0.000003   0.000000   0.000000
    16  H    0.000003   0.000000   0.000003   0.001704   0.000000   0.000003
    17  H    0.000000   0.000000   0.000000   0.000000   0.001700   0.000003
    18  H   -0.000000   0.000000   0.000000   0.000003   0.000003   0.001702
    19  H    0.000000   0.000003   0.000003  -0.000000   0.000000   0.000000
              19
     1  Cr  -0.002483
     2  O   -0.000015
     3  H    0.000000
     4  O    0.000718
     5  H    0.000003
     6  O   -0.000121
     7  H    0.000003
     8  O    0.002249
     9  H   -0.001024
    10  O   -0.000215
    11  H    0.000000
    12  O   -0.000123
    13  H    0.000000
    14  H    0.000003
    15  H    0.000003
    16  H   -0.000000
    17  H    0.000000
    18  H    0.000000
    19  H    0.001704
 Mulliken charges and spin densities:
               1          2
     1  Cr   1.451454   2.926351
     2  O   -0.608012   0.010873
     3  H    0.432966   0.000702
     4  O   -0.607637   0.010891
     5  H    0.432903   0.000705
     6  O   -0.607697   0.010850
     7  H    0.432836   0.000706
     8  O   -0.608077   0.010854
     9  H    0.432975   0.000707
    10  O   -0.607666   0.010882
    11  H    0.432909   0.000705
    12  O   -0.607690   0.010853
    13  H    0.432846   0.000706
    14  H    0.433011   0.000701
    15  H    0.432949   0.000701
    16  H    0.432976   0.000706
    17  H    0.432950   0.000701
    18  H    0.433026   0.000703
    19  H    0.432978   0.000704
 Sum of Mulliken charges =   3.00000   3.00000
 Mulliken charges and spin densities with hydrogens summed into heavy atoms:
               1          2
     1  Cr   1.451454   2.926351
     2  O    0.257930   0.012282
     4  O    0.258215   0.012296
     6  O    0.258165   0.012258
     8  O    0.257876   0.012265
    10  O    0.258192   0.012288
    12  O    0.258167   0.012260
 Electronic spatial extent (au):  <R**2>=           1036.0995
 Charge=              3.0000 electrons
 Dipole moment (field-independent basis, Debye):
    X=              0.0003    Y=             -0.0008    Z=             -0.0004  Tot=              0.0009
 Quadrupole moment (field-independent basis, Debye-Ang):
   XX=             -7.8620   YY=             -7.8542   ZZ=             -7.8405
   XY=             -0.0006   XZ=              0.0052   YZ=             -0.0066
 Traceless Quadrupole moment (field-independent basis, Debye-Ang):
   XX=             -0.0097   YY=             -0.0019   ZZ=              0.0117
   XY=             -0.0006   XZ=              0.0052   YZ=             -0.0066
 Octapole moment (field-independent basis, Debye-Ang**2):
  XXX=              0.0186  YYY=              0.0066  ZZZ=             -0.0085  XYY=              0.0006
  XXY=             -0.0023  XXZ=              0.0046  XZZ=             -0.0137  YZZ=             -0.0139
  YYZ=             -0.0001  XYZ=             -0.0090
 Hexadecapole moment (field-independent basis, Debye-Ang**3):
 XXXX=           -184.1059 YYYY=           -161.6127 ZZZZ=           -189.5674 XXXY=              0.9479
 XXXZ=             29.8225 YYYX=             -1.2258 YYYZ=              2.2661 ZZZX=             21.1088
 ZZZY=             -0.7285 XXYY=            -39.8739 XXZZ=            -11.6468 YYZZ=            -33.9974
 XXYZ=             -1.5932 YYXZ=            -50.8922 ZZXY=              0.2836
 N-N= 6.578001016429D+02 E-N=-4.828639004054D+03  KE= 1.496989448915D+03
                          Isotropic Fermi Contact Couplings
        Atom                 a.u.       MegaHertz       Gauss      10(-4) cm-1
     1  Cr(53)             0.07563      -6.38248      -2.27743      -2.12896
     2  O(17)             -0.02214       4.47359       1.59629       1.49223
     3  H(1)               0.00044       0.65146       0.23246       0.21730
     4  O(17)             -0.02216       4.47725       1.59759       1.49345
     5  H(1)               0.00044       0.65242       0.23280       0.21762
     6  O(17)             -0.02215       4.47605       1.59717       1.49305
     7  H(1)               0.00044       0.65461       0.23358       0.21835
     8  O(17)             -0.02214       4.47379       1.59636       1.49229
     9  H(1)               0.00044       0.65502       0.23373       0.21849
    10  O(17)             -0.02216       4.47758       1.59771       1.49356
    11  H(1)               0.00044       0.65323       0.23309       0.21789
    12  O(17)             -0.02215       4.47610       1.59718       1.49307
    13  H(1)               0.00044       0.65587       0.23403       0.21877
    14  H(1)               0.00044       0.65099       0.23229       0.21715
    15  H(1)               0.00044       0.65061       0.23215       0.21702
    16  H(1)               0.00044       0.65450       0.23354       0.21832
    17  H(1)               0.00044       0.65105       0.23231       0.21717
    18  H(1)               0.00044       0.65251       0.23283       0.21765
    19  H(1)               0.00044       0.65354       0.23320       0.21800
 --------------------------------------------------------
       Center         ----  Spin Dipole Couplings  ----
                      3XX-RR        3YY-RR        3ZZ-RR
 --------------------------------------------------------
     1   Atom       -0.000203     -0.000114      0.000318
     2   Atom       -0.025919      0.045433     -0.019513
     3   Atom       -0.019801      0.007685      0.012116
     4   Atom       -0.019324      0.032244     -0.012920
     5   Atom        0.026036     -0.017745     -0.008292
     6   Atom        0.045138     -0.076526      0.031388
     7   Atom       -0.015786      0.031408     -0.015622
     8   Atom       -0.026568      0.045420     -0.018852
     9   Atom        0.010397      0.008064     -0.018461
    10   Atom       -0.018326      0.030380     -0.012054
    11   Atom        0.025879     -0.017699     -0.008180
    12   Atom        0.044577     -0.076517      0.031939
    13   Atom       -0.015824      0.031386     -0.015562
    14   Atom        0.004751     -0.012172      0.007422
    15   Atom       -0.005453     -0.017353      0.022807
    16   Atom        0.010334      0.008154     -0.018488
    17   Atom       -0.005361     -0.017319      0.022680
    18   Atom        0.004677     -0.012153      0.007476
    19   Atom       -0.019819      0.007775      0.012045
 --------------------------------------------------------
                        XY            XZ            YZ
 --------------------------------------------------------
     1   Atom        0.000104     -0.000110     -0.000010
     2   Atom        0.072276     -0.073127     -0.074767
     3   Atom       -0.007504     -0.009557      0.030833
     4   Atom       -0.084684     -0.040009      0.090656
     5   Atom        0.012742      0.025288      0.008079
     6   Atom        0.012203      0.113611     -0.015824
     7   Atom        0.017587     -0.004728     -0.018066
     8   Atom        0.071773     -0.073049     -0.075143
     9   Atom       -0.030293     -0.011473      0.009565
    10   Atom       -0.084787     -0.040927      0.090574
    11   Atom        0.012840      0.025321      0.008171
    12   Atom        0.012715      0.113672     -0.015345
    13   Atom        0.017538     -0.004733     -0.018130
    14   Atom        0.016632     -0.026482     -0.017517
    15   Atom       -0.009144      0.026891     -0.012859
    16   Atom       -0.030299     -0.011434      0.009560
    17   Atom       -0.009225      0.026900     -0.012936
    18   Atom        0.016612     -0.026465     -0.017555
    19   Atom       -0.007501     -0.009523      0.030835
 --------------------------------------------------------


 ---------------------------------------------------------------------------------
              Anisotropic Spin Dipole Couplings in Principal Axis System
 ---------------------------------------------------------------------------------

       Atom             a.u.   MegaHertz   Gauss  10(-4) cm-1        Axes

              Baa    -0.0003     0.009     0.003     0.003  0.8477 -0.5099  0.1462
     1 Cr(53) Bbb    -0.0001     0.002     0.001     0.001  0.4874  0.8575  0.1647
              Bcc     0.0003    -0.010    -0.004    -0.003 -0.2094 -0.0683  0.9754
 
              Baa    -0.0959     6.941     2.477     2.315  0.7261 -0.0076  0.6875
     2 O(17)  Bbb    -0.0561     4.056     1.447     1.353 -0.4763  0.7156  0.5110
              Bcc     0.1520   -10.997    -3.924    -3.668  0.4959  0.6985 -0.5160
 
              Baa    -0.0227   -12.120    -4.325    -4.043  0.8474 -0.2602  0.4628
     3 H(1)   Bbb    -0.0204   -10.898    -3.889    -3.635  0.4962  0.6983 -0.5159
              Bcc     0.0431    23.019     8.214     7.678 -0.1889  0.6668  0.7209
 
              Baa    -0.0960     6.946     2.479     2.317  0.4969  0.6953 -0.5194
     4 O(17)  Bbb    -0.0563     4.070     1.452     1.358  0.7273 -0.0071  0.6863
              Bcc     0.1523   -11.017    -3.931    -3.675 -0.4735  0.7187  0.5092
 
              Baa    -0.0227   -12.123    -4.326    -4.044 -0.2080 -0.6516  0.7294
     5 H(1)   Bbb    -0.0204   -10.901    -3.890    -3.636 -0.4737  0.7196  0.5078
              Bcc     0.0432    23.024     8.215     7.680  0.8558  0.2399  0.4583
 
              Baa    -0.0959     6.942     2.477     2.316 -0.4745  0.7158  0.5123
     6 O(17)  Bbb    -0.0562     4.064     1.450     1.355  0.4954  0.6983 -0.5167
              Bcc     0.1521   -11.006    -3.927    -3.671  0.7276 -0.0086  0.6859
 
              Baa    -0.0227   -12.122    -4.326    -4.044 -0.6194  0.4222  0.6619
     7 H(1)   Bbb    -0.0204   -10.902    -3.890    -3.636  0.7276 -0.0078  0.6859
              Bcc     0.0432    23.024     8.216     7.680  0.2947  0.9065 -0.3023
 
              Baa    -0.0959     6.937     2.475     2.314  0.7281 -0.0053  0.6855
     8 O(17)  Bbb    -0.0560     4.053     1.446     1.352 -0.4760  0.7156  0.5112
              Bcc     0.1519   -10.989    -3.921    -3.666  0.4932  0.6985 -0.5185
 
              Baa    -0.0227   -12.121    -4.325    -4.043  0.5125  0.2490  0.8218
     9 H(1)   Bbb    -0.0204   -10.902    -3.890    -3.636  0.4930  0.6983 -0.5190
              Bcc     0.0431    23.023     8.215     7.680  0.7031 -0.6711 -0.2351
 
              Baa    -0.0960     6.944     2.478     2.316  0.4933  0.7006 -0.5156
    10 O(17)  Bbb    -0.0562     4.069     1.452     1.357  0.7269 -0.0064  0.6867
              Bcc     0.1522   -11.013    -3.930    -3.674 -0.4778  0.7135  0.5125
 
              Baa    -0.0227   -12.122    -4.325    -4.044 -0.2034 -0.6587  0.7244
    11 H(1)   Bbb    -0.0204   -10.900    -3.890    -3.636 -0.4783  0.7124  0.5135
              Bcc     0.0431    23.023     8.215     7.679  0.8543  0.2420  0.4600
 
              Baa    -0.0959     6.943     2.477     2.316 -0.4774  0.7154  0.5102
    12 O(17)  Bbb    -0.0562     4.064     1.450     1.356  0.4948  0.6987 -0.5167
              Bcc     0.1521   -11.007    -3.927    -3.671  0.7261 -0.0058  0.6876
 
              Baa    -0.0227   -12.121    -4.325    -4.043 -0.6226  0.4225  0.6587
    13 H(1)   Bbb    -0.0204   -10.899    -3.889    -3.636  0.7253 -0.0046  0.6885
              Bcc     0.0431    23.021     8.214     7.679  0.2939  0.9063 -0.3036
 
              Baa    -0.0227   -12.122    -4.325    -4.043 -0.2708  0.9164  0.2947
    14 H(1)   Bbb    -0.0204   -10.900    -3.889    -3.636  0.7266 -0.0062  0.6870
              Bcc     0.0431    23.022     8.215     7.679 -0.6314 -0.4002  0.6642
 
              Baa    -0.0227   -12.122    -4.325    -4.043  0.7233  0.6457 -0.2448
    15 H(1)   Bbb    -0.0204   -10.900    -3.889    -3.636 -0.4717  0.7209  0.5078
              Bcc     0.0431    23.022     8.215     7.679  0.5044 -0.2518  0.8260
 
              Baa    -0.0227   -12.121    -4.325    -4.043  0.5101  0.2453  0.8244
    16 H(1)   Bbb    -0.0204   -10.901    -3.890    -3.636  0.4966  0.6986 -0.5151
              Bcc     0.0431    23.022     8.215     7.679  0.7023 -0.6721 -0.2345
 
              Baa    -0.0227   -12.122    -4.325    -4.043  0.7182  0.6534 -0.2394
    17 H(1)   Bbb    -0.0204   -10.899    -3.889    -3.636 -0.4781  0.7133  0.5124
              Bcc     0.0431    23.021     8.215     7.679  0.5056 -0.2536  0.8247
 
              Baa    -0.0227   -12.121    -4.325    -4.043 -0.2673  0.9162  0.2985
    18 H(1)   Bbb    -0.0204   -10.898    -3.889    -3.635  0.7288 -0.0105  0.6847
              Bcc     0.0431    23.018     8.214     7.678 -0.6305 -0.4005  0.6649
 
              Baa    -0.0227   -12.119    -4.324    -4.043  0.8498 -0.2565  0.4604
    19 H(1)   Bbb    -0.0204   -10.896    -3.888    -3.635  0.4922  0.6987 -0.5192
              Bcc     0.0431    23.016     8.213     7.677 -0.1885  0.6678  0.7200
 

 ---------------------------------------------------------------------------------

 No NMR shielding tensors so no spin-rotation constants.
 Leave Link  601 at Thu May 23 13:45:23 2024, MaxMem= 26843545600 cpu:              29.2 elap:               0.3
 (Enter /gpfs/fs1/soft/improv/software/custom-built/gaussian/g16/l9999.exe)
 Unable to Open any file for archive entry.
 1\1\GINC-I184\SP\UBLYP\Gen\Cr1H12O6(3+,4)\HHARB\23-May-2024\0\\#p BLYP
  empiricaldispersion=gd3 scf=(maxcycles=500,xqc,maxconventional=50) sc
 rf=(cpcm,solvent=water) geom=allcheck guess=read chkbasis\\Title\\3,4\
 Cr,-0.784800099,0.7129789878,0.0317858022\O,-1.2202684122,2.6764584739
 ,-0.1857957243\H,-2.1204026168,3.0594653948,-0.3013862671\O,1.18204229
 81,1.1651749735,0.1706226987\H,1.6705499819,1.3697871705,1.0011572989\
 O,-0.9673760527,0.8944611567,2.0382794301\H,-0.846171735,0.1721391355,
 2.6969626291\O,-0.3496265274,-1.2506020356,0.2493438953\H,-1.001204658
 1,-1.9893250045,0.2552626449\O,-2.7517385076,0.2611131975,-0.107044806
 \H,-3.2417996015,0.0632943931,-0.9383176397\O,-0.601897787,0.531001912
 7,-1.974632102\H,-0.7198201786,1.2536823726,-2.6335156353\H,-0.3782485
 855,-0.2953790131,-2.4618488675\H,1.8170777469,1.218906855,-0.58047213
 62\H,-0.5686275785,3.4150911991,-0.1949745384\H,-3.3854428711,0.201536
 3417,0.6447352192\H,-1.193861417,1.7198971344,2.5257882312\H,0.5500990
 311,-1.6336028756,0.3680952768\\Version=ES64L-G16RevC.02\State=4-A\HF=
 -1502.6371845\S2=3.759272\S2-1=0.\S2A=3.750031\RMSD=8.860e-09\Dipole=-
 0.0000898,0.0003387,-0.0001224\Quadrupole=0.0064953,-0.0066028,0.00010
 75,-0.001261,-0.0074939,-0.0019927\PG=C01 [X(Cr1H12O6)]\\@
 The archive entry for this job was punched.


 If your ship doesn't come in, swim out to it!
                          -- Jonathan Winters
 Job cpu time:       0 days  1 hours  9 minutes 49.7 seconds.
 Elapsed time:       0 days  0 hours  0 minutes 35.7 seconds.
 File lengths (MBytes):  RWF=    120 Int=      0 D2E=      0 Chk=     32 Scr=      1
 Normal termination of Gaussian 16 at Thu May 23 13:45:23 2024.
