 Entering Gaussian System, Link 0=g16
 Input=Cr_3_PBE0.com
 Output=Cr_3_PBE0.log
 Initial command:
 /gpfs/fs1/soft/improv/software/custom-built/gaussian/g16/l1.exe "/scratch/Gau-207917.inp" -scrdir="/scratch/"
 Default CPUs for threads: 0-127
 Default linda workers: i221.lcrc.anl.gov
 Default is to use 128 SMP processors on each worker.
 Entering Link 1 = /gpfs/fs1/soft/improv/software/custom-built/gaussian/g16/l1.exe PID=    207918.
  
 Copyright (c) 1988-2021, Gaussian, Inc.  All Rights Reserved.
  
 This is part of the Gaussian(R) 16 program.  It is based on
 the Gaussian(R) 09 system (copyright 2009, Gaussian, Inc.),
 the Gaussian(R) 03 system (copyright 2003, Gaussian, Inc.),
 the Gaussian(R) 98 system (copyright 1998, Gaussian, Inc.),
 the Gaussian(R) 94 system (copyright 1995, Gaussian, Inc.),
 the Gaussian 92(TM) system (copyright 1992, Gaussian, Inc.),
 the Gaussian 90(TM) system (copyright 1990, Gaussian, Inc.),
 the Gaussian 88(TM) system (copyright 1988, Gaussian, Inc.),
 the Gaussian 86(TM) system (copyright 1986, Carnegie Mellon
 University), and the Gaussian 82(TM) system (copyright 1983,
 Carnegie Mellon University). Gaussian is a federally registered
 trademark of Gaussian, Inc.
  
 This software contains proprietary and confidential information,
 including trade secrets, belonging to Gaussian, Inc.
  
 This software is provided under written license and may be
 used, copied, transmitted, or stored only in accord with that
 written license.
  
 The following legend is applicable only to US Government
 contracts under FAR:
  
                    RESTRICTED RIGHTS LEGEND
  
 Use, reproduction and disclosure by the US Government is
 subject to restrictions as set forth in subparagraphs (a)
 and (c) of the Commercial Computer Software - Restricted
 Rights clause in FAR 52.227-19.
  
 Gaussian, Inc.
 340 Quinnipiac St., Bldg. 40, Wallingford CT 06492
  
  
 ---------------------------------------------------------------
 Warning -- This program may not be used in any manner that
 competes with the business of Gaussian, Inc. or will provide
 assistance to any competitor of Gaussian, Inc.  The licensee
 of this program is prohibited from giving any competitor of
 Gaussian, Inc. access to this program.  By using this program,
 the user acknowledges that Gaussian, Inc. is engaged in the
 business of creating and licensing software in the field of
 computational chemistry and represents and warrants to the
 licensee that it is not a competitor of Gaussian, Inc. and that
 it will not use this program in any manner prohibited above.
 ---------------------------------------------------------------
  

 Cite this work as:
 Gaussian 16, Revision C.02,
 M. J. Frisch, G. W. Trucks, H. B. Schlegel, G. E. Scuseria, 
 M. A. Robb, J. R. Cheeseman, G. Scalmani, V. Barone, 
 G. A. Petersson, H. Nakatsuji, X. Li, M. Caricato, A. V. Marenich, 
 J. Bloino, B. G. Janesko, R. Gomperts, B. Mennucci, H. P. Hratchian, 
 J. V. Ortiz, A. F. Izmaylov, J. L. Sonnenberg, D. Williams-Young, 
 F. Ding, F. Lipparini, F. Egidi, J. Goings, B. Peng, A. Petrone, 
 T. Henderson, D. Ranasinghe, V. G. Zakrzewski, J. Gao, N. Rega, 
 G. Zheng, W. Liang, M. Hada, M. Ehara, K. Toyota, R. Fukuda, 
 J. Hasegawa, M. Ishida, T. Nakajima, Y. Honda, O. Kitao, H. Nakai, 
 T. Vreven, K. Throssell, J. A. Montgomery, Jr., J. E. Peralta, 
 F. Ogliaro, M. J. Bearpark, J. J. Heyd, E. N. Brothers, K. N. Kudin, 
 V. N. Staroverov, T. A. Keith, R. Kobayashi, J. Normand, 
 K. Raghavachari, A. P. Rendell, J. C. Burant, S. S. Iyengar, 
 J. Tomasi, M. Cossi, J. M. Millam, M. Klene, C. Adamo, R. Cammi, 
 J. W. Ochterski, R. L. Martin, K. Morokuma, O. Farkas, 
 J. B. Foresman, and D. J. Fox, Gaussian, Inc., Wallingford CT, 2019.
 
 ******************************************
 Gaussian 16:  ES64L-G16RevC.02  7-Dec-2021
                23-May-2024 
 ******************************************
 %chk=Cr_3_PBE0.chk
 SetSPE:  set environment variable "OMP_PROC_BIND" = "true"
 SetSPE:  set environment variable "OMP_PLACES" = "{0},{1},{2},{3},{4},{5},{6},{7},{8},{9},{10},{11},{12},{13},{14},{15},{16},{17},{18},{19},{20},{21},{22},{23},{24},{25},{26},{27},{28},{29},{30},{31},{32},{33},{34},{35},{36},{37},{38},{39},{40},{41},{42},{43},{44},{45},{46},{47},{48},{49},{50},{51},{52},{53},{54},{55},{56},{57},{58},{59},{60},{61},{62},{63},{64},{65},{66},{67},{68},{69},{70},{71},{72},{73},{74},{75},{76},{77},{78},{79},{80},{81},{82},{83},{84},{85},{86},{87},{88},{89},{90},{91},{92},{93},{94},{95},{96},{97},{98},{99},{100},{101},{102},{103},{104},{105},{106},{107},{108},{109},{110},{111},{112},{113},{114},{115},{116},{117},{118},{119},{120},{121},{122},{123},{124},{125},{126},{127}"
 SetLPE:    new flags="-opt 'Tsnet.Node.lindarsharg: ssh'  -nodelist 'i221.lcrc.anl.gov' -env GAUSS_MDEF=26843545600 -env GAUSS_EXEDIR="/gpfs/fs1/soft/improv/software/custom-built/gaussian/g16/bsd:/gpfs/fs1/soft/improv/software/custom-built/gaussian/g16" -env "OMP_PROC_BIND=true" -env "OMP_PLACES={0},{1},{2},{3},{4},{5},{6},{7},{8},{9},{10},{11},{12},{13},{14},{15},{16},{17},{18},{19},{20},{21},{22},{23},{24},{25},{26},{27},{28},{29},{30},{31},{32},{33},{34},{35},{36},{37},{38},{39},{40},{41},{42},{43},{44},{45},{46},{47},{48},{49},{50},{51},{52},{53},{54},{55},{56},{57},{58},{59},{60},{61},{62},{63},{64},{65},{66},{67},{68},{69},{70},{71},{72},{73},{74},{75},{76},{77},{78},{79},{80},{81},{82},{83},{84},{85},{86},{87},{88},{89},{90},{91},{92},{93},{94},{95},{96},{97},{98},{99},{100},{101},{102},{103},{104},{105},{106},{107},{108},{109},{110},{111},{112},{113},{114},{115},{116},{117},{118},{119},{120},{121},{122},{123},{124},{125},{126},{127}" -env GAUSS_ADEF="0,1,2,3,4,5,6,7,8,9,10,11,12,13,14,15,16,17,18,19,20,21,22,23,24,25,26,27,28,29,30,31,32,33,34,35,36,37,38,39,40,41,42,43,44,45,46,47,48,49,50,51,52,53,54,55,56,57,58,59,60,61,62,63,64,65,66,67,68,69,70,71,72,73,74,75,76,77,78,79,80,81,82,83,84,85,86,87,88,89,90,91,92,93,94,95,96,97,98,99,100,101,102,103,104,105,106,107,108,109,110,111,112,113,114,115,116,117,118,119,120,121,122,123,124,125,126,127""
 Will use up to    1 processors via Linda.
 ----------------------------------------------------------------------
 #p PBE1PBE empiricaldispersion=gd3 6-31+G(2df,p) opt=(cartesian,calcal
 l,maxcycles=500) freq scf=(maxcycles=500,xqc,maxconventional=50)
 ----------------------------------------------------------------------
 1/6=500,10=4,18=10,26=3,38=1/1,3;
 2/12=2,17=6,18=5,29=2,40=1/2;
 3/5=1,6=6,7=114,11=2,25=1,30=1,71=2,74=-13,124=31,140=1/1,2,3;
 4//1;
 5/5=2,7=500,8=3,13=1,38=5,85=50/2,8;
 8/6=4,10=90,11=11/1;
 11/6=1,8=1,9=11,15=111,16=1/1,2,10;
 10/6=1/2;
 6/7=2,8=2,9=2,10=2,18=1,28=1/1;
 7/7=1,10=1,25=1/1,2,3,16;
 1/6=500,10=4,18=10,26=3/3(3);
 2/29=1/2;
 7/7=1,8=1,9=1,25=1,44=-1/16;
 99/12=1/99;
 2/29=1/2;
 3/5=1,6=6,7=114,11=2,25=1,30=1,71=2,74=-13,124=31,140=1/1,2,3;
 4/5=5,16=3,69=1/1;
 5/5=2,7=500,8=3,13=1,38=5,85=50/2,8;
 8/6=4,10=90,11=11/1;
 11/6=1,8=1,9=11,15=111,16=1/1,2,10;
 10/6=1/2;
 7/7=1,10=1,25=1/1,2,3,16;
 1/6=500,10=4,18=10,26=3/3(-8);
 2/29=1/2;
 6/7=2,8=2,9=2,10=2,18=1,19=2,28=1/1;
 7/7=1,8=1,9=1,25=1,44=-1/16;
 99/12=1/99;
 Leave Link    1 at Thu May 23 12:33:33 2024, MaxMem=           0 cpu:               3.3 elap:               0.1
 (Enter /gpfs/fs1/soft/improv/software/custom-built/gaussian/g16/l101.exe)
 -----
 Title
 -----
 Symbolic Z-matrix:
 Charge =  3 Multiplicity = 4
 Cr                   -0.79304   0.81881  -0.09491 
 O                    -1.20497   2.57394  -0.35687 
 H                    -2.12106   2.64974  -0.63312 
 O                     0.99012   1.19063  -0.05794 
 H                     1.42696   0.5998    0.55971 
 O                    -0.81752   1.03069   1.71365 
 H                    -1.02108   0.1906    2.13133 
 O                    -0.38507  -0.93351   0.17118 
 H                    -1.15682  -1.47369  -0.01433 
 O                    -2.57341   0.45178  -0.12186 
 H                    -2.77756  -0.08744  -0.88929 
 O                    -0.76966   0.60461  -1.90111 
 H                     0.09872   0.83457  -2.23949 
 H                    -0.96534  -0.30999  -2.11742 
 H                     1.12208   2.09943   0.22124 
 H                    -1.07671   3.0584    0.46184 
 H                    -2.81407  -0.02398   0.6765 
 H                     0.0422    1.33615   2.01181 
 H                    -0.11532  -1.06446   1.08312 
 
 ITRead=  0  0  0  0  0  0  0  0  0  0  0  0  0  0  0  0  0  0  0
 MicOpt= -1 -1 -1 -1 -1 -1 -1 -1 -1 -1 -1 -1 -1 -1 -1 -1 -1 -1 -1
 NAtoms=     19 NQM=       19 NQMF=       0 NMMI=      0 NMMIF=      0
                NMic=       0 NMicF=      0.
                    Isotopes and Nuclear Properties:
 (Nuclear quadrupole moments (NQMom) in fm**2, nuclear magnetic moments (NMagM)
  in nuclear magnetons)

  Atom         1           2           3           4           5           6           7           8           9          10
 IAtWgt=          52          16           1          16           1          16           1          16           1          16
 AtmWgt=  51.9405097  15.9949146   1.0078250  15.9949146   1.0078250  15.9949146   1.0078250  15.9949146   1.0078250  15.9949146
 NucSpn=           0           0           1           0           1           0           1           0           1           0
 AtZEff=  -0.0000000  -0.0000000  -0.0000000  -0.0000000  -0.0000000  -0.0000000  -0.0000000  -0.0000000  -0.0000000  -0.0000000
 NQMom=    0.0000000   0.0000000   0.0000000   0.0000000   0.0000000   0.0000000   0.0000000   0.0000000   0.0000000   0.0000000
 NMagM=    0.0000000   0.0000000   2.7928460   0.0000000   2.7928460   0.0000000   2.7928460   0.0000000   2.7928460   0.0000000
 AtZNuc=  24.0000000   8.0000000   1.0000000   8.0000000   1.0000000   8.0000000   1.0000000   8.0000000   1.0000000   8.0000000

  Atom        11          12          13          14          15          16          17          18          19
 IAtWgt=           1          16           1           1           1           1           1           1           1
 AtmWgt=   1.0078250  15.9949146   1.0078250   1.0078250   1.0078250   1.0078250   1.0078250   1.0078250   1.0078250
 NucSpn=           1           0           1           1           1           1           1           1           1
 AtZEff=  -0.0000000  -0.0000000  -0.0000000  -0.0000000  -0.0000000  -0.0000000  -0.0000000  -0.0000000  -0.0000000
 NQMom=    0.0000000   0.0000000   0.0000000   0.0000000   0.0000000   0.0000000   0.0000000   0.0000000   0.0000000
 NMagM=    2.7928460   0.0000000   2.7928460   2.7928460   2.7928460   2.7928460   2.7928460   2.7928460   2.7928460
 AtZNuc=   1.0000000   8.0000000   1.0000000   1.0000000   1.0000000   1.0000000   1.0000000   1.0000000   1.0000000
 Leave Link  101 at Thu May 23 12:33:33 2024, MaxMem= 26843545600 cpu:               0.4 elap:               0.0
 (Enter /gpfs/fs1/soft/improv/software/custom-built/gaussian/g16/l103.exe)

 GradGradGradGradGradGradGradGradGradGradGradGradGradGradGradGradGradGrad
 Berny optimization.
 Initialization pass.
 No Z-matrix variables, so optimization will use Cartesian coordinates.
 Trust Radius=3.00D-01 FncErr=1.00D-07 GrdErr=1.00D-06 EigMax=2.50D+02 EigMin=1.00D-04
 Number of steps in this run=    114 maximum allowed number of steps=    114.
 GradGradGradGradGradGradGradGradGradGradGradGradGradGradGradGradGradGrad

 Leave Link  103 at Thu May 23 12:33:33 2024, MaxMem= 26843545600 cpu:               0.4 elap:               0.0
 (Enter /gpfs/fs1/soft/improv/software/custom-built/gaussian/g16/l202.exe)
 ---------------------------------------------------------------------------------------------------
                            Z-MATRIX (ANGSTROMS AND DEGREES)
   CD    Cent   Atom    N1       Length/X        N2       Alpha/Y        N3        Beta/Z          J
 ---------------------------------------------------------------------------------------------------
      1      1  Cr       0  -0.793037          0.818805         -0.094905
      2      2  O        0  -1.204971          2.573941         -0.356874
      3      3  H        0  -2.121063          2.649743         -0.633122
      4      4  O        0   0.990122          1.190635         -0.057941
      5      5  H        0   1.426962          0.599798          0.559707
      6      6  O        0  -0.817519          1.030691          1.713650
      7      7  H        0  -1.021079          0.190602          2.131326
      8      8  O        0  -0.385068         -0.933506          0.171177
      9      9  H        0  -1.156817         -1.473692         -0.014327
     10     10  O        0  -2.573405          0.451778         -0.121857
     11     11  H        0  -2.777557         -0.087440         -0.889285
     12     12  O        0  -0.769659          0.604612         -1.901109
     13     13  H        0   0.098725          0.834573         -2.239490
     14     14  H        0  -0.965336         -0.309994         -2.117418
     15     15  H        0   1.122081          2.099426          0.221242
     16     16  H        0  -1.076711          3.058396          0.461841
     17     17  H        0  -2.814074         -0.023981          0.676500
     18     18  H        0   0.042204          1.336153          2.011809
     19     19  H        0  -0.115315         -1.064459          1.083123
 ---------------------------------------------------------------------------------------------------
                         Z-Matrix orientation:                         
 ---------------------------------------------------------------------
 Center     Atomic      Atomic             Coordinates (Angstroms)
 Number     Number       Type             X           Y           Z
 ---------------------------------------------------------------------
      1         24           0       -0.793037    0.818805   -0.094905
      2          8           0       -1.204971    2.573941   -0.356874
      3          1           0       -2.121063    2.649743   -0.633122
      4          8           0        0.990122    1.190635   -0.057941
      5          1           0        1.426962    0.599798    0.559707
      6          8           0       -0.817519    1.030691    1.713650
      7          1           0       -1.021079    0.190602    2.131326
      8          8           0       -0.385068   -0.933506    0.171177
      9          1           0       -1.156817   -1.473692   -0.014327
     10          8           0       -2.573405    0.451778   -0.121857
     11          1           0       -2.777557   -0.087440   -0.889285
     12          8           0       -0.769659    0.604612   -1.901109
     13          1           0        0.098725    0.834573   -2.239490
     14          1           0       -0.965336   -0.309994   -2.117418
     15          1           0        1.122081    2.099426    0.221242
     16          1           0       -1.076711    3.058396    0.461841
     17          1           0       -2.814074   -0.023981    0.676500
     18          1           0        0.042204    1.336153    2.011809
     19          1           0       -0.115315   -1.064459    1.083123
 ---------------------------------------------------------------------
                    Distance matrix (angstroms):
                    1          2          3          4          5
     1  Cr   0.000000
     2  O    1.821762   0.000000
     3  H    2.325008   0.959835   0.000000
     4  O    1.821889   2.611767   3.484150   0.000000
     5  H    2.324839   3.415322   4.267739   0.959899   0.000000
     6  O    1.821090   2.611285   3.134947   2.536076   2.560263
     7  H    2.324381   3.450400   3.859988   3.136540   2.937743
     8  O    1.818745   3.640503   4.062050   2.540791   2.405292
     9  H    2.322579   4.062387   4.279649   3.421971   3.362259
    10  O    1.818006   2.536025   2.301533   3.639880   4.060711
    11  H    2.321775   3.136788   2.826442   4.064482   4.499984
    12  O    1.819010   2.540161   2.759827   2.614866   3.298603
    13  H    2.322657   2.875634   3.286750   2.383386   3.107223
    14  H    2.322591   3.387332   3.506977   3.212032   3.703756
    15  H    2.325429   2.444290   3.398642   0.959822   1.567289
    16  H    2.325125   0.959918   1.567358   2.833814   3.510364
    17  H    2.321626   3.225876   3.056824   4.060370   4.288255
    18  H    2.324547   2.949275   3.660724   2.281137   2.137375
    19  H    2.322443   4.061883   4.556733   2.758526   2.328591
                    6          7          8          9         10
     6  O    0.000000
     7  H    0.960021   0.000000
     8  O    2.534622   2.347406   0.000000
     9  H    3.061530   2.718847   0.960108   0.000000
    10  O    2.605257   2.748593   2.606473   2.392848   0.000000
    11  H    3.444886   3.505227   2.750347   2.305222   0.959885
    12  O    3.640099   4.061422   2.609231   2.833582   2.538227
    13  H    4.062670   4.557707   3.028445   3.443229   3.430916
    14  H    4.061572   4.278496   2.441955   2.411193   2.673658
    15  H    2.670492   3.447487   3.387136   4.244531   4.060675
    16  H    2.397039   3.318813   4.061790   4.557738   3.061904
    17  H    2.484803   2.318921   2.642472   2.307685   0.960023
    18  H    0.959858   1.567527   2.953276   3.665802   3.489421
    19  H    2.297892   1.869309   0.959980   1.567353   3.129403
                   11         12         13         14         15
    11  H    0.000000
    12  O    2.352526   0.000000
    13  H    3.308498   0.959935   0.000000
    14  H    2.200452   0.959991   1.567533   0.000000
    15  H    4.606825   3.212091   2.949969   3.953725   0.000000
    16  H    3.822919   3.420362   3.691102   4.243941   2.410850
    17  H    1.567497   3.349453   4.210050   3.362383   4.495491
    18  H    4.288824   4.062660   4.281159   4.558009   2.225950
    19  H    3.454344   3.481323   3.833001   3.396353   3.504877
                   16         17         18         19
    16  H    0.000000
    17  H    3.544793   0.000000
    18  H    2.573032   3.433851   0.000000
    19  H    4.278809   2.920828   2.578800   0.000000
 Stoichiometry    CrH12O6(3+,4)
 Framework group  C1[X(CrH12O6)]
 Deg. of freedom    51
 Full point group                 C1      NOp   1
 Largest Abelian subgroup         C1      NOp   1
 Largest concise Abelian subgroup C1      NOp   1
                         Standard orientation:                         
 ---------------------------------------------------------------------
 Center     Atomic      Atomic             Coordinates (Angstroms)
 Number     Number       Type             X           Y           Z
 ---------------------------------------------------------------------
      1         24           0       -0.020685   -0.030482    0.009994
      2          8           0       -0.320844   -1.688023   -0.683750
      3          1           0       -1.137089   -1.680465   -1.188697
      4          8           0        1.254521   -0.678417    1.138405
      5          1           0        1.943144   -0.019792    1.254236
      6          8           0        1.297903    0.293995   -1.203435
      7          1           0        1.381609    1.240665   -1.339268
      8          8           0        0.280044    1.626266    0.697440
      9          1           0       -0.431883    2.215255    0.436555
     10          8           0       -1.286249    0.615324   -1.124214
     11          1           0       -2.035220    0.938006   -0.617955
     12          8           0       -1.338537   -0.351919    1.221911
     13          1           0       -0.971839   -0.815948    1.978009
     14          1           0       -1.717555    0.481353    1.511023
     15          1           0        1.635363   -1.477123    0.766536
     16          1           0        0.408500   -1.931252   -1.258500
     17          1           0       -0.915691    1.334609   -1.640895
     18          1           0        2.128750   -0.056695   -0.874745
     19          1           0        1.113633    1.965130    0.362982
 ---------------------------------------------------------------------
 Rotational constants (GHZ):           2.0397002           1.9739464           1.9252837
 Leave Link  202 at Thu May 23 12:33:33 2024, MaxMem= 26843545600 cpu:               0.5 elap:               0.0
 (Enter /gpfs/fs1/soft/improv/software/custom-built/gaussian/g16/l301.exe)
 Standard basis: 6-31+G(2df,p) (6D, 7F)
 Ernie: Thresh=  0.10000D-02 Tol=  0.10000D-05 Strict=F.
 There are   347 symmetry adapted cartesian basis functions of A   symmetry.
 There are   317 symmetry adapted basis functions of A   symmetry.
   317 basis functions,   514 primitive gaussians,   347 cartesian basis functions
    42 alpha electrons       39 beta electrons
       nuclear repulsion energy       734.4111157916 Hartrees.
 IExCor= 1009 DFT=T Ex+Corr=PBE1PBE ExCW=0 ScaHFX=  0.250000
 ScaDFX=  0.750000  0.750000  1.000000  1.000000 ScalE2=  1.000000  1.000000
 IRadAn=      5 IRanWt=     -1 IRanGd=            0 ICorTp=0 IEmpDi=131
 NAtoms=   19 NActive=   19 NUniq=   19 SFac= 1.00D+00 NAtFMM=   60 NAOKFM=F Big=F
 Integral buffers will be    131072 words long.
 Raffenetti 2 integral format.
 Two-electron integral symmetry is turned on.
 R6Disp:  Grimme-D3 Dispersion energy=       -0.0117228566 Hartrees.
 Nuclear repulsion after empirical dispersion term =      734.3993929349 Hartrees.
 Leave Link  301 at Thu May 23 12:33:33 2024, MaxMem= 26843545600 cpu:               0.4 elap:               0.0
 (Enter /gpfs/fs1/soft/improv/software/custom-built/gaussian/g16/l302.exe)
 NPDir=0 NMtPBC=     1 NCelOv=     1 NCel=       1 NClECP=     1 NCelD=      1
         NCelK=      1 NCelE2=     1 NClLst=     1 CellRange=     0.0.
 One-electron integrals computed using PRISM.
 One-electron integral symmetry used in STVInt
 NBasis=   317 RedAO= T EigKep=  2.57D-05  NBF=   317
 NBsUse=   317 1.00D-06 EigRej= -1.00D+00 NBFU=   317
 Precomputing XC quadrature grid using
 IXCGrd= 4 IRadAn=           5 IRanWt=          -1 IRanGd=           0 AccXCQ= 0.00D+00.
 Generated NRdTot=       0 NPtTot=           0 NUsed=           0 NTot=          32
 NSgBfM=   347   346   347   347   347 MxSgAt=    19 MxSgA2=    19.
 Leave Link  302 at Thu May 23 12:33:34 2024, MaxMem= 26843545600 cpu:              22.1 elap:               0.3
 (Enter /gpfs/fs1/soft/improv/software/custom-built/gaussian/g16/l303.exe)
 DipDrv:  MaxL=1.
 Leave Link  303 at Thu May 23 12:33:34 2024, MaxMem= 26843545600 cpu:               1.0 elap:               0.0
 (Enter /gpfs/fs1/soft/improv/software/custom-built/gaussian/g16/l401.exe)
 ExpMin= 1.13D-02 ExpMax= 5.18D+04 ExpMxC= 7.78D+03 IAcc=3 IRadAn=         5 AccDes= 0.00D+00
 Harris functional with IExCor= 1009 and IRadAn=       5 diagonalized for initial guess.
 HarFok:  IExCor= 1009 AccDes= 0.00D+00 IRadAn=         5 IDoV= 1 UseB2=F ITyADJ=14
 ICtDFT=  3500011 ScaDFX=  1.000000  1.000000  1.000000  1.000000
 FoFCou: FMM=F IPFlag=           0 FMFlag=      100000 FMFlg1=           0
         NFxFlg=           0 DoJE=T BraDBF=F KetDBF=T FulRan=T
         wScrn=  0.000000 ICntrl=       500 IOpCl=  0 I1Cent=   200000004 NGrid=           0
         NMat0=    1 NMatS0=      1 NMatT0=    0 NMatD0=    1 NMtDS0=    0 NMtDT0=    0
 Petite list used in FoFCou.
 Harris En= -1501.86413070209    
 JPrj=0 DoOrth=F DoCkMO=F.
 Initial guess <Sx>= 0.0000 <Sy>= 0.0000 <Sz>= 1.5000 <S**2>= 3.7500 S= 1.5000
 Leave Link  401 at Thu May 23 12:33:34 2024, MaxMem= 26843545600 cpu:              38.4 elap:               0.5
 (Enter /gpfs/fs1/soft/improv/software/custom-built/gaussian/g16/l502.exe)
 Integral symmetry usage will be decided dynamically.
 UHF open shell SCF:
 Using DIIS extrapolation, IDIIS=  1040.
 NGot= 26843545600 LenX= 26843256607 LenY= 26843135757
 Requested convergence on RMS density matrix=1.00D-08 within  50 cycles.
 Requested convergence on MAX density matrix=1.00D-06.
 Requested convergence on             energy=1.00D-06.
 No special actions if energy rises.
 Fock matrices will be formed incrementally for  20 cycles.

 Cycle   1  Pass 1  IDiag  1:
 FoFJK:  IHMeth= 1 ICntrl=       0 DoSepK=F KAlg= 0 I1Cent=           0 FoldK=F
 IRaf= 990000000 NMat=       1 IRICut=       1 DoRegI=T DoRafI=F ISym2E= 0 IDoP0=0 IntGTp=1.
 FoFCou: FMM=F IPFlag=           0 FMFlag=      100000 FMFlg1=           0
         NFxFlg=           0 DoJE=F BraDBF=F KetDBF=F FulRan=T
         wScrn=  0.000000 ICntrl=         0 IOpCl=  1 I1Cent=           0 NGrid=           0
         NMat0=    1 NMatS0=      1 NMatT0=    0 NMatD0=    1 NMtDS0=    0 NMtDT0=    0
 Symmetry not used in FoFCou.
 E= -1499.48210570150    
 DIIS: error= 5.75D-02 at cycle   1 NSaved=   1.
 NSaved= 1 IEnMin= 1 EnMin= -1499.48210570150     IErMin= 1 ErrMin= 5.75D-02
 ErrMax= 5.75D-02  0.00D+00 EMaxC= 1.00D-01 BMatC= 8.04D+00 BMatP= 8.04D+00
 IDIUse=3 WtCom= 4.25D-01 WtEn= 5.75D-01
 Coeff-Com:  0.100D+01
 Coeff-En:   0.100D+01
 Coeff:      0.100D+01
 Gap=     0.138 Goal=   None    Shift=    0.000
 Gap=     0.358 Goal=   None    Shift=    0.000
 GapD=    0.138 DampG=1.000 DampE=0.250 DampFc=0.2500 IDamp=-1.
 Damping current iteration by 2.50D-01
 RMSDP=4.30D-02 MaxDP=2.44D+00              OVMax= 9.58D-01

 Cycle   2  Pass 1  IDiag  1:
 RMSU=  1.07D-02    CP:  9.54D-01
 E= -1499.73366561644     Delta-E=       -0.251559914943 Rises=F Damp=T
 DIIS: error= 2.34D-02 at cycle   2 NSaved=   2.
 NSaved= 2 IEnMin= 2 EnMin= -1499.73366561644     IErMin= 2 ErrMin= 2.34D-02
 ErrMax= 2.34D-02  0.00D+00 EMaxC= 1.00D-01 BMatC= 6.85D-01 BMatP= 8.04D+00
 IDIUse=3 WtCom= 7.66D-01 WtEn= 2.34D-01
 Coeff-Com:  0.117D+00 0.883D+00
 Coeff-En:   0.428D+00 0.572D+00
 Coeff:      0.190D+00 0.810D+00
 Gap=    -0.005 Goal=   None    Shift=    0.000
 Gap=     0.012 Goal=   None    Shift=    0.000
 RMSDP=1.36D-02 MaxDP=1.84D+00 DE=-2.52D-01 OVMax= 9.70D-01

 Cycle   3  Pass 1  IDiag  1:
 RMSU=  9.99D-03    CP:  6.94D-01  3.40D-01
 E= -1501.11365331864     Delta-E=       -1.379987702193 Rises=F Damp=F
 DIIS: error= 9.02D-03 at cycle   3 NSaved=   3.
 NSaved= 3 IEnMin= 3 EnMin= -1501.11365331864     IErMin= 3 ErrMin= 9.02D-03
 ErrMax= 9.02D-03  0.00D+00 EMaxC= 1.00D-01 BMatC= 2.51D-01 BMatP= 6.85D-01
 IDIUse=3 WtCom= 9.10D-01 WtEn= 9.02D-02
 Coeff-Com:  0.353D-02 0.346D+00 0.650D+00
 Coeff-En:   0.000D+00 0.000D+00 0.100D+01
 Coeff:      0.321D-02 0.315D+00 0.682D+00
 Gap=     0.207 Goal=   None    Shift=    0.000
 Gap=     0.347 Goal=   None    Shift=    0.000
 RMSDP=1.81D-03 MaxDP=9.38D-02 DE=-1.38D+00 OVMax= 8.20D-02

 Cycle   4  Pass 1  IDiag  1:
 RMSU=  1.63D-03    CP:  6.91D-01  4.11D-01  9.84D-01
 E= -1501.13938821453     Delta-E=       -0.025734895889 Rises=F Damp=F
 DIIS: error= 5.96D-03 at cycle   4 NSaved=   4.
 NSaved= 4 IEnMin= 4 EnMin= -1501.13938821453     IErMin= 4 ErrMin= 5.96D-03
 ErrMax= 5.96D-03  0.00D+00 EMaxC= 1.00D-01 BMatC= 1.22D-01 BMatP= 2.51D-01
 IDIUse=3 WtCom= 9.40D-01 WtEn= 5.96D-02
 Coeff-Com: -0.673D-01 0.124D+00 0.287D+00 0.656D+00
 Coeff-En:   0.000D+00 0.000D+00 0.705D-01 0.930D+00
 Coeff:     -0.633D-01 0.117D+00 0.274D+00 0.673D+00
 Gap=     0.259 Goal=   None    Shift=    0.000
 Gap=     0.337 Goal=   None    Shift=    0.000
 RMSDP=5.49D-04 MaxDP=2.12D-02 DE=-2.57D-02 OVMax= 2.43D-02

 Cycle   5  Pass 1  IDiag  1:
 RMSU=  5.21D-04    CP:  6.90D-01  4.22D-01  9.83D-01  1.07D+00
 E= -1501.15604326854     Delta-E=       -0.016655054014 Rises=F Damp=F
 DIIS: error= 3.01D-03 at cycle   5 NSaved=   5.
 NSaved= 5 IEnMin= 5 EnMin= -1501.15604326854     IErMin= 5 ErrMin= 3.01D-03
 ErrMax= 3.01D-03  0.00D+00 EMaxC= 1.00D-01 BMatC= 2.33D-02 BMatP= 1.22D-01
 IDIUse=3 WtCom= 9.70D-01 WtEn= 3.01D-02
 Coeff-Com: -0.381D-01 0.596D-01-0.840D-01 0.809D-01 0.982D+00
 Coeff-En:   0.000D+00 0.000D+00 0.000D+00 0.000D+00 0.100D+01
 Coeff:     -0.370D-01 0.578D-01-0.815D-01 0.785D-01 0.982D+00
 Gap=     0.287 Goal=   None    Shift=    0.000
 Gap=     0.333 Goal=   None    Shift=    0.000
 RMSDP=3.05D-04 MaxDP=1.13D-02 DE=-1.67D-02 OVMax= 1.83D-02

 Cycle   6  Pass 1  IDiag  1:
 RMSU=  2.70D-04    CP:  6.89D-01  4.25D-01  9.80D-01  1.15D+00  9.68D-01
 E= -1501.15983106114     Delta-E=       -0.003787792601 Rises=F Damp=F
 DIIS: error= 1.44D-03 at cycle   6 NSaved=   6.
 NSaved= 6 IEnMin= 6 EnMin= -1501.15983106114     IErMin= 6 ErrMin= 1.44D-03
 ErrMax= 1.44D-03  0.00D+00 EMaxC= 1.00D-01 BMatC= 4.05D-03 BMatP= 2.33D-02
 IDIUse=3 WtCom= 9.86D-01 WtEn= 1.44D-02
 Coeff-Com: -0.796D-02 0.167D-01-0.700D-01-0.139D+00 0.264D+00 0.937D+00
 Coeff-En:   0.000D+00 0.000D+00 0.000D+00 0.000D+00 0.000D+00 0.100D+01
 Coeff:     -0.785D-02 0.164D-01-0.690D-01-0.137D+00 0.260D+00 0.937D+00
 Gap=     0.293 Goal=   None    Shift=    0.000
 Gap=     0.335 Goal=   None    Shift=    0.000
 RMSDP=2.16D-04 MaxDP=1.11D-02 DE=-3.79D-03 OVMax= 6.51D-03

 Cycle   7  Pass 1  IDiag  1:
 RMSU=  9.37D-05    CP:  6.89D-01  4.38D-01  9.78D-01  1.22D+00  1.11D+00
                    CP:  9.56D-01
 E= -1501.16039802573     Delta-E=       -0.000566964588 Rises=F Damp=F
 DIIS: error= 4.04D-04 at cycle   7 NSaved=   7.
 NSaved= 7 IEnMin= 7 EnMin= -1501.16039802573     IErMin= 7 ErrMin= 4.04D-04
 ErrMax= 4.04D-04  0.00D+00 EMaxC= 1.00D-01 BMatC= 6.23D-04 BMatP= 4.05D-03
 IDIUse=3 WtCom= 9.96D-01 WtEn= 4.04D-03
 Coeff-Com: -0.224D-02 0.965D-03-0.185D-01-0.684D-01-0.156D-01 0.461D+00
 Coeff-Com:  0.643D+00
 Coeff-En:   0.000D+00 0.000D+00 0.000D+00 0.000D+00 0.000D+00 0.000D+00
 Coeff-En:   0.100D+01
 Coeff:     -0.223D-02 0.961D-03-0.184D-01-0.682D-01-0.155D-01 0.459D+00
 Coeff:      0.644D+00
 Gap=     0.293 Goal=   None    Shift=    0.000
 Gap=     0.335 Goal=   None    Shift=    0.000
 RMSDP=5.08D-05 MaxDP=2.27D-03 DE=-5.67D-04 OVMax= 2.18D-03

 Cycle   8  Pass 1  IDiag  1:
 RMSU=  3.99D-05    CP:  6.89D-01  4.40D-01  9.78D-01  1.23D+00  1.14D+00
                    CP:  9.44D-01  8.76D-01
 E= -1501.16049747085     Delta-E=       -0.000099445126 Rises=F Damp=F
 DIIS: error= 1.04D-04 at cycle   8 NSaved=   8.
 NSaved= 8 IEnMin= 8 EnMin= -1501.16049747085     IErMin= 8 ErrMin= 1.04D-04
 ErrMax= 1.04D-04  0.00D+00 EMaxC= 1.00D-01 BMatC= 4.77D-05 BMatP= 6.23D-04
 IDIUse=3 WtCom= 9.99D-01 WtEn= 1.04D-03
 Coeff-Com: -0.160D-03 0.549D-03 0.268D-02-0.659D-02-0.376D-01 0.492D-01
 Coeff-Com:  0.268D+00 0.724D+00
 Coeff-En:   0.000D+00 0.000D+00 0.000D+00 0.000D+00 0.000D+00 0.000D+00
 Coeff-En:   0.000D+00 0.100D+01
 Coeff:     -0.160D-03 0.549D-03 0.268D-02-0.658D-02-0.376D-01 0.492D-01
 Coeff:      0.268D+00 0.724D+00
 Gap=     0.293 Goal=   None    Shift=    0.000
 Gap=     0.335 Goal=   None    Shift=    0.000
 RMSDP=1.56D-05 MaxDP=8.51D-04 DE=-9.94D-05 OVMax= 5.51D-04

 Cycle   9  Pass 1  IDiag  1:
 RMSU=  9.70D-06    CP:  6.89D-01  4.40D-01  9.78D-01  1.22D+00  1.13D+00
                    CP:  9.58D-01  9.25D-01  8.32D-01
 E= -1501.16050684404     Delta-E=       -0.000009373189 Rises=F Damp=F
 DIIS: error= 2.17D-05 at cycle   9 NSaved=   9.
 NSaved= 9 IEnMin= 9 EnMin= -1501.16050684404     IErMin= 9 ErrMin= 2.17D-05
 ErrMax= 2.17D-05  0.00D+00 EMaxC= 1.00D-01 BMatC= 1.26D-06 BMatP= 4.77D-05
 IDIUse=1 WtCom= 1.00D+00 WtEn= 0.00D+00
 Coeff-Com: -0.499D-05 0.107D-03 0.148D-02 0.275D-02-0.859D-02-0.164D-01
 Coeff-Com:  0.265D-01 0.146D+00 0.849D+00
 Coeff:     -0.499D-05 0.107D-03 0.148D-02 0.275D-02-0.859D-02-0.164D-01
 Coeff:      0.265D-01 0.146D+00 0.849D+00
 Gap=     0.293 Goal=   None    Shift=    0.000
 Gap=     0.335 Goal=   None    Shift=    0.000
 RMSDP=3.92D-06 MaxDP=1.61D-04 DE=-9.37D-06 OVMax= 1.99D-04

 Cycle  10  Pass 1  IDiag  1:
 RMSU=  2.30D-06    CP:  6.89D-01  4.40D-01  9.78D-01  1.22D+00  1.13D+00
                    CP:  9.55D-01  9.37D-01  8.70D-01  1.06D+00
 E= -1501.16050705208     Delta-E=       -0.000000208037 Rises=F Damp=F
 DIIS: error= 1.25D-05 at cycle  10 NSaved=  10.
 NSaved=10 IEnMin=10 EnMin= -1501.16050705208     IErMin=10 ErrMin= 1.25D-05
 ErrMax= 1.25D-05  0.00D+00 EMaxC= 1.00D-01 BMatC= 5.11D-07 BMatP= 1.26D-06
 IDIUse=1 WtCom= 1.00D+00 WtEn= 0.00D+00
 Coeff-Com:  0.195D-05-0.140D-04 0.583D-03 0.221D-02-0.162D-02-0.138D-01
 Coeff-Com: -0.871D-02 0.158D-01 0.465D+00 0.541D+00
 Coeff:      0.195D-05-0.140D-04 0.583D-03 0.221D-02-0.162D-02-0.138D-01
 Coeff:     -0.871D-02 0.158D-01 0.465D+00 0.541D+00
 Gap=     0.293 Goal=   None    Shift=    0.000
 Gap=     0.335 Goal=   None    Shift=    0.000
 RMSDP=1.20D-06 MaxDP=7.01D-05 DE=-2.08D-07 OVMax= 7.89D-05

 Cycle  11  Pass 1  IDiag  1:
 RMSU=  8.25D-07    CP:  6.89D-01  4.40D-01  9.78D-01  1.22D+00  1.13D+00
                    CP:  9.54D-01  9.41D-01  8.74D-01  1.10D+00  8.21D-01
 E= -1501.16050714828     Delta-E=       -0.000000096203 Rises=F Damp=F
 DIIS: error= 2.44D-06 at cycle  11 NSaved=  11.
 NSaved=11 IEnMin=11 EnMin= -1501.16050714828     IErMin=11 ErrMin= 2.44D-06
 ErrMax= 2.44D-06  0.00D+00 EMaxC= 1.00D-01 BMatC= 2.03D-08 BMatP= 5.11D-07
 IDIUse=1 WtCom= 1.00D+00 WtEn= 0.00D+00
 Coeff-Com:  0.794D-05-0.149D-04 0.263D-04 0.326D-03 0.334D-03-0.196D-02
 Coeff-Com: -0.441D-02-0.947D-02 0.256D-01 0.127D+00 0.863D+00
 Coeff:      0.794D-05-0.149D-04 0.263D-04 0.326D-03 0.334D-03-0.196D-02
 Coeff:     -0.441D-02-0.947D-02 0.256D-01 0.127D+00 0.863D+00
 Gap=     0.293 Goal=   None    Shift=    0.000
 Gap=     0.335 Goal=   None    Shift=    0.000
 RMSDP=4.90D-07 MaxDP=4.17D-05 DE=-9.62D-08 OVMax= 6.98D-05

 Cycle  12  Pass 1  IDiag  1:
 RMSU=  3.75D-07    CP:  6.89D-01  4.40D-01  9.78D-01  1.22D+00  1.13D+00
                    CP:  9.54D-01  9.41D-01  8.75D-01  1.12D+00  8.99D-01
                    CP:  1.21D+00
 E= -1501.16050715758     Delta-E=       -0.000000009300 Rises=F Damp=F
 DIIS: error= 1.27D-06 at cycle  12 NSaved=  12.
 NSaved=12 IEnMin=12 EnMin= -1501.16050715758     IErMin=12 ErrMin= 1.27D-06
 ErrMax= 1.27D-06  0.00D+00 EMaxC= 1.00D-01 BMatC= 4.66D-09 BMatP= 2.03D-08
 IDIUse=1 WtCom= 1.00D+00 WtEn= 0.00D+00
 Coeff-Com:  0.508D-05-0.552D-05-0.112D-03-0.465D-03 0.394D-03 0.308D-02
 Coeff-Com:  0.167D-02-0.526D-02-0.111D+00-0.110D+00 0.198D+00 0.102D+01
 Coeff:      0.508D-05-0.552D-05-0.112D-03-0.465D-03 0.394D-03 0.308D-02
 Coeff:      0.167D-02-0.526D-02-0.111D+00-0.110D+00 0.198D+00 0.102D+01
 Gap=     0.293 Goal=   None    Shift=    0.000
 Gap=     0.335 Goal=   None    Shift=    0.000
 RMSDP=3.61D-07 MaxDP=3.33D-05 DE=-9.30D-09 OVMax= 5.74D-05

 Cycle  13  Pass 1  IDiag  1:
 RMSU=  1.83D-07    CP:  6.89D-01  4.40D-01  9.78D-01  1.22D+00  1.13D+00
                    CP:  9.54D-01  9.41D-01  8.76D-01  1.12D+00  9.55D-01
                    CP:  1.49D+00  1.35D+00
 E= -1501.16050716059     Delta-E=       -0.000000003010 Rises=F Damp=F
 DIIS: error= 5.47D-07 at cycle  13 NSaved=  13.
 NSaved=13 IEnMin=13 EnMin= -1501.16050716059     IErMin=13 ErrMin= 5.47D-07
 ErrMax= 5.47D-07  0.00D+00 EMaxC= 1.00D-01 BMatC= 7.11D-10 BMatP= 4.66D-09
 IDIUse=1 WtCom= 1.00D+00 WtEn= 0.00D+00
 Coeff-Com:  0.206D-05-0.135D-05-0.368D-04-0.202D-03 0.985D-04 0.133D-02
 Coeff-Com:  0.108D-02-0.102D-02-0.416D-01-0.503D-01-0.673D-02 0.373D+00
 Coeff-Com:  0.724D+00
 Coeff:      0.206D-05-0.135D-05-0.368D-04-0.202D-03 0.985D-04 0.133D-02
 Coeff:      0.108D-02-0.102D-02-0.416D-01-0.503D-01-0.673D-02 0.373D+00
 Coeff:      0.724D+00
 Gap=     0.293 Goal=   None    Shift=    0.000
 Gap=     0.335 Goal=   None    Shift=    0.000
 RMSDP=1.00D-07 MaxDP=8.54D-06 DE=-3.01D-09 OVMax= 1.46D-05

 Cycle  14  Pass 1  IDiag  1:
 RMSU=  5.91D-08    CP:  6.89D-01  4.40D-01  9.78D-01  1.22D+00  1.13D+00
                    CP:  9.55D-01  9.41D-01  8.76D-01  1.13D+00  9.65D-01
                    CP:  1.54D+00  1.51D+00  1.11D+00
 E= -1501.16050716090     Delta-E=       -0.000000000303 Rises=F Damp=F
 DIIS: error= 3.23D-07 at cycle  14 NSaved=  14.
 NSaved=14 IEnMin=14 EnMin= -1501.16050716090     IErMin=14 ErrMin= 3.23D-07
 ErrMax= 3.23D-07  0.00D+00 EMaxC= 1.00D-01 BMatC= 2.38D-10 BMatP= 7.11D-10
 IDIUse=1 WtCom= 1.00D+00 WtEn= 0.00D+00
 Coeff-Com:  0.538D-07 0.480D-06 0.127D-04 0.149D-04-0.640D-04-0.112D-03
 Coeff-Com:  0.153D-03 0.894D-03 0.827D-02 0.354D-02-0.574D-01-0.783D-01
 Coeff-Com:  0.383D+00 0.740D+00
 Coeff:      0.538D-07 0.480D-06 0.127D-04 0.149D-04-0.640D-04-0.112D-03
 Coeff:      0.153D-03 0.894D-03 0.827D-02 0.354D-02-0.574D-01-0.783D-01
 Coeff:      0.383D+00 0.740D+00
 Gap=     0.293 Goal=   None    Shift=    0.000
 Gap=     0.335 Goal=   None    Shift=    0.000
 RMSDP=6.35D-08 MaxDP=5.65D-06 DE=-3.03D-10 OVMax= 9.86D-06

 Cycle  15  Pass 1  IDiag  1:
 RMSU=  3.15D-08    CP:  6.89D-01  4.40D-01  9.78D-01  1.22D+00  1.13D+00
                    CP:  9.55D-01  9.41D-01  8.76D-01  1.13D+00  9.70D-01
                    CP:  1.57D+00  1.59D+00  1.29D+00  1.17D+00
 E= -1501.16050716103     Delta-E=       -0.000000000132 Rises=F Damp=F
 DIIS: error= 1.72D-07 at cycle  15 NSaved=  15.
 NSaved=15 IEnMin=15 EnMin= -1501.16050716103     IErMin=15 ErrMin= 1.72D-07
 ErrMax= 1.72D-07  0.00D+00 EMaxC= 1.00D-01 BMatC= 2.28D-11 BMatP= 2.38D-10
 IDIUse=1 WtCom= 1.00D+00 WtEn= 0.00D+00
 Coeff-Com: -0.391D-06 0.377D-06 0.875D-05 0.379D-04-0.328D-04-0.258D-03
 Coeff-Com: -0.153D-03 0.370D-03 0.893D-02 0.989D-02-0.817D-02-0.850D-01
 Coeff-Com: -0.774D-01 0.124D+00 0.103D+01
 Coeff:     -0.391D-06 0.377D-06 0.875D-05 0.379D-04-0.328D-04-0.258D-03
 Coeff:     -0.153D-03 0.370D-03 0.893D-02 0.989D-02-0.817D-02-0.850D-01
 Coeff:     -0.774D-01 0.124D+00 0.103D+01
 Gap=     0.293 Goal=   None    Shift=    0.000
 Gap=     0.335 Goal=   None    Shift=    0.000
 RMSDP=3.81D-08 MaxDP=3.30D-06 DE=-1.32D-10 OVMax= 6.14D-06

 Cycle  16  Pass 1  IDiag  1:
 RMSU=  1.31D-08    CP:  6.89D-01  4.40D-01  9.78D-01  1.22D+00  1.13D+00
                    CP:  9.55D-01  9.41D-01  8.76D-01  1.13D+00  9.72D-01
                    CP:  1.58D+00  1.64D+00  1.40D+00  1.42D+00  1.29D+00
 E= -1501.16050716104     Delta-E=       -0.000000000013 Rises=F Damp=F
 DIIS: error= 6.67D-08 at cycle  16 NSaved=  16.
 NSaved=16 IEnMin=16 EnMin= -1501.16050716104     IErMin=16 ErrMin= 6.67D-08
 ErrMax= 6.67D-08  0.00D+00 EMaxC= 1.00D-01 BMatC= 3.17D-12 BMatP= 2.28D-11
 IDIUse=1 WtCom= 1.00D+00 WtEn= 0.00D+00
 Coeff-Com: -0.108D-06-0.349D-07-0.286D-05-0.218D-05 0.148D-04 0.199D-04
 Coeff-Com: -0.254D-04-0.174D-03-0.196D-02-0.106D-02 0.120D-01 0.175D-01
 Coeff-Com: -0.807D-01-0.155D+00 0.200D-02 0.121D+01
 Coeff:     -0.108D-06-0.349D-07-0.286D-05-0.218D-05 0.148D-04 0.199D-04
 Coeff:     -0.254D-04-0.174D-03-0.196D-02-0.106D-02 0.120D-01 0.175D-01
 Coeff:     -0.807D-01-0.155D+00 0.200D-02 0.121D+01
 Gap=     0.293 Goal=   None    Shift=    0.000
 Gap=     0.335 Goal=   None    Shift=    0.000
 RMSDP=1.89D-08 MaxDP=1.69D-06 DE=-1.32D-11 OVMax= 3.11D-06

 Cycle  17  Pass 1  IDiag  1:
 RMSU=  4.94D-09    CP:  6.89D-01  4.40D-01  9.78D-01  1.22D+00  1.13D+00
                    CP:  9.55D-01  9.41D-01  8.76D-01  1.13D+00  9.73D-01
                    CP:  1.59D+00  1.66D+00  1.44D+00  1.55D+00  1.57D+00
                    CP:  1.35D+00
 E= -1501.16050716106     Delta-E=       -0.000000000019 Rises=F Damp=F
 DIIS: error= 1.23D-08 at cycle  17 NSaved=  17.
 NSaved=17 IEnMin=17 EnMin= -1501.16050716106     IErMin=17 ErrMin= 1.23D-08
 ErrMax= 1.23D-08  0.00D+00 EMaxC= 1.00D-01 BMatC= 7.44D-13 BMatP= 3.17D-12
 IDIUse=1 WtCom= 1.00D+00 WtEn= 0.00D+00
 Coeff-Com: -0.319D-07-0.203D-07-0.206D-05-0.385D-05 0.972D-05 0.288D-04
 Coeff-Com: -0.142D-05-0.114D-03-0.161D-02-0.124D-02 0.624D-02 0.148D-01
 Coeff-Com: -0.314D-01-0.812D-01-0.726D-01 0.549D+00 0.618D+00
 Coeff:     -0.319D-07-0.203D-07-0.206D-05-0.385D-05 0.972D-05 0.288D-04
 Coeff:     -0.142D-05-0.114D-03-0.161D-02-0.124D-02 0.624D-02 0.148D-01
 Coeff:     -0.314D-01-0.812D-01-0.726D-01 0.549D+00 0.618D+00
 Gap=     0.293 Goal=   None    Shift=    0.000
 Gap=     0.335 Goal=   None    Shift=    0.000
 RMSDP=2.77D-09 MaxDP=2.01D-07 DE=-1.91D-11 OVMax= 4.44D-07

 SCF Done:  E(UPBE1PBE) =  -1501.16050716     A.U. after   17 cycles
            NFock= 17  Conv=0.28D-08     -V/T= 2.0013
 <Sx>= 0.0000 <Sy>= 0.0000 <Sz>= 1.5000 <S**2>= 3.7590 S= 1.5023
 <L.S>=  0.00000000000    
 KE= 1.499187577101D+03 PE=-4.979625765143D+03 EE= 1.244878287946D+03
 Annihilation of the first spin contaminant:
 S**2 before annihilation     3.7590,   after     3.7500
 Leave Link  502 at Thu May 23 12:34:03 2024, MaxMem= 26843545600 cpu:            3188.8 elap:              28.0
 (Enter /gpfs/fs1/soft/improv/software/custom-built/gaussian/g16/l508.exe)
 QCSCF skips out because SCF is already converged.
 Leave Link  508 at Thu May 23 12:34:03 2024, MaxMem= 26843545600 cpu:               0.2 elap:               0.0
 (Enter /gpfs/fs1/soft/improv/software/custom-built/gaussian/g16/l801.exe)
 DoSCS=F DFT=T ScalE2(SS,OS)=  1.000000  1.000000
 Range of M.O.s used for correlation:     1   317
 NBasis=   317 NAE=    42 NBE=    39 NFC=     0 NFV=     0
 NROrb=    317 NOA=    42 NOB=    39 NVA=   275 NVB=   278

 **** Warning!!: The largest alpha MO coefficient is  0.55275312D+02


 **** Warning!!: The largest beta MO coefficient is  0.57017713D+02

 Leave Link  801 at Thu May 23 12:34:03 2024, MaxMem= 26843545600 cpu:               0.4 elap:               0.0
 (Enter /gpfs/fs1/soft/improv/software/custom-built/gaussian/g16/l1101.exe)
 Using compressed storage, NAtomX=    19.
 Will process     20 centers per pass.
 R6Disp: Adding Grimme-D3 dispersion energy 1st derivatives to the gradient.
 Leave Link 1101 at Thu May 23 12:34:03 2024, MaxMem= 26843545600 cpu:              51.0 elap:               0.5
 (Enter /gpfs/fs1/soft/improv/software/custom-built/gaussian/g16/l1102.exe)
 Symmetrizing basis deriv contribution to polar:
 IMax=3 JMax=2 DiffMx= 0.00D+00
 Leave Link 1102 at Thu May 23 12:34:03 2024, MaxMem= 26843545600 cpu:               0.9 elap:               0.0
 (Enter /gpfs/fs1/soft/improv/software/custom-built/gaussian/g16/l1110.exe)
 Forming Gx(P) for the SCF density, NAtomX=    19.
 Integral derivatives from FoFJK, PRISM(SPDF).
 Do as many integral derivatives as possible in FoFJK.
 G2DrvN: MDV=   26843543431.
 G2DrvN: will do    20 centers at a time, making    1 passes.
 Calling FoFCou, ICntrl=  3107 FMM=F I1Cent=   0 AccDes= 0.00D+00.
 FoFJK:  IHMeth= 1 ICntrl=    3107 DoSepK=F KAlg= 0 I1Cent=           0 FoldK=F
 IRaf=         0 NMat=       1 IRICut=       1 DoRegI=T DoRafI=F ISym2E= 0 IDoP0=0 IntGTp=1.
 FoFCou: FMM=F IPFlag=           0 FMFlag=      100000 FMFlg1=           0
         NFxFlg=           0 DoJE=F BraDBF=F KetDBF=F FulRan=T
         wScrn=  0.000000 ICntrl=      3107 IOpCl=  1 I1Cent=           0 NGrid=           0
         NMat0=    1 NMatS0=      1 NMatT0=    0 NMatD0=    1 NMtDS0=    0 NMtDT0=    0
 Symmetry not used in FoFCou.
 End of G2Drv F.D. properties file   721 does not exist.
 End of G2Drv F.D. properties file   722 does not exist.
 End of G2Drv F.D. properties file   788 does not exist.
 Leave Link 1110 at Thu May 23 12:34:18 2024, MaxMem= 26843545600 cpu:            1871.8 elap:              14.9
 (Enter /gpfs/fs1/soft/improv/software/custom-built/gaussian/g16/l1002.exe)
 Minotr:  UHF open shell wavefunction.
          IDoAtm=1111111111111111111
          Direct CPHF calculation.
          Differentiating once with respect to electric field.
                with respect to dipole field.
          Differentiating once with respect to nuclear coordinates.
          Requested convergence is 1.0D-08 RMS, and 1.0D-07 maximum.
          Secondary convergence is 1.0D-12 RMS, and 1.0D-12 maximum.
          NewPWx=T KeepS1=F KeepF1=F KeepIn=T MapXYZ=F SortEE=F KeepMc=T.
         6034 words used for storage of precomputed grid.
 Two-electron integrals replicated using symmetry.
          MDV=   26843545600 using IRadAn=       1.
          Solving linear equations simultaneously, MaxMat=     384.
 FoF2E skips out because all densities are zero.
 CalDSu exits because no D1Ps are significant.
 FoFJK:  IHMeth= 1 ICntrl=       0 DoSepK=F KAlg= 0 I1Cent=           0 FoldK=F
 IRaf= 990000000 NMat=      57 IRICut=     142 DoRegI=T DoRafI=T ISym2E= 2 IDoP0=3 IntGTp=2.
 FoFCou: FMM=F IPFlag=           0 FMFlag=      100000 FMFlg1=           0
         NFxFlg=           0 DoJE=F BraDBF=F KetDBF=F FulRan=T
         wScrn=  0.000000 ICntrl=         0 IOpCl=  1 I1Cent=           0 NGrid=           0
         NMat0=   57 NMatS0=     57 NMatT0=    0 NMatD0=   57 NMtDS0=    0 NMtDT0=    0
 Integrals replicated using symmetry in FoFCou.
 Raff kept on since  98.06% of shell-pairs survive, threshold=   0.20 IRatSp=98.
          There are    60 degrees of freedom in the 1st order CPHF.  IDoFFX=6 NUNeed=     3.
     57 vectors produced by pass  0 Test12= 3.73D-14 1.67D-09 XBig12= 4.91D+01 1.53D+00.
 AX will form    57 AO Fock derivatives at one time.
     57 vectors produced by pass  1 Test12= 3.73D-14 1.67D-09 XBig12= 4.68D+00 2.14D-01.
     57 vectors produced by pass  2 Test12= 3.73D-14 1.67D-09 XBig12= 6.95D-02 3.37D-02.
     57 vectors produced by pass  3 Test12= 3.73D-14 1.67D-09 XBig12= 4.21D-04 4.87D-03.
     57 vectors produced by pass  4 Test12= 3.73D-14 1.67D-09 XBig12= 3.83D-06 2.96D-04.
     57 vectors produced by pass  5 Test12= 3.73D-14 1.67D-09 XBig12= 2.58D-08 2.45D-05.
     51 vectors produced by pass  6 Test12= 3.73D-14 1.67D-09 XBig12= 1.09D-10 1.08D-06.
     16 vectors produced by pass  7 Test12= 3.73D-14 1.67D-09 XBig12= 4.30D-13 5.53D-08.
      3 vectors produced by pass  8 Test12= 3.73D-14 1.67D-09 XBig12= 1.20D-15 4.40D-09.
 InvSVY:  IOpt=1 It=  1 EMax= 6.22D-15
 Solved reduced A of dimension   412 with    60 vectors.
 FullF1:  Do perturbations      1 to       3.
 Isotropic polarizability for W=    0.000000       48.85 Bohr**3.
 End of Minotr F.D. properties file   721 does not exist.
 End of Minotr F.D. properties file   722 does not exist.
 End of Minotr F.D. properties file   788 does not exist.
 Leave Link 1002 at Thu May 23 12:35:24 2024, MaxMem= 26843545600 cpu:            8003.9 elap:              66.0
 (Enter /gpfs/fs1/soft/improv/software/custom-built/gaussian/g16/l601.exe)
 Copying SCF densities to generalized density rwf, IOpCl= 1 IROHF=0.

 **********************************************************************

            Population analysis using the SCF Density.

 **********************************************************************

 Orbital symmetries:
 Alpha Orbitals:
       Occupied  (A) (A) (A) (A) (A) (A) (A) (A) (A) (A) (A) (A)
                 (A) (A) (A) (A) (A) (A) (A) (A) (A) (A) (A) (A)
                 (A) (A) (A) (A) (A) (A) (A) (A) (A) (A) (A) (A)
                 (A) (A) (A) (A) (A) (A)
       Virtual   (A) (A) (A) (A) (A) (A) (A) (A) (A) (A) (A) (A)
                 (A) (A) (A) (A) (A) (A) (A) (A) (A) (A) (A) (A)
                 (A) (A) (A) (A) (A) (A) (A) (A) (A) (A) (A) (A)
                 (A) (A) (A) (A) (A) (A) (A) (A) (A) (A) (A) (A)
                 (A) (A) (A) (A) (A) (A) (A) (A) (A) (A) (A) (A)
                 (A) (A) (A) (A) (A) (A) (A) (A) (A) (A) (A) (A)
                 (A) (A) (A) (A) (A) (A) (A) (A) (A) (A) (A) (A)
                 (A) (A) (A) (A) (A) (A) (A) (A) (A) (A) (A) (A)
                 (A) (A) (A) (A) (A) (A) (A) (A) (A) (A) (A) (A)
                 (A) (A) (A) (A) (A) (A) (A) (A) (A) (A) (A) (A)
                 (A) (A) (A) (A) (A) (A) (A) (A) (A) (A) (A) (A)
                 (A) (A) (A) (A) (A) (A) (A) (A) (A) (A) (A) (A)
                 (A) (A) (A) (A) (A) (A) (A) (A) (A) (A) (A) (A)
                 (A) (A) (A) (A) (A) (A) (A) (A) (A) (A) (A) (A)
                 (A) (A) (A) (A) (A) (A) (A) (A) (A) (A) (A) (A)
                 (A) (A) (A) (A) (A) (A) (A) (A) (A) (A) (A) (A)
                 (A) (A) (A) (A) (A) (A) (A) (A) (A) (A) (A) (A)
                 (A) (A) (A) (A) (A) (A) (A) (A) (A) (A) (A) (A)
                 (A) (A) (A) (A) (A) (A) (A) (A) (A) (A) (A) (A)
                 (A) (A) (A) (A) (A) (A) (A) (A) (A) (A) (A) (A)
                 (A) (A) (A) (A) (A) (A) (A) (A) (A) (A) (A) (A)
                 (A) (A) (A) (A) (A) (A) (A) (A) (A) (A) (A) (A)
                 (A) (A) (A) (A) (A) (A) (A) (A) (A) (A) (A)
 Beta  Orbitals:
       Occupied  (A) (A) (A) (A) (A) (A) (A) (A) (A) (A) (A) (A)
                 (A) (A) (A) (A) (A) (A) (A) (A) (A) (A) (A) (A)
                 (A) (A) (A) (A) (A) (A) (A) (A) (A) (A) (A) (A)
                 (A) (A) (A)
       Virtual   (A) (A) (A) (A) (A) (A) (A) (A) (A) (A) (A) (A)
                 (A) (A) (A) (A) (A) (A) (A) (A) (A) (A) (A) (A)
                 (A) (A) (A) (A) (A) (A) (A) (A) (A) (A) (A) (A)
                 (A) (A) (A) (A) (A) (A) (A) (A) (A) (A) (A) (A)
                 (A) (A) (A) (A) (A) (A) (A) (A) (A) (A) (A) (A)
                 (A) (A) (A) (A) (A) (A) (A) (A) (A) (A) (A) (A)
                 (A) (A) (A) (A) (A) (A) (A) (A) (A) (A) (A) (A)
                 (A) (A) (A) (A) (A) (A) (A) (A) (A) (A) (A) (A)
                 (A) (A) (A) (A) (A) (A) (A) (A) (A) (A) (A) (A)
                 (A) (A) (A) (A) (A) (A) (A) (A) (A) (A) (A) (A)
                 (A) (A) (A) (A) (A) (A) (A) (A) (A) (A) (A) (A)
                 (A) (A) (A) (A) (A) (A) (A) (A) (A) (A) (A) (A)
                 (A) (A) (A) (A) (A) (A) (A) (A) (A) (A) (A) (A)
                 (A) (A) (A) (A) (A) (A) (A) (A) (A) (A) (A) (A)
                 (A) (A) (A) (A) (A) (A) (A) (A) (A) (A) (A) (A)
                 (A) (A) (A) (A) (A) (A) (A) (A) (A) (A) (A) (A)
                 (A) (A) (A) (A) (A) (A) (A) (A) (A) (A) (A) (A)
                 (A) (A) (A) (A) (A) (A) (A) (A) (A) (A) (A) (A)
                 (A) (A) (A) (A) (A) (A) (A) (A) (A) (A) (A) (A)
                 (A) (A) (A) (A) (A) (A) (A) (A) (A) (A) (A) (A)
                 (A) (A) (A) (A) (A) (A) (A) (A) (A) (A) (A) (A)
                 (A) (A) (A) (A) (A) (A) (A) (A) (A) (A) (A) (A)
                 (A) (A) (A) (A) (A) (A) (A) (A) (A) (A) (A) (A)
                 (A) (A)
 The electronic state is 4-A.
 Alpha  occ. eigenvalues -- -216.59123 -25.45896 -21.71271 -21.71220 -21.71183
 Alpha  occ. eigenvalues --  -19.85492 -19.85452 -19.84471 -19.84106 -19.81939
 Alpha  occ. eigenvalues --  -19.81186  -3.60024  -2.54082  -2.53878  -2.53709
 Alpha  occ. eigenvalues --   -1.70360  -1.67985  -1.67414  -1.66691  -1.64759
 Alpha  occ. eigenvalues --   -1.63942  -1.21755  -1.20185  -1.18165  -1.17413
 Alpha  occ. eigenvalues --   -1.15534  -1.14117  -1.10363  -1.09249  -1.08591
 Alpha  occ. eigenvalues --   -1.05881  -1.04626  -1.02247  -1.01826  -0.98668
 Alpha  occ. eigenvalues --   -0.97546  -0.95936  -0.94452  -0.92782  -0.86358
 Alpha  occ. eigenvalues --   -0.85415  -0.83754
 Alpha virt. eigenvalues --   -0.54484  -0.53952  -0.53798  -0.48725  -0.46479
 Alpha virt. eigenvalues --   -0.45247  -0.41700  -0.40516  -0.39239  -0.38866
 Alpha virt. eigenvalues --   -0.35925  -0.34293  -0.33828  -0.32461  -0.31227
 Alpha virt. eigenvalues --   -0.30500  -0.29799  -0.27957  -0.27073  -0.26541
 Alpha virt. eigenvalues --   -0.26431  -0.25942  -0.23817  -0.23662  -0.23282
 Alpha virt. eigenvalues --   -0.22513  -0.20934  -0.20336  -0.19612  -0.18383
 Alpha virt. eigenvalues --   -0.17787  -0.17431  -0.16260  -0.15759  -0.14109
 Alpha virt. eigenvalues --   -0.13997  -0.13249  -0.12287  -0.11272  -0.10328
 Alpha virt. eigenvalues --   -0.09952  -0.08035  -0.07741  -0.06782  -0.06034
 Alpha virt. eigenvalues --   -0.04964  -0.04676  -0.03447  -0.00369   0.00641
 Alpha virt. eigenvalues --    0.02259   0.07268   0.07472   0.08381   0.09663
 Alpha virt. eigenvalues --    0.21904   0.22728   0.24087   0.26876   0.29683
 Alpha virt. eigenvalues --    0.30517   0.30768   0.33226   0.34388   0.34789
 Alpha virt. eigenvalues --    0.35727   0.36449   0.39561   0.39925   0.40305
 Alpha virt. eigenvalues --    0.42544   0.42978   0.43525   0.45104   0.46281
 Alpha virt. eigenvalues --    0.48469   0.51197   0.52838   0.53213   0.54421
 Alpha virt. eigenvalues --    0.55058   0.55971   0.56911   0.58194   0.59530
 Alpha virt. eigenvalues --    0.60746   0.62504   0.64175   0.64482   0.67957
 Alpha virt. eigenvalues --    0.68273   0.69788   0.73681   0.74345   0.77991
 Alpha virt. eigenvalues --    0.78228   0.80911   0.81484   0.84976   0.85541
 Alpha virt. eigenvalues --    0.86366   0.90193   0.90267   0.91805   0.93699
 Alpha virt. eigenvalues --    1.02084   1.03757   1.07881   1.10461   1.12383
 Alpha virt. eigenvalues --    1.16174   1.19588   1.20387   1.21590   1.22667
 Alpha virt. eigenvalues --    1.23889   1.26670   1.31401   1.33126   1.35995
 Alpha virt. eigenvalues --    1.38878   1.41680   1.46304   1.50813   1.55130
 Alpha virt. eigenvalues --    1.69281   1.71507   1.72474   1.73688   1.76700
 Alpha virt. eigenvalues --    1.77635   1.79147   1.80643   1.83858   1.87111
 Alpha virt. eigenvalues --    1.89563   1.92996   1.98143   2.00579   2.04432
 Alpha virt. eigenvalues --    2.08166   2.09411   2.11775   2.19415   2.22692
 Alpha virt. eigenvalues --    2.23500   2.25682   2.28433   2.29812   2.34652
 Alpha virt. eigenvalues --    2.35912   2.39056   2.40431   2.41740   2.42571
 Alpha virt. eigenvalues --    2.43643   2.45404   2.47017   2.49387   2.51451
 Alpha virt. eigenvalues --    2.52054   2.53422   2.57042   2.58229   2.59347
 Alpha virt. eigenvalues --    2.61157   2.63070   2.70505   2.72957   2.74853
 Alpha virt. eigenvalues --    2.81412   2.82964   2.89349   3.09463   3.11632
 Alpha virt. eigenvalues --    3.14507   3.16581   3.16929   3.19156   3.22962
 Alpha virt. eigenvalues --    3.36311   3.41892   3.51762   3.55247   3.56433
 Alpha virt. eigenvalues --    3.62423   3.64643   3.67193   3.68212   3.69895
 Alpha virt. eigenvalues --    3.70759   3.71575   3.73809   3.76215   3.81115
 Alpha virt. eigenvalues --    3.83329   3.89816   3.90205   3.92622   3.94615
 Alpha virt. eigenvalues --    3.98184   3.98688   4.02444   4.06484   4.08013
 Alpha virt. eigenvalues --    4.10840   4.15613   4.18325   4.18893   4.19879
 Alpha virt. eigenvalues --    4.24436   4.26296   4.34714   4.36665   4.38832
 Alpha virt. eigenvalues --    4.40819   4.42155   4.43401   4.50253   4.57372
 Alpha virt. eigenvalues --    4.61807   4.67145   4.69280   4.71593   4.75325
 Alpha virt. eigenvalues --    4.77604   4.86544   4.88082   4.89104   4.90451
 Alpha virt. eigenvalues --    4.90811   4.91729   4.92984   4.96097   4.96554
 Alpha virt. eigenvalues --    4.99132   5.05828   5.06726   5.07213   5.10585
 Alpha virt. eigenvalues --    5.12036   5.12679   5.14263   5.18819   5.21247
 Alpha virt. eigenvalues --    5.23963   5.25557   5.27386   5.28781   5.31505
 Alpha virt. eigenvalues --    5.32819   5.34649   5.36413   5.39362   5.39775
 Alpha virt. eigenvalues --    5.41212   5.42192   5.44726   5.45568   5.69630
 Alpha virt. eigenvalues --    5.70724   6.33514   6.93513   6.96192   6.97084
 Alpha virt. eigenvalues --    7.06464   7.10412   7.23659  13.28273  13.30430
 Alpha virt. eigenvalues --   13.30720  13.82320  13.89695  13.97872  32.58038
  Beta  occ. eigenvalues -- -216.59091 -25.41215 -21.67346 -21.67258 -21.67187
  Beta  occ. eigenvalues --  -19.85509 -19.85465 -19.84481 -19.84113 -19.81931
  Beta  occ. eigenvalues --  -19.81181  -3.46509  -2.39691  -2.39408  -2.39152
  Beta  occ. eigenvalues --   -1.70188  -1.67859  -1.67293  -1.66514  -1.64577
  Beta  occ. eigenvalues --   -1.63772  -1.21140  -1.19576  -1.17910  -1.17090
  Beta  occ. eigenvalues --   -1.15149  -1.13861  -1.09771  -1.08540  -1.07752
  Beta  occ. eigenvalues --   -1.04585  -1.04230  -1.01781  -1.01088  -0.97902
  Beta  occ. eigenvalues --   -0.96675  -0.95221  -0.93395  -0.92239
  Beta virt. eigenvalues --   -0.58706  -0.58125  -0.56943  -0.54131  -0.48813
  Beta virt. eigenvalues --   -0.48714  -0.48366  -0.46179  -0.45061  -0.41214
  Beta virt. eigenvalues --   -0.40054  -0.38984  -0.38646  -0.35569  -0.34071
  Beta virt. eigenvalues --   -0.33580  -0.32143  -0.31021  -0.30326  -0.29580
  Beta virt. eigenvalues --   -0.27759  -0.26796  -0.26372  -0.26181  -0.25613
  Beta virt. eigenvalues --   -0.23649  -0.23416  -0.22846  -0.21956  -0.20384
  Beta virt. eigenvalues --   -0.19910  -0.19418  -0.17935  -0.17396  -0.16877
  Beta virt. eigenvalues --   -0.15749  -0.15280  -0.13858  -0.13701  -0.12689
  Beta virt. eigenvalues --   -0.11841  -0.10705  -0.09835  -0.09235  -0.07513
  Beta virt. eigenvalues --   -0.06950  -0.06230  -0.05482  -0.04348  -0.03949
  Beta virt. eigenvalues --   -0.02569   0.00042   0.02399   0.03712   0.07683
  Beta virt. eigenvalues --    0.08054   0.09315   0.11105   0.23003   0.23574
  Beta virt. eigenvalues --    0.25124   0.28120   0.30622   0.31457   0.32256
  Beta virt. eigenvalues --    0.34350   0.34811   0.35090   0.36104   0.36928
  Beta virt. eigenvalues --    0.39992   0.40397   0.40884   0.42865   0.43236
  Beta virt. eigenvalues --    0.43821   0.45530   0.46745   0.48850   0.51875
  Beta virt. eigenvalues --    0.53174   0.53707   0.54829   0.55508   0.56384
  Beta virt. eigenvalues --    0.57126   0.58695   0.59963   0.61340   0.63156
  Beta virt. eigenvalues --    0.64634   0.65249   0.68402   0.69042   0.71384
  Beta virt. eigenvalues --    0.74220   0.74799   0.79014   0.79245   0.81416
  Beta virt. eigenvalues --    0.82432   0.86098   0.86645   0.87189   0.91059
  Beta virt. eigenvalues --    0.91204   0.92718   0.94744   1.03165   1.04559
  Beta virt. eigenvalues --    1.09750   1.12535   1.14658   1.19762   1.22541
  Beta virt. eigenvalues --    1.24064   1.25138   1.26183   1.27589   1.28283
  Beta virt. eigenvalues --    1.33961   1.34685   1.37568   1.41241   1.43272
  Beta virt. eigenvalues --    1.46969   1.52392   1.56472   1.69729   1.71944
  Beta virt. eigenvalues --    1.73100   1.74143   1.77176   1.78273   1.79783
  Beta virt. eigenvalues --    1.81533   1.84553   1.87496   1.89910   1.93743
  Beta virt. eigenvalues --    1.98796   2.01208   2.05152   2.09231   2.10458
  Beta virt. eigenvalues --    2.12708   2.20353   2.24464   2.25473   2.26640
  Beta virt. eigenvalues --    2.30035   2.31073   2.35719   2.37151   2.39669
  Beta virt. eigenvalues --    2.41128   2.42745   2.43769   2.44332   2.46846
  Beta virt. eigenvalues --    2.48061   2.49949   2.52224   2.52829   2.54629
  Beta virt. eigenvalues --    2.58150   2.59522   2.60575   2.62426   2.63497
  Beta virt. eigenvalues --    2.70829   2.73480   2.75279   2.83683   2.85095
  Beta virt. eigenvalues --    2.91179   3.13717   3.15808   3.16666   3.22470
  Beta virt. eigenvalues --    3.23547   3.26542   3.28295   3.40879   3.45791
  Beta virt. eigenvalues --    3.51915   3.55417   3.56595   3.62937   3.64955
  Beta virt. eigenvalues --    3.67518   3.69148   3.70450   3.71166   3.72753
  Beta virt. eigenvalues --    3.74967   3.76924   3.81617   3.83669   3.90393
  Beta virt. eigenvalues --    3.91525   3.93424   3.95280   3.99321   4.02290
  Beta virt. eigenvalues --    4.07329   4.12259   4.13319   4.13512   4.17429
  Beta virt. eigenvalues --    4.21036   4.23409   4.23930   4.26804   4.27108
  Beta virt. eigenvalues --    4.36708   4.39118   4.39615   4.42409   4.43063
  Beta virt. eigenvalues --    4.44454   4.52565   4.59724   4.62349   4.67993
  Beta virt. eigenvalues --    4.70139   4.72203   4.76420   4.79053   4.86809
  Beta virt. eigenvalues --    4.88236   4.89702   4.90719   4.91223   4.92250
  Beta virt. eigenvalues --    4.93354   4.96787   4.97347   5.00827   5.06917
  Beta virt. eigenvalues --    5.07835   5.08224   5.11584   5.12911   5.13448
  Beta virt. eigenvalues --    5.14853   5.20314   5.21988   5.24790   5.26697
  Beta virt. eigenvalues --    5.28048   5.29232   5.32147   5.33402   5.35460
  Beta virt. eigenvalues --    5.37028   5.40456   5.40620   5.41695   5.42471
  Beta virt. eigenvalues --    5.44912   5.45827   5.69877   5.70977   6.35767
  Beta virt. eigenvalues --    6.93852   6.96536   6.97441   7.06682   7.10632
  Beta virt. eigenvalues --    7.24119  13.28444  13.30598  13.30885  13.82417
  Beta virt. eigenvalues --   13.89784  13.97967  32.61319
          Condensed to atoms (all electrons):
               1          2          3          4          5          6
     1  Cr  22.875455  -0.058607  -0.017201  -0.030809  -0.017564  -0.022164
     2  O   -0.058607   8.261481   0.319808  -0.066137  -0.000678  -0.044102
     3  H   -0.017201   0.319808   0.242358  -0.000916  -0.000011   0.000996
     4  O   -0.030809  -0.066137  -0.000916   8.315769   0.312832  -0.066012
     5  H   -0.017564  -0.000678  -0.000011   0.312832   0.268189   0.000620
     6  O   -0.022164  -0.044102   0.000996  -0.066012   0.000620   8.227627
     7  H   -0.014751  -0.002985  -0.000010   0.001590  -0.000278   0.317030
     8  O   -0.037785   0.039448  -0.000453  -0.061864   0.002883  -0.058989
     9  H   -0.016196  -0.000120  -0.000013  -0.002697  -0.000005   0.001818
    10  O   -0.034794  -0.058397  -0.001172   0.039839  -0.000572  -0.063778
    11  H   -0.012363   0.000543  -0.000206   0.000036   0.000009  -0.001480
    12  O   -0.055990   0.000895   0.000854  -0.072292  -0.000857   0.041042
    13  H   -0.019618  -0.001987  -0.000020  -0.000620  -0.000028  -0.000220
    14  H   -0.002101  -0.001011   0.000002   0.001891   0.000043  -0.000592
    15  H   -0.014330   0.000639  -0.000009   0.317962  -0.021670  -0.007993
    16  H   -0.010938   0.311094  -0.013719  -0.000598  -0.000003  -0.003399
    17  H   -0.019694  -0.002182   0.000085  -0.000292  -0.000015   0.001129
    18  H   -0.017285   0.001157   0.000029  -0.004925  -0.000967   0.319360
    19  H   -0.016117  -0.000721   0.000007   0.001970   0.000391  -0.005771
               7          8          9         10         11         12
     1  Cr  -0.014751  -0.037785  -0.016196  -0.034794  -0.012363  -0.055990
     2  O   -0.002985   0.039448  -0.000120  -0.058397   0.000543   0.000895
     3  H   -0.000010  -0.000453  -0.000013  -0.001172  -0.000206   0.000854
     4  O    0.001590  -0.061864  -0.002697   0.039839   0.000036  -0.072292
     5  H   -0.000278   0.002883  -0.000005  -0.000572   0.000009  -0.000857
     6  O    0.317030  -0.058989   0.001818  -0.063778  -0.001480   0.041042
     7  H    0.275494  -0.007589  -0.000287   0.002851   0.000038  -0.000765
     8  O   -0.007589   8.216665   0.319756  -0.036561  -0.007503  -0.022117
     9  H   -0.000287   0.319756   0.257330  -0.006917   0.000460   0.000700
    10  O    0.002851  -0.036561  -0.006917   8.292804   0.316432  -0.086176
    11  H    0.000038  -0.007503   0.000460   0.316432   0.261386   0.000306
    12  O   -0.000765  -0.022117   0.000700  -0.086176   0.000306   8.262589
    13  H    0.000008  -0.000388   0.000027  -0.000026  -0.000072   0.322037
    14  H   -0.000023  -0.004444   0.000421  -0.002252   0.001681   0.305010
    15  H    0.000156  -0.001284  -0.000018  -0.000014  -0.000002   0.000672
    16  H   -0.000045  -0.000424   0.000006   0.002505  -0.000003  -0.001741
    17  H    0.000773  -0.001700  -0.000949   0.319341  -0.021183  -0.000478
    18  H   -0.016784   0.001680   0.000028  -0.002715  -0.000014  -0.000175
    19  H    0.002807   0.316939  -0.016237   0.001327   0.000150  -0.002248
              13         14         15         16         17         18
     1  Cr  -0.019618  -0.002101  -0.014330  -0.010938  -0.019694  -0.017285
     2  O   -0.001987  -0.001011   0.000639   0.311094  -0.002182   0.001157
     3  H   -0.000020   0.000002  -0.000009  -0.013719   0.000085   0.000029
     4  O   -0.000620   0.001891   0.317962  -0.000598  -0.000292  -0.004925
     5  H   -0.000028   0.000043  -0.021670  -0.000003  -0.000015  -0.000967
     6  O   -0.000220  -0.000592  -0.007993  -0.003399   0.001129   0.319360
     7  H    0.000008  -0.000023   0.000156  -0.000045   0.000773  -0.016784
     8  O   -0.000388  -0.004444  -0.001284  -0.000424  -0.001700   0.001680
     9  H    0.000027   0.000421  -0.000018   0.000006  -0.000949   0.000028
    10  O   -0.000026  -0.002252  -0.000014   0.002505   0.319341  -0.002715
    11  H   -0.000072   0.001681  -0.000002  -0.000003  -0.021183  -0.000014
    12  O    0.322037   0.305010   0.000672  -0.001741  -0.000478  -0.000175
    13  H    0.238114  -0.014309  -0.000129   0.000009  -0.000017  -0.000015
    14  H   -0.014309   0.277128  -0.000006  -0.000020  -0.000043   0.000005
    15  H   -0.000129  -0.000006   0.253723   0.000338   0.000010   0.000213
    16  H    0.000009  -0.000020   0.000338   0.265568   0.000057  -0.000075
    17  H   -0.000017  -0.000043   0.000010   0.000057   0.266418  -0.000047
    18  H   -0.000015   0.000005   0.000213  -0.000075  -0.000047   0.254265
    19  H   -0.000014  -0.000067   0.000045  -0.000028  -0.000218  -0.000241
              19
     1  Cr  -0.016117
     2  O   -0.000721
     3  H    0.000007
     4  O    0.001970
     5  H    0.000391
     6  O   -0.005771
     7  H    0.002807
     8  O    0.316939
     9  H   -0.016237
    10  O    0.001327
    11  H    0.000150
    12  O   -0.002248
    13  H   -0.000014
    14  H   -0.000067
    15  H    0.000045
    16  H   -0.000028
    17  H   -0.000218
    18  H   -0.000241
    19  H    0.272916
          Atomic-Atomic Spin Densities.
               1          2          3          4          5          6
     1  Cr   3.171729  -0.017362  -0.005566  -0.019443  -0.007318  -0.017697
     2  O   -0.017362  -0.018655   0.003827   0.003236  -0.000385   0.005707
     3  H   -0.005566   0.003827   0.007837  -0.000101   0.000010   0.000029
     4  O   -0.019443   0.003236  -0.000101  -0.018038   0.005602   0.004115
     5  H   -0.007318  -0.000385   0.000010   0.005602   0.008029   0.001313
     6  O   -0.017697   0.005707   0.000029   0.004115   0.001313  -0.022377
     7  H   -0.008003  -0.000672   0.000004  -0.000609  -0.000042   0.005257
     8  O   -0.017738   0.000885  -0.000149   0.002207   0.000533   0.002026
     9  H   -0.006460  -0.000100  -0.000009  -0.000506  -0.000083  -0.001076
    10  O   -0.020746   0.004047   0.002061   0.000365  -0.000266   0.001913
    11  H   -0.005265  -0.000364  -0.000039   0.000028   0.000001  -0.000390
    12  O   -0.017292   0.004361   0.000716   0.004199  -0.000085   0.001072
    13  H   -0.005585   0.000067  -0.000002   0.002063  -0.000051  -0.000086
    14  H   -0.007165  -0.000262  -0.000020  -0.000532  -0.000003  -0.000174
    15  H   -0.004858   0.001445  -0.000071   0.003925  -0.001854  -0.000575
    16  H   -0.006698   0.005502  -0.001276  -0.000145  -0.000024   0.000998
    17  H   -0.007003  -0.000364  -0.000059  -0.000244  -0.000005   0.000208
    18  H   -0.006290   0.000000   0.000003   0.003863   0.000340   0.003542
    19  H   -0.008041  -0.000213   0.000004   0.000282   0.000343   0.003063
               7          8          9         10         11         12
     1  Cr  -0.008003  -0.017738  -0.006460  -0.020746  -0.005265  -0.017292
     2  O   -0.000672   0.000885  -0.000100   0.004047  -0.000364   0.004361
     3  H    0.000004  -0.000149  -0.000009   0.002061  -0.000039   0.000716
     4  O   -0.000609   0.002207  -0.000506   0.000365   0.000028   0.004199
     5  H   -0.000042   0.000533  -0.000083  -0.000266   0.000001  -0.000085
     6  O    0.005257   0.002026  -0.001076   0.001913  -0.000390   0.001072
     7  H    0.008960   0.001993  -0.000085   0.000400  -0.000039  -0.000219
     8  O    0.001993  -0.022461   0.005103   0.005702  -0.000013   0.005727
     9  H   -0.000085   0.005103   0.009045   0.003068   0.000247  -0.000312
    10  O    0.000400   0.005702   0.003068  -0.020519   0.003726   0.003083
    11  H   -0.000039  -0.000013   0.000247   0.003726   0.009622   0.001175
    12  O   -0.000219   0.005727  -0.000312   0.003083   0.001175  -0.018829
    13  H    0.000004  -0.000229  -0.000005  -0.000159  -0.000100   0.004367
    14  H   -0.000012   0.000621   0.000303  -0.000229   0.000535   0.005496
    15  H   -0.000008  -0.000243   0.000012   0.000041   0.000002  -0.000571
    16  H   -0.000091  -0.000131   0.000004  -0.000586   0.000010  -0.000358
    17  H    0.000399   0.000879   0.000175   0.006498  -0.001918  -0.000493
    18  H   -0.001738  -0.000569   0.000008  -0.000490   0.000012  -0.000120
    19  H    0.001322   0.004361  -0.001797  -0.000414  -0.000008  -0.000718
              13         14         15         16         17         18
     1  Cr  -0.005585  -0.007165  -0.004858  -0.006698  -0.007003  -0.006290
     2  O    0.000067  -0.000262   0.001445   0.005502  -0.000364   0.000000
     3  H   -0.000002  -0.000020  -0.000071  -0.001276  -0.000059   0.000003
     4  O    0.002063  -0.000532   0.003925  -0.000145  -0.000244   0.003863
     5  H   -0.000051  -0.000003  -0.001854  -0.000024  -0.000005   0.000340
     6  O   -0.000086  -0.000174  -0.000575   0.000998   0.000208   0.003542
     7  H    0.000004  -0.000012  -0.000008  -0.000091   0.000399  -0.001738
     8  O   -0.000229   0.000621  -0.000243  -0.000131   0.000879  -0.000569
     9  H   -0.000005   0.000303   0.000012   0.000004   0.000175   0.000008
    10  O   -0.000159  -0.000229   0.000041  -0.000586   0.006498  -0.000490
    11  H   -0.000100   0.000535   0.000002   0.000010  -0.001918   0.000012
    12  O    0.004367   0.005496  -0.000571  -0.000358  -0.000493  -0.000120
    13  H    0.008038  -0.001441  -0.000053  -0.000010   0.000011  -0.000011
    14  H   -0.001441   0.008881   0.000010   0.000012  -0.000039   0.000004
    15  H   -0.000053   0.000010   0.008623   0.000251   0.000001   0.000261
    16  H   -0.000010   0.000012   0.000251   0.008365   0.000000   0.000110
    17  H    0.000011  -0.000039   0.000001   0.000000   0.007644  -0.000074
    18  H   -0.000011   0.000004   0.000261   0.000110  -0.000074   0.009972
    19  H    0.000006  -0.000085  -0.000032  -0.000012  -0.000029  -0.000049
              19
     1  Cr  -0.008041
     2  O   -0.000213
     3  H    0.000004
     4  O    0.000282
     5  H    0.000343
     6  O    0.003063
     7  H    0.001322
     8  O    0.004361
     9  H   -0.001797
    10  O   -0.000414
    11  H   -0.000008
    12  O   -0.000718
    13  H    0.000006
    14  H   -0.000085
    15  H   -0.000032
    16  H   -0.000012
    17  H   -0.000029
    18  H   -0.000049
    19  H    0.009648
 Mulliken charges and spin densities:
               1          2
     1  Cr   1.542851   2.983200
     2  O   -0.698138  -0.009300
     3  H    0.469592   0.007199
     4  O   -0.684729  -0.009734
     5  H    0.457680   0.006055
     6  O   -0.635123  -0.013132
     7  H    0.442770   0.006820
     8  O   -0.656271  -0.011496
     9  H    0.462894   0.007532
    10  O   -0.681727  -0.012504
    11  H    0.461787   0.007222
    12  O   -0.691265  -0.008800
    13  H    0.477265   0.006824
    14  H    0.438685   0.005898
    15  H    0.471697   0.006305
    16  H    0.451415   0.005920
    17  H    0.459005   0.005588
    18  H    0.466504   0.008775
    19  H    0.445107   0.007630
 Sum of Mulliken charges =   3.00000   3.00000
 Mulliken charges and spin densities with hydrogens summed into heavy atoms:
               1          2
     1  Cr   1.542851   2.983200
     2  O    0.222869   0.003820
     4  O    0.244648   0.002625
     6  O    0.274151   0.002463
     8  O    0.251730   0.003665
    10  O    0.239065   0.000305
    12  O    0.224685   0.003922
 APT charges:
               1
     1  Cr   1.868191
     2  O   -0.584146
     3  H    0.407066
     4  O   -0.553210
     5  H    0.366498
     6  O   -0.555109
     7  H    0.357353
     8  O   -0.556238
     9  H    0.371802
    10  O   -0.549358
    11  H    0.374602
    12  O   -0.575463
    13  H    0.410541
    14  H    0.365362
    15  H    0.380515
    16  H    0.375187
    17  H    0.367692
    18  H    0.372236
    19  H    0.356480
 Sum of APT charges =   3.00000
 APT charges with hydrogens summed into heavy atoms:
               1
     1  Cr   1.868191
     2  O    0.198107
     4  O    0.193803
     6  O    0.174480
     8  O    0.172044
    10  O    0.192936
    12  O    0.200439
 Electronic spatial extent (au):  <R**2>=            837.9216
 Charge=              3.0000 electrons
 Dipole moment (field-independent basis, Debye):
    X=              2.3779    Y=              3.8012    Z=             -1.0318  Tot=              4.6009
 Quadrupole moment (field-independent basis, Debye-Ang):
   XX=            -11.3950   YY=            -15.2004   ZZ=            -26.0759
   XY=             -4.3026   XZ=             -1.6238   YZ=             -0.9854
 Traceless Quadrupole moment (field-independent basis, Debye-Ang):
   XX=              6.1621   YY=              2.3567   ZZ=             -8.5188
   XY=             -4.3026   XZ=             -1.6238   YZ=             -0.9854
 Octapole moment (field-independent basis, Debye-Ang**2):
  XXX=             18.7881  YYY=             17.9191  ZZZ=              5.0253  XYY=              4.3407
  XXY=              9.3512  XXZ=              3.2086  XZZ=             -8.1179  YZZ=             -3.2585
  YYZ=            -14.7962  XYZ=             -3.2623
 Hexadecapole moment (field-independent basis, Debye-Ang**3):
 XXXX=           -163.2438 YYYY=           -171.6974 ZZZZ=           -211.1072 XXXY=            -21.9827
 XXXZ=              2.2866 YYYX=             -8.8431 YYYZ=             11.6921 ZZZX=            -16.6566
 ZZZY=            -15.9818 XXYY=            -45.8735 XXZZ=            -51.9274 YYZZ=            -49.8306
 XXYZ=             -0.7332 YYXZ=              3.5299 ZZXY=              2.0101
 N-N= 7.343993929349D+02 E-N=-4.979625766454D+03  KE= 1.499187577101D+03
  Exact polarizability:      50.502      -0.598      49.588      -0.561      -0.044      46.447
 Approx polarizability:      66.872      -0.908      65.766      -0.944      -0.177      61.135
                          Isotropic Fermi Contact Couplings
        Atom                 a.u.       MegaHertz       Gauss      10(-4) cm-1
     1  Cr(53)            -0.19699      16.62318       5.93157       5.54490
     2  O(17)             -0.01011       2.04225       0.72872       0.68122
     3  H(1)               0.00478       7.11829       2.53998       2.37441
     4  O(17)             -0.01378       2.78395       0.99338       0.92862
     5  H(1)               0.00437       6.50810       2.32225       2.17087
     6  O(17)             -0.01253       2.53216       0.90354       0.84464
     7  H(1)               0.00447       6.65327       2.37405       2.21929
     8  O(17)             -0.01303       2.63364       0.93975       0.87849
     9  H(1)               0.00488       7.27767       2.59685       2.42757
    10  O(17)             -0.01545       3.12240       1.11415       1.04152
    11  H(1)               0.00507       7.54750       2.69314       2.51758
    12  O(17)             -0.01162       2.34755       0.83766       0.78306
    13  H(1)               0.00473       7.04007       2.51207       2.34831
    14  H(1)               0.00455       6.77218       2.41648       2.25895
    15  H(1)               0.00469       6.99171       2.49481       2.33218
    16  H(1)               0.00442       6.58503       2.34970       2.19653
    17  H(1)               0.00442       6.58892       2.35109       2.19783
    18  H(1)               0.00513       7.64914       2.72940       2.55148
    19  H(1)               0.00453       6.74336       2.40620       2.24934
 --------------------------------------------------------
       Center         ----  Spin Dipole Couplings  ----
                      3XX-RR        3YY-RR        3ZZ-RR
 --------------------------------------------------------
     1   Atom       -0.078628      0.012359      0.066269
     2   Atom       -0.051865      0.015630      0.036235
     3   Atom       -0.007987      0.014432     -0.006445
     4   Atom       -0.020521     -0.036979      0.057500
     5   Atom        0.037620     -0.033230     -0.004390
     6   Atom       -0.022868     -0.036123      0.058992
     7   Atom        0.002470     -0.003144      0.000674
     8   Atom       -0.055099     -0.009660      0.064759
     9   Atom       -0.029312      0.058766     -0.029454
    10   Atom       -0.019893      0.011282      0.008611
    11   Atom        0.042422     -0.015860     -0.026562
    12   Atom        0.016364     -0.003162     -0.013202
    13   Atom       -0.017915     -0.020425      0.038341
    14   Atom        0.019870     -0.027147      0.007277
    15   Atom        0.016239      0.006732     -0.022971
    16   Atom       -0.028297      0.031437     -0.003139
    17   Atom       -0.019579      0.001978      0.017602
    18   Atom        0.051113     -0.032290     -0.018823
    19   Atom       -0.008947      0.038825     -0.029879
 --------------------------------------------------------
                        XY            XZ            YZ
 --------------------------------------------------------
     1   Atom       -0.018776     -0.009129     -0.005641
     2   Atom        0.012588     -0.009106     -0.066162
     3   Atom        0.034007      0.025041      0.034860
     4   Atom       -0.003653     -0.023824     -0.025404
     5   Atom        0.001767      0.043790      0.001281
     6   Atom        0.013136     -0.010907      0.031483
     7   Atom        0.032831     -0.033675     -0.031119
     8   Atom        0.005787      0.014547      0.018144
     9   Atom       -0.017727     -0.003736      0.017256
    10   Atom        0.013054      0.031007      0.040292
    11   Atom       -0.035354      0.021966     -0.010341
    12   Atom        0.062212      0.037745      0.035583
    13   Atom        0.013133     -0.032288     -0.029527
    14   Atom       -0.018284     -0.045889      0.015188
    15   Atom       -0.043900      0.021593     -0.019534
    16   Atom       -0.016834     -0.011050      0.043861
    17   Atom       -0.021793      0.026222     -0.041727
    18   Atom       -0.001343     -0.034046      0.001118
    19   Atom        0.041748      0.007641      0.012194
 --------------------------------------------------------


 ---------------------------------------------------------------------------------
              Anisotropic Spin Dipole Couplings in Principal Axis System
 ---------------------------------------------------------------------------------

       Atom             a.u.   MegaHertz   Gauss  10(-4) cm-1        Axes

              Baa    -0.0830     2.509     0.895     0.837  0.9782  0.1965  0.0672
     1 Cr(53) Bbb     0.0158    -0.478    -0.170    -0.159 -0.2012  0.9768  0.0728
              Bcc     0.0672    -2.031    -0.725    -0.678 -0.0514 -0.0847  0.9951
 
              Baa    -0.0544     3.937     1.405     1.313  0.9603 -0.2624 -0.0951
     2 O(17)  Bbb    -0.0400     2.898     1.034     0.967  0.2595  0.7140  0.6503
              Bcc     0.0945    -6.835    -2.439    -2.280 -0.1027 -0.6491  0.7537
 
              Baa    -0.0326   -17.408    -6.212    -5.807 -0.6666  0.6902 -0.2814
     3 H(1)   Bbb    -0.0322   -17.201    -6.138    -5.737 -0.5514 -0.2026  0.8092
              Bcc     0.0649    34.609    12.349    11.544  0.5015  0.6946  0.5157
 
              Baa    -0.0473     3.422     1.221     1.142  0.3853  0.8729  0.2992
     4 O(17)  Bbb    -0.0221     1.601     0.571     0.534  0.8906 -0.4366  0.1271
              Bcc     0.0694    -5.024    -1.793    -1.676 -0.2416 -0.2175  0.9457
 
              Baa    -0.0333   -17.764    -6.339    -5.925  0.0376  0.9942 -0.1010
     5 H(1)   Bbb    -0.0319   -17.040    -6.080    -5.684 -0.5317  0.1054  0.8403
              Bcc     0.0652    34.804    12.419    11.609  0.8461  0.0221  0.5326
 
              Baa    -0.0537     3.886     1.387     1.296 -0.4583  0.8435 -0.2800
     6 O(17)  Bbb    -0.0153     1.104     0.394     0.368  0.8857  0.4597 -0.0648
              Bcc     0.0690    -4.990    -1.781    -1.665 -0.0740  0.2777  0.9578
 
              Baa    -0.0333   -17.766    -6.339    -5.926 -0.6376  0.7671  0.0707
     7 H(1)   Bbb    -0.0319   -17.020    -6.073    -5.677  0.4834  0.3270  0.8121
              Bcc     0.0652    34.786    12.413    11.603  0.5999  0.5519 -0.5793
 
              Baa    -0.0571     4.134     1.475     1.379  0.9911 -0.0802 -0.1064
     8 O(17)  Bbb    -0.0137     0.993     0.354     0.331  0.0534  0.9707 -0.2343
[...]
    18  H   -0.000000   0.000000  -0.000035   0.000001  -0.000035   0.262644
    19  H    0.000001  -0.000035  -0.000035   0.000000   0.000001  -0.000035
              19
     1  Cr  -0.012220
     2  O   -0.000441
     3  H   -0.000000
     4  O    0.002627
     5  H   -0.000035
     6  O    0.001164
     7  H    0.000001
     8  O    0.301385
     9  H   -0.012426
    10  O    0.000907
    11  H    0.000001
    12  O    0.001160
    13  H    0.000001
    14  H   -0.000035
    15  H   -0.000035
    16  H    0.000000
    17  H    0.000001
    18  H   -0.000035
    19  H    0.262586
          Atomic-Atomic Spin Densities.
               1          2          3          4          5          6
     1  Cr   3.190263  -0.020789  -0.002403  -0.020751  -0.002403  -0.020787
     2  O   -0.020789  -0.012580   0.002689   0.005926  -0.000122   0.005923
     3  H   -0.002403   0.002689   0.001162  -0.000151   0.000000  -0.000122
     4  O   -0.020751   0.005926  -0.000151  -0.012637   0.002689   0.005916
     5  H   -0.002403  -0.000122   0.000000   0.002689   0.001162  -0.000151
     6  O   -0.020787   0.005923  -0.000122   0.005916  -0.000151  -0.012566
     7  H   -0.002401   0.000388   0.000002  -0.000122   0.000000   0.002687
     8  O   -0.020789  -0.003133  -0.000010   0.005935  -0.000123   0.005920
     9  H   -0.002402  -0.000010  -0.000000  -0.000151   0.000000  -0.000123
    10  O   -0.020751   0.005935   0.000389  -0.003136  -0.000010   0.005914
    11  H   -0.002406  -0.000122   0.000002  -0.000010  -0.000000  -0.000150
    12  O   -0.020787   0.005920  -0.000122   0.005914   0.000389  -0.003131
    13  H   -0.002404   0.000391   0.000002  -0.000122   0.000002  -0.000010
    14  H   -0.002401  -0.000151   0.000000  -0.000122   0.000002  -0.000010
    15  H   -0.002406  -0.000122   0.000000   0.002690  -0.000771   0.000390
    16  H   -0.002402   0.002687  -0.000771   0.000389   0.000002  -0.000122
    17  H   -0.002403  -0.000123   0.000002  -0.000010   0.000000   0.000389
    18  H   -0.002404  -0.000150   0.000000  -0.000122   0.000000   0.002687
    19  H   -0.002403  -0.000010   0.000000   0.000389   0.000002  -0.000122
               7          8          9         10         11         12
     1  Cr  -0.002401  -0.020789  -0.002402  -0.020751  -0.002406  -0.020787
     2  O    0.000388  -0.003133  -0.000010   0.005935  -0.000122   0.005920
     3  H    0.000002  -0.000010  -0.000000   0.000389   0.000002  -0.000122
     4  O   -0.000122   0.005935  -0.000151  -0.003136  -0.000010   0.005914
     5  H    0.000000  -0.000123   0.000000  -0.000010  -0.000000   0.000389
     6  O    0.002687   0.005920  -0.000123   0.005914  -0.000150  -0.003131
     7  H    0.001162  -0.000151   0.000000  -0.000122   0.000000  -0.000010
     8  O   -0.000151  -0.012580   0.002687   0.005926  -0.000122   0.005923
     9  H    0.000000   0.002687   0.001163   0.000389   0.000002  -0.000122
    10  O   -0.000122   0.005926   0.000389  -0.012637   0.002690   0.005916
    11  H    0.000000  -0.000122   0.000002   0.002690   0.001163   0.000390
    12  O   -0.000010   0.005923  -0.000122   0.005916   0.000390  -0.012566
    13  H   -0.000000  -0.000150   0.000000  -0.000122   0.000002   0.002687
    14  H    0.000000   0.000388   0.000002  -0.000122   0.000002   0.002687
    15  H    0.000002  -0.000122   0.000000  -0.000010   0.000000  -0.000150
    16  H    0.000002  -0.000010   0.000000  -0.000151   0.000000  -0.000123
    17  H    0.000002  -0.000122   0.000002   0.002689  -0.000771  -0.000151
    18  H   -0.000771   0.000391   0.000002  -0.000122   0.000000  -0.000010
    19  H    0.000000   0.002689  -0.000771  -0.000151   0.000000  -0.000122
              13         14         15         16         17         18
     1  Cr  -0.002404  -0.002401  -0.002406  -0.002402  -0.002403  -0.002404
     2  O    0.000391  -0.000151  -0.000122   0.002687  -0.000123  -0.000150
     3  H    0.000002   0.000000   0.000000  -0.000771   0.000002   0.000000
     4  O   -0.000122  -0.000122   0.002690   0.000389  -0.000010  -0.000122
     5  H    0.000002   0.000002  -0.000771   0.000002   0.000000   0.000000
     6  O   -0.000010  -0.000010   0.000390  -0.000122   0.000389   0.002687
     7  H   -0.000000   0.000000   0.000002   0.000002   0.000002  -0.000771
     8  O   -0.000150   0.000388  -0.000122  -0.000010  -0.000122   0.000391
     9  H    0.000000   0.000002   0.000000   0.000000   0.000002   0.000002
    10  O   -0.000122  -0.000122  -0.000010  -0.000151   0.002689  -0.000122
    11  H    0.000002   0.000002   0.000000   0.000000  -0.000771   0.000000
    12  O    0.002687   0.002687  -0.000150  -0.000123  -0.000151  -0.000010
    13  H    0.001164  -0.000771   0.000000   0.000002   0.000000   0.000000
    14  H   -0.000771   0.001162   0.000000   0.000000   0.000000  -0.000000
    15  H    0.000000   0.000000   0.001163   0.000002  -0.000000   0.000002
    16  H    0.000002   0.000000   0.000002   0.001163   0.000000   0.000000
    17  H    0.000000   0.000000  -0.000000   0.000000   0.001162   0.000002
    18  H    0.000000  -0.000000   0.000002   0.000000   0.000002   0.001164
    19  H    0.000000   0.000002   0.000002  -0.000000   0.000000   0.000002
              19
     1  Cr  -0.002403
     2  O   -0.000010
     3  H    0.000000
     4  O    0.000389
     5  H    0.000002
     6  O   -0.000122
     7  H    0.000000
     8  O    0.002689
     9  H   -0.000771
    10  O   -0.000151
    11  H    0.000000
    12  O   -0.000122
    13  H    0.000000
    14  H    0.000002
    15  H    0.000002
    16  H   -0.000000
    17  H    0.000000
    18  H    0.000002
    19  H    0.001162
 Mulliken charges and spin densities:
               1          2
     1  Cr   1.694818   3.036771
     2  O   -0.693169  -0.007454
     3  H    0.455394   0.000670
     4  O   -0.693216  -0.007485
     5  H    0.455400   0.000670
     6  O   -0.693255  -0.007468
     7  H    0.455423   0.000669
     8  O   -0.693169  -0.007454
     9  H    0.455317   0.000670
    10  O   -0.693216  -0.007485
    11  H    0.455367   0.000671
    12  O   -0.693255  -0.007468
    13  H    0.455330   0.000672
    14  H    0.455423   0.000669
    15  H    0.455366   0.000671
    16  H    0.455317   0.000670
    17  H    0.455400   0.000670
    18  H    0.455331   0.000672
    19  H    0.455394   0.000670
 Sum of Mulliken charges =   3.00000   3.00000
 Mulliken charges and spin densities with hydrogens summed into heavy atoms:
               1          2
     1  Cr   1.694818   3.036771
     2  O    0.217542  -0.006113
     4  O    0.217551  -0.006145
     6  O    0.217499  -0.006127
     8  O    0.217542  -0.006113
    10  O    0.217551  -0.006145
    12  O    0.217498  -0.006127
 Electronic spatial extent (au):  <R**2>=           1006.5551
 Charge=              3.0000 electrons
 Dipole moment (field-independent basis, Debye):
    X=             -0.0000    Y=             -0.0000    Z=              0.0000  Tot=              0.0000
 Quadrupole moment (field-independent basis, Debye-Ang):
   XX=             -8.0299   YY=             -8.0195   ZZ=             -8.0152
   XY=              0.0004   XZ=              0.0002   YZ=              0.0007
 Traceless Quadrupole moment (field-independent basis, Debye-Ang):
   XX=             -0.0084   YY=              0.0021   ZZ=              0.0063
   XY=              0.0004   XZ=              0.0002   YZ=              0.0007
 Octapole moment (field-independent basis, Debye-Ang**2):
  XXX=             -0.0001  YYY=             -0.0001  ZZZ=             -0.0000  XYY=              0.0000
  XXY=             -0.0001  XXZ=              0.0000  XZZ=             -0.0000  YZZ=             -0.0001
  YYZ=              0.0000  XYZ=             -0.0001
 Hexadecapole moment (field-independent basis, Debye-Ang**3):
 XXXX=           -174.0916 YYYY=           -133.2959 ZZZZ=           -167.1015 XXXY=             12.8031
 XXXZ=             18.1906 YYYX=            -31.7506 YYYZ=             21.6674 ZZZX=             20.7713
 ZZZY=            -13.3006 XXYY=            -39.4056 XXZZ=             -5.5006 YYZZ=            -46.1093
 XXYZ=             -8.3593 YYXZ=            -38.9589 ZZXY=             18.9491
 N-N= 6.676648494017D+02 E-N=-4.847547018124D+03  KE= 1.497124298663D+03
                          Isotropic Fermi Contact Couplings
        Atom                 a.u.       MegaHertz       Gauss      10(-4) cm-1
     1  Cr(53)            -0.05136       4.33411       1.54652       1.44570
     2  O(17)             -0.03287       6.64188       2.36999       2.21549
     3  H(1)               0.00046       0.68977       0.24613       0.23008
     4  O(17)             -0.03289       6.64563       2.37133       2.21674
     5  H(1)               0.00046       0.68956       0.24605       0.23001
     6  O(17)             -0.03286       6.64007       2.36934       2.21489
     7  H(1)               0.00046       0.68906       0.24587       0.22984
     8  O(17)             -0.03287       6.64188       2.36999       2.21549
     9  H(1)               0.00046       0.68982       0.24615       0.23010
    10  O(17)             -0.03289       6.64563       2.37133       2.21674
    11  H(1)               0.00046       0.68918       0.24592       0.22989
    12  O(17)             -0.03286       6.64007       2.36934       2.21489
    13  H(1)               0.00046       0.69045       0.24637       0.23031
    14  H(1)               0.00046       0.68908       0.24588       0.22985
    15  H(1)               0.00046       0.68918       0.24592       0.22988
    16  H(1)               0.00046       0.68982       0.24614       0.23010
    17  H(1)               0.00046       0.68957       0.24605       0.23001
    18  H(1)               0.00046       0.69047       0.24638       0.23032
    19  H(1)               0.00046       0.68977       0.24613       0.23008
 --------------------------------------------------------
       Center         ----  Spin Dipole Couplings  ----
                      3XX-RR        3YY-RR        3ZZ-RR
 --------------------------------------------------------
     1   Atom       -0.000252     -0.000005      0.000257
     2   Atom        0.026807     -0.060202      0.033395
     3   Atom        0.010385     -0.020579      0.010195
     4   Atom       -0.003828      0.004604     -0.000776
     5   Atom       -0.021183      0.023064     -0.001880
     6   Atom       -0.023069      0.055622     -0.032553
     7   Atom       -0.008592     -0.020975      0.029567
     8   Atom        0.026808     -0.060202      0.033394
     9   Atom       -0.010532      0.017940     -0.007408
    10   Atom       -0.003825      0.004604     -0.000779
    11   Atom        0.003602      0.018930     -0.022533
    12   Atom       -0.023069      0.055622     -0.032553
    13   Atom        0.026343     -0.018375     -0.007968
    14   Atom       -0.008592     -0.020975      0.029567
    15   Atom        0.003603      0.018930     -0.022532
    16   Atom       -0.010532      0.017940     -0.007408
    17   Atom       -0.021183      0.023063     -0.001880
    18   Atom        0.026343     -0.018375     -0.007968
    19   Atom        0.010385     -0.020579      0.010195
 --------------------------------------------------------
                        XY            XZ            YZ
 --------------------------------------------------------
     1   Atom       -0.000030     -0.000015     -0.000010
     2   Atom        0.018062      0.075433     -0.004328
     3   Atom        0.010980     -0.031399     -0.010689
     4   Atom        0.042731     -0.068342     -0.047405
     5   Atom       -0.008481     -0.007466      0.030303
     6   Atom       -0.060772     -0.007055      0.051728
     7   Atom       -0.004940      0.027901     -0.006415
     8   Atom        0.018061      0.075433     -0.004329
     9   Atom        0.022733     -0.012054     -0.025145
    10   Atom        0.042732     -0.068342     -0.047404
    11   Atom       -0.032625     -0.004690      0.003526
    12   Atom       -0.060772     -0.007054      0.051727
    13   Atom        0.012338      0.027708      0.008421
    14   Atom       -0.004940      0.027901     -0.006415
    15   Atom       -0.032626     -0.004690      0.003526
    16   Atom        0.022733     -0.012054     -0.025145
    17   Atom       -0.008481     -0.007466      0.030303
    18   Atom        0.012339      0.027708      0.008422
    19   Atom        0.010980     -0.031399     -0.010690
 --------------------------------------------------------


 ---------------------------------------------------------------------------------
              Anisotropic Spin Dipole Couplings in Principal Axis System
 ---------------------------------------------------------------------------------

       Atom             a.u.   MegaHertz   Gauss  10(-4) cm-1        Axes

              Baa    -0.0003     0.008     0.003     0.003  0.9923  0.1201  0.0311
     1 Cr(53) Bbb    -0.0000     0.000     0.000     0.000 -0.1210  0.9922  0.0301
              Bcc     0.0003    -0.008    -0.003    -0.003 -0.0273 -0.0336  0.9991
 
              Baa    -0.0708     5.125     1.829     1.709 -0.4161  0.8448  0.3363
     2 O(17)  Bbb    -0.0353     2.555     0.912     0.852 -0.5867 -0.5320  0.6106
              Bcc     0.1061    -7.680    -2.740    -2.562  0.6947  0.0568  0.7170
 
              Baa    -0.0242   -12.889    -4.599    -4.299 -0.2013  0.9723  0.1185
     3 H(1)   Bbb    -0.0211   -11.257    -4.017    -3.755  0.6951  0.0565  0.7167
              Bcc     0.0453    24.146     8.616     8.054  0.6902  0.2267 -0.6872
 
              Baa    -0.0708     5.124     1.828     1.709  0.6951  0.0566  0.7167
     4 O(17)  Bbb    -0.0353     2.556     0.912     0.852 -0.4159  0.8448  0.3366
              Bcc     0.1061    -7.679    -2.740    -2.562 -0.5864 -0.5320  0.6108
 
              Baa    -0.0242   -12.888    -4.599    -4.299  0.7929 -0.2218  0.5675
     5 H(1)   Bbb    -0.0211   -11.256    -4.016    -3.754 -0.5861 -0.5319  0.6111
              Bcc     0.0453    24.144     8.615     8.053 -0.1663  0.8172  0.5518
 
              Baa    -0.0708     5.124     1.829     1.709 -0.5866 -0.5318  0.6108
     6 O(17)  Bbb    -0.0353     2.554     0.911     0.852  0.6949  0.0567  0.7168
              Bcc     0.1061    -7.679    -2.740    -2.561 -0.4158  0.8450  0.3363
 
              Baa    -0.0242   -12.888    -4.599    -4.299  0.7815  0.5208 -0.3437
     7 H(1)   Bbb    -0.0211   -11.256    -4.016    -3.755 -0.4156  0.8453  0.3359
              Bcc     0.0453    24.143     8.615     8.053  0.4654 -0.1197  0.8770
 
              Baa    -0.0708     5.125     1.829     1.709 -0.4161  0.8448  0.3363
     8 O(17)  Bbb    -0.0353     2.555     0.912     0.852 -0.5867 -0.5320  0.6106
              Bcc     0.1061    -7.680    -2.740    -2.562  0.6947  0.0568  0.7170
 
              Baa    -0.0242   -12.888    -4.599    -4.299 -0.5853  0.6248  0.5168
     9 H(1)   Bbb    -0.0211   -11.256    -4.017    -3.755  0.6945  0.0575  0.7171
              Bcc     0.0453    24.145     8.615     8.054  0.4184  0.7787 -0.4676
 
              Baa    -0.0708     5.124     1.828     1.709  0.6951  0.0566  0.7167
    10 O(17)  Bbb    -0.0353     2.556     0.912     0.852 -0.4159  0.8448  0.3366
              Bcc     0.1061    -7.679    -2.740    -2.562 -0.5864 -0.5320  0.6108
 
              Baa    -0.0242   -12.889    -4.599    -4.299  0.5207  0.3298  0.7875
    11 H(1)   Bbb    -0.0211   -11.257    -4.017    -3.755 -0.5866 -0.5319  0.6107
              Bcc     0.0453    24.146     8.616     8.054 -0.6203  0.7799  0.0835
 
              Baa    -0.0708     5.124     1.829     1.709 -0.5866 -0.5318  0.6108
    12 O(17)  Bbb    -0.0353     2.554     0.911     0.852  0.6949  0.0567  0.7168
              Bcc     0.1061    -7.679    -2.740    -2.561 -0.4158  0.8450  0.3363
 
              Baa    -0.0242   -12.889    -4.599    -4.299 -0.3269 -0.4843  0.8115
    13 H(1)   Bbb    -0.0211   -11.258    -4.017    -3.755 -0.4162  0.8447  0.3365
              Bcc     0.0453    24.147     8.616     8.054  0.8485  0.2278  0.4777
 
              Baa    -0.0242   -12.888    -4.599    -4.299  0.7815  0.5208 -0.3437
    14 H(1)   Bbb    -0.0211   -11.256    -4.016    -3.755 -0.4156  0.8453  0.3359
              Bcc     0.0453    24.143     8.615     8.053  0.4654 -0.1197  0.8770
 
              Baa    -0.0242   -12.889    -4.599    -4.299  0.5207  0.3298  0.7875
    15 H(1)   Bbb    -0.0211   -11.257    -4.017    -3.755 -0.5866 -0.5319  0.6107
              Bcc     0.0453    24.146     8.616     8.054 -0.6203  0.7799  0.0835
 
              Baa    -0.0242   -12.888    -4.599    -4.299 -0.5853  0.6248  0.5168
    16 H(1)   Bbb    -0.0211   -11.256    -4.017    -3.755  0.6945  0.0575  0.7171
              Bcc     0.0453    24.145     8.615     8.054  0.4184  0.7787 -0.4676
 
              Baa    -0.0242   -12.888    -4.599    -4.299  0.7929 -0.2218  0.5675
    17 H(1)   Bbb    -0.0211   -11.256    -4.016    -3.754 -0.5862 -0.5319  0.6111
              Bcc     0.0453    24.144     8.615     8.053 -0.1663  0.8172  0.5518
 
              Baa    -0.0242   -12.889    -4.599    -4.299 -0.3269 -0.4844  0.8115
    18 H(1)   Bbb    -0.0211   -11.258    -4.017    -3.755 -0.4162  0.8447  0.3365
              Bcc     0.0453    24.146     8.616     8.054  0.8485  0.2278  0.4777
 
              Baa    -0.0242   -12.889    -4.599    -4.299 -0.2013  0.9723  0.1186
    19 H(1)   Bbb    -0.0211   -11.257    -4.017    -3.755  0.6951  0.0565  0.7167
              Bcc     0.0453    24.146     8.616     8.054  0.6902  0.2267 -0.6872
 

 ---------------------------------------------------------------------------------

 No NMR shielding tensors so no spin-rotation constants.
 Leave Link  601 at Thu May 23 14:15:51 2024, MaxMem= 26843545600 cpu:              29.0 elap:               0.3
 (Enter /gpfs/fs1/soft/improv/software/custom-built/gaussian/g16/l9999.exe)
 Unable to Open any file for archive entry.
 1\1\GINC-I221\SP\UPBE1PBE\Gen\Cr1H12O6(3+,4)\HHARB\23-May-2024\0\\#p P
 BE1PBE empiricaldispersion=gd3 scf=(maxcycles=500,xqc,maxconventional=
 50) scrf=(cpcm,solvent=water) geom=allcheck guess=read chkbasis\\Title
 \\3,4\Cr,-0.7848165628,0.7129518341,0.0317917409\O,-1.3087303894,2.608
 8411089,-0.2853676207\H,-2.2142372471,2.9369311181,-0.4195164905\O,1.1
 278651277,1.2598085536,0.1417878508\H,1.7524063831,1.3082056326,-0.601
 9747687\O,-0.9760630577,0.988124813,1.9957717177\H,-1.2381752224,1.815
 4488424,2.434418805\O,-0.2609028102,-1.182937462,0.3489521586\H,-0.865
 6404994,-1.9429479254,0.3964095621\O,-2.6974985683,0.1660957349,-0.078
 2043898\H,-3.1705275092,-0.0997955817,-0.8851255604\O,-0.5935686418,0.
 4377801435,-1.932188514\H,-0.745363589,1.1075068011,-2.6206662222\H,-0
 .3314566465,-0.3895439498,-2.3708352015\H,1.6008979216,1.5256842387,0.
 948711136\H,-0.7039936062,3.3688526425,-0.3328185338\H,-3.3220429432,0
 .117710207,0.6655565562\H,-0.8242742494,0.318392134,2.6842506272\H,0.6
 446045402,-1.5110291154,0.483092557\\Version=ES64L-G16RevC.02\State=4-
 A\HF=-1501.9934242\S2=3.760607\S2-1=0.\S2A=3.750044\RMSD=5.579e-09\Dip
 ole=-0.0000051,-0.0000083,0.0000013\Quadrupole=0.0007863,0.0013079,-0.
 0020942,0.000329,-0.0044452,0.0029339\PG=C01 [X(Cr1H12O6)]\\@
 The archive entry for this job was punched.


 THE TRULY SUCCESSFUL PERFORMANCE OF RESEARCHES IN
 INORGANIC CHEMISTRY IS POSSIBLE ONLY TO ONE WHO IS NOT
 ONLY A THEORETICAL CHEMIST, BUT ALSO AN ACCOMPLISHED
 ANALYST AND, MOREOVER, NOT MERELY A PRACTICALLY TRAINED,
 MECHANICAL WORKER, BUT A THINKING CREATIVE ARTIST.
   --  CLEMENS WINKLER, BER. 33, 1697(1900)
 Job cpu time:       0 days  0 hours 32 minutes 55.4 seconds.
 Elapsed time:       0 days  0 hours  0 minutes 18.2 seconds.
 File lengths (MBytes):  RWF=    119 Int=      0 D2E=      0 Chk=     32 Scr=      1
 Normal termination of Gaussian 16 at Thu May 23 14:15:51 2024.
