 Entering Gaussian System, Link 0=g16
 Input=Mn_2_PBE0.com
 Output=Mn_2_PBE0.log
 Initial command:
 /gpfs/fs1/soft/improv/software/custom-built/gaussian/g16/l1.exe "/scratch/Gau-265867.inp" -scrdir="/scratch/"
 Default CPUs for threads: 0-127
 Default linda workers: i184.lcrc.anl.gov
 Default is to use 128 SMP processors on each worker.
 Entering Link 1 = /gpfs/fs1/soft/improv/software/custom-built/gaussian/g16/l1.exe PID=    265868.
  
 Copyright (c) 1988-2021, Gaussian, Inc.  All Rights Reserved.
  
 This is part of the Gaussian(R) 16 program.  It is based on
 the Gaussian(R) 09 system (copyright 2009, Gaussian, Inc.),
 the Gaussian(R) 03 system (copyright 2003, Gaussian, Inc.),
 the Gaussian(R) 98 system (copyright 1998, Gaussian, Inc.),
 the Gaussian(R) 94 system (copyright 1995, Gaussian, Inc.),
 the Gaussian 92(TM) system (copyright 1992, Gaussian, Inc.),
 the Gaussian 90(TM) system (copyright 1990, Gaussian, Inc.),
 the Gaussian 88(TM) system (copyright 1988, Gaussian, Inc.),
 the Gaussian 86(TM) system (copyright 1986, Carnegie Mellon
 University), and the Gaussian 82(TM) system (copyright 1983,
 Carnegie Mellon University). Gaussian is a federally registered
 trademark of Gaussian, Inc.
  
 This software contains proprietary and confidential information,
 including trade secrets, belonging to Gaussian, Inc.
  
 This software is provided under written license and may be
 used, copied, transmitted, or stored only in accord with that
 written license.
  
 The following legend is applicable only to US Government
 contracts under FAR:
  
                    RESTRICTED RIGHTS LEGEND
  
 Use, reproduction and disclosure by the US Government is
 subject to restrictions as set forth in subparagraphs (a)
 and (c) of the Commercial Computer Software - Restricted
 Rights clause in FAR 52.227-19.
  
 Gaussian, Inc.
 340 Quinnipiac St., Bldg. 40, Wallingford CT 06492
  
  
 ---------------------------------------------------------------
 Warning -- This program may not be used in any manner that
 competes with the business of Gaussian, Inc. or will provide
 assistance to any competitor of Gaussian, Inc.  The licensee
 of this program is prohibited from giving any competitor of
 Gaussian, Inc. access to this program.  By using this program,
 the user acknowledges that Gaussian, Inc. is engaged in the
 business of creating and licensing software in the field of
 computational chemistry and represents and warrants to the
 licensee that it is not a competitor of Gaussian, Inc. and that
 it will not use this program in any manner prohibited above.
 ---------------------------------------------------------------
  

 Cite this work as:
 Gaussian 16, Revision C.02,
 M. J. Frisch, G. W. Trucks, H. B. Schlegel, G. E. Scuseria, 
 M. A. Robb, J. R. Cheeseman, G. Scalmani, V. Barone, 
 G. A. Petersson, H. Nakatsuji, X. Li, M. Caricato, A. V. Marenich, 
 J. Bloino, B. G. Janesko, R. Gomperts, B. Mennucci, H. P. Hratchian, 
 J. V. Ortiz, A. F. Izmaylov, J. L. Sonnenberg, D. Williams-Young, 
 F. Ding, F. Lipparini, F. Egidi, J. Goings, B. Peng, A. Petrone, 
 T. Henderson, D. Ranasinghe, V. G. Zakrzewski, J. Gao, N. Rega, 
 G. Zheng, W. Liang, M. Hada, M. Ehara, K. Toyota, R. Fukuda, 
 J. Hasegawa, M. Ishida, T. Nakajima, Y. Honda, O. Kitao, H. Nakai, 
 T. Vreven, K. Throssell, J. A. Montgomery, Jr., J. E. Peralta, 
 F. Ogliaro, M. J. Bearpark, J. J. Heyd, E. N. Brothers, K. N. Kudin, 
 V. N. Staroverov, T. A. Keith, R. Kobayashi, J. Normand, 
 K. Raghavachari, A. P. Rendell, J. C. Burant, S. S. Iyengar, 
 J. Tomasi, M. Cossi, J. M. Millam, M. Klene, C. Adamo, R. Cammi, 
 J. W. Ochterski, R. L. Martin, K. Morokuma, O. Farkas, 
 J. B. Foresman, and D. J. Fox, Gaussian, Inc., Wallingford CT, 2019.
 
 ******************************************
 Gaussian 16:  ES64L-G16RevC.02  7-Dec-2021
                23-May-2024 
 ******************************************
 %chk=Mn_2_PBE0.chk
 SetSPE:  set environment variable "OMP_PROC_BIND" = "true"
 SetSPE:  set environment variable "OMP_PLACES" = "{0},{1},{2},{3},{4},{5},{6},{7},{8},{9},{10},{11},{12},{13},{14},{15},{16},{17},{18},{19},{20},{21},{22},{23},{24},{25},{26},{27},{28},{29},{30},{31},{32},{33},{34},{35},{36},{37},{38},{39},{40},{41},{42},{43},{44},{45},{46},{47},{48},{49},{50},{51},{52},{53},{54},{55},{56},{57},{58},{59},{60},{61},{62},{63},{64},{65},{66},{67},{68},{69},{70},{71},{72},{73},{74},{75},{76},{77},{78},{79},{80},{81},{82},{83},{84},{85},{86},{87},{88},{89},{90},{91},{92},{93},{94},{95},{96},{97},{98},{99},{100},{101},{102},{103},{104},{105},{106},{107},{108},{109},{110},{111},{112},{113},{114},{115},{116},{117},{118},{119},{120},{121},{122},{123},{124},{125},{126},{127}"
 SetLPE:    new flags="-opt 'Tsnet.Node.lindarsharg: ssh'  -nodelist 'i184.lcrc.anl.gov' -env GAUSS_MDEF=26843545600 -env GAUSS_EXEDIR="/gpfs/fs1/soft/improv/software/custom-built/gaussian/g16/bsd:/gpfs/fs1/soft/improv/software/custom-built/gaussian/g16" -env "OMP_PROC_BIND=true" -env "OMP_PLACES={0},{1},{2},{3},{4},{5},{6},{7},{8},{9},{10},{11},{12},{13},{14},{15},{16},{17},{18},{19},{20},{21},{22},{23},{24},{25},{26},{27},{28},{29},{30},{31},{32},{33},{34},{35},{36},{37},{38},{39},{40},{41},{42},{43},{44},{45},{46},{47},{48},{49},{50},{51},{52},{53},{54},{55},{56},{57},{58},{59},{60},{61},{62},{63},{64},{65},{66},{67},{68},{69},{70},{71},{72},{73},{74},{75},{76},{77},{78},{79},{80},{81},{82},{83},{84},{85},{86},{87},{88},{89},{90},{91},{92},{93},{94},{95},{96},{97},{98},{99},{100},{101},{102},{103},{104},{105},{106},{107},{108},{109},{110},{111},{112},{113},{114},{115},{116},{117},{118},{119},{120},{121},{122},{123},{124},{125},{126},{127}" -env GAUSS_ADEF="0,1,2,3,4,5,6,7,8,9,10,11,12,13,14,15,16,17,18,19,20,21,22,23,24,25,26,27,28,29,30,31,32,33,34,35,36,37,38,39,40,41,42,43,44,45,46,47,48,49,50,51,52,53,54,55,56,57,58,59,60,61,62,63,64,65,66,67,68,69,70,71,72,73,74,75,76,77,78,79,80,81,82,83,84,85,86,87,88,89,90,91,92,93,94,95,96,97,98,99,100,101,102,103,104,105,106,107,108,109,110,111,112,113,114,115,116,117,118,119,120,121,122,123,124,125,126,127""
 Will use up to    1 processors via Linda.
 ----------------------------------------------------------------------
 #p PBE1PBE empiricaldispersion=gd3 6-31+G(2df,p) opt=(cartesian,calcal
 l,maxcycles=500) freq scf=(maxcycles=500,xqc,maxconventional=50)
 ----------------------------------------------------------------------
 1/6=500,10=4,18=10,26=3,38=1/1,3;
 2/12=2,17=6,18=5,29=2,40=1/2;
 3/5=1,6=6,7=114,11=2,25=1,30=1,71=2,74=-13,124=31,140=1/1,2,3;
 4//1;
 5/5=2,7=500,8=3,13=1,38=5,85=50/2,8;
 8/6=4,10=90,11=11/1;
 11/6=1,8=1,9=11,15=111,16=1/1,2,10;
 10/6=1/2;
 6/7=2,8=2,9=2,10=2,18=1,28=1/1;
 7/7=1,10=1,25=1/1,2,3,16;
 1/6=500,10=4,18=10,26=3/3(3);
 2/29=1/2;
 7/7=1,8=1,9=1,25=1,44=-1/16;
 99/12=1/99;
 2/29=1/2;
 3/5=1,6=6,7=114,11=2,25=1,30=1,71=2,74=-13,124=31,140=1/1,2,3;
 4/5=5,16=3,69=1/1;
 5/5=2,7=500,8=3,13=1,38=5,85=50/2,8;
 8/6=4,10=90,11=11/1;
 11/6=1,8=1,9=11,15=111,16=1/1,2,10;
 10/6=1/2;
 7/7=1,10=1,25=1/1,2,3,16;
 1/6=500,10=4,18=10,26=3/3(-8);
 2/29=1/2;
 6/7=2,8=2,9=2,10=2,18=1,19=2,28=1/1;
 7/7=1,8=1,9=1,25=1,44=-1/16;
 99/12=1/99;
 Leave Link    1 at Thu May 23 13:45:48 2024, MaxMem=           0 cpu:               6.8 elap:               0.1
 (Enter /gpfs/fs1/soft/improv/software/custom-built/gaussian/g16/l101.exe)
 -----
 Title
 -----
 Symbolic Z-matrix:
 Charge =  2 Multiplicity = 6
 Mn                   -0.79304   0.81881  -0.09491 
 O                    -1.20497   2.57394  -0.35687 
 H                    -2.12106   2.64974  -0.63312 
 O                     0.99012   1.19063  -0.05794 
 H                     1.42696   0.5998    0.55971 
 O                    -0.81752   1.03069   1.71365 
 H                    -1.02108   0.1906    2.13133 
 O                    -0.38507  -0.93351   0.17118 
 H                    -1.15682  -1.47369  -0.01433 
 O                    -2.57341   0.45178  -0.12186 
 H                    -2.77756  -0.08744  -0.88929 
 O                    -0.76966   0.60461  -1.90111 
 H                     0.09872   0.83457  -2.23949 
 H                    -0.96534  -0.30999  -2.11742 
 H                     1.12208   2.09943   0.22124 
 H                    -1.07671   3.0584    0.46184 
 H                    -2.81407  -0.02398   0.6765 
 H                     0.0422    1.33615   2.01181 
 H                    -0.11532  -1.06446   1.08312 
 
 ITRead=  0  0  0  0  0  0  0  0  0  0  0  0  0  0  0  0  0  0  0
 MicOpt= -1 -1 -1 -1 -1 -1 -1 -1 -1 -1 -1 -1 -1 -1 -1 -1 -1 -1 -1
 NAtoms=     19 NQM=       19 NQMF=       0 NMMI=      0 NMMIF=      0
                NMic=       0 NMicF=      0.
                    Isotopes and Nuclear Properties:
 (Nuclear quadrupole moments (NQMom) in fm**2, nuclear magnetic moments (NMagM)
  in nuclear magnetons)

  Atom         1           2           3           4           5           6           7           8           9          10
 IAtWgt=          55          16           1          16           1          16           1          16           1          16
 AtmWgt=  54.9380463  15.9949146   1.0078250  15.9949146   1.0078250  15.9949146   1.0078250  15.9949146   1.0078250  15.9949146
 NucSpn=           5           0           1           0           1           0           1           0           1           0
 AtZEff=  -0.0000000  -0.0000000  -0.0000000  -0.0000000  -0.0000000  -0.0000000  -0.0000000  -0.0000000  -0.0000000  -0.0000000
 NQMom=   33.0000000   0.0000000   0.0000000   0.0000000   0.0000000   0.0000000   0.0000000   0.0000000   0.0000000   0.0000000
 NMagM=    3.4532000   0.0000000   2.7928460   0.0000000   2.7928460   0.0000000   2.7928460   0.0000000   2.7928460   0.0000000
 AtZNuc=  25.0000000   8.0000000   1.0000000   8.0000000   1.0000000   8.0000000   1.0000000   8.0000000   1.0000000   8.0000000

  Atom        11          12          13          14          15          16          17          18          19
 IAtWgt=           1          16           1           1           1           1           1           1           1
 AtmWgt=   1.0078250  15.9949146   1.0078250   1.0078250   1.0078250   1.0078250   1.0078250   1.0078250   1.0078250
 NucSpn=           1           0           1           1           1           1           1           1           1
 AtZEff=  -0.0000000  -0.0000000  -0.0000000  -0.0000000  -0.0000000  -0.0000000  -0.0000000  -0.0000000  -0.0000000
 NQMom=    0.0000000   0.0000000   0.0000000   0.0000000   0.0000000   0.0000000   0.0000000   0.0000000   0.0000000
 NMagM=    2.7928460   0.0000000   2.7928460   2.7928460   2.7928460   2.7928460   2.7928460   2.7928460   2.7928460
 AtZNuc=   1.0000000   8.0000000   1.0000000   1.0000000   1.0000000   1.0000000   1.0000000   1.0000000   1.0000000
 Leave Link  101 at Thu May 23 13:45:48 2024, MaxMem= 26843545600 cpu:               0.4 elap:               0.1
 (Enter /gpfs/fs1/soft/improv/software/custom-built/gaussian/g16/l103.exe)

 GradGradGradGradGradGradGradGradGradGradGradGradGradGradGradGradGradGrad
 Berny optimization.
 Initialization pass.
 No Z-matrix variables, so optimization will use Cartesian coordinates.
 Trust Radius=3.00D-01 FncErr=1.00D-07 GrdErr=1.00D-06 EigMax=2.50D+02 EigMin=1.00D-04
 Number of steps in this run=    114 maximum allowed number of steps=    114.
 GradGradGradGradGradGradGradGradGradGradGradGradGradGradGradGradGradGrad

 Leave Link  103 at Thu May 23 13:45:48 2024, MaxMem= 26843545600 cpu:               0.4 elap:               0.0
 (Enter /gpfs/fs1/soft/improv/software/custom-built/gaussian/g16/l202.exe)
 ---------------------------------------------------------------------------------------------------
                            Z-MATRIX (ANGSTROMS AND DEGREES)
   CD    Cent   Atom    N1       Length/X        N2       Alpha/Y        N3        Beta/Z          J
 ---------------------------------------------------------------------------------------------------
      1      1  Mn       0  -0.793037          0.818805         -0.094905
      2      2  O        0  -1.204971          2.573941         -0.356874
      3      3  H        0  -2.121063          2.649743         -0.633122
      4      4  O        0   0.990122          1.190635         -0.057941
      5      5  H        0   1.426962          0.599798          0.559707
      6      6  O        0  -0.817519          1.030691          1.713650
      7      7  H        0  -1.021079          0.190602          2.131326
      8      8  O        0  -0.385068         -0.933506          0.171177
      9      9  H        0  -1.156817         -1.473692         -0.014327
     10     10  O        0  -2.573405          0.451778         -0.121857
     11     11  H        0  -2.777557         -0.087440         -0.889285
     12     12  O        0  -0.769659          0.604612         -1.901109
     13     13  H        0   0.098725          0.834573         -2.239490
     14     14  H        0  -0.965336         -0.309994         -2.117418
     15     15  H        0   1.122081          2.099426          0.221242
     16     16  H        0  -1.076711          3.058396          0.461841
     17     17  H        0  -2.814074         -0.023981          0.676500
     18     18  H        0   0.042204          1.336153          2.011809
     19     19  H        0  -0.115315         -1.064459          1.083123
 ---------------------------------------------------------------------------------------------------
                         Z-Matrix orientation:                         
 ---------------------------------------------------------------------
 Center     Atomic      Atomic             Coordinates (Angstroms)
 Number     Number       Type             X           Y           Z
 ---------------------------------------------------------------------
      1         25           0       -0.793037    0.818805   -0.094905
      2          8           0       -1.204971    2.573941   -0.356874
      3          1           0       -2.121063    2.649743   -0.633122
      4          8           0        0.990122    1.190635   -0.057941
      5          1           0        1.426962    0.599798    0.559707
      6          8           0       -0.817519    1.030691    1.713650
      7          1           0       -1.021079    0.190602    2.131326
      8          8           0       -0.385068   -0.933506    0.171177
      9          1           0       -1.156817   -1.473692   -0.014327
     10          8           0       -2.573405    0.451778   -0.121857
     11          1           0       -2.777557   -0.087440   -0.889285
     12          8           0       -0.769659    0.604612   -1.901109
     13          1           0        0.098725    0.834573   -2.239490
     14          1           0       -0.965336   -0.309994   -2.117418
     15          1           0        1.122081    2.099426    0.221242
     16          1           0       -1.076711    3.058396    0.461841
     17          1           0       -2.814074   -0.023981    0.676500
     18          1           0        0.042204    1.336153    2.011809
     19          1           0       -0.115315   -1.064459    1.083123
 ---------------------------------------------------------------------
                    Distance matrix (angstroms):
                    1          2          3          4          5
     1  Mn   0.000000
     2  O    1.821762   0.000000
     3  H    2.325008   0.959835   0.000000
     4  O    1.821889   2.611767   3.484150   0.000000
     5  H    2.324839   3.415322   4.267739   0.959899   0.000000
     6  O    1.821090   2.611285   3.134947   2.536076   2.560263
     7  H    2.324381   3.450400   3.859988   3.136540   2.937743
     8  O    1.818745   3.640503   4.062050   2.540791   2.405292
     9  H    2.322579   4.062387   4.279649   3.421971   3.362259
    10  O    1.818006   2.536025   2.301533   3.639880   4.060711
    11  H    2.321775   3.136788   2.826442   4.064482   4.499984
    12  O    1.819010   2.540161   2.759827   2.614866   3.298603
    13  H    2.322657   2.875634   3.286750   2.383386   3.107223
    14  H    2.322591   3.387332   3.506977   3.212032   3.703756
    15  H    2.325429   2.444290   3.398642   0.959822   1.567289
    16  H    2.325125   0.959918   1.567358   2.833814   3.510364
    17  H    2.321626   3.225876   3.056824   4.060370   4.288255
    18  H    2.324547   2.949275   3.660724   2.281137   2.137375
    19  H    2.322443   4.061883   4.556733   2.758526   2.328591
                    6          7          8          9         10
     6  O    0.000000
     7  H    0.960021   0.000000
     8  O    2.534622   2.347406   0.000000
     9  H    3.061530   2.718847   0.960108   0.000000
    10  O    2.605257   2.748593   2.606473   2.392848   0.000000
    11  H    3.444886   3.505227   2.750347   2.305222   0.959885
    12  O    3.640099   4.061422   2.609231   2.833582   2.538227
    13  H    4.062670   4.557707   3.028445   3.443229   3.430916
    14  H    4.061572   4.278496   2.441955   2.411193   2.673658
    15  H    2.670492   3.447487   3.387136   4.244531   4.060675
    16  H    2.397039   3.318813   4.061790   4.557738   3.061904
    17  H    2.484803   2.318921   2.642472   2.307685   0.960023
    18  H    0.959858   1.567527   2.953276   3.665802   3.489421
    19  H    2.297892   1.869309   0.959980   1.567353   3.129403
                   11         12         13         14         15
    11  H    0.000000
    12  O    2.352526   0.000000
    13  H    3.308498   0.959935   0.000000
    14  H    2.200452   0.959991   1.567533   0.000000
    15  H    4.606825   3.212091   2.949969   3.953725   0.000000
    16  H    3.822919   3.420362   3.691102   4.243941   2.410850
    17  H    1.567497   3.349453   4.210050   3.362383   4.495491
    18  H    4.288824   4.062660   4.281159   4.558009   2.225950
    19  H    3.454344   3.481323   3.833001   3.396353   3.504877
                   16         17         18         19
    16  H    0.000000
    17  H    3.544793   0.000000
    18  H    2.573032   3.433851   0.000000
    19  H    4.278809   2.920828   2.578800   0.000000
 Stoichiometry    H12MnO6(2+,6)
 Framework group  C1[X(H12MnO6)]
 Deg. of freedom    51
 Full point group                 C1      NOp   1
 Largest Abelian subgroup         C1      NOp   1
 Largest concise Abelian subgroup C1      NOp   1
                         Standard orientation:                         
 ---------------------------------------------------------------------
 Center     Atomic      Atomic             Coordinates (Angstroms)
 Number     Number       Type             X           Y           Z
 ---------------------------------------------------------------------
      1         25           0       -0.020445   -0.030121    0.009875
      2          8           0       -0.320808   -1.687588   -0.683958
      3          1           0       -1.137042   -1.679899   -1.188920
      4          8           0        1.254655   -0.678279    1.138277
      5          1           0        1.943361   -0.019749    1.254154
      6          8           0        1.298207    0.294245   -1.203513
      7          1           0        1.382040    1.240910   -1.339297
      8          8           0        0.280486    1.626554    0.697409
      9          1           0       -0.431358    2.215648    0.436540
     10          8           0       -1.285904    0.615907   -1.124325
     11          1           0       -2.034842    0.938661   -0.618064
     12          8           0       -1.338362   -0.351446    1.221751
     13          1           0       -0.971739   -0.815561    1.977832
     14          1           0       -1.717277    0.481861    1.510897
     15          1           0        1.635399   -1.477016    0.766376
     16          1           0        0.408515   -1.930884   -1.258706
     17          1           0       -0.915243    1.335169   -1.640964
     18          1           0        2.129003   -0.056571   -0.874826
     19          1           0        1.114126    1.965325    0.362984
 ---------------------------------------------------------------------
 Rotational constants (GHZ):           2.0396948           1.9739407           1.9252755
 Leave Link  202 at Thu May 23 13:45:48 2024, MaxMem= 26843545600 cpu:               0.4 elap:               0.0
 (Enter /gpfs/fs1/soft/improv/software/custom-built/gaussian/g16/l301.exe)
 Standard basis: 6-31+G(2df,p) (6D, 7F)
 Ernie: Thresh=  0.10000D-02 Tol=  0.10000D-05 Strict=F.
 There are   347 symmetry adapted cartesian basis functions of A   symmetry.
 There are   317 symmetry adapted basis functions of A   symmetry.
   317 basis functions,   514 primitive gaussians,   347 cartesian basis functions
    44 alpha electrons       39 beta electrons
       nuclear repulsion energy       751.0997080055 Hartrees.
 IExCor= 1009 DFT=T Ex+Corr=PBE1PBE ExCW=0 ScaHFX=  0.250000
 ScaDFX=  0.750000  0.750000  1.000000  1.000000 ScalE2=  1.000000  1.000000
 IRadAn=      5 IRanWt=     -1 IRanGd=            0 ICorTp=0 IEmpDi=131
 NAtoms=   19 NActive=   19 NUniq=   19 SFac= 1.00D+00 NAtFMM=   60 NAOKFM=F Big=F
 Integral buffers will be    131072 words long.
 Raffenetti 2 integral format.
 Two-electron integral symmetry is turned on.
 R6Disp:  Grimme-D3 Dispersion energy=       -0.0133890801 Hartrees.
 Nuclear repulsion after empirical dispersion term =      751.0863189255 Hartrees.
 Leave Link  301 at Thu May 23 13:45:48 2024, MaxMem= 26843545600 cpu:               0.4 elap:               0.0
 (Enter /gpfs/fs1/soft/improv/software/custom-built/gaussian/g16/l302.exe)
 NPDir=0 NMtPBC=     1 NCelOv=     1 NCel=       1 NClECP=     1 NCelD=      1
         NCelK=      1 NCelE2=     1 NClLst=     1 CellRange=     0.0.
 One-electron integrals computed using PRISM.
 One-electron integral symmetry used in STVInt
 NBasis=   317 RedAO= T EigKep=  1.52D-05  NBF=   317
 NBsUse=   317 1.00D-06 EigRej= -1.00D+00 NBFU=   317
 Precomputing XC quadrature grid using
 IXCGrd= 4 IRadAn=           5 IRanWt=          -1 IRanGd=           0 AccXCQ= 0.00D+00.
 Generated NRdTot=       0 NPtTot=           0 NUsed=           0 NTot=          32
 NSgBfM=   347   346   347   347   347 MxSgAt=    19 MxSgA2=    19.
 Leave Link  302 at Thu May 23 13:45:48 2024, MaxMem= 26843545600 cpu:              22.1 elap:               0.3
 (Enter /gpfs/fs1/soft/improv/software/custom-built/gaussian/g16/l303.exe)
 DipDrv:  MaxL=1.
 Leave Link  303 at Thu May 23 13:45:49 2024, MaxMem= 26843545600 cpu:               1.0 elap:               0.0
 (Enter /gpfs/fs1/soft/improv/software/custom-built/gaussian/g16/l401.exe)
 ExpMin= 1.19D-02 ExpMax= 5.63D+04 ExpMxC= 8.46D+03 IAcc=3 IRadAn=         5 AccDes= 0.00D+00
 Harris functional with IExCor= 1009 and IRadAn=       5 diagonalized for initial guess.
 HarFok:  IExCor= 1009 AccDes= 0.00D+00 IRadAn=         5 IDoV= 1 UseB2=F ITyADJ=14
 ICtDFT=  3500011 ScaDFX=  1.000000  1.000000  1.000000  1.000000
 FoFCou: FMM=F IPFlag=           0 FMFlag=      100000 FMFlg1=           0
         NFxFlg=           0 DoJE=T BraDBF=F KetDBF=T FulRan=T
         wScrn=  0.000000 ICntrl=       500 IOpCl=  0 I1Cent=   200000004 NGrid=           0
         NMat0=    1 NMatS0=      1 NMatT0=    0 NMatD0=    1 NMtDS0=    0 NMtDT0=    0
 Petite list used in FoFCou.
 Harris En= -1608.20592254447    
 JPrj=0 DoOrth=F DoCkMO=F.
 Initial guess <Sx>= 0.0000 <Sy>= 0.0000 <Sz>= 2.5000 <S**2>= 8.7500 S= 2.5000
 Leave Link  401 at Thu May 23 13:45:49 2024, MaxMem= 26843545600 cpu:              38.7 elap:               0.4
 (Enter /gpfs/fs1/soft/improv/software/custom-built/gaussian/g16/l502.exe)
 Integral symmetry usage will be decided dynamically.
 UHF open shell SCF:
 Using DIIS extrapolation, IDIIS=  1040.
 NGot= 26843545600 LenX= 26843256607 LenY= 26843135757
 Requested convergence on RMS density matrix=1.00D-08 within  50 cycles.
 Requested convergence on MAX density matrix=1.00D-06.
 Requested convergence on             energy=1.00D-06.
 No special actions if energy rises.
 Fock matrices will be formed incrementally for  20 cycles.

 Cycle   1  Pass 1  IDiag  1:
 FoFJK:  IHMeth= 1 ICntrl=       0 DoSepK=F KAlg= 0 I1Cent=           0 FoldK=F
 IRaf= 990000000 NMat=       1 IRICut=       1 DoRegI=T DoRafI=F ISym2E= 0 IDoP0=0 IntGTp=1.
 FoFCou: FMM=F IPFlag=           0 FMFlag=      100000 FMFlg1=           0
         NFxFlg=           0 DoJE=F BraDBF=F KetDBF=F FulRan=T
         wScrn=  0.000000 ICntrl=         0 IOpCl=  1 I1Cent=           0 NGrid=           0
         NMat0=    1 NMatS0=      1 NMatT0=    0 NMatD0=    1 NMtDS0=    0 NMtDT0=    0
 Symmetry not used in FoFCou.
 E= -1607.62709998538    
 DIIS: error= 3.00D-02 at cycle   1 NSaved=   1.
 NSaved= 1 IEnMin= 1 EnMin= -1607.62709998538     IErMin= 1 ErrMin= 3.00D-02
 ErrMax= 3.00D-02  0.00D+00 EMaxC= 1.00D-01 BMatC= 3.11D+00 BMatP= 3.11D+00
 IDIUse=3 WtCom= 7.00D-01 WtEn= 3.00D-01
 Coeff-Com:  0.100D+01
 Coeff-En:   0.100D+01
 Coeff:      0.100D+01
 Gap=     0.138 Goal=   None    Shift=    0.000
 Gap=    -0.034 Goal=   None    Shift=    0.000
 GapD=   -0.034 DampG=0.250 DampE=0.250 DampFc=0.1250 IDamp=-1.
 Damping current iteration by 1.25D-01
 RMSDP=1.66D-02 MaxDP=2.95D+00              OVMax= 8.32D-01

 Cycle   2  Pass 1  IDiag  1:
 RMSU=  1.96D-03    CP:  9.73D-01
 E= -1607.70732791326     Delta-E=       -0.080227927878 Rises=F Damp=T
 DIIS: error= 2.07D-02 at cycle   2 NSaved=   2.
 NSaved= 2 IEnMin= 2 EnMin= -1607.70732791326     IErMin= 2 ErrMin= 2.07D-02
 ErrMax= 2.07D-02  0.00D+00 EMaxC= 1.00D-01 BMatC= 1.10D+00 BMatP= 3.11D+00
 IDIUse=3 WtCom= 7.93D-01 WtEn= 2.07D-01
 Coeff-Com: -0.832D+00 0.183D+01
 Coeff-En:   0.876D-01 0.912D+00
 Coeff:     -0.642D+00 0.164D+01
 Gap=    -0.007 Goal=   None    Shift=    0.000
 Gap=    -0.041 Goal=   None    Shift=    0.000
 RMSDP=1.99D-02 MaxDP=2.99D+00 DE=-8.02D-02 OVMax= 9.95D-01

 Cycle   3  Pass 1  IDiag  1:
 RMSU=  1.99D-02    CP:  9.73D-01  9.95D-01
 E= -1607.77021690606     Delta-E=       -0.062888992805 Rises=F Damp=F
 DIIS: error= 2.38D-02 at cycle   3 NSaved=   3.
 NSaved= 3 IEnMin= 3 EnMin= -1607.77021690606     IErMin= 2 ErrMin= 2.07D-02
 ErrMax= 2.38D-02  0.00D+00 EMaxC= 1.00D-01 BMatC= 1.72D+00 BMatP= 1.10D+00
 IDIUse=2 WtCom= 0.00D+00 WtEn= 1.00D+00
 Coeff-En:   0.000D+00 0.417D+00 0.583D+00
 Coeff:      0.000D+00 0.417D+00 0.583D+00
 Gap=     0.407 Goal=   None    Shift=    0.000
 Gap=     0.388 Goal=   None    Shift=    0.000
 RMSDP=2.37D-02 MaxDP=4.28D+00 DE=-6.29D-02 OVMax= 9.37D-01

 Cycle   4  Pass 1  IDiag  1:
 RMSU=  7.60D-03    CP:  7.47D-01  3.00D+00 -1.79D-02
 E= -1607.27162400540     Delta-E=        0.498592900662 Rises=F Damp=F
 DIIS: error= 6.05D-02 at cycle   4 NSaved=   4.
 NSaved= 4 IEnMin= 3 EnMin= -1607.77021690606     IErMin= 2 ErrMin= 2.07D-02
 ErrMax= 6.05D-02  0.00D+00 EMaxC= 1.00D-01 BMatC= 5.86D+00 BMatP= 1.10D+00
 IDIUse=2 WtCom= 0.00D+00 WtEn= 1.00D+00
 EnCoef did     3 forward-backward iterations
 Coeff-En:   0.117D+00 0.000D+00 0.564D+00 0.318D+00
 Coeff:      0.117D+00 0.000D+00 0.564D+00 0.318D+00
 Gap=     0.071 Goal=   None    Shift=    0.000
 Gap=     0.345 Goal=   None    Shift=    0.000
 RMSDP=5.50D-03 MaxDP=3.64D-01 DE= 4.99D-01 OVMax= 1.65D-01

 Cycle   5  Pass 1  IDiag  1:
 RMSU=  5.00D-03    CP:  6.93D-01  3.00D+00 -3.10D-03  7.60D-01
 E= -1608.04549501943     Delta-E=       -0.773871014028 Rises=F Damp=F
 DIIS: error= 1.08D-02 at cycle   5 NSaved=   5.
 NSaved= 5 IEnMin= 5 EnMin= -1608.04549501943     IErMin= 5 ErrMin= 1.08D-02
 ErrMax= 1.08D-02  0.00D+00 EMaxC= 1.00D-01 BMatC= 4.65D-01 BMatP= 1.10D+00
 IDIUse=3 WtCom= 8.92D-01 WtEn= 1.08D-01
 Coeff-Com: -0.385D+00 0.518D+00 0.307D+00-0.124D+00 0.685D+00
 Coeff-En:   0.000D+00 0.000D+00 0.241D+00 0.000D+00 0.759D+00
 Coeff:     -0.344D+00 0.463D+00 0.300D+00-0.111D+00 0.693D+00
 Gap=     0.041 Goal=   None    Shift=    0.000
 Gap=     0.383 Goal=   None    Shift=    0.000
 RMSDP=1.50D-03 MaxDP=7.07D-02 DE=-7.74D-01 OVMax= 4.27D-02

 Cycle   6  Pass 1  IDiag  1:
 RMSU=  1.05D-03    CP:  6.88D-01  3.00D+00  1.14D-02  6.97D-01  1.18D+00
 E= -1608.12375489556     Delta-E=       -0.078259876128 Rises=F Damp=F
 DIIS: error= 4.07D-03 at cycle   6 NSaved=   6.
 NSaved= 6 IEnMin= 6 EnMin= -1608.12375489556     IErMin= 6 ErrMin= 4.07D-03
 ErrMax= 4.07D-03  0.00D+00 EMaxC= 1.00D-01 BMatC= 3.71D-02 BMatP= 4.65D-01
 IDIUse=3 WtCom= 9.59D-01 WtEn= 4.07D-02
 Coeff-Com: -0.521D-01 0.106D+00 0.706D-01-0.431D-01-0.291D-01 0.947D+00
 Coeff-En:   0.000D+00 0.000D+00 0.000D+00 0.000D+00 0.000D+00 0.100D+01
 Coeff:     -0.500D-01 0.102D+00 0.677D-01-0.414D-01-0.279D-01 0.950D+00
 Gap=     0.074 Goal=   None    Shift=    0.000
 Gap=     0.340 Goal=   None    Shift=    0.000
 RMSDP=5.60D-04 MaxDP=2.98D-02 DE=-7.83D-02 OVMax= 2.03D-02

 Cycle   7  Pass 1  IDiag  1:
 RMSU=  3.38D-04    CP:  6.87D-01  3.00D+00  1.58D-02  6.77D-01  1.23D+00
                    CP:  1.31D+00
 E= -1608.12995850734     Delta-E=       -0.006203611786 Rises=F Damp=F
 DIIS: error= 1.29D-03 at cycle   7 NSaved=   7.
 NSaved= 7 IEnMin= 7 EnMin= -1608.12995850734     IErMin= 7 ErrMin= 1.29D-03
 ErrMax= 1.29D-03  0.00D+00 EMaxC= 1.00D-01 BMatC= 5.52D-03 BMatP= 3.71D-02
 IDIUse=3 WtCom= 9.87D-01 WtEn= 1.29D-02
 Coeff-Com:  0.757D-01-0.726D-01-0.239D-01 0.558D-02-0.208D+00 0.490D+00
 Coeff-Com:  0.733D+00
 Coeff-En:   0.000D+00 0.000D+00 0.000D+00 0.000D+00 0.000D+00 0.000D+00
 Coeff-En:   0.100D+01
 Coeff:      0.747D-01-0.716D-01-0.236D-01 0.551D-02-0.205D+00 0.484D+00
 Coeff:      0.737D+00
 Gap=     0.095 Goal=   None    Shift=    0.000
 Gap=     0.338 Goal=   None    Shift=    0.000
 RMSDP=2.86D-04 MaxDP=1.61D-02 DE=-6.20D-03 OVMax= 1.26D-02

 Cycle   8  Pass 1  IDiag  1:
 RMSU=  1.55D-04    CP:  6.86D-01  3.00D+00  1.81D-02  6.69D-01  1.25D+00
                    CP:  1.44D+00  1.42D+00
 E= -1608.13093732177     Delta-E=       -0.000978814428 Rises=F Damp=F
 DIIS: error= 3.12D-04 at cycle   8 NSaved=   8.
 NSaved= 8 IEnMin= 8 EnMin= -1608.13093732177     IErMin= 8 ErrMin= 3.12D-04
 ErrMax= 3.12D-04  0.00D+00 EMaxC= 1.00D-01 BMatC= 3.11D-04 BMatP= 5.52D-03
 IDIUse=3 WtCom= 9.97D-01 WtEn= 3.12D-03
 Coeff-Com:  0.104D-01-0.810D-02-0.112D-03-0.683D-03-0.160D-01-0.196D-01
 Coeff-Com:  0.227D+00 0.807D+00
 Coeff-En:   0.000D+00 0.000D+00 0.000D+00 0.000D+00 0.000D+00 0.000D+00
 Coeff-En:   0.000D+00 0.100D+01
 Coeff:      0.104D-01-0.807D-02-0.112D-03-0.681D-03-0.159D-01-0.195D-01
 Coeff:      0.227D+00 0.807D+00
 Gap=     0.092 Goal=   None    Shift=    0.000
 Gap=     0.339 Goal=   None    Shift=    0.000
 RMSDP=1.10D-04 MaxDP=6.98D-03 DE=-9.79D-04 OVMax= 7.41D-03

 Cycle   9  Pass 1  IDiag  1:
 RMSU=  7.96D-05    CP:  6.85D-01  3.00D+00  1.86D-02  6.67D-01  1.26D+00
                    CP:  1.42D+00  1.57D+00  1.13D+00
 E= -1608.13098889041     Delta-E=       -0.000051568645 Rises=F Damp=F
 DIIS: error= 1.28D-04 at cycle   9 NSaved=   9.
 NSaved= 9 IEnMin= 9 EnMin= -1608.13098889041     IErMin= 9 ErrMin= 1.28D-04
 ErrMax= 1.28D-04  0.00D+00 EMaxC= 1.00D-01 BMatC= 4.80D-05 BMatP= 3.11D-04
 IDIUse=3 WtCom= 9.99D-01 WtEn= 1.28D-03
 Coeff-Com:  0.159D-02-0.121D-02 0.105D-02-0.191D-03-0.280D-04-0.305D-01
 Coeff-Com:  0.251D-01 0.169D+00 0.835D+00
 Coeff-En:   0.000D+00 0.000D+00 0.000D+00 0.000D+00 0.000D+00 0.000D+00
 Coeff-En:   0.000D+00 0.000D+00 0.100D+01
 Coeff:      0.159D-02-0.120D-02 0.105D-02-0.191D-03-0.279D-04-0.304D-01
 Coeff:      0.250D-01 0.169D+00 0.835D+00
 Gap=     0.091 Goal=   None    Shift=    0.000
 Gap=     0.339 Goal=   None    Shift=    0.000
 RMSDP=5.96D-05 MaxDP=4.26D-03 DE=-5.16D-05 OVMax= 4.71D-03

 Cycle  10  Pass 1  IDiag  1:
 RMSU=  2.71D-05    CP:  6.85D-01  3.00D+00  1.91D-02  6.67D-01  1.26D+00
                    CP:  1.43D+00  1.68D+00  1.25D+00  1.34D+00
 E= -1608.13100194517     Delta-E=       -0.000013054753 Rises=F Damp=F
 DIIS: error= 3.73D-05 at cycle  10 NSaved=  10.
 NSaved=10 IEnMin=10 EnMin= -1608.13100194517     IErMin=10 ErrMin= 3.73D-05
 ErrMax= 3.73D-05  0.00D+00 EMaxC= 1.00D-01 BMatC= 3.59D-06 BMatP= 4.80D-05
 IDIUse=1 WtCom= 1.00D+00 WtEn= 0.00D+00
 Coeff-Com: -0.196D-03 0.311D-03 0.400D-03 0.613D-04-0.837D-04-0.779D-02
 Coeff-Com: -0.710D-02-0.230D-01 0.184D+00 0.853D+00
 Coeff:     -0.196D-03 0.311D-03 0.400D-03 0.613D-04-0.837D-04-0.779D-02
 Coeff:     -0.710D-02-0.230D-01 0.184D+00 0.853D+00
 Gap=     0.091 Goal=   None    Shift=    0.000
 Gap=     0.338 Goal=   None    Shift=    0.000
 RMSDP=3.43D-05 MaxDP=2.70D-03 DE=-1.31D-05 OVMax= 3.00D-03

 Cycle  11  Pass 1  IDiag  1:
 RMSU=  5.98D-06    CP:  6.85D-01  3.00D+00  1.93D-02  6.67D-01  1.26D+00
                    CP:  1.44D+00  1.74D+00  1.32D+00  1.59D+00  1.48D+00
 E= -1608.13100402884     Delta-E=       -0.000002083678 Rises=F Damp=F
 DIIS: error= 1.46D-05 at cycle  11 NSaved=  11.
 NSaved=11 IEnMin=11 EnMin= -1608.13100402884     IErMin=11 ErrMin= 1.46D-05
 ErrMax= 1.46D-05  0.00D+00 EMaxC= 1.00D-01 BMatC= 6.52D-07 BMatP= 3.59D-06
 IDIUse=1 WtCom= 1.00D+00 WtEn= 0.00D+00
 Coeff-Com: -0.476D-03 0.568D-03 0.139D-03 0.364D-04 0.992D-04-0.300D-03
 Coeff-Com: -0.575D-02-0.311D-01-0.334D-01 0.406D+00 0.664D+00
 Coeff:     -0.476D-03 0.568D-03 0.139D-03 0.364D-04 0.992D-04-0.300D-03
 Coeff:     -0.575D-02-0.311D-01-0.334D-01 0.406D+00 0.664D+00
 Gap=     0.091 Goal=   None    Shift=    0.000
 Gap=     0.338 Goal=   None    Shift=    0.000
 RMSDP=1.84D-05 MaxDP=1.42D-03 DE=-2.08D-06 OVMax= 1.59D-03

 Cycle  12  Pass 1  IDiag  1:
 RMSU=  2.71D-06    CP:  6.85D-01  3.00D+00  1.95D-02  6.67D-01  1.26D+00
                    CP:  1.44D+00  1.77D+00  1.37D+00  1.73D+00  1.77D+00
                    CP:  1.23D+00
 E= -1608.13100460390     Delta-E=       -0.000000575056 Rises=F Damp=F
 DIIS: error= 8.50D-06 at cycle  12 NSaved=  12.
 NSaved=12 IEnMin=12 EnMin= -1608.13100460390     IErMin=12 ErrMin= 8.50D-06
 ErrMax= 8.50D-06  0.00D+00 EMaxC= 1.00D-01 BMatC= 1.22D-07 BMatP= 6.52D-07
 IDIUse=1 WtCom= 1.00D+00 WtEn= 0.00D+00
 Coeff-Com: -0.305D-03 0.332D-03 0.466D-04-0.397D-04 0.539D-03 0.832D-03
 Coeff-Com:  0.260D-03-0.131D-03-0.504D-01-0.110D+00 0.204D+00 0.955D+00
 Coeff:     -0.305D-03 0.332D-03 0.466D-04-0.397D-04 0.539D-03 0.832D-03
 Coeff:      0.260D-03-0.131D-03-0.504D-01-0.110D+00 0.204D+00 0.955D+00
 Gap=     0.091 Goal=   None    Shift=    0.000
 Gap=     0.338 Goal=   None    Shift=    0.000
 RMSDP=1.64D-05 MaxDP=1.26D-03 DE=-5.75D-07 OVMax= 1.42D-03

 Cycle  13  Pass 1  IDiag  1:
 RMSU=  1.23D-06    CP:  6.85D-01  3.00D+00  1.96D-02  6.67D-01  1.26D+00
                    CP:  1.44D+00  1.80D+00  1.41D+00  1.84D+00  2.02D+00
                    CP:  1.66D+00  1.47D+00
 E= -1608.13100485417     Delta-E=       -0.000000250274 Rises=F Damp=F
 DIIS: error= 3.68D-06 at cycle  13 NSaved=  13.
 NSaved=13 IEnMin=13 EnMin= -1608.13100485417     IErMin=13 ErrMin= 3.68D-06
 ErrMax= 3.68D-06  0.00D+00 EMaxC= 1.00D-01 BMatC= 1.82D-08 BMatP= 1.22D-07
 IDIUse=1 WtCom= 1.00D+00 WtEn= 0.00D+00
 Coeff-Com: -0.952D-04 0.900D-04 0.353D-04-0.399D-04 0.328D-03-0.215D-03
 Coeff-Com:  0.956D-03 0.612D-02-0.319D-03-0.106D+00-0.114D+00 0.149D+00
 Coeff-Com:  0.106D+01
 Coeff:     -0.952D-04 0.900D-04 0.353D-04-0.399D-04 0.328D-03-0.215D-03
 Coeff:      0.956D-03 0.612D-02-0.319D-03-0.106D+00-0.114D+00 0.149D+00
 Coeff:      0.106D+01
 Gap=     0.091 Goal=   None    Shift=    0.000
 Gap=     0.338 Goal=   None    Shift=    0.000
 RMSDP=9.45D-06 MaxDP=7.28D-04 DE=-2.50D-07 OVMax= 8.19D-04

 Cycle  14  Pass 1  IDiag  1:
 RMSU=  4.58D-07    CP:  6.85D-01  3.00D+00  1.97D-02  6.67D-01  1.26D+00
                    CP:  1.44D+00  1.81D+00  1.43D+00  1.91D+00  2.17D+00
                    CP:  1.92D+00  1.91D+00  1.46D+00
 E= -1608.13100490634     Delta-E=       -0.000000052162 Rises=F Damp=F
 DIIS: error= 9.05D-07 at cycle  14 NSaved=  14.
 NSaved=14 IEnMin=14 EnMin= -1608.13100490634     IErMin=14 ErrMin= 9.05D-07
 ErrMax= 9.05D-07  0.00D+00 EMaxC= 1.00D-01 BMatC= 2.88D-09 BMatP= 1.82D-08
 IDIUse=1 WtCom= 1.00D+00 WtEn= 0.00D+00
 Coeff-Com:  0.291D-05-0.613D-05-0.332D-05-0.646D-05-0.157D-04-0.137D-03
 Coeff-Com:  0.114D-03 0.834D-03 0.613D-02-0.140D-01-0.579D-01-0.877D-01
 Coeff-Com:  0.305D+00 0.848D+00
 Coeff:      0.291D-05-0.613D-05-0.332D-05-0.646D-05-0.157D-04-0.137D-03
 Coeff:      0.114D-03 0.834D-03 0.613D-02-0.140D-01-0.579D-01-0.877D-01
 Coeff:      0.305D+00 0.848D+00
 Gap=     0.091 Goal=   None    Shift=    0.000
 Gap=     0.338 Goal=   None    Shift=    0.000
 RMSDP=2.43D-06 MaxDP=1.82D-04 DE=-5.22D-08 OVMax= 2.08D-04

 Cycle  15  Pass 1  IDiag  1:
 RMSU=  1.29D-07    CP:  6.85D-01  3.00D+00  1.97D-02  6.67D-01  1.26D+00
                    CP:  1.44D+00  1.82D+00  1.43D+00  1.92D+00  2.20D+00
                    CP:  1.99D+00  2.03D+00  1.67D+00  1.13D+00
 E= -1608.13100490939     Delta-E=       -0.000000003059 Rises=F Damp=F
 DIIS: error= 4.83D-07 at cycle  15 NSaved=  15.
 NSaved=15 IEnMin=15 EnMin= -1608.13100490939     IErMin=15 ErrMin= 4.83D-07
 ErrMax= 4.83D-07  0.00D+00 EMaxC= 1.00D-01 BMatC= 7.06D-10 BMatP= 2.88D-09
 IDIUse=1 WtCom= 1.00D+00 WtEn= 0.00D+00
 Coeff-Com:  0.373D-05-0.399D-05-0.152D-05-0.243D-05-0.245D-04-0.447D-04
 Coeff-Com: -0.476D-04-0.129D-03 0.320D-02 0.505D-03-0.206D-01-0.561D-01
 Coeff-Com:  0.674D-01 0.447D+00 0.559D+00
 Coeff:      0.373D-05-0.399D-05-0.152D-05-0.243D-05-0.245D-04-0.447D-04
 Coeff:     -0.476D-04-0.129D-03 0.320D-02 0.505D-03-0.206D-01-0.561D-01
 Coeff:      0.674D-01 0.447D+00 0.559D+00
 Gap=     0.091 Goal=   None    Shift=    0.000
 Gap=     0.338 Goal=   None    Shift=    0.000
 RMSDP=3.42D-07 MaxDP=2.59D-05 DE=-3.06D-09 OVMax= 2.82D-05

 Cycle  16  Pass 1  IDiag  1:
 RMSU=  4.57D-08    CP:  6.85D-01  3.00D+00  1.97D-02  6.67D-01  1.26D+00
                    CP:  1.44D+00  1.82D+00  1.43D+00  1.93D+00  2.21D+00
                    CP:  1.99D+00  2.05D+00  1.70D+00  1.20D+00  9.94D-01
 E= -1608.13100490957     Delta-E=       -0.000000000171 Rises=F Damp=F
 DIIS: error= 8.06D-08 at cycle  16 NSaved=  16.
 NSaved=16 IEnMin=16 EnMin= -1608.13100490957     IErMin=16 ErrMin= 8.06D-08
 ErrMax= 8.06D-08  0.00D+00 EMaxC= 1.00D-01 BMatC= 2.46D-11 BMatP= 7.06D-10
 IDIUse=1 WtCom= 1.00D+00 WtEn= 0.00D+00
 Coeff-Com:  0.201D-05-0.236D-05-0.743D-06-0.121D-06-0.443D-05 0.215D-04
 Coeff-Com: -0.241D-04-0.135D-03-0.101D-03 0.839D-03 0.286D-02 0.170D-02
 Coeff-Com: -0.220D-01-0.114D-01 0.126D+00 0.902D+00
 Coeff:      0.201D-05-0.236D-05-0.743D-06-0.121D-06-0.443D-05 0.215D-04
 Coeff:     -0.241D-04-0.135D-03-0.101D-03 0.839D-03 0.286D-02 0.170D-02
 Coeff:     -0.220D-01-0.114D-01 0.126D+00 0.902D+00
 Gap=     0.091 Goal=   None    Shift=    0.000
 Gap=     0.338 Goal=   None    Shift=    0.000
 RMSDP=7.40D-08 MaxDP=5.31D-06 DE=-1.71D-10 OVMax= 5.21D-06

 Cycle  17  Pass 1  IDiag  1:
 RMSU=  1.95D-08    CP:  6.85D-01  3.00D+00  1.97D-02  6.67D-01  1.26D+00
                    CP:  1.44D+00  1.82D+00  1.44D+00  1.93D+00  2.21D+00
                    CP:  2.00D+00  2.06D+00  1.71D+00  1.24D+00  1.12D+00
                    CP:  1.18D+00
 E= -1608.13100490957     Delta-E=       -0.000000000008 Rises=F Damp=F
 DIIS: error= 1.92D-08 at cycle  17 NSaved=  17.
 NSaved=17 IEnMin=17 EnMin= -1608.13100490957     IErMin=17 ErrMin= 1.92D-08
 ErrMax= 1.92D-08  0.00D+00 EMaxC= 1.00D-01 BMatC= 1.37D-12 BMatP= 2.46D-11
 IDIUse=1 WtCom= 1.00D+00 WtEn= 0.00D+00
 Coeff-Com:  0.189D-06-0.695D-07-0.203D-06 0.134D-06 0.177D-07 0.957D-05
 Coeff-Com:  0.221D-05-0.148D-04-0.232D-03 0.149D-03 0.197D-02 0.411D-02
 Coeff-Com: -0.823D-02-0.327D-01-0.238D-01 0.134D+00 0.925D+00
 Coeff:      0.189D-06-0.695D-07-0.203D-06 0.134D-06 0.177D-07 0.957D-05
 Coeff:      0.221D-05-0.148D-04-0.232D-03 0.149D-03 0.197D-02 0.411D-02
 Coeff:     -0.823D-02-0.327D-01-0.238D-01 0.134D+00 0.925D+00
 Gap=     0.091 Goal=   None    Shift=    0.000
 Gap=     0.338 Goal=   None    Shift=    0.000
 RMSDP=1.77D-08 MaxDP=1.10D-06 DE=-8.19D-12 OVMax= 1.02D-06

 Cycle  18  Pass 1  IDiag  1:
 RMSU=  5.32D-09    CP:  6.85D-01  3.00D+00  1.97D-02  6.67D-01  1.26D+00
                    CP:  1.44D+00  1.82D+00  1.44D+00  1.93D+00  2.21D+00
                    CP:  2.00D+00  2.06D+00  1.72D+00  1.25D+00  1.18D+00
                    CP:  1.33D+00  1.29D+00
 E= -1608.13100490958     Delta-E=       -0.000000000005 Rises=F Damp=F
 DIIS: error= 5.87D-09 at cycle  18 NSaved=  18.
 NSaved=18 IEnMin=18 EnMin= -1608.13100490958     IErMin=18 ErrMin= 5.87D-09
 ErrMax= 5.87D-09  0.00D+00 EMaxC= 1.00D-01 BMatC= 1.72D-13 BMatP= 1.37D-12
 IDIUse=1 WtCom= 1.00D+00 WtEn= 0.00D+00
 Coeff-Com: -0.207D-07 0.387D-07 0.161D-07 0.537D-07 0.179D-06 0.101D-06
 Coeff-Com:  0.375D-05 0.101D-04-0.289D-04-0.146D-04 0.857D-04 0.360D-03
 Coeff-Com:  0.284D-03-0.375D-02-0.130D-01-0.428D-01 0.177D+00 0.882D+00
 Coeff:     -0.207D-07 0.387D-07 0.161D-07 0.537D-07 0.179D-06 0.101D-06
 Coeff:      0.375D-05 0.101D-04-0.289D-04-0.146D-04 0.857D-04 0.360D-03
 Coeff:      0.284D-03-0.375D-02-0.130D-01-0.428D-01 0.177D+00 0.882D+00
 Gap=     0.091 Goal=   None    Shift=    0.000
 Gap=     0.338 Goal=   None    Shift=    0.000
 RMSDP=7.12D-09 MaxDP=4.35D-07 DE=-5.46D-12 OVMax= 4.95D-07

 SCF Done:  E(UPBE1PBE) =  -1608.13100491     A.U. after   18 cycles
            NFock= 18  Conv=0.71D-08     -V/T= 2.0005
 <Sx>= 0.0000 <Sy>= 0.0000 <Sz>= 2.5000 <S**2>= 8.7531 S= 2.5005
 <L.S>=  0.00000000000    
 KE= 1.607384096866D+03 PE=-5.292127573947D+03 EE= 1.325526153246D+03
 Annihilation of the first spin contaminant:
 S**2 before annihilation     8.7531,   after     8.7500
 Leave Link  502 at Thu May 23 13:46:19 2024, MaxMem= 26843545600 cpu:            3378.2 elap:              29.7
 (Enter /gpfs/fs1/soft/improv/software/custom-built/gaussian/g16/l508.exe)
 QCSCF skips out because SCF is already converged.
 Leave Link  508 at Thu May 23 13:46:19 2024, MaxMem= 26843545600 cpu:               0.2 elap:               0.0
 (Enter /gpfs/fs1/soft/improv/software/custom-built/gaussian/g16/l801.exe)
 DoSCS=F DFT=T ScalE2(SS,OS)=  1.000000  1.000000
 Range of M.O.s used for correlation:     1   317
 NBasis=   317 NAE=    44 NBE=    39 NFC=     0 NFV=     0
 NROrb=    317 NOA=    44 NOB=    39 NVA=   273 NVB=   278

 **** Warning!!: The largest alpha MO coefficient is  0.79579128D+02


 **** Warning!!: The smallest alpha delta epsilon is  0.91240509D-01


 **** Warning!!: The largest beta MO coefficient is  0.79555010D+02

 Leave Link  801 at Thu May 23 13:46:19 2024, MaxMem= 26843545600 cpu:               0.4 elap:               0.0
 (Enter /gpfs/fs1/soft/improv/software/custom-built/gaussian/g16/l1101.exe)
 Using compressed storage, NAtomX=    19.
 Will process     20 centers per pass.
 R6Disp: Adding Grimme-D3 dispersion energy 1st derivatives to the gradient.
 Leave Link 1101 at Thu May 23 13:46:19 2024, MaxMem= 26843545600 cpu:              50.9 elap:               0.5
 (Enter /gpfs/fs1/soft/improv/software/custom-built/gaussian/g16/l1102.exe)
 Symmetrizing basis deriv contribution to polar:
 IMax=3 JMax=2 DiffMx= 0.00D+00
 Leave Link 1102 at Thu May 23 13:46:20 2024, MaxMem= 26843545600 cpu:               0.9 elap:               0.0
 (Enter /gpfs/fs1/soft/improv/software/custom-built/gaussian/g16/l1110.exe)
 Forming Gx(P) for the SCF density, NAtomX=    19.
 Integral derivatives from FoFJK, PRISM(SPDF).
 Do as many integral derivatives as possible in FoFJK.
 G2DrvN: MDV=   26843543431.
 G2DrvN: will do    20 centers at a time, making    1 passes.
 Calling FoFCou, ICntrl=  3107 FMM=F I1Cent=   0 AccDes= 0.00D+00.
 FoFJK:  IHMeth= 1 ICntrl=    3107 DoSepK=F KAlg= 0 I1Cent=           0 FoldK=F
 IRaf=         0 NMat=       1 IRICut=       1 DoRegI=T DoRafI=F ISym2E= 0 IDoP0=0 IntGTp=1.
 FoFCou: FMM=F IPFlag=           0 FMFlag=      100000 FMFlg1=           0
         NFxFlg=           0 DoJE=F BraDBF=F KetDBF=F FulRan=T
         wScrn=  0.000000 ICntrl=      3107 IOpCl=  1 I1Cent=           0 NGrid=           0
         NMat0=    1 NMatS0=      1 NMatT0=    0 NMatD0=    1 NMtDS0=    0 NMtDT0=    0
 Symmetry not used in FoFCou.
 End of G2Drv F.D. properties file   721 does not exist.
 End of G2Drv F.D. properties file   722 does not exist.
 End of G2Drv F.D. properties file   788 does not exist.
 Leave Link 1110 at Thu May 23 13:46:35 2024, MaxMem= 26843545600 cpu:            1878.4 elap:              15.0
 (Enter /gpfs/fs1/soft/improv/software/custom-built/gaussian/g16/l1002.exe)
 Minotr:  UHF open shell wavefunction.
          IDoAtm=1111111111111111111
          Direct CPHF calculation.
          Differentiating once with respect to electric field.
                with respect to dipole field.
          Differentiating once with respect to nuclear coordinates.
          Requested convergence is 1.0D-08 RMS, and 1.0D-07 maximum.
          Secondary convergence is 1.0D-12 RMS, and 1.0D-12 maximum.
          NewPWx=T KeepS1=F KeepF1=F KeepIn=T MapXYZ=F SortEE=F KeepMc=T.
         6034 words used for storage of precomputed grid.
 Two-electron integrals replicated using symmetry.
          MDV=   26843545600 using IRadAn=       1.
          Solving linear equations simultaneously, MaxMat=     384.
 FoF2E skips out because all densities are zero.
 CalDSu exits because no D1Ps are significant.
 FoFJK:  IHMeth= 1 ICntrl=       0 DoSepK=F KAlg= 0 I1Cent=           0 FoldK=F
 IRaf= 990000000 NMat=      57 IRICut=     142 DoRegI=T DoRafI=T ISym2E= 2 IDoP0=3 IntGTp=2.
 FoFCou: FMM=F IPFlag=           0 FMFlag=      100000 FMFlg1=           0
         NFxFlg=           0 DoJE=F BraDBF=F KetDBF=F FulRan=T
         wScrn=  0.000000 ICntrl=         0 IOpCl=  1 I1Cent=           0 NGrid=           0
         NMat0=   57 NMatS0=     57 NMatT0=    0 NMatD0=   57 NMtDS0=    0 NMtDT0=    0
 Integrals replicated using symmetry in FoFCou.
 Raff kept on since  98.08% of shell-pairs survive, threshold=   0.20 IRatSp=98.
          There are    60 degrees of freedom in the 1st order CPHF.  IDoFFX=6 NUNeed=     3.
     57 vectors produced by pass  0 Test12= 3.81D-14 1.67D-09 XBig12= 6.04D+01 1.73D+00.
 AX will form    57 AO Fock derivatives at one time.
     57 vectors produced by pass  1 Test12= 3.81D-14 1.67D-09 XBig12= 4.73D+00 5.64D-01.
     57 vectors produced by pass  2 Test12= 3.81D-14 1.67D-09 XBig12= 7.42D-02 4.14D-02.
     57 vectors produced by pass  3 Test12= 3.81D-14 1.67D-09 XBig12= 7.50D-04 3.73D-03.
     57 vectors produced by pass  4 Test12= 3.81D-14 1.67D-09 XBig12= 8.48D-06 3.78D-04.
     57 vectors produced by pass  5 Test12= 3.81D-14 1.67D-09 XBig12= 7.42D-08 3.42D-05.
     51 vectors produced by pass  6 Test12= 3.81D-14 1.67D-09 XBig12= 4.48D-10 2.51D-06.
     16 vectors produced by pass  7 Test12= 3.81D-14 1.67D-09 XBig12= 1.52D-12 1.27D-07.
      3 vectors produced by pass  8 Test12= 3.81D-14 1.67D-09 XBig12= 4.85D-15 5.68D-09.
 InvSVY:  IOpt=1 It=  1 EMax= 4.44D-15
 Solved reduced A of dimension   412 with    60 vectors.
 FullF1:  Do perturbations      1 to       3.
 Isotropic polarizability for W=    0.000000       54.22 Bohr**3.
 End of Minotr F.D. properties file   721 does not exist.
 End of Minotr F.D. properties file   722 does not exist.
 End of Minotr F.D. properties file   788 does not exist.
 Leave Link 1002 at Thu May 23 13:47:41 2024, MaxMem= 26843545600 cpu:            8094.4 elap:              66.8
 (Enter /gpfs/fs1/soft/improv/software/custom-built/gaussian/g16/l601.exe)
 Copying SCF densities to generalized density rwf, IOpCl= 1 IROHF=0.

 **********************************************************************

            Population analysis using the SCF Density.

 **********************************************************************

 Orbital symmetries:
 Alpha Orbitals:
       Occupied  (A) (A) (A) (A) (A) (A) (A) (A) (A) (A) (A) (A)
                 (A) (A) (A) (A) (A) (A) (A) (A) (A) (A) (A) (A)
                 (A) (A) (A) (A) (A) (A) (A) (A) (A) (A) (A) (A)
                 (A) (A) (A) (A) (A) (A) (A) (A)
       Virtual   (A) (A) (A) (A) (A) (A) (A) (A) (A) (A) (A) (A)
                 (A) (A) (A) (A) (A) (A) (A) (A) (A) (A) (A) (A)
                 (A) (A) (A) (A) (A) (A) (A) (A) (A) (A) (A) (A)
                 (A) (A) (A) (A) (A) (A) (A) (A) (A) (A) (A) (A)
                 (A) (A) (A) (A) (A) (A) (A) (A) (A) (A) (A) (A)
                 (A) (A) (A) (A) (A) (A) (A) (A) (A) (A) (A) (A)
                 (A) (A) (A) (A) (A) (A) (A) (A) (A) (A) (A) (A)
                 (A) (A) (A) (A) (A) (A) (A) (A) (A) (A) (A) (A)
                 (A) (A) (A) (A) (A) (A) (A) (A) (A) (A) (A) (A)
                 (A) (A) (A) (A) (A) (A) (A) (A) (A) (A) (A) (A)
                 (A) (A) (A) (A) (A) (A) (A) (A) (A) (A) (A) (A)
                 (A) (A) (A) (A) (A) (A) (A) (A) (A) (A) (A) (A)
                 (A) (A) (A) (A) (A) (A) (A) (A) (A) (A) (A) (A)
                 (A) (A) (A) (A) (A) (A) (A) (A) (A) (A) (A) (A)
                 (A) (A) (A) (A) (A) (A) (A) (A) (A) (A) (A) (A)
                 (A) (A) (A) (A) (A) (A) (A) (A) (A) (A) (A) (A)
                 (A) (A) (A) (A) (A) (A) (A) (A) (A) (A) (A) (A)
                 (A) (A) (A) (A) (A) (A) (A) (A) (A) (A) (A) (A)
                 (A) (A) (A) (A) (A) (A) (A) (A) (A) (A) (A) (A)
                 (A) (A) (A) (A) (A) (A) (A) (A) (A) (A) (A) (A)
                 (A) (A) (A) (A) (A) (A) (A) (A) (A) (A) (A) (A)
                 (A) (A) (A) (A) (A) (A) (A) (A) (A) (A) (A) (A)
                 (A) (A) (A) (A) (A) (A) (A) (A) (A)
 Beta  Orbitals:
       Occupied  (A) (A) (A) (A) (A) (A) (A) (A) (A) (A) (A) (A)
                 (A) (A) (A) (A) (A) (A) (A) (A) (A) (A) (A) (A)
                 (A) (A) (A) (A) (A) (A) (A) (A) (A) (A) (A) (A)
                 (A) (A) (A)
       Virtual   (A) (A) (A) (A) (A) (A) (A) (A) (A) (A) (A) (A)
                 (A) (A) (A) (A) (A) (A) (A) (A) (A) (A) (A) (A)
                 (A) (A) (A) (A) (A) (A) (A) (A) (A) (A) (A) (A)
                 (A) (A) (A) (A) (A) (A) (A) (A) (A) (A) (A) (A)
                 (A) (A) (A) (A) (A) (A) (A) (A) (A) (A) (A) (A)
                 (A) (A) (A) (A) (A) (A) (A) (A) (A) (A) (A) (A)
                 (A) (A) (A) (A) (A) (A) (A) (A) (A) (A) (A) (A)
                 (A) (A) (A) (A) (A) (A) (A) (A) (A) (A) (A) (A)
                 (A) (A) (A) (A) (A) (A) (A) (A) (A) (A) (A) (A)
                 (A) (A) (A) (A) (A) (A) (A) (A) (A) (A) (A) (A)
                 (A) (A) (A) (A) (A) (A) (A) (A) (A) (A) (A) (A)
                 (A) (A) (A) (A) (A) (A) (A) (A) (A) (A) (A) (A)
                 (A) (A) (A) (A) (A) (A) (A) (A) (A) (A) (A) (A)
                 (A) (A) (A) (A) (A) (A) (A) (A) (A) (A) (A) (A)
                 (A) (A) (A) (A) (A) (A) (A) (A) (A) (A) (A) (A)
                 (A) (A) (A) (A) (A) (A) (A) (A) (A) (A) (A) (A)
                 (A) (A) (A) (A) (A) (A) (A) (A) (A) (A) (A) (A)
                 (A) (A) (A) (A) (A) (A) (A) (A) (A) (A) (A) (A)
                 (A) (A) (A) (A) (A) (A) (A) (A) (A) (A) (A) (A)
                 (A) (A) (A) (A) (A) (A) (A) (A) (A) (A) (A) (A)
                 (A) (A) (A) (A) (A) (A) (A) (A) (A) (A) (A) (A)
                 (A) (A) (A) (A) (A) (A) (A) (A) (A) (A) (A) (A)
                 (A) (A) (A) (A) (A) (A) (A) (A) (A) (A) (A) (A)
                 (A) (A)
 The electronic state is 6-A.
 Alpha  occ. eigenvalues -- -235.95571 -27.68376 -23.72062 -23.72024 -23.71986
 Alpha  occ. eigenvalues --  -19.62913 -19.62890 -19.61859 -19.61523 -19.59196
 Alpha  occ. eigenvalues --  -19.58422  -3.57880  -2.43998  -2.43838  -2.43713
 Alpha  occ. eigenvalues --   -1.48624  -1.46261  -1.45639  -1.45084  -1.43023
 Alpha  occ. eigenvalues --   -1.42181  -1.00043  -0.98471  -0.96717  -0.95930
 Alpha  occ. eigenvalues --   -0.93980  -0.92648  -0.88645  -0.87488  -0.86806
 Alpha  occ. eigenvalues --   -0.83612  -0.82970  -0.80579  -0.80250  -0.77044
 Alpha  occ. eigenvalues --   -0.75895  -0.74288  -0.72577  -0.71267  -0.59334
 Alpha  occ. eigenvalues --   -0.58615  -0.57396  -0.45962  -0.45759
 Alpha virt. eigenvalues --   -0.36635  -0.31422  -0.29151  -0.27869  -0.24008
 Alpha virt. eigenvalues --   -0.22880  -0.22012  -0.21755  -0.19007  -0.17618
 Alpha virt. eigenvalues --   -0.17350  -0.16753  -0.15763  -0.14413  -0.13967
 Alpha virt. eigenvalues --   -0.13875  -0.12458  -0.11375  -0.11170  -0.10594
 Alpha virt. eigenvalues --   -0.08841  -0.08446  -0.06430  -0.06308  -0.06117
 Alpha virt. eigenvalues --   -0.05190  -0.03484  -0.02043  -0.01529  -0.01069
 Alpha virt. eigenvalues --   -0.00252   0.00380   0.01159   0.01780   0.03366
 Alpha virt. eigenvalues --    0.05475   0.06086   0.06803   0.07627   0.08365
 Alpha virt. eigenvalues --    0.09490   0.10141   0.10764   0.11868   0.12082
 Alpha virt. eigenvalues --    0.15549   0.16054   0.20127   0.21261   0.26530
 Alpha virt. eigenvalues --    0.27590   0.28078   0.28871   0.42561   0.43681
 Alpha virt. eigenvalues --    0.45090   0.47042   0.49598   0.50838   0.52451
 Alpha virt. eigenvalues --    0.53405   0.54603   0.55038   0.55309   0.55851
 Alpha virt. eigenvalues --    0.58447   0.60316   0.61049   0.61801   0.62535
 Alpha virt. eigenvalues --    0.64939   0.65715   0.66674   0.68317   0.72394
 Alpha virt. eigenvalues --    0.73095   0.73795   0.74546   0.75798   0.76194
 Alpha virt. eigenvalues --    0.76268   0.78804   0.81468   0.81963   0.83111
 Alpha virt. eigenvalues --    0.84079   0.87897   0.88172   0.91795   0.92501
 Alpha virt. eigenvalues --    0.94890   0.96581   1.00169   1.01383   1.02958
 Alpha virt. eigenvalues --    1.03642   1.07360   1.08151   1.09360   1.11441
 Alpha virt. eigenvalues --    1.12451   1.13431   1.14782   1.29541   1.30453
 Alpha virt. eigenvalues --    1.35010   1.36953   1.39880   1.41453   1.45837
 Alpha virt. eigenvalues --    1.46017   1.47342   1.48261   1.50698   1.52315
 Alpha virt. eigenvalues --    1.56673   1.58084   1.60206   1.63710   1.65347
 Alpha virt. eigenvalues --    1.69630   1.75805   1.80580   1.90048   1.92027
 Alpha virt. eigenvalues --    1.93830   1.96164   1.97363   1.99560   2.03395
 Alpha virt. eigenvalues --    2.05474   2.06380   2.09064   2.10450   2.16463
 Alpha virt. eigenvalues --    2.22188   2.23271   2.28905   2.32381   2.34330
 Alpha virt. eigenvalues --    2.35257   2.41263   2.42474   2.46385   2.49775
 Alpha virt. eigenvalues --    2.51781   2.53337   2.58839   2.59930   2.61123
 Alpha virt. eigenvalues --    2.62602   2.63691   2.65341   2.65708   2.68408
 Alpha virt. eigenvalues --    2.68948   2.70935   2.72677   2.73932   2.76669
 Alpha virt. eigenvalues --    2.79012   2.80008   2.80826   2.82572   2.84266
 Alpha virt. eigenvalues --    2.90256   2.97444   2.98918   3.11077   3.12996
 Alpha virt. eigenvalues --    3.19210   3.54815   3.56873   3.69191   3.70874
 Alpha virt. eigenvalues --    3.72040   3.74995   3.75475   3.77600   3.79366
 Alpha virt. eigenvalues --    3.80799   3.83256   3.84736   3.85693   3.88598
 Alpha virt. eigenvalues --    3.91109   3.92338   3.93839   3.95210   3.95957
 Alpha virt. eigenvalues --    3.98644   4.00057   4.01804   4.05041   4.07160
 Alpha virt. eigenvalues --    4.14277   4.16468   4.17460   4.19133   4.23767
 Alpha virt. eigenvalues --    4.25128   4.30050   4.33368   4.37029   4.37925
 Alpha virt. eigenvalues --    4.43977   4.45785   4.46515   4.49423   4.50129
 Alpha virt. eigenvalues --    4.58083   4.61090   4.62134   4.64237   4.65426
 Alpha virt. eigenvalues --    4.66964   4.68549   4.75238   4.83689   4.89493
 Alpha virt. eigenvalues --    4.91647   4.92869   4.95453   4.98451   5.08664
 Alpha virt. eigenvalues --    5.09159   5.09910   5.11627   5.12109   5.13670
 Alpha virt. eigenvalues --    5.14859   5.17325   5.18093   5.21962   5.28124
 Alpha virt. eigenvalues --    5.28530   5.30005   5.33212   5.36032   5.36905
 Alpha virt. eigenvalues --    5.38430   5.41883   5.45259   5.46530   5.47943
 Alpha virt. eigenvalues --    5.49604   5.51985   5.55015   5.55509   5.57615
 Alpha virt. eigenvalues --    5.59042   5.60986   5.62392   5.62864   5.65160
 Alpha virt. eigenvalues --    5.68183   5.68837   5.87294   5.87716   6.27301
 Alpha virt. eigenvalues --    7.18117   7.20804   7.22072   7.30395   7.33741
 Alpha virt. eigenvalues --    7.48891  13.55106  13.57394  13.57982  14.17105
 Alpha virt. eigenvalues --   14.23070  14.27399  24.68516
  Beta  occ. eigenvalues -- -235.95495 -27.60037 -23.65062 -23.65007 -23.64963
  Beta  occ. eigenvalues --  -19.62718 -19.62693 -19.61653 -19.61317 -19.58969
  Beta  occ. eigenvalues --  -19.58196  -3.35356  -2.19969  -2.19771  -2.19632
  Beta  occ. eigenvalues --   -1.48048  -1.45702  -1.45064  -1.44497  -1.42397
  Beta  occ. eigenvalues --   -1.41560  -0.99403  -0.97841  -0.96301  -0.95491
  Beta  occ. eigenvalues --   -0.93474  -0.92244  -0.87292  -0.84944  -0.83451
  Beta  occ. eigenvalues --   -0.82239  -0.81665  -0.78970  -0.78684  -0.75780
  Beta  occ. eigenvalues --   -0.74295  -0.72944  -0.71262  -0.70258
  Beta virt. eigenvalues --   -0.36417  -0.31453  -0.30153  -0.28246  -0.28131
  Beta virt. eigenvalues --   -0.27386  -0.26304  -0.23543  -0.23133  -0.21499
  Beta virt. eigenvalues --   -0.21160  -0.18497  -0.17500  -0.16774  -0.16253
  Beta virt. eigenvalues --   -0.15518  -0.14599  -0.14053  -0.13746  -0.13395
  Beta virt. eigenvalues --   -0.12798  -0.11872  -0.10763  -0.10142  -0.09497
  Beta virt. eigenvalues --   -0.08116  -0.07720  -0.05732  -0.05586  -0.05501
  Beta virt. eigenvalues --   -0.04457  -0.02944  -0.01529  -0.00893   0.00097
  Beta virt. eigenvalues --    0.00735   0.01079   0.01596   0.02276   0.03893
  Beta virt. eigenvalues --    0.06071   0.06851   0.07333   0.08401   0.09211
  Beta virt. eigenvalues --    0.10438   0.11164   0.11793   0.13076   0.14203
  Beta virt. eigenvalues --    0.17329   0.17998   0.23647   0.24064   0.27994
  Beta virt. eigenvalues --    0.28395   0.29430   0.31221   0.43344   0.44542
  Beta virt. eigenvalues --    0.46134   0.48283   0.50553   0.51451   0.53509
  Beta virt. eigenvalues --    0.54381   0.55378   0.55571   0.56341   0.56886
  Beta virt. eigenvalues --    0.58913   0.61132   0.61862   0.62652   0.63117
  Beta virt. eigenvalues --    0.65388   0.66220   0.67211   0.68798   0.73354
  Beta virt. eigenvalues --    0.73809   0.74728   0.75121   0.76535   0.76878
  Beta virt. eigenvalues --    0.77083   0.79721   0.82262   0.82767   0.83836
  Beta virt. eigenvalues --    0.84766   0.88901   0.89117   0.93305   0.94020
  Beta virt. eigenvalues --    0.96361   0.98177   1.01496   1.03119   1.03695
  Beta virt. eigenvalues --    1.05298   1.08450   1.09885   1.11077   1.13172
  Beta virt. eigenvalues --    1.14331   1.15463   1.16930   1.33261   1.33808
  Beta virt. eigenvalues --    1.37724   1.39837   1.42474   1.45282   1.49115
  Beta virt. eigenvalues --    1.50030   1.51341   1.51920   1.55009   1.56348
  Beta virt. eigenvalues --    1.59414   1.61531   1.64970   1.66806   1.68828
  Beta virt. eigenvalues --    1.70824   1.78609   1.82994   1.90638   1.92720
  Beta virt. eigenvalues --    1.94666   1.97062   1.97991   2.00380   2.04356
  Beta virt. eigenvalues --    2.07048   2.07442   2.09810   2.11014   2.17544
  Beta virt. eigenvalues --    2.23034   2.24316   2.29796   2.33974   2.36041
  Beta virt. eigenvalues --    2.36976   2.43214   2.44547   2.48996   2.51494
  Beta virt. eigenvalues --    2.53555   2.55711   2.60775   2.61905   2.62131
  Beta virt. eigenvalues --    2.63533   2.64662   2.66808   2.67116   2.69544
  Beta virt. eigenvalues --    2.70204   2.71659   2.73754   2.75193   2.79468
  Beta virt. eigenvalues --    2.80936   2.81968   2.83008   2.84521   2.85568
  Beta virt. eigenvalues --    2.90858   2.98619   2.99847   3.15982   3.17729
  Beta virt. eigenvalues --    3.23292   3.60512   3.62543   3.73050   3.75063
  Beta virt. eigenvalues --    3.76080   3.79137   3.80754   3.82462   3.84684
  Beta virt. eigenvalues --    3.84877   3.86876   3.87261   3.88549   3.90991
  Beta virt. eigenvalues --    3.94934   3.95680   3.96347   3.97269   3.99954
  Beta virt. eigenvalues --    4.01082   4.02693   4.04226   4.06745   4.08167
  Beta virt. eigenvalues --    4.15655   4.17807   4.19233   4.21153   4.25364
  Beta virt. eigenvalues --    4.26374   4.31682   4.40928   4.42304   4.46963
  Beta virt. eigenvalues --    4.47315   4.51177   4.52277   4.54800   4.55680
  Beta virt. eigenvalues --    4.60860   4.64702   4.64978   4.66396   4.69720
  Beta virt. eigenvalues --    4.70626   4.71818   4.81874   4.85163   4.91928
  Beta virt. eigenvalues --    4.93413   4.94103   4.96747   5.00232   5.09139
  Beta virt. eigenvalues --    5.10137   5.10416   5.12040   5.12776   5.14459
  Beta virt. eigenvalues --    5.15541   5.18435   5.19780   5.25825   5.30599
  Beta virt. eigenvalues --    5.31296   5.32200   5.35769   5.37723   5.38970
  Beta virt. eigenvalues --    5.40095   5.44554   5.47156   5.48031   5.49918
  Beta virt. eigenvalues --    5.51656   5.53381   5.56788   5.57381   5.59085
  Beta virt. eigenvalues --    5.60610   5.62440   5.64498   5.65021   5.66017
  Beta virt. eigenvalues --    5.68911   5.69460   5.88669   5.89023   6.29925
  Beta virt. eigenvalues --    7.18843   7.21539   7.22815   7.30969   7.34310
  Beta virt. eigenvalues --    7.49369  13.55476  13.57758  13.58351  14.17454
  Beta virt. eigenvalues --   14.23413  14.27689  24.76708
          Condensed to atoms (all electrons):
               1          2          3          4          5          6
     1  Mn  24.295998  -0.079422  -0.017685  -0.053334  -0.017493  -0.096360
     2  O   -0.079422   8.562891   0.310751  -0.107734   0.000394  -0.114442
     3  H   -0.017685   0.310751   0.277155   0.000799  -0.000010   0.004815
     4  O   -0.053334  -0.107734   0.000799   8.518706   0.306848  -0.111468
     5  H   -0.017493   0.000394  -0.000010   0.306848   0.305752   0.006042
     6  O   -0.096360  -0.114442   0.004815  -0.111468   0.006042   8.563945
     7  H   -0.009304   0.001086  -0.000059   0.001136  -0.000436   0.298553
     8  O   -0.101810   0.082773  -0.001483  -0.110044   0.005888  -0.135500
     9  H   -0.011605  -0.001270  -0.000014   0.000758  -0.000145   0.002803
    10  O   -0.060227  -0.105261   0.002585   0.064844  -0.001612  -0.112252
    11  H   -0.010560   0.002978  -0.000324  -0.000959   0.000012  -0.000075
    12  O   -0.091020  -0.114108   0.006782  -0.098438   0.001666   0.086387
    13  H   -0.018558   0.004197  -0.000164   0.002282  -0.000117  -0.001443
    14  H   -0.001552   0.001741  -0.000080   0.003120  -0.000001  -0.001608
    15  H   -0.013951   0.003599  -0.000090   0.315405  -0.025390  -0.005015
    16  H   -0.010920   0.301716  -0.016004   0.002146  -0.000073   0.001855
    17  H   -0.019646   0.000881  -0.000029  -0.001254  -0.000018   0.004140
    18  H   -0.012720   0.001752  -0.000007   0.004263  -0.000909   0.304219
    19  H   -0.011979  -0.001931   0.000014   0.002331   0.000522   0.005007
               7          8          9         10         11         12
     1  Mn  -0.009304  -0.101810  -0.011605  -0.060227  -0.010560  -0.091020
     2  O    0.001086   0.082773  -0.001270  -0.105261   0.002978  -0.114108
     3  H   -0.000059  -0.001483  -0.000014   0.002585  -0.000324   0.006782
     4  O    0.001136  -0.110044   0.000758   0.064844  -0.000959  -0.098438
     5  H   -0.000436   0.005888  -0.000145  -0.001612   0.000012   0.001666
     6  O    0.298553  -0.135500   0.002803  -0.112252  -0.000075   0.086387
     7  H    0.316158   0.003094  -0.000552   0.003764  -0.000017  -0.002309
     8  O    0.003094   8.547143   0.306180  -0.075706  -0.005153  -0.111190
     9  H   -0.000552   0.306180   0.296163   0.000669   0.000554   0.001294
    10  O    0.003764  -0.075706   0.000669   8.521113   0.310339  -0.129228
    11  H   -0.000017  -0.005153   0.000554   0.310339   0.297897   0.003632
    12  O   -0.002309  -0.111190   0.001294  -0.129228   0.003632   8.582691
    13  H    0.000016   0.004940  -0.000046   0.001702  -0.000185   0.310511
    14  H   -0.000024   0.001164   0.000443   0.000419   0.001911   0.293651
    15  H    0.000130  -0.000163  -0.000019  -0.000918   0.000003   0.002582
    16  H   -0.000173  -0.001334   0.000011   0.004642  -0.000016   0.000467
    17  H    0.000925   0.002812  -0.000977   0.312797  -0.024763   0.000571
    18  H   -0.019243   0.002974   0.000013   0.000423  -0.000014  -0.001487
    19  H    0.003532   0.300281  -0.018857   0.000318   0.000133   0.001800
              13         14         15         16         17         18
     1  Mn  -0.018558  -0.001552  -0.013951  -0.010920  -0.019646  -0.012720
     2  O    0.004197   0.001741   0.003599   0.301716   0.000881   0.001752
     3  H   -0.000164  -0.000080  -0.000090  -0.016004  -0.000029  -0.000007
     4  O    0.002282   0.003120   0.315405   0.002146  -0.001254   0.004263
     5  H   -0.000117  -0.000001  -0.025390  -0.000073  -0.000018  -0.000909
     6  O   -0.001443  -0.001608  -0.005015   0.001855   0.004140   0.304219
     7  H    0.000016  -0.000024   0.000130  -0.000173   0.000925  -0.019243
     8  O    0.004940   0.001164  -0.000163  -0.001334   0.002812   0.002974
     9  H   -0.000046   0.000443  -0.000019   0.000011  -0.000977   0.000013
    10  O    0.001702   0.000419  -0.000918   0.004642   0.312797   0.000423
    11  H   -0.000185   0.001911   0.000003  -0.000016  -0.024763  -0.000014
    12  O    0.310511   0.293651   0.002582   0.000467   0.000571  -0.001487
    13  H    0.273632  -0.016463  -0.000221  -0.000039  -0.000018  -0.000015
    14  H   -0.016463   0.317934  -0.000011  -0.000019  -0.000138   0.000012
    15  H   -0.000221  -0.000011   0.289029   0.000359   0.000012   0.000241
    16  H   -0.000039  -0.000019   0.000359   0.304914  -0.000002  -0.000131
    17  H   -0.000018  -0.000138   0.000012  -0.000002   0.304035  -0.000175
    18  H   -0.000015   0.000012   0.000241  -0.000131  -0.000175   0.294636
    19  H   -0.000069  -0.000202   0.000009  -0.000033  -0.000351  -0.000483
              19
     1  Mn  -0.011979
     2  O   -0.001931
     3  H    0.000014
     4  O    0.002331
     5  H    0.000522
     6  O    0.005007
     7  H    0.003532
     8  O    0.300281
     9  H   -0.018857
    10  O    0.000318
    11  H    0.000133
    12  O    0.001800
    13  H   -0.000069
    14  H   -0.000202
    15  H    0.000009
    16  H   -0.000033
    17  H   -0.000351
    18  H   -0.000483
    19  H    0.314665
          Atomic-Atomic Spin Densities.
               1          2          3          4          5          6
     1  Mn   5.334990  -0.080468  -0.004452  -0.092510  -0.006017  -0.123412
     2  O   -0.080468   0.298004  -0.010888  -0.050205   0.000214  -0.061095
     3  H   -0.004452  -0.010888   0.013428   0.000211   0.000020   0.003503
     4  O   -0.092510  -0.050205   0.000211   0.268844  -0.006039  -0.057307
     5  H   -0.006017   0.000214   0.000020  -0.006039   0.014058   0.004989
     6  O   -0.123412  -0.061095   0.003503  -0.057307   0.004989   0.328178
     7  H   -0.002340   0.001214  -0.000025   0.000693  -0.000167  -0.014854
     8  O   -0.114953   0.069849  -0.001445  -0.055945   0.003399  -0.070054
     9  H   -0.001721  -0.001487  -0.000009   0.000764  -0.000207   0.000660
    10  O   -0.096163  -0.052108   0.004269   0.061524  -0.001429  -0.061165
    11  H   -0.004127   0.000677  -0.000142  -0.000993   0.000006   0.000346
    12  O   -0.087742  -0.081087   0.006647  -0.049952   0.001612   0.073861
    13  H   -0.003903   0.005606  -0.000131   0.003806  -0.000139  -0.001418
    14  H   -0.006072   0.000796  -0.000083   0.001267  -0.000027  -0.001441
    15  H   -0.004428   0.003836  -0.000135  -0.004163  -0.001835   0.001588
    16  H   -0.005902  -0.006615  -0.000717   0.002768  -0.000072   0.004026
    17  H   -0.006248   0.001411  -0.000173  -0.001293  -0.000007   0.002605
    18  H   -0.000435   0.001583  -0.000033   0.008376   0.000536  -0.015585
    19  H   -0.002976  -0.001744   0.000013   0.002488   0.000432   0.008345
               7          8          9         10         11         12
     1  Mn  -0.002340  -0.114953  -0.001721  -0.096163  -0.004127  -0.087742
     2  O    0.001214   0.069849  -0.001487  -0.052108   0.000677  -0.081087
     3  H   -0.000025  -0.001445  -0.000009   0.004269  -0.000142   0.006647
     4  O    0.000693  -0.055945   0.000764   0.061524  -0.000993  -0.049952
     5  H   -0.000167   0.003399  -0.000207  -0.001429   0.000006   0.001612
     6  O   -0.014854  -0.070054   0.000660  -0.061165   0.000346   0.073861
     7  H    0.018648   0.007222  -0.000342   0.002940  -0.000093  -0.001888
     8  O    0.007222   0.315936  -0.011492  -0.047631   0.001789  -0.069726
     9  H   -0.000342  -0.011492   0.017681   0.006750   0.000366   0.001780
    10  O    0.002940  -0.047631   0.006750   0.274987  -0.006022  -0.057494
    11  H   -0.000093   0.001789   0.000366  -0.006022   0.015550   0.004198
    12  O   -0.001888  -0.069726   0.001780  -0.057494   0.004198   0.317544
    13  H    0.000013   0.004257  -0.000079   0.000141  -0.000187  -0.011474
    14  H   -0.000012   0.004314   0.000303   0.003360   0.000654  -0.008562
    15  H   -0.000059   0.000218   0.000024  -0.000893   0.000009   0.000428
    16  H   -0.000236  -0.001187   0.000011   0.001619   0.000005   0.000247
    17  H    0.000506   0.004147   0.000310  -0.003530  -0.001929  -0.000012
    18  H   -0.000830   0.001299  -0.000019   0.000898   0.000024  -0.001609
    19  H    0.002008  -0.015288  -0.001057   0.000749  -0.000052   0.001164
              13         14         15         16         17         18
     1  Mn  -0.003903  -0.006072  -0.004428  -0.005902  -0.006248  -0.000435
     2  O    0.005606   0.000796   0.003836  -0.006615   0.001411   0.001583
     3  H   -0.000131  -0.000083  -0.000135  -0.000717  -0.000173  -0.000033
     4  O    0.003806   0.001267  -0.004163   0.002768  -0.001293   0.008376
     5  H   -0.000139  -0.000027  -0.001835  -0.000072  -0.000007   0.000536
     6  O   -0.001418  -0.001441   0.001588   0.004026   0.002605  -0.015585
     7  H    0.000013  -0.000012  -0.000059  -0.000236   0.000506  -0.000830
     8  O    0.004257   0.004314   0.000218  -0.001187   0.004147   0.001299
     9  H   -0.000079   0.000303   0.000024   0.000011   0.000310  -0.000019
    10  O    0.000141   0.003360  -0.000893   0.001619  -0.003530   0.000898
    11  H   -0.000187   0.000654   0.000009   0.000005  -0.001929   0.000024
    12  O   -0.011474  -0.008562   0.000428   0.000247  -0.000012  -0.001609
    13  H    0.013565  -0.000719  -0.000149  -0.000044   0.000022  -0.000011
    14  H   -0.000719   0.014891   0.000009   0.000024  -0.000105   0.000014
    15  H   -0.000149   0.000009   0.013405   0.000246   0.000005   0.000368
    16  H   -0.000044   0.000024   0.000246   0.013539  -0.000034   0.000106
    17  H    0.000022  -0.000105   0.000005  -0.000034   0.012766  -0.000186
    18  H   -0.000011   0.000014   0.000368   0.000106  -0.000186   0.020455
    19  H   -0.000032  -0.000229  -0.000070  -0.000016  -0.000146  -0.000275
              19
     1  Mn  -0.002976
     2  O   -0.001744
     3  H    0.000013
     4  O    0.002488
     5  H    0.000432
     6  O    0.008345
     7  H    0.002008
     8  O   -0.015288
     9  H   -0.001057
    10  O    0.000749
    11  H   -0.000052
    12  O    0.001164
    13  H   -0.000032
    14  H   -0.000229
    15  H   -0.000070
    16  H   -0.000016
    17  H   -0.000146
    18  H   -0.000275
    19  H    0.020166
 Mulliken charges and spin densities:
               1          2
     1  Mn   1.342146   4.691122
     2  O   -0.750592   0.037493
     3  H    0.433046   0.009857
     4  O   -0.739408   0.032335
     5  H    0.419079   0.009327
     6  O   -0.699603   0.021770
     7  H    0.403723   0.012396
     8  O   -0.714867   0.024709
     9  H    0.424599   0.012237
    10  O   -0.738414   0.030802
    11  H    0.424606   0.010078
    12  O   -0.744256   0.037934
    13  H    0.440057   0.009123
    14  H    0.399702   0.008379
    15  H    0.434407   0.008405
    16  H    0.412633   0.007770
    17  H    0.421198   0.008109
    18  H    0.426651   0.014676
    19  H    0.405292   0.013477
 Sum of Mulliken charges =   2.00000   5.00000
 Mulliken charges and spin densities with hydrogens summed into heavy atoms:
               1          2
     1  Mn   1.342146   4.691122
     2  O    0.095087   0.055120
     4  O    0.114079   0.050066
     6  O    0.130771   0.048842
     8  O    0.115024   0.050423
    10  O    0.107390   0.048990
    12  O    0.095504   0.055437
 APT charges:
               1
     1  Mn   1.379521
     2  O   -0.575268
     3  H    0.355422
     4  O   -0.519451
     5  H    0.306479
     6  O   -0.492219
     7  H    0.289010
     8  O   -0.495036
     9  H    0.304802
    10  O   -0.514424
    11  H    0.313704
    12  O   -0.562649
    13  H    0.357763
    14  H    0.309591
    15  H    0.321882
    16  H    0.321399
    17  H    0.307202
    18  H    0.303469
    19  H    0.288802
 Sum of APT charges =   2.00000
 APT charges with hydrogens summed into heavy atoms:
               1
     1  Mn   1.379521
     2  O    0.101553
     4  O    0.108910
     6  O    0.100260
     8  O    0.098568
    10  O    0.106483
    12  O    0.104705
 Electronic spatial extent (au):  <R**2>=            859.5653
 Charge=              2.0000 electrons
 Dipole moment (field-independent basis, Debye):
    X=              2.2881    Y=              3.6503    Z=             -0.9810  Tot=              4.4184
 Quadrupole moment (field-independent basis, Debye-Ang):
   XX=            -21.7181   YY=            -25.0592   ZZ=            -34.9985
   XY=             -4.2289   XZ=             -1.5253   YZ=             -0.9735
 Traceless Quadrupole moment (field-independent basis, Debye-Ang):
   XX=              5.5405   YY=              2.1994   ZZ=             -7.7399
   XY=             -4.2289   XZ=             -1.5253   YZ=             -0.9735
 Octapole moment (field-independent basis, Debye-Ang**2):
  XXX=             17.2176  YYY=             16.6158  ZZZ=              4.5594  XYY=              4.1267
  XXY=              8.6630  XXZ=              2.9338  XZZ=             -7.3806  YZZ=             -2.8989
  YYZ=            -13.5254  XYZ=             -2.9920
 Hexadecapole moment (field-independent basis, Debye-Ang**3):
 XXXX=           -215.6844 YYYY=           -227.8293 ZZZZ=           -249.5630 XXXY=            -19.1384
 XXXZ=              3.7125 YYYX=            -11.6306 YYYZ=              2.9467 ZZZX=            -14.1116
 ZZZY=            -12.6541 XXYY=            -61.0406 XXZZ=            -76.4281 YYZZ=            -66.2602
 XXYZ=              4.8103 YYXZ=              0.3450 ZZXY=              2.5037
 N-N= 7.510863189255D+02 E-N=-5.292127575103D+03  KE= 1.607384096866D+03
  Exact polarizability:      56.313      -0.706      55.074      -0.611      -0.408      51.265
 Approx polarizability:      70.492      -1.353      69.098      -1.183      -0.756      63.015
                          Isotropic Fermi Contact Couplings
        Atom                 a.u.       MegaHertz       Gauss      10(-4) cm-1
     1  Mn(55)             0.01461       3.23014       1.15259       1.07746
     2  O(17)              0.14874     -18.03334      -6.43475      -6.01528
     3  H(1)               0.00415       3.71267       1.32477       1.23841
     4  O(17)              0.15711     -19.04749      -6.79662      -6.35356
     5  H(1)               0.00419       3.74670       1.33692       1.24977
     6  O(17)              0.17366     -21.05426      -7.51269      -7.02295
     7  H(1)               0.00449       4.01487       1.43261       1.33922
     8  O(17)              0.16902     -20.49178      -7.31198      -6.83532
     9  H(1)               0.00474       4.23519       1.51122       1.41271
    10  O(17)              0.15657     -18.98294      -6.77358      -6.33203
    11  H(1)               0.00465       4.15428       1.48235       1.38572
    12  O(17)              0.14858     -18.01426      -6.42794      -6.00891
    13  H(1)               0.00396       3.53782       1.26238       1.18009
    14  H(1)               0.00401       3.58238       1.27828       1.19495
    15  H(1)               0.00422       3.76945       1.34504       1.25735
    16  H(1)               0.00384       3.43531       1.22580       1.14589
    17  H(1)               0.00405       3.61762       1.29086       1.20671
    18  H(1)               0.00524       4.68108       1.67033       1.56144
    19  H(1)               0.00464       4.14611       1.47943       1.38299
 --------------------------------------------------------
       Center         ----  Spin Dipole Couplings  ----
                      3XX-RR        3YY-RR        3ZZ-RR
 --------------------------------------------------------
     1   Atom       -0.007214     -0.005781      0.012995
     2   Atom       -0.181235      0.269136     -0.087902
     3   Atom       -0.010682      0.024318     -0.013637
     4   Atom        0.024642     -0.114490      0.089847
     5   Atom        0.063231     -0.051975     -0.011256
     6   Atom        0.040585     -0.160913      0.120327
     7   Atom        0.001928      0.000368     -0.002296
     8   Atom       -0.169435      0.181603     -0.012168
     9   Atom       -0.046513      0.099237     -0.052724
    10   Atom        0.057170     -0.109851      0.052681
    11   Atom        0.072359     -0.030463     -0.041897
    12   Atom        0.125380     -0.138099      0.012719
    13   Atom       -0.028064     -0.037468      0.065532
    14   Atom        0.030337     -0.039840      0.009503
    15   Atom        0.025309      0.013323     -0.038632
    16   Atom       -0.044038      0.051386     -0.007348
    17   Atom       -0.030976      0.003360      0.027616
    18   Atom        0.088741     -0.056825     -0.031916
    19   Atom       -0.011574      0.064556     -0.052983
 --------------------------------------------------------
                        XY            XZ            YZ
 --------------------------------------------------------
     1   Atom        0.025948      0.008411      0.009548
     2   Atom        0.084703      0.018008      0.098317
     3   Atom        0.054342      0.046592      0.059409
     4   Atom       -0.109224      0.183499     -0.124034
     5   Atom        0.006068      0.075514      0.000449
     6   Atom        0.047828     -0.219960     -0.022504
     7   Atom        0.054183     -0.058785     -0.052852
     8   Atom        0.066262      0.043560      0.184469
     9   Atom       -0.032262     -0.002613      0.028773
    10   Atom       -0.079968      0.229495     -0.058554
    11   Atom       -0.062397      0.033819     -0.017122
    12   Atom        0.121515     -0.197817     -0.039063
    13   Atom        0.019071     -0.052697     -0.053140
    14   Atom       -0.031368     -0.079837      0.025537
    15   Atom       -0.076214      0.037406     -0.028805
    16   Atom       -0.026429     -0.023068      0.075357
    17   Atom       -0.033310      0.043123     -0.074069
    18   Atom       -0.005106     -0.055450     -0.001761
    19   Atom        0.071407      0.008561      0.021669
 --------------------------------------------------------


 ---------------------------------------------------------------------------------
              Anisotropic Spin Dipole Couplings in Principal Axis System
 ---------------------------------------------------------------------------------

       Atom             a.u.   MegaHertz   Gauss  10(-4) cm-1        Axes

              Baa    -0.0325    -4.283    -1.528    -1.429  0.7142 -0.6998  0.0148
     1 Mn(55) Bbb     0.0031     0.412     0.147     0.137 -0.4381 -0.4303  0.7893
              Bcc     0.0293     3.872     1.382     1.291  0.5459  0.5702  0.6139
 
              Baa    -0.1966    14.229     5.077     4.746  0.9839 -0.1786 -0.0014
     2 O(17)  Bbb    -0.1130     8.179     2.918     2.728 -0.0422 -0.2401  0.9698
              Bcc     0.3097   -22.407    -7.996    -7.474  0.1736  0.9542  0.2438
 
              Baa    -0.0602   -32.131   -11.465   -10.718 -0.4791 -0.2773  0.8328
[...]
    15  H   -0.000038  -0.000038   0.297303  -0.000038   0.000000  -0.000001
    16  H   -0.000038  -0.000001  -0.000038   0.297314  -0.000001  -0.000038
    17  H   -0.000001  -0.000001   0.000000  -0.000001   0.297309  -0.000038
    18  H    0.000000   0.000000  -0.000001  -0.000038  -0.000038   0.297328
    19  H   -0.000001  -0.000038  -0.000038   0.000000  -0.000001  -0.000001
              19
     1  Mn   0.000277
     2  O   -0.000285
     3  H    0.000000
     4  O    0.002557
     5  H   -0.000038
     6  O    0.000695
     7  H   -0.000038
     8  O    0.295908
     9  H   -0.014413
    10  O    0.000646
    11  H   -0.000001
    12  O    0.000699
    13  H   -0.000001
    14  H   -0.000038
    15  H   -0.000038
    16  H    0.000000
    17  H   -0.000001
    18  H   -0.000001
    19  H    0.297306
          Atomic-Atomic Spin Densities.
               1          2          3          4          5          6
     1  Mn   5.231408  -0.049564   0.001660  -0.049603   0.001654  -0.049582
     2  O   -0.049564   0.093797  -0.003774  -0.011783   0.000399  -0.011806
     3  H    0.001660  -0.003774   0.002983   0.000183  -0.000001   0.000400
     4  O   -0.049603  -0.011783   0.000183   0.093856  -0.003767  -0.011829
     5  H    0.001654   0.000399  -0.000001  -0.003767   0.002977   0.000771
     6  O   -0.049582  -0.011806   0.000400  -0.011829   0.000771   0.093832
     7  H    0.001660   0.000183  -0.000001   0.000402  -0.000018  -0.003776
     8  O   -0.049590   0.009175  -0.000116  -0.011805   0.000400  -0.011780
     9  H    0.001659  -0.000116   0.000000   0.000183  -0.000001   0.000399
    10  O   -0.049584  -0.011782   0.000765   0.009176  -0.000116  -0.011814
    11  H    0.001657   0.000400  -0.000018  -0.000115   0.000000   0.000183
    12  O   -0.049609  -0.011837   0.000402  -0.011785   0.000183   0.009183
    13  H    0.001657   0.000770  -0.000018   0.000398  -0.000001  -0.000116
    14  H    0.001660   0.000184  -0.000001   0.000399  -0.000001  -0.000115
    15  H    0.001663   0.000400  -0.000001  -0.003776   0.000453   0.000184
    16  H    0.001656  -0.003772   0.000454   0.000765  -0.000018   0.000401
    17  H    0.001661   0.000399  -0.000018  -0.000116   0.000000   0.000766
    18  H    0.001657   0.000767  -0.000018   0.000401  -0.000018  -0.003772
    19  H    0.001659  -0.000115   0.000000   0.000766  -0.000018   0.000399
               7          8          9         10         11         12
     1  Mn   0.001660  -0.049590   0.001659  -0.049584   0.001657  -0.049609
     2  O    0.000183   0.009175  -0.000116  -0.011782   0.000400  -0.011837
     3  H   -0.000001  -0.000116   0.000000   0.000765  -0.000018   0.000402
     4  O    0.000402  -0.011805   0.000183   0.009176  -0.000115  -0.011785
     5  H   -0.000018   0.000400  -0.000001  -0.000116   0.000000   0.000183
     6  O   -0.003776  -0.011780   0.000399  -0.011814   0.000183   0.009183
     7  H    0.002988   0.000764  -0.000018   0.000400  -0.000001  -0.000116
     8  O    0.000764   0.093838  -0.003771  -0.011811   0.000401  -0.011813
     9  H   -0.000018  -0.003771   0.002982   0.000768  -0.000018   0.000400
    10  O    0.000400  -0.011811   0.000768   0.093834  -0.003771  -0.011799
    11  H   -0.000001   0.000401  -0.000018  -0.003771   0.002982   0.000767
    12  O   -0.000116  -0.011813   0.000400  -0.011799   0.000767   0.093879
    13  H    0.000000   0.000183  -0.000001   0.000400  -0.000018  -0.003771
    14  H    0.000000   0.000767  -0.000018   0.000400  -0.000018  -0.003773
    15  H   -0.000001   0.000400  -0.000001  -0.000115   0.000000   0.000763
    16  H   -0.000001  -0.000116   0.000000   0.000183  -0.000001   0.000402
    17  H   -0.000018   0.000401  -0.000018  -0.003773   0.000454   0.000184
    18  H    0.000454   0.000183  -0.000001   0.000401  -0.000001  -0.000116
    19  H   -0.000018  -0.003771   0.000453   0.000184  -0.000001   0.000400
              13         14         15         16         17         18
     1  Mn   0.001657   0.001660   0.001663   0.001656   0.001661   0.001657
     2  O    0.000770   0.000184   0.000400  -0.003772   0.000399   0.000767
     3  H   -0.000018  -0.000001  -0.000001   0.000454  -0.000018  -0.000018
     4  O    0.000398   0.000399  -0.003776   0.000765  -0.000116   0.000401
     5  H   -0.000001  -0.000001   0.000453  -0.000018   0.000000  -0.000018
     6  O   -0.000116  -0.000115   0.000184   0.000401   0.000766  -0.003772
     7  H    0.000000   0.000000  -0.000001  -0.000001  -0.000018   0.000454
     8  O    0.000183   0.000767   0.000400  -0.000116   0.000401   0.000183
     9  H   -0.000001  -0.000018  -0.000001   0.000000  -0.000018  -0.000001
    10  O    0.000400   0.000400  -0.000115   0.000183  -0.003773   0.000401
    11  H   -0.000018  -0.000018   0.000000  -0.000001   0.000454  -0.000001
    12  O   -0.003771  -0.003773   0.000763   0.000402   0.000184  -0.000116
    13  H    0.002982   0.000453  -0.000018  -0.000018  -0.000001   0.000000
    14  H    0.000453   0.002985  -0.000018  -0.000001  -0.000001   0.000000
    15  H   -0.000018  -0.000018   0.002988  -0.000018   0.000000  -0.000001
    16  H   -0.000018  -0.000001  -0.000018   0.002983  -0.000001  -0.000018
    17  H   -0.000001  -0.000001   0.000000  -0.000001   0.002984  -0.000018
    18  H    0.000000   0.000000  -0.000001  -0.000018  -0.000018   0.002983
    19  H   -0.000001  -0.000018  -0.000018   0.000000  -0.000001  -0.000001
              19
     1  Mn   0.001659
     2  O   -0.000115
     3  H    0.000000
     4  O    0.000766
     5  H   -0.000018
     6  O    0.000399
     7  H   -0.000018
     8  O   -0.003771
     9  H    0.000453
    10  O    0.000184
    11  H   -0.000001
    12  O    0.000400
    13  H   -0.000001
    14  H   -0.000018
    15  H   -0.000018
    16  H    0.000000
    17  H   -0.000001
    18  H   -0.000001
    19  H    0.002983
 Mulliken charges and spin densities:
               1          2
     1  Mn   1.270387   4.953778
     2  O   -0.712005   0.001925
     3  H    0.416766   0.002883
     4  O   -0.711873   0.001952
     5  H    0.416741   0.002879
     6  O   -0.712035   0.001926
     7  H    0.416811   0.002886
     8  O   -0.711902   0.001939
     9  H    0.416758   0.002882
    10  O   -0.711898   0.001944
    11  H    0.416758   0.002881
    12  O   -0.711902   0.001944
    13  H    0.416777   0.002882
    14  H    0.416757   0.002883
    15  H    0.416789   0.002885
    16  H    0.416773   0.002882
    17  H    0.416762   0.002883
    18  H    0.416768   0.002883
    19  H    0.416767   0.002882
 Sum of Mulliken charges =   2.00000   5.00000
 Mulliken charges and spin densities with hydrogens summed into heavy atoms:
               1          2
     1  Mn   1.270387   4.953778
     2  O    0.121534   0.007690
     4  O    0.121657   0.007716
     6  O    0.121544   0.007695
     8  O    0.121624   0.007702
    10  O    0.121623   0.007708
    12  O    0.121632   0.007710
 Electronic spatial extent (au):  <R**2>=           1204.8832
 Charge=              2.0000 electrons
 Dipole moment (field-independent basis, Debye):
    X=             -0.0022    Y=              0.0014    Z=              0.0052  Tot=              0.0059
 Quadrupole moment (field-independent basis, Debye-Ang):
   XX=            -15.3516   YY=            -15.3505   ZZ=            -15.3470
   XY=              0.0025   XZ=             -0.0006   YZ=              0.0001
 Traceless Quadrupole moment (field-independent basis, Debye-Ang):
   XX=             -0.0019   YY=             -0.0009   ZZ=              0.0027
   XY=              0.0025   XZ=             -0.0006   YZ=              0.0001
 Octapole moment (field-independent basis, Debye-Ang**2):
  XXX=             -0.0117  YYY=              0.0438  ZZZ=              0.0766  XYY=             -0.0299
  XXY=             -0.0205  XXZ=             -0.0051  XZZ=              0.0147  YZZ=             -0.0175
  YYZ=             -0.0235  XYZ=              0.0166
 Hexadecapole moment (field-independent basis, Debye-Ang**3):
 XXXX=           -235.0366 YYYY=           -145.7628 ZZZZ=           -233.1179 XXXY=            -16.6869
 XXXZ=            -12.8925 YYYX=             35.9212 YYYZ=             30.3639 ZZZX=             -0.3121
 ZZZY=            -16.7431 XXYY=            -98.2542 XXZZ=            -10.4419 YYZZ=            -99.3000
 XXYZ=            -13.6240 YYXZ=             13.1849 ZZXY=            -19.2053
 N-N= 6.302965416840D+02 E-N=-5.050893214599D+03  KE= 1.604604821737D+03
                          Isotropic Fermi Contact Couplings
        Atom                 a.u.       MegaHertz       Gauss      10(-4) cm-1
     1  Mn(55)             0.33415      73.86963      26.35852      24.64026
     2  O(17)              0.07689      -9.32202      -3.32633      -3.10949
     3  H(1)               0.00126       1.13064       0.40344       0.37714
     4  O(17)              0.07689      -9.32245      -3.32648      -3.10964
     5  H(1)               0.00126       1.12838       0.40263       0.37639
     6  O(17)              0.07690      -9.32358      -3.32689      -3.11001
     7  H(1)               0.00127       1.13194       0.40390       0.37757
     8  O(17)              0.07689      -9.32214      -3.32637      -3.10953
     9  H(1)               0.00126       1.12981       0.40314       0.37686
    10  O(17)              0.07689      -9.32257      -3.32652      -3.10967
    11  H(1)               0.00126       1.12942       0.40301       0.37673
    12  O(17)              0.07690      -9.32385      -3.32698      -3.11010
    13  H(1)               0.00126       1.12997       0.40320       0.37692
    14  H(1)               0.00127       1.13098       0.40356       0.37725
    15  H(1)               0.00127       1.13234       0.40405       0.37771
    16  H(1)               0.00126       1.12979       0.40314       0.37686
    17  H(1)               0.00127       1.13096       0.40355       0.37725
    18  H(1)               0.00126       1.13033       0.40333       0.37704
    19  H(1)               0.00126       1.13049       0.40339       0.37709
 --------------------------------------------------------
       Center         ----  Spin Dipole Couplings  ----
                      3XX-RR        3YY-RR        3ZZ-RR
 --------------------------------------------------------
     1   Atom        0.000176     -0.000036     -0.000141
     2   Atom       -0.066722      0.131535     -0.064813
     3   Atom       -0.030931      0.049936     -0.019005
     4   Atom        0.029041     -0.043261      0.014221
     5   Atom        0.042994     -0.031301     -0.011693
     6   Atom        0.038249     -0.088294      0.050045
     7   Atom       -0.000980     -0.004026      0.005005
     8   Atom       -0.066566      0.131461     -0.064895
     9   Atom       -0.016130      0.047136     -0.031006
    10   Atom        0.028775     -0.043267      0.014492
    11   Atom        0.042906     -0.031301     -0.011605
    12   Atom        0.038019     -0.088209      0.050189
    13   Atom       -0.001046     -0.003922      0.004968
    14   Atom        0.012422     -0.029791      0.017369
    15   Atom       -0.007071     -0.032005      0.039076
    16   Atom       -0.016142      0.047146     -0.031005
    17   Atom       -0.007162     -0.032011      0.039172
    18   Atom        0.012344     -0.029782      0.017438
    19   Atom       -0.030945      0.049908     -0.018962
 --------------------------------------------------------
                        XY            XZ            YZ
 --------------------------------------------------------
     1   Atom        0.000004      0.000016      0.000023
     2   Atom        0.035700      0.038508      0.028288
     3   Atom       -0.002123     -0.002137      0.031655
     4   Atom        0.007345     -0.121616      0.015316
     5   Atom       -0.008880     -0.036686      0.003815
     6   Atom       -0.043002      0.083138     -0.043491
     7   Atom       -0.027953      0.034281     -0.030641
     8   Atom        0.035784      0.038601      0.028318
     9   Atom        0.034339     -0.002779     -0.003268
    10   Atom        0.007420     -0.121631      0.015184
    11   Atom       -0.008798     -0.036734      0.003788
    12   Atom       -0.043220      0.083024     -0.043642
    13   Atom       -0.027997      0.034251     -0.030705
    14   Atom        0.002716      0.047242      0.002768
    15   Atom        0.001810     -0.039905     -0.004342
    16   Atom        0.034312     -0.002770     -0.003252
    17   Atom        0.001828     -0.039860     -0.004381
    18   Atom        0.002782      0.047238      0.002854
    19   Atom       -0.002042     -0.002108      0.031708
 --------------------------------------------------------


 ---------------------------------------------------------------------------------
              Anisotropic Spin Dipole Couplings in Principal Axis System
 ---------------------------------------------------------------------------------

       Atom             a.u.   MegaHertz   Gauss  10(-4) cm-1        Axes

              Baa    -0.0001    -0.019    -0.007    -0.006 -0.0454 -0.1997  0.9788
     1 Mn(55) Bbb    -0.0000    -0.004    -0.001    -0.001 -0.0332  0.9796  0.1984
              Bcc     0.0002     0.023     0.008     0.008  0.9984  0.0235  0.0511
 
              Baa    -0.1044     7.558     2.697     2.521  0.7268 -0.0277 -0.6863
     2 O(17)  Bbb    -0.0392     2.834     1.011     0.945  0.6587 -0.2551  0.7078
              Bcc     0.1436   -10.392    -3.708    -3.466  0.1946  0.9665  0.1671
 
              Baa    -0.0324   -17.289    -6.169    -5.767  0.6589 -0.2551  0.7077
     3 H(1)   Bbb    -0.0299   -15.976    -5.701    -5.329  0.7517  0.2602 -0.6061
              Bcc     0.0623    33.266    11.870    11.096 -0.0295  0.9313  0.3631
 
              Baa    -0.1045     7.561     2.698     2.522  0.6586 -0.2560  0.7077
     4 O(17)  Bbb    -0.0391     2.830     1.010     0.944  0.1953  0.9663  0.1678
              Bcc     0.1436   -10.392    -3.708    -3.466  0.7268 -0.0277 -0.6863
 
              Baa    -0.0324   -17.305    -6.175    -5.772  0.1954  0.9663  0.1678
     5 H(1)   Bbb    -0.0300   -15.988    -5.705    -5.333  0.4134 -0.2363  0.8793
              Bcc     0.0624    33.293    11.880    11.105  0.8893 -0.1024 -0.4456
 
              Baa    -0.1045     7.558     2.697     2.521  0.1934  0.9666  0.1680
     6 O(17)  Bbb    -0.0392     2.833     1.011     0.945  0.7251 -0.0254 -0.6882
              Bcc     0.1436   -10.392    -3.708    -3.466  0.6610 -0.2549  0.7058
 
              Baa    -0.0324   -17.288    -6.169    -5.767  0.7252 -0.0285 -0.6879
     7 H(1)   Bbb    -0.0299   -15.976    -5.701    -5.329  0.3824  0.8475  0.3680
              Bcc     0.0623    33.263    11.869    11.095  0.5726 -0.5300  0.6255
 
              Baa    -0.1045     7.562     2.698     2.522  0.7256 -0.0275 -0.6875
     8 O(17)  Bbb    -0.0391     2.829     1.010     0.944  0.6598 -0.2557  0.7066
              Bcc     0.1436   -10.391    -3.708    -3.466  0.1953  0.9664  0.1674
 
              Baa    -0.0324   -17.296    -6.172    -5.769  0.6598 -0.2558  0.7066
     9 H(1)   Bbb    -0.0300   -15.982    -5.703    -5.331 -0.6351  0.3128  0.7062
              Bcc     0.0624    33.279    11.875    11.101  0.4017  0.9147 -0.0440
 
              Baa    -0.1045     7.559     2.697     2.522  0.6596 -0.2553  0.7070
    10 O(17)  Bbb    -0.0391     2.832     1.011     0.945  0.1945  0.9665  0.1676
              Bcc     0.1436   -10.391    -3.708    -3.466  0.7260 -0.0270 -0.6871
 
              Baa    -0.0324   -17.296    -6.171    -5.769  0.1946  0.9664  0.1676
    11 H(1)   Bbb    -0.0300   -15.981    -5.702    -5.331  0.4146 -0.2360  0.8789
              Bcc     0.0624    33.276    11.874    11.100  0.8889 -0.1016 -0.4466
 
              Baa    -0.1045     7.563     2.699     2.523  0.1953  0.9663  0.1678
    12 O(17)  Bbb    -0.0391     2.828     1.009     0.943  0.7254 -0.0271 -0.6878
              Bcc     0.1436   -10.392    -3.708    -3.466  0.6601 -0.2560  0.7062
 
              Baa    -0.0324   -17.300    -6.173    -5.771  0.7254 -0.0282 -0.6877
    13 H(1)   Bbb    -0.0300   -15.985    -5.704    -5.332  0.3828  0.8469  0.3691
              Bcc     0.0624    33.285    11.877    11.103  0.5720 -0.5310  0.6252
 
              Baa    -0.0324   -17.294    -6.171    -5.769  0.7258 -0.0262 -0.6874
    14 H(1)   Bbb    -0.0300   -15.981    -5.702    -5.331 -0.0099  0.9988 -0.0485
              Bcc     0.0624    33.275    11.873    11.099  0.6878  0.0420  0.7247
 
              Baa    -0.0324   -17.284    -6.167    -5.765  0.1953  0.9663  0.1677
    15 H(1)   Bbb    -0.0299   -15.972    -5.699    -5.328  0.8444 -0.2526  0.4724
              Bcc     0.0623    33.256    11.867    11.093 -0.4988 -0.0494  0.8653
 
              Baa    -0.0324   -17.293    -6.170    -5.768  0.6586 -0.2551  0.7079
    16 H(1)   Bbb    -0.0299   -15.979    -5.702    -5.330 -0.6364  0.3130  0.7050
              Bcc     0.0624    33.271    11.872    11.098  0.4014  0.9148 -0.0438
 
              Baa    -0.0324   -17.288    -6.169    -5.767  0.1945  0.9665  0.1675
    17 H(1)   Bbb    -0.0299   -15.975    -5.700    -5.329  0.8452 -0.2518  0.4715
              Bcc     0.0623    33.264    11.869    11.096 -0.4978 -0.0498  0.8658
 
              Baa    -0.0324   -17.296    -6.172    -5.769  0.7264 -0.0229 -0.6869
    18 H(1)   Bbb    -0.0300   -15.982    -5.703    -5.331 -0.0131  0.9988 -0.0471
              Bcc     0.0624    33.278    11.874    11.100  0.6872  0.0432  0.7252
 
              Baa    -0.0324   -17.293    -6.170    -5.768  0.6599 -0.2558  0.7065
    19 H(1)   Bbb    -0.0299   -15.979    -5.702    -5.330  0.7508  0.2602 -0.6071
              Bcc     0.0624    33.272    11.872    11.098 -0.0286  0.9310  0.3638
 

 ---------------------------------------------------------------------------------

 No NMR shielding tensors so no spin-rotation constants.
 Leave Link  601 at Thu May 23 15:52:29 2024, MaxMem= 26843545600 cpu:              29.1 elap:               0.3
 (Enter /gpfs/fs1/soft/improv/software/custom-built/gaussian/g16/l9999.exe)
 Unable to Open any file for archive entry.
 1\1\GINC-I184\SP\UPBE1PBE\Gen\H12Mn1O6(2+,6)\HHARB\23-May-2024\0\\#p P
 BE1PBE empiricaldispersion=gd3 scf=(maxcycles=500,xqc,maxconventional=
 50) scrf=(cpcm,solvent=water) geom=allcheck guess=read chkbasis\\Title
 \\2,6\Mn,-0.784521383,0.7126521271,0.0315885731\O,-1.2701073813,2.8292
 08065,-0.2134936121\H,-2.1495730924,3.208216814,-0.3259631779\O,1.3377
 922365,1.2150518903,0.1668583014\H,1.8292107027,1.4199478786,0.9707877
 281\O,-0.9684729343,0.9217971674,2.1989669788\H,-0.8459896319,0.227220
 0825,2.8564978382\O,-0.2994560751,-1.4039831335,0.2752195738\H,-0.9238
 600408,-2.1385445627,0.2923921408\O,-2.9069732001,0.2096161739,-0.1013
 333573\H,-3.3996262062,0.0037435515,-0.9042426622\O,-0.6006380517,0.50
 57677008,-2.1358030597\H,-0.7234903452,1.2014648645,-2.7920499171\H,-0
 .3794182684,-0.2981104097,-2.6201505712\H,1.9631995192,1.274461766,-0.
 5646430332\H,-0.6460274622,3.564073003,-0.2296498412\H,-3.5312501147,0
 .1509571313,0.6311856072\H,-1.1923430913,1.7259606713,2.6818023286\H,0
 .5800272503,-1.7834210112,0.386075572\\Version=ES64L-G16RevC.02\State=
 6-A\HF=-1608.7230305\S2=8.752453\S2-1=0.\S2A=8.750002\RMSD=3.317e-09\D
 ipole=-0.0022224,0.0002841,0.0005378\Quadrupole=0.0005887,0.000613,-0.
 0012017,0.0005947,-0.0022258,0.0006326\PG=C01 [X(H12Mn1O6)]\\@
 The archive entry for this job was punched.


 STEINBACH'S GUIDELINES FOR SYSTEMS PROGRAMMING:
 NEVER TEST FOR AN ERROR CONDITION YOU DON'T KNOW HOW
 TO HANDLE.
 Job cpu time:       0 days  0 hours 32 minutes 22.6 seconds.
 Elapsed time:       0 days  0 hours  0 minutes 18.0 seconds.
 File lengths (MBytes):  RWF=    124 Int=      0 D2E=      0 Chk=     32 Scr=      1
 Normal termination of Gaussian 16 at Thu May 23 15:52:29 2024.
