 Entering Gaussian System, Link 0=g16
 Input=Mn_3_HSE06.com
 Output=Mn_3_HSE06.log
 Initial command:
 /gpfs/fs1/soft/improv/software/custom-built/gaussian/g16/l1.exe "/scratch/Gau-307374.inp" -scrdir="/scratch/"
 Default CPUs for threads: 0-127
 Default linda workers: i221.lcrc.anl.gov
 Default is to use 128 SMP processors on each worker.
 Entering Link 1 = /gpfs/fs1/soft/improv/software/custom-built/gaussian/g16/l1.exe PID=    307375.
  
 Copyright (c) 1988-2021, Gaussian, Inc.  All Rights Reserved.
  
 This is part of the Gaussian(R) 16 program.  It is based on
 the Gaussian(R) 09 system (copyright 2009, Gaussian, Inc.),
 the Gaussian(R) 03 system (copyright 2003, Gaussian, Inc.),
 the Gaussian(R) 98 system (copyright 1998, Gaussian, Inc.),
 the Gaussian(R) 94 system (copyright 1995, Gaussian, Inc.),
 the Gaussian 92(TM) system (copyright 1992, Gaussian, Inc.),
 the Gaussian 90(TM) system (copyright 1990, Gaussian, Inc.),
 the Gaussian 88(TM) system (copyright 1988, Gaussian, Inc.),
 the Gaussian 86(TM) system (copyright 1986, Carnegie Mellon
 University), and the Gaussian 82(TM) system (copyright 1983,
 Carnegie Mellon University). Gaussian is a federally registered
 trademark of Gaussian, Inc.
  
 This software contains proprietary and confidential information,
 including trade secrets, belonging to Gaussian, Inc.
  
 This software is provided under written license and may be
 used, copied, transmitted, or stored only in accord with that
 written license.
  
 The following legend is applicable only to US Government
 contracts under FAR:
  
                    RESTRICTED RIGHTS LEGEND
  
 Use, reproduction and disclosure by the US Government is
 subject to restrictions as set forth in subparagraphs (a)
 and (c) of the Commercial Computer Software - Restricted
 Rights clause in FAR 52.227-19.
  
 Gaussian, Inc.
 340 Quinnipiac St., Bldg. 40, Wallingford CT 06492
  
  
 ---------------------------------------------------------------
 Warning -- This program may not be used in any manner that
 competes with the business of Gaussian, Inc. or will provide
 assistance to any competitor of Gaussian, Inc.  The licensee
 of this program is prohibited from giving any competitor of
 Gaussian, Inc. access to this program.  By using this program,
 the user acknowledges that Gaussian, Inc. is engaged in the
 business of creating and licensing software in the field of
 computational chemistry and represents and warrants to the
 licensee that it is not a competitor of Gaussian, Inc. and that
 it will not use this program in any manner prohibited above.
 ---------------------------------------------------------------
  

 Cite this work as:
 Gaussian 16, Revision C.02,
 M. J. Frisch, G. W. Trucks, H. B. Schlegel, G. E. Scuseria, 
 M. A. Robb, J. R. Cheeseman, G. Scalmani, V. Barone, 
 G. A. Petersson, H. Nakatsuji, X. Li, M. Caricato, A. V. Marenich, 
 J. Bloino, B. G. Janesko, R. Gomperts, B. Mennucci, H. P. Hratchian, 
 J. V. Ortiz, A. F. Izmaylov, J. L. Sonnenberg, D. Williams-Young, 
 F. Ding, F. Lipparini, F. Egidi, J. Goings, B. Peng, A. Petrone, 
 T. Henderson, D. Ranasinghe, V. G. Zakrzewski, J. Gao, N. Rega, 
 G. Zheng, W. Liang, M. Hada, M. Ehara, K. Toyota, R. Fukuda, 
 J. Hasegawa, M. Ishida, T. Nakajima, Y. Honda, O. Kitao, H. Nakai, 
 T. Vreven, K. Throssell, J. A. Montgomery, Jr., J. E. Peralta, 
 F. Ogliaro, M. J. Bearpark, J. J. Heyd, E. N. Brothers, K. N. Kudin, 
 V. N. Staroverov, T. A. Keith, R. Kobayashi, J. Normand, 
 K. Raghavachari, A. P. Rendell, J. C. Burant, S. S. Iyengar, 
 J. Tomasi, M. Cossi, J. M. Millam, M. Klene, C. Adamo, R. Cammi, 
 J. W. Ochterski, R. L. Martin, K. Morokuma, O. Farkas, 
 J. B. Foresman, and D. J. Fox, Gaussian, Inc., Wallingford CT, 2019.
 
 ******************************************
 Gaussian 16:  ES64L-G16RevC.02  7-Dec-2021
                23-May-2024 
 ******************************************
 %chk=Mn_3_HSE06.chk
 SetSPE:  set environment variable "OMP_PROC_BIND" = "true"
 SetSPE:  set environment variable "OMP_PLACES" = "{0},{1},{2},{3},{4},{5},{6},{7},{8},{9},{10},{11},{12},{13},{14},{15},{16},{17},{18},{19},{20},{21},{22},{23},{24},{25},{26},{27},{28},{29},{30},{31},{32},{33},{34},{35},{36},{37},{38},{39},{40},{41},{42},{43},{44},{45},{46},{47},{48},{49},{50},{51},{52},{53},{54},{55},{56},{57},{58},{59},{60},{61},{62},{63},{64},{65},{66},{67},{68},{69},{70},{71},{72},{73},{74},{75},{76},{77},{78},{79},{80},{81},{82},{83},{84},{85},{86},{87},{88},{89},{90},{91},{92},{93},{94},{95},{96},{97},{98},{99},{100},{101},{102},{103},{104},{105},{106},{107},{108},{109},{110},{111},{112},{113},{114},{115},{116},{117},{118},{119},{120},{121},{122},{123},{124},{125},{126},{127}"
 SetLPE:    new flags="-opt 'Tsnet.Node.lindarsharg: ssh'  -nodelist 'i221.lcrc.anl.gov' -env GAUSS_MDEF=26843545600 -env GAUSS_EXEDIR="/gpfs/fs1/soft/improv/software/custom-built/gaussian/g16/bsd:/gpfs/fs1/soft/improv/software/custom-built/gaussian/g16" -env "OMP_PROC_BIND=true" -env "OMP_PLACES={0},{1},{2},{3},{4},{5},{6},{7},{8},{9},{10},{11},{12},{13},{14},{15},{16},{17},{18},{19},{20},{21},{22},{23},{24},{25},{26},{27},{28},{29},{30},{31},{32},{33},{34},{35},{36},{37},{38},{39},{40},{41},{42},{43},{44},{45},{46},{47},{48},{49},{50},{51},{52},{53},{54},{55},{56},{57},{58},{59},{60},{61},{62},{63},{64},{65},{66},{67},{68},{69},{70},{71},{72},{73},{74},{75},{76},{77},{78},{79},{80},{81},{82},{83},{84},{85},{86},{87},{88},{89},{90},{91},{92},{93},{94},{95},{96},{97},{98},{99},{100},{101},{102},{103},{104},{105},{106},{107},{108},{109},{110},{111},{112},{113},{114},{115},{116},{117},{118},{119},{120},{121},{122},{123},{124},{125},{126},{127}" -env GAUSS_ADEF="0,1,2,3,4,5,6,7,8,9,10,11,12,13,14,15,16,17,18,19,20,21,22,23,24,25,26,27,28,29,30,31,32,33,34,35,36,37,38,39,40,41,42,43,44,45,46,47,48,49,50,51,52,53,54,55,56,57,58,59,60,61,62,63,64,65,66,67,68,69,70,71,72,73,74,75,76,77,78,79,80,81,82,83,84,85,86,87,88,89,90,91,92,93,94,95,96,97,98,99,100,101,102,103,104,105,106,107,108,109,110,111,112,113,114,115,116,117,118,119,120,121,122,123,124,125,126,127""
 Will use up to    1 processors via Linda.
 ----------------------------------------------------------------------
 #p HSEH1PBE 6-31+G(2df,p) opt=(cartesian,calcall,maxcycles=500) freq s
 cf=(maxcycles=500,xqc,maxconventional=50)
 ----------------------------------------------------------------------
 1/6=500,10=4,18=10,26=3,38=1/1,3;
 2/12=2,17=6,18=5,29=2,40=1/2;
 3/5=1,6=6,7=114,11=2,25=1,30=1,71=2,74=-51,140=1/1,2,3;
 4//1;
 5/5=2,7=500,8=3,13=1,38=5,85=50/2,8;
 8/6=4,10=90,11=11/1;
 11/6=1,8=1,9=11,15=111,16=1/1,2,10;
 10/6=1/2;
 6/7=2,8=2,9=2,10=2,18=1,28=1/1;
 7/7=1,10=1,25=1/1,2,3,16;
 1/6=500,10=4,18=10,26=3/3(3);
 2/29=1/2;
 7/7=1,8=1,9=1,25=1,44=-1/16;
 99/12=1/99;
 2/29=1/2;
 3/5=1,6=6,7=114,11=2,25=1,30=1,71=2,74=-51,140=1/1,2,3;
 4/5=5,16=3,69=1/1;
 5/5=2,7=500,8=3,13=1,38=5,85=50/2,8;
 8/6=4,10=90,11=11/1;
 11/6=1,8=1,9=11,15=111,16=1/1,2,10;
 10/6=1/2;
 7/7=1,10=1,25=1/1,2,3,16;
 1/6=500,10=4,18=10,26=3/3(-8);
 2/29=1/2;
 6/7=2,8=2,9=2,10=2,18=1,19=2,28=1/1;
 7/7=1,8=1,9=1,25=1,44=-1/16;
 99/12=1/99;
 Leave Link    1 at Thu May 23 14:43:07 2024, MaxMem=           0 cpu:               6.2 elap:               0.1
 (Enter /gpfs/fs1/soft/improv/software/custom-built/gaussian/g16/l101.exe)
 -----
 Title
 -----
 Symbolic Z-matrix:
 Charge =  3 Multiplicity = 5
 Mn                   -0.79304   0.81881  -0.09491 
 O                    -1.20497   2.57394  -0.35687 
 H                    -2.12106   2.64974  -0.63312 
 O                     0.99012   1.19063  -0.05794 
 H                     1.42696   0.5998    0.55971 
 O                    -0.81752   1.03069   1.71365 
 H                    -1.02108   0.1906    2.13133 
 O                    -0.38507  -0.93351   0.17118 
 H                    -1.15682  -1.47369  -0.01433 
 O                    -2.57341   0.45178  -0.12186 
 H                    -2.77756  -0.08744  -0.88929 
 O                    -0.76966   0.60461  -1.90111 
 H                     0.09872   0.83457  -2.23949 
 H                    -0.96534  -0.30999  -2.11742 
 H                     1.12208   2.09943   0.22124 
 H                    -1.07671   3.0584    0.46184 
 H                    -2.81407  -0.02398   0.6765 
 H                     0.0422    1.33615   2.01181 
 H                    -0.11532  -1.06446   1.08312 
 
 ITRead=  0  0  0  0  0  0  0  0  0  0  0  0  0  0  0  0  0  0  0
 MicOpt= -1 -1 -1 -1 -1 -1 -1 -1 -1 -1 -1 -1 -1 -1 -1 -1 -1 -1 -1
 NAtoms=     19 NQM=       19 NQMF=       0 NMMI=      0 NMMIF=      0
                NMic=       0 NMicF=      0.
                    Isotopes and Nuclear Properties:
 (Nuclear quadrupole moments (NQMom) in fm**2, nuclear magnetic moments (NMagM)
  in nuclear magnetons)

  Atom         1           2           3           4           5           6           7           8           9          10
 IAtWgt=          55          16           1          16           1          16           1          16           1          16
 AtmWgt=  54.9380463  15.9949146   1.0078250  15.9949146   1.0078250  15.9949146   1.0078250  15.9949146   1.0078250  15.9949146
 NucSpn=           5           0           1           0           1           0           1           0           1           0
 AtZEff=  -0.0000000  -0.0000000  -0.0000000  -0.0000000  -0.0000000  -0.0000000  -0.0000000  -0.0000000  -0.0000000  -0.0000000
 NQMom=   33.0000000   0.0000000   0.0000000   0.0000000   0.0000000   0.0000000   0.0000000   0.0000000   0.0000000   0.0000000
 NMagM=    3.4532000   0.0000000   2.7928460   0.0000000   2.7928460   0.0000000   2.7928460   0.0000000   2.7928460   0.0000000
 AtZNuc=  25.0000000   8.0000000   1.0000000   8.0000000   1.0000000   8.0000000   1.0000000   8.0000000   1.0000000   8.0000000

  Atom        11          12          13          14          15          16          17          18          19
 IAtWgt=           1          16           1           1           1           1           1           1           1
 AtmWgt=   1.0078250  15.9949146   1.0078250   1.0078250   1.0078250   1.0078250   1.0078250   1.0078250   1.0078250
 NucSpn=           1           0           1           1           1           1           1           1           1
 AtZEff=  -0.0000000  -0.0000000  -0.0000000  -0.0000000  -0.0000000  -0.0000000  -0.0000000  -0.0000000  -0.0000000
 NQMom=    0.0000000   0.0000000   0.0000000   0.0000000   0.0000000   0.0000000   0.0000000   0.0000000   0.0000000
 NMagM=    2.7928460   0.0000000   2.7928460   2.7928460   2.7928460   2.7928460   2.7928460   2.7928460   2.7928460
 AtZNuc=   1.0000000   8.0000000   1.0000000   1.0000000   1.0000000   1.0000000   1.0000000   1.0000000   1.0000000
 Leave Link  101 at Thu May 23 14:43:07 2024, MaxMem= 26843545600 cpu:               0.4 elap:               0.0
 (Enter /gpfs/fs1/soft/improv/software/custom-built/gaussian/g16/l103.exe)

 GradGradGradGradGradGradGradGradGradGradGradGradGradGradGradGradGradGrad
 Berny optimization.
 Initialization pass.
 No Z-matrix variables, so optimization will use Cartesian coordinates.
 Trust Radius=3.00D-01 FncErr=1.00D-07 GrdErr=1.00D-06 EigMax=2.50D+02 EigMin=1.00D-04
 Number of steps in this run=    114 maximum allowed number of steps=    114.
 GradGradGradGradGradGradGradGradGradGradGradGradGradGradGradGradGradGrad

 Leave Link  103 at Thu May 23 14:43:08 2024, MaxMem= 26843545600 cpu:               0.4 elap:               0.0
 (Enter /gpfs/fs1/soft/improv/software/custom-built/gaussian/g16/l202.exe)
 ---------------------------------------------------------------------------------------------------
                            Z-MATRIX (ANGSTROMS AND DEGREES)
   CD    Cent   Atom    N1       Length/X        N2       Alpha/Y        N3        Beta/Z          J
 ---------------------------------------------------------------------------------------------------
      1      1  Mn       0  -0.793037          0.818805         -0.094905
      2      2  O        0  -1.204971          2.573941         -0.356874
      3      3  H        0  -2.121063          2.649743         -0.633122
      4      4  O        0   0.990122          1.190635         -0.057941
      5      5  H        0   1.426962          0.599798          0.559707
      6      6  O        0  -0.817519          1.030691          1.713650
      7      7  H        0  -1.021079          0.190602          2.131326
      8      8  O        0  -0.385068         -0.933506          0.171177
      9      9  H        0  -1.156817         -1.473692         -0.014327
     10     10  O        0  -2.573405          0.451778         -0.121857
     11     11  H        0  -2.777557         -0.087440         -0.889285
     12     12  O        0  -0.769659          0.604612         -1.901109
     13     13  H        0   0.098725          0.834573         -2.239490
     14     14  H        0  -0.965336         -0.309994         -2.117418
     15     15  H        0   1.122081          2.099426          0.221242
     16     16  H        0  -1.076711          3.058396          0.461841
     17     17  H        0  -2.814074         -0.023981          0.676500
     18     18  H        0   0.042204          1.336153          2.011809
     19     19  H        0  -0.115315         -1.064459          1.083123
 ---------------------------------------------------------------------------------------------------
                         Z-Matrix orientation:                         
 ---------------------------------------------------------------------
 Center     Atomic      Atomic             Coordinates (Angstroms)
 Number     Number       Type             X           Y           Z
 ---------------------------------------------------------------------
      1         25           0       -0.793037    0.818805   -0.094905
      2          8           0       -1.204971    2.573941   -0.356874
      3          1           0       -2.121063    2.649743   -0.633122
      4          8           0        0.990122    1.190635   -0.057941
      5          1           0        1.426962    0.599798    0.559707
      6          8           0       -0.817519    1.030691    1.713650
      7          1           0       -1.021079    0.190602    2.131326
      8          8           0       -0.385068   -0.933506    0.171177
      9          1           0       -1.156817   -1.473692   -0.014327
     10          8           0       -2.573405    0.451778   -0.121857
     11          1           0       -2.777557   -0.087440   -0.889285
     12          8           0       -0.769659    0.604612   -1.901109
     13          1           0        0.098725    0.834573   -2.239490
     14          1           0       -0.965336   -0.309994   -2.117418
     15          1           0        1.122081    2.099426    0.221242
     16          1           0       -1.076711    3.058396    0.461841
     17          1           0       -2.814074   -0.023981    0.676500
     18          1           0        0.042204    1.336153    2.011809
     19          1           0       -0.115315   -1.064459    1.083123
 ---------------------------------------------------------------------
                    Distance matrix (angstroms):
                    1          2          3          4          5
     1  Mn   0.000000
     2  O    1.821762   0.000000
     3  H    2.325008   0.959835   0.000000
     4  O    1.821889   2.611767   3.484150   0.000000
     5  H    2.324839   3.415322   4.267739   0.959899   0.000000
     6  O    1.821090   2.611285   3.134947   2.536076   2.560263
     7  H    2.324381   3.450400   3.859988   3.136540   2.937743
     8  O    1.818745   3.640503   4.062050   2.540791   2.405292
     9  H    2.322579   4.062387   4.279649   3.421971   3.362259
    10  O    1.818006   2.536025   2.301533   3.639880   4.060711
    11  H    2.321775   3.136788   2.826442   4.064482   4.499984
    12  O    1.819010   2.540161   2.759827   2.614866   3.298603
    13  H    2.322657   2.875634   3.286750   2.383386   3.107223
    14  H    2.322591   3.387332   3.506977   3.212032   3.703756
    15  H    2.325429   2.444290   3.398642   0.959822   1.567289
    16  H    2.325125   0.959918   1.567358   2.833814   3.510364
    17  H    2.321626   3.225876   3.056824   4.060370   4.288255
    18  H    2.324547   2.949275   3.660724   2.281137   2.137375
    19  H    2.322443   4.061883   4.556733   2.758526   2.328591
                    6          7          8          9         10
     6  O    0.000000
     7  H    0.960021   0.000000
     8  O    2.534622   2.347406   0.000000
     9  H    3.061530   2.718847   0.960108   0.000000
    10  O    2.605257   2.748593   2.606473   2.392848   0.000000
    11  H    3.444886   3.505227   2.750347   2.305222   0.959885
    12  O    3.640099   4.061422   2.609231   2.833582   2.538227
    13  H    4.062670   4.557707   3.028445   3.443229   3.430916
    14  H    4.061572   4.278496   2.441955   2.411193   2.673658
    15  H    2.670492   3.447487   3.387136   4.244531   4.060675
    16  H    2.397039   3.318813   4.061790   4.557738   3.061904
    17  H    2.484803   2.318921   2.642472   2.307685   0.960023
    18  H    0.959858   1.567527   2.953276   3.665802   3.489421
    19  H    2.297892   1.869309   0.959980   1.567353   3.129403
                   11         12         13         14         15
    11  H    0.000000
    12  O    2.352526   0.000000
    13  H    3.308498   0.959935   0.000000
    14  H    2.200452   0.959991   1.567533   0.000000
    15  H    4.606825   3.212091   2.949969   3.953725   0.000000
    16  H    3.822919   3.420362   3.691102   4.243941   2.410850
    17  H    1.567497   3.349453   4.210050   3.362383   4.495491
    18  H    4.288824   4.062660   4.281159   4.558009   2.225950
    19  H    3.454344   3.481323   3.833001   3.396353   3.504877
                   16         17         18         19
    16  H    0.000000
    17  H    3.544793   0.000000
    18  H    2.573032   3.433851   0.000000
    19  H    4.278809   2.920828   2.578800   0.000000
 Stoichiometry    H12MnO6(3+,5)
 Framework group  C1[X(H12MnO6)]
 Deg. of freedom    51
 Full point group                 C1      NOp   1
 Largest Abelian subgroup         C1      NOp   1
 Largest concise Abelian subgroup C1      NOp   1
                         Standard orientation:                         
 ---------------------------------------------------------------------
 Center     Atomic      Atomic             Coordinates (Angstroms)
 Number     Number       Type             X           Y           Z
 ---------------------------------------------------------------------
      1         25           0       -0.020445   -0.030121    0.009875
      2          8           0       -0.320808   -1.687588   -0.683958
      3          1           0       -1.137042   -1.679899   -1.188920
      4          8           0        1.254655   -0.678279    1.138277
      5          1           0        1.943361   -0.019749    1.254154
      6          8           0        1.298207    0.294245   -1.203513
      7          1           0        1.382040    1.240910   -1.339297
      8          8           0        0.280486    1.626554    0.697409
      9          1           0       -0.431358    2.215648    0.436540
     10          8           0       -1.285904    0.615907   -1.124325
     11          1           0       -2.034842    0.938661   -0.618064
     12          8           0       -1.338362   -0.351446    1.221751
     13          1           0       -0.971739   -0.815561    1.977832
     14          1           0       -1.717277    0.481861    1.510897
     15          1           0        1.635399   -1.477016    0.766376
     16          1           0        0.408515   -1.930884   -1.258706
     17          1           0       -0.915243    1.335169   -1.640964
     18          1           0        2.129003   -0.056571   -0.874826
     19          1           0        1.114126    1.965325    0.362984
 ---------------------------------------------------------------------
 Rotational constants (GHZ):           2.0396948           1.9739407           1.9252755
 Leave Link  202 at Thu May 23 14:43:08 2024, MaxMem= 26843545600 cpu:               0.4 elap:               0.0
 (Enter /gpfs/fs1/soft/improv/software/custom-built/gaussian/g16/l301.exe)
 Standard basis: 6-31+G(2df,p) (6D, 7F)
 Ernie: Thresh=  0.10000D-02 Tol=  0.10000D-05 Strict=F.
 There are   347 symmetry adapted cartesian basis functions of A   symmetry.
 There are   317 symmetry adapted basis functions of A   symmetry.
   317 basis functions,   514 primitive gaussians,   347 cartesian basis functions
    43 alpha electrons       39 beta electrons
       nuclear repulsion energy       751.0997080055 Hartrees.
 IExCor= 3909 DFT=T Ex+Corr=HSEH1PBE ExCW=0 ScaHFX=  0.250000
 ScaDFX=  1.000000  1.000000  1.000000  1.000000 ScalE2=  1.000000  1.000000
 IRadAn=      5 IRanWt=     -1 IRanGd=            0 ICorTp=0 IEmpDi=  4
 HFx  wShort=  0.110000 wLong=  0.000000 cFull=  0.000000 cShort=  1.000000 cLong=  0.000000
 DFx  wShort=  0.110000 wLong=  0.000000 cFull=  0.000000 cShort= -0.250000 cLong=  1.000000
 NAtoms=   19 NActive=   19 NUniq=   19 SFac= 1.00D+00 NAtFMM=   60 NAOKFM=F Big=F
 Integral buffers will be    131072 words long.
 Raffenetti 2 integral format.
 Two-electron integral symmetry is turned on.
 Leave Link  301 at Thu May 23 14:43:08 2024, MaxMem= 26843545600 cpu:               0.4 elap:               0.0
 (Enter /gpfs/fs1/soft/improv/software/custom-built/gaussian/g16/l302.exe)
 NPDir=0 NMtPBC=     1 NCelOv=     1 NCel=       1 NClECP=     1 NCelD=      1
         NCelK=      1 NCelE2=     1 NClLst=     1 CellRange=     0.0.
 One-electron integrals computed using PRISM.
 One-electron integral symmetry used in STVInt
 NBasis=   317 RedAO= T EigKep=  1.52D-05  NBF=   317
 NBsUse=   317 1.00D-06 EigRej= -1.00D+00 NBFU=   317
 Precomputing XC quadrature grid using
 IXCGrd= 4 IRadAn=           5 IRanWt=          -1 IRanGd=           0 AccXCQ= 0.00D+00.
 Generated NRdTot=       0 NPtTot=           0 NUsed=           0 NTot=          32
 NSgBfM=   347   346   347   347   347 MxSgAt=    19 MxSgA2=    19.
 Leave Link  302 at Thu May 23 14:43:08 2024, MaxMem= 26843545600 cpu:              22.1 elap:               0.3
 (Enter /gpfs/fs1/soft/improv/software/custom-built/gaussian/g16/l303.exe)
 DipDrv:  MaxL=1.
 Leave Link  303 at Thu May 23 14:43:08 2024, MaxMem= 26843545600 cpu:               1.0 elap:               0.0
 (Enter /gpfs/fs1/soft/improv/software/custom-built/gaussian/g16/l401.exe)
 ExpMin= 1.19D-02 ExpMax= 5.63D+04 ExpMxC= 8.46D+03 IAcc=3 IRadAn=         5 AccDes= 0.00D+00
 Harris functional with IExCor= 1009 and IRadAn=       5 diagonalized for initial guess.
 HarFok:  IExCor= 1009 AccDes= 0.00D+00 IRadAn=         5 IDoV= 1 UseB2=F ITyADJ=14
 ICtDFT=  3500011 ScaDFX=  1.000000  1.000000  1.000000  1.000000
 FoFCou: FMM=F IPFlag=           0 FMFlag=      100000 FMFlg1=           0
         NFxFlg=           0 DoJE=T BraDBF=F KetDBF=T FulRan=T
         wScrn=  0.000000 ICntrl=       500 IOpCl=  0 I1Cent=   200000004 NGrid=           0
         NMat0=    1 NMatS0=      1 NMatT0=    0 NMatD0=    1 NMtDS0=    0 NMtDT0=    0
 Petite list used in FoFCou.
 Harris En= -1608.06367571043    
 JPrj=0 DoOrth=F DoCkMO=F.
 Initial guess <Sx>= 0.0000 <Sy>= 0.0000 <Sz>= 2.0000 <S**2>= 6.0000 S= 2.0000
 Leave Link  401 at Thu May 23 14:43:09 2024, MaxMem= 26843545600 cpu:              38.1 elap:               0.4
 (Enter /gpfs/fs1/soft/improv/software/custom-built/gaussian/g16/l502.exe)
 Integral symmetry usage will be decided dynamically.
 UHF open shell SCF:
 Using DIIS extrapolation, IDIIS=  1040.
 NGot= 26843545600 LenX= 26843256607 LenY= 26843135757
 Requested convergence on RMS density matrix=1.00D-08 within  50 cycles.
 Requested convergence on MAX density matrix=1.00D-06.
 Requested convergence on             energy=1.00D-06.
 No special actions if energy rises.
 Fock matrices will be formed incrementally for  20 cycles.

 Cycle   1  Pass 1  IDiag  1:
 FoFJK:  IHMeth= 1 ICntrl=       0 DoSepK=T KAlg= 0 I1Cent=           0 FoldK=F
 IRaf=         1 NMat=       1 IRICut=       1 DoRegI=T DoRafI=F ISym2E= 0 IDoP0=0 IntGTp=1.
 FoFCou: FMM=F IPFlag=           0 FMFlag=      100000 FMFlg1=           0
         NFxFlg=           0 DoJE=T BraDBF=F KetDBF=F FulRan=T
         wScrn=  0.000000 ICntrl=       500 IOpCl=  0 I1Cent=           0 NGrid=           0
         NMat0=    1 NMatS0=      1 NMatT0=    0 NMatD0=    1 NMtDS0=    0 NMtDT0=    0
 Symmetry not used in FoFCou.
 E= -1606.68055967555    
 DIIS: error= 4.32D-02 at cycle   1 NSaved=   1.
 NSaved= 1 IEnMin= 1 EnMin= -1606.68055967555     IErMin= 1 ErrMin= 4.32D-02
 ErrMax= 4.32D-02  0.00D+00 EMaxC= 1.00D-01 BMatC= 5.37D+00 BMatP= 5.37D+00
 IDIUse=3 WtCom= 5.68D-01 WtEn= 4.32D-01
 Coeff-Com:  0.100D+01
 Coeff-En:   0.100D+01
 Coeff:      0.100D+01
 Gap=    -0.645 Goal=   None    Shift=    0.000
 Gap=    -0.446 Goal=   None    Shift=    0.000
 GapD=   -0.645 DampG=0.250 DampE=0.250 DampFc=0.1250 IDamp=-1.
 Damping current iteration by 1.25D-01
 RMSDP=2.78D-02 MaxDP=2.85D+00              OVMax= 9.34D-01

 Cycle   2  Pass 1  IDiag  1:
 RMSU=  3.48D-03    CP:  9.99D-01
 E= -1606.97845162189     Delta-E=       -0.297891946341 Rises=F Damp=T
 DIIS: error= 1.89D-02 at cycle   2 NSaved=   2.
 NSaved= 2 IEnMin= 2 EnMin= -1606.97845162189     IErMin= 2 ErrMin= 1.89D-02
 ErrMax= 1.89D-02  0.00D+00 EMaxC= 1.00D-01 BMatC= 1.09D+00 BMatP= 5.37D+00
 IDIUse=3 WtCom= 8.11D-01 WtEn= 1.89D-01
 Coeff-Com: -0.575D+00 0.157D+01
 Coeff-En:   0.000D+00 0.100D+01
 Coeff:     -0.466D+00 0.147D+01
 Gap=    -0.047 Goal=   None    Shift=    0.000
 Gap=     0.030 Goal=   None    Shift=    0.000
 RMSDP=1.23D-02 MaxDP=2.57D+00 DE=-2.98D-01 OVMax= 9.60D-01

 Cycle   3  Pass 1  IDiag  1:
 RMSU=  9.95D-03    CP:  7.12D-01  1.61D+00
 E= -1607.56035556334     Delta-E=       -0.581903941455 Rises=F Damp=F
 DIIS: error= 1.05D-02 at cycle   3 NSaved=   3.
 NSaved= 3 IEnMin= 3 EnMin= -1607.56035556334     IErMin= 3 ErrMin= 1.05D-02
 ErrMax= 1.05D-02  0.00D+00 EMaxC= 1.00D-01 BMatC= 3.64D-01 BMatP= 1.09D+00
 IDIUse=3 WtCom= 8.95D-01 WtEn= 1.05D-01
 Coeff-Com: -0.300D+00 0.772D+00 0.528D+00
 Coeff-En:   0.000D+00 0.000D+00 0.100D+01
 Coeff:     -0.268D+00 0.690D+00 0.578D+00
 Gap=     0.055 Goal=   None    Shift=    0.000
 Gap=     0.273 Goal=   None    Shift=    0.000
 RMSDP=2.01D-03 MaxDP=9.85D-02 DE=-5.82D-01 OVMax= 1.20D-01

 Cycle   4  Pass 1  IDiag  1:
 RMSU=  1.95D-03    CP:  7.12D-01  1.67D+00  9.56D-01
 E= -1607.61386982660     Delta-E=       -0.053514263255 Rises=F Damp=F
 DIIS: error= 5.43D-03 at cycle   4 NSaved=   4.
 NSaved= 4 IEnMin= 4 EnMin= -1607.61386982660     IErMin= 4 ErrMin= 5.43D-03
 ErrMax= 5.43D-03  0.00D+00 EMaxC= 1.00D-01 BMatC= 9.05D-02 BMatP= 3.64D-01
 IDIUse=3 WtCom= 9.46D-01 WtEn= 5.43D-02
 Coeff-Com: -0.150D+00 0.240D+00 0.275D+00 0.635D+00
 Coeff-En:   0.000D+00 0.000D+00 0.458D-01 0.954D+00
 Coeff:     -0.142D+00 0.227D+00 0.262D+00 0.653D+00
 Gap=     0.094 Goal=   None    Shift=    0.000
 Gap=     0.258 Goal=   None    Shift=    0.000
 RMSDP=6.64D-04 MaxDP=4.03D-02 DE=-5.35D-02 OVMax= 2.46D-02

 Cycle   5  Pass 1  IDiag  1:
 RMSU=  6.36D-04    CP:  7.12D-01  1.72D+00  9.49D-01  1.00D+00
 E= -1607.62757253237     Delta-E=       -0.013702705771 Rises=F Damp=F
 DIIS: error= 1.90D-03 at cycle   5 NSaved=   5.
 NSaved= 5 IEnMin= 5 EnMin= -1607.62757253237     IErMin= 5 ErrMin= 1.90D-03
 ErrMax= 1.90D-03  0.00D+00 EMaxC= 1.00D-01 BMatC= 9.88D-03 BMatP= 9.05D-02
 IDIUse=3 WtCom= 9.81D-01 WtEn= 1.90D-02
 Coeff-Com: -0.561D-01 0.556D-01-0.488D-01 0.795D-01 0.970D+00
 Coeff-En:   0.000D+00 0.000D+00 0.000D+00 0.000D+00 0.100D+01
 Coeff:     -0.551D-01 0.546D-01-0.479D-01 0.779D-01 0.970D+00
 Gap=     0.104 Goal=   None    Shift=    0.000
 Gap=     0.254 Goal=   None    Shift=    0.000
 RMSDP=2.60D-04 MaxDP=1.13D-02 DE=-1.37D-02 OVMax= 1.95D-02

 Cycle   6  Pass 1  IDiag  1:
 RMSU=  2.15D-04    CP:  7.11D-01  1.72D+00  9.46D-01  1.07D+00  1.02D+00
 E= -1607.62905249140     Delta-E=       -0.001479959030 Rises=F Damp=F
 DIIS: error= 7.59D-04 at cycle   6 NSaved=   6.
 NSaved= 6 IEnMin= 6 EnMin= -1607.62905249140     IErMin= 6 ErrMin= 7.59D-04
 ErrMax= 7.59D-04  0.00D+00 EMaxC= 1.00D-01 BMatC= 2.71D-03 BMatP= 9.88D-03
 IDIUse=3 WtCom= 9.92D-01 WtEn= 7.59D-03
 Coeff-Com: -0.277D-01 0.430D-01-0.540D-01-0.776D-01 0.488D+00 0.629D+00
 Coeff-En:   0.000D+00 0.000D+00 0.000D+00 0.000D+00 0.000D+00 0.100D+01
 Coeff:     -0.275D-01 0.427D-01-0.536D-01-0.770D-01 0.484D+00 0.631D+00
 Gap=     0.102 Goal=   None    Shift=    0.000
 Gap=     0.255 Goal=   None    Shift=    0.000
 RMSDP=1.20D-04 MaxDP=5.40D-03 DE=-1.48D-03 OVMax= 7.80D-03

 Cycle   7  Pass 1  IDiag  1:
 RMSU=  9.64D-05    CP:  7.12D-01  1.73D+00  9.43D-01  1.08D+00  1.08D+00
                    CP:  8.56D-01
 E= -1607.62948246982     Delta-E=       -0.000429978421 Rises=F Damp=F
 DIIS: error= 3.00D-04 at cycle   7 NSaved=   7.
 NSaved= 7 IEnMin= 7 EnMin= -1607.62948246982     IErMin= 7 ErrMin= 3.00D-04
 ErrMax= 3.00D-04  0.00D+00 EMaxC= 1.00D-01 BMatC= 3.45D-04 BMatP= 2.71D-03
 IDIUse=3 WtCom= 9.97D-01 WtEn= 3.00D-03
 Coeff-Com: -0.412D-02 0.466D-02-0.123D-01-0.332D-01-0.515D-02 0.243D+00
 Coeff-Com:  0.807D+00
 Coeff-En:   0.000D+00 0.000D+00 0.000D+00 0.000D+00 0.000D+00 0.000D+00
 Coeff-En:   0.100D+01
 Coeff:     -0.411D-02 0.464D-02-0.122D-01-0.331D-01-0.514D-02 0.242D+00
 Coeff:      0.808D+00
 Gap=     0.102 Goal=   None    Shift=    0.000
 Gap=     0.255 Goal=   None    Shift=    0.000
 RMSDP=7.27D-05 MaxDP=3.72D-03 DE=-4.30D-04 OVMax= 1.16D-02

 Cycle   8  Pass 1  IDiag  1:
 RMSU=  5.44D-05    CP:  7.12D-01  1.74D+00  9.42D-01  1.09D+00  1.12D+00
                    CP:  9.73D-01  1.00D+00
 E= -1607.62957895471     Delta-E=       -0.000096484891 Rises=F Damp=F
 DIIS: error= 1.55D-04 at cycle   8 NSaved=   8.
 NSaved= 8 IEnMin= 8 EnMin= -1607.62957895471     IErMin= 8 ErrMin= 1.55D-04
 ErrMax= 1.55D-04  0.00D+00 EMaxC= 1.00D-01 BMatC= 3.48D-05 BMatP= 3.45D-04
 IDIUse=3 WtCom= 9.98D-01 WtEn= 1.55D-03
 Coeff-Com: -0.583D-03 0.442D-03 0.125D-02-0.478D-02-0.470D-01 0.227D-01
 Coeff-Com:  0.311D+00 0.717D+00
 Coeff-En:   0.000D+00 0.000D+00 0.000D+00 0.000D+00 0.000D+00 0.000D+00
 Coeff-En:   0.000D+00 0.100D+01
 Coeff:     -0.582D-03 0.441D-03 0.125D-02-0.478D-02-0.469D-01 0.226D-01
 Coeff:      0.310D+00 0.718D+00
 Gap=     0.102 Goal=   None    Shift=    0.000
 Gap=     0.255 Goal=   None    Shift=    0.000
 RMSDP=4.16D-05 MaxDP=2.50D-03 DE=-9.65D-05 OVMax= 9.45D-03

 Cycle   9  Pass 1  IDiag  1:
 RMSU=  2.38D-05    CP:  7.12D-01  1.74D+00  9.41D-01  1.09D+00  1.12D+00
                    CP:  1.03D+00  1.21D+00  1.44D+00
 E= -1607.62960994564     Delta-E=       -0.000030990929 Rises=F Damp=F
 DIIS: error= 1.44D-04 at cycle   9 NSaved=   9.
 NSaved= 9 IEnMin= 9 EnMin= -1607.62960994564     IErMin= 9 ErrMin= 1.44D-04
 ErrMax= 1.44D-04  0.00D+00 EMaxC= 1.00D-01 BMatC= 1.76D-05 BMatP= 3.48D-05
 IDIUse=3 WtCom= 9.99D-01 WtEn= 1.44D-03
 Coeff-Com: -0.875D-04 0.355D-03 0.323D-02 0.257D-02-0.250D-01-0.299D-01
 Coeff-Com:  0.609D-01 0.375D+00 0.613D+00
 Coeff-En:   0.000D+00 0.000D+00 0.000D+00 0.000D+00 0.000D+00 0.000D+00
 Coeff-En:   0.000D+00 0.000D+00 0.100D+01
 Coeff:     -0.874D-04 0.354D-03 0.322D-02 0.257D-02-0.250D-01-0.299D-01
 Coeff:      0.608D-01 0.375D+00 0.613D+00
 Gap=     0.102 Goal=   None    Shift=    0.000
 Gap=     0.255 Goal=   None    Shift=    0.000
 RMSDP=3.60D-05 MaxDP=2.27D-03 DE=-3.10D-05 OVMax= 8.49D-03

 Cycle  10  Pass 1  IDiag  1:
 RMSU=  9.29D-06    CP:  7.12D-01  1.74D+00  9.41D-01  1.09D+00  1.12D+00
                    CP:  1.08D+00  1.37D+00  1.89D+00  1.67D+00
 E= -1607.62963507407     Delta-E=       -0.000025128430 Rises=F Damp=F
 DIIS: error= 1.48D-04 at cycle  10 NSaved=  10.
 NSaved=10 IEnMin=10 EnMin= -1607.62963507407     IErMin= 9 ErrMin= 1.44D-04
 ErrMax= 1.48D-04  0.00D+00 EMaxC= 1.00D-01 BMatC= 1.34D-05 BMatP= 1.76D-05
 IDIUse=3 WtCom= 9.99D-01 WtEn= 1.44D-03
 Coeff-Com:  0.302D-03-0.331D-03 0.246D-02 0.369D-02-0.574D-02-0.319D-01
 Coeff-Com: -0.340D-01 0.269D-01 0.262D+00 0.777D+00
 Coeff-En:   0.000D+00 0.000D+00 0.000D+00 0.000D+00 0.000D+00 0.000D+00
 Coeff-En:   0.000D+00 0.000D+00 0.000D+00 0.100D+01
 Coeff:      0.302D-03-0.330D-03 0.246D-02 0.369D-02-0.573D-02-0.318D-01
 Coeff:     -0.339D-01 0.269D-01 0.262D+00 0.777D+00
 Gap=     0.102 Goal=   None    Shift=    0.000
 Gap=     0.256 Goal=   None    Shift=    0.000
 RMSDP=4.64D-05 MaxDP=2.93D-03 DE=-2.51D-05 OVMax= 1.11D-02

 Cycle  11  Pass 1  IDiag  1:
 RMSU=  4.15D-06    CP:  7.12D-01  1.74D+00  9.41D-01  1.09D+00  1.12D+00
                    CP:  1.13D+00  1.56D+00  2.49D+00  2.61D+00  1.80D+00
 E= -1607.62966660436     Delta-E=       -0.000031530289 Rises=F Damp=F
 DIIS: error= 1.47D-04 at cycle  11 NSaved=  11.
 NSaved=11 IEnMin=11 EnMin= -1607.62966660436     IErMin= 9 ErrMin= 1.44D-04
 ErrMax= 1.47D-04  0.00D+00 EMaxC= 1.00D-01 BMatC= 1.30D-05 BMatP= 1.34D-05
 IDIUse=3 WtCom= 9.99D-01 WtEn= 1.44D-03
 Coeff-Com:  0.233D-03-0.248D-03 0.201D-02 0.261D-02-0.449D-02-0.202D-01
 Coeff-Com: -0.828D-02-0.451D-03-0.799D-02 0.762D-01 0.961D+00
 Coeff-En:   0.000D+00 0.000D+00 0.000D+00 0.000D+00 0.000D+00 0.000D+00
 Coeff-En:   0.000D+00 0.000D+00 0.000D+00 0.000D+00 0.100D+01
 Coeff:      0.233D-03-0.248D-03 0.201D-02 0.260D-02-0.448D-02-0.202D-01
 Coeff:     -0.827D-02-0.450D-03-0.798D-02 0.761D-01 0.961D+00
 Gap=     0.102 Goal=   None    Shift=    0.000
 Gap=     0.256 Goal=   None    Shift=    0.000
 RMSDP=5.12D-05 MaxDP=3.17D-03 DE=-3.15D-05 OVMax= 1.22D-02

 Cycle  12  Pass 1  IDiag  1:
 RMSU=  1.78D-05    CP:  7.12D-01  1.74D+00  9.40D-01  1.10D+00  1.12D+00
                    CP:  1.19D+00  1.77D+00  3.00D+00  3.00D+00  2.83D+00
                    CP:  2.03D+00
 E= -1607.62970104951     Delta-E=       -0.000034445147 Rises=F Damp=F
 DIIS: error= 1.44D-04 at cycle  12 NSaved=  12.
 NSaved=12 IEnMin=12 EnMin= -1607.62970104951     IErMin=12 ErrMin= 1.44D-04
 ErrMax= 1.44D-04  0.00D+00 EMaxC= 1.00D-01 BMatC= 1.28D-05 BMatP= 1.30D-05
 IDIUse=3 WtCom= 9.99D-01 WtEn= 1.44D-03
 Coeff-Com: -0.270D-03 0.474D-03 0.291D-02 0.240D-02-0.179D-01-0.130D-01
 Coeff-Com:  0.709D-01 0.144D+00-0.186D+00-0.117D+01-0.300D+01 0.517D+01
 Coeff-En:   0.000D+00 0.000D+00 0.000D+00 0.000D+00 0.000D+00 0.000D+00
 Coeff-En:   0.000D+00 0.000D+00 0.000D+00 0.000D+00 0.000D+00 0.100D+01
 Coeff:     -0.270D-03 0.473D-03 0.291D-02 0.239D-02-0.178D-01-0.130D-01
 Coeff:      0.708D-01 0.144D+00-0.186D+00-0.117D+01-0.299D+01 0.516D+01
 Gap=     0.103 Goal=   None    Shift=    0.000
 Gap=     0.258 Goal=   None    Shift=    0.000
 RMSDP=3.02D-04 MaxDP=1.79D-02 DE=-3.44D-05 OVMax= 7.19D-02

 Cycle  13  Pass 1  IDiag  1:
 RMSU=  2.34D-04    CP:  7.12D-01  1.73D+00  9.38D-01  1.11D+00  1.14D+00
                    CP:  1.53D+00  3.00D+00  3.00D+00  3.00D+00  3.00D+00
                    CP:  3.00D+00  3.00D+00
 E= -1607.62989647807     Delta-E=       -0.000195428568 Rises=F Damp=F
 DIIS: error= 1.13D-04 at cycle  13 NSaved=  13.
 NSaved=13 IEnMin=13 EnMin= -1607.62989647807     IErMin=13 ErrMin= 1.13D-04
 ErrMax= 1.13D-04  0.00D+00 EMaxC= 1.00D-01 BMatC= 1.36D-05 BMatP= 1.28D-05
 IDIUse=3 WtCom= 9.99D-01 WtEn= 1.13D-03
 Coeff-Com: -0.240D-03 0.408D-03 0.788D-02 0.127D-01-0.290D-01-0.732D-01
 Coeff-Com: -0.613D-01 0.150D+00 0.412D+00 0.794D+00-0.295D+01 0.173D+01
 Coeff-Com:  0.100D+01
 Coeff-En:   0.000D+00 0.000D+00 0.000D+00 0.000D+00 0.000D+00 0.000D+00
 Coeff-En:   0.000D+00 0.000D+00 0.000D+00 0.000D+00 0.000D+00 0.000D+00
 Coeff-En:   0.100D+01
 Coeff:     -0.240D-03 0.408D-03 0.787D-02 0.127D-01-0.289D-01-0.731D-01
 Coeff:     -0.612D-01 0.150D+00 0.412D+00 0.793D+00-0.294D+01 0.173D+01
 Coeff:      0.100D+01
 Gap=     0.103 Goal=   None    Shift=    0.000
 Gap=     0.259 Goal=   None    Shift=    0.000
 RMSDP=7.10D-05 MaxDP=4.66D-03 DE=-1.95D-04 OVMax= 1.69D-02

 Cycle  14  Pass 1  IDiag  1:
 RMSU=  2.89D-05    CP:  7.12D-01  1.73D+00  9.37D-01  1.11D+00  1.14D+00
                    CP:  1.60D+00  3.00D+00  3.00D+00  3.00D+00  3.00D+00
                    CP:  3.00D+00  3.00D+00  1.27D+00
 E= -1607.62994023175     Delta-E=       -0.000043753673 Rises=F Damp=F
 DIIS: error= 1.12D-04 at cycle  14 NSaved=  14.
 NSaved=14 IEnMin=14 EnMin= -1607.62994023175     IErMin=14 ErrMin= 1.12D-04
 ErrMax= 1.12D-04  0.00D+00 EMaxC= 1.00D-01 BMatC= 1.18D-05 BMatP= 1.28D-05
 IDIUse=3 WtCom= 9.99D-01 WtEn= 1.12D-03
 Coeff-Com:  0.120D-03-0.353D-03 0.110D-01 0.196D-01-0.383D-01-0.115D+00
 Coeff-Com: -0.144D+00 0.128D+00 0.723D+00 0.199D+01-0.323D+01-0.779D+00
 Coeff-Com:  0.115D+01 0.129D+01
 Coeff-En:   0.000D+00 0.000D+00 0.000D+00 0.000D+00 0.000D+00 0.000D+00
 Coeff-En:   0.000D+00 0.000D+00 0.000D+00 0.000D+00 0.000D+00 0.000D+00
 Coeff-En:   0.000D+00 0.100D+01
 Coeff:      0.119D-03-0.353D-03 0.110D-01 0.196D-01-0.383D-01-0.115D+00
 Coeff:     -0.144D+00 0.128D+00 0.723D+00 0.199D+01-0.323D+01-0.778D+00
 Coeff:      0.115D+01 0.129D+01
 Gap=     0.104 Goal=   None    Shift=    0.000
 Gap=     0.261 Goal=   None    Shift=    0.000
 RMSDP=3.97D-04 MaxDP=2.83D-02 DE=-4.38D-05 OVMax= 9.43D-02

 Cycle  15  Pass 1  IDiag  1:
 RMSU=  1.15D-04    CP:  7.12D-01  1.73D+00  9.32D-01  1.12D+00  1.15D+00
                    CP:  2.03D+00  3.00D+00  3.00D+00  3.00D+00  3.00D+00
                    CP:  3.00D+00  3.00D+00  2.73D+00  3.00D+00
 E= -1607.63015264501     Delta-E=       -0.000212413260 Rises=F Damp=F
 DIIS: error= 1.54D-04 at cycle  15 NSaved=  15.
 NSaved=15 IEnMin=15 EnMin= -1607.63015264501     IErMin=14 ErrMin= 1.12D-04
 ErrMax= 1.54D-04  0.00D+00 EMaxC= 1.00D-01 BMatC= 3.03D-05 BMatP= 1.18D-05
 IDIUse=3 WtCom= 9.99D-01 WtEn= 1.12D-03
 Coeff-Com:  0.536D-03-0.693D-03 0.748D-02 0.154D-01-0.104D-01-0.844D-01
 Coeff-Com: -0.180D+00-0.140D+00 0.331D+00 0.192D+01 0.381D+01-0.583D+01
 Coeff-Com: -0.968D+00 0.141D+01 0.723D+00
 Coeff-En:   0.000D+00 0.000D+00 0.000D+00 0.000D+00 0.000D+00 0.000D+00
 Coeff-En:   0.000D+00 0.000D+00 0.000D+00 0.000D+00 0.000D+00 0.000D+00
 Coeff-En:   0.000D+00 0.000D+00 0.100D+01
 Coeff:      0.535D-03-0.692D-03 0.747D-02 0.154D-01-0.104D-01-0.843D-01
 Coeff:     -0.180D+00-0.140D+00 0.331D+00 0.192D+01 0.381D+01-0.583D+01
 Coeff:     -0.967D+00 0.140D+01 0.724D+00
 Gap=     0.098 Goal=   None    Shift=    0.000
 Gap=     0.260 Goal=   None    Shift=    0.000
 RMSDP=2.76D-04 MaxDP=1.92D-02 DE=-2.12D-04 OVMax= 6.51D-02

 Cycle  16  Pass 1  IDiag  1:
 RMSU=  1.36D-05    CP:  7.12D-01  1.73D+00  9.36D-01  1.11D+00  1.14D+00
                    CP:  1.72D+00  3.00D+00  3.00D+00  3.00D+00  3.00D+00
                    CP:  3.00D+00  3.00D+00  1.72D+00  2.81D+00 -1.77D-03
 E= -1607.63000348653     Delta-E=        0.000149158475 Rises=F Damp=F
 DIIS: error= 3.20D-04 at cycle  16 NSaved=  16.
 NSaved=16 IEnMin=15 EnMin= -1607.63015264501     IErMin=14 ErrMin= 1.12D-04
 ErrMax= 3.20D-04  0.00D+00 EMaxC= 1.00D-01 BMatC= 5.71D-05 BMatP= 1.18D-05
 IDIUse=3 WtCom= 9.99D-01 WtEn= 1.12D-03
 Rare condition: small coef for last iteration:  0.000D+00
 Coeff-Com:  0.734D-03-0.748D-03-0.213D-02-0.347D-02 0.109D-01 0.297D-01
 Coeff-Com:  0.686D-01-0.157D+00-0.734D+00-0.162D+01 0.177D+01 0.398D+00
 Coeff-Com: -0.276D+01 0.663D+00 0.212D+01 0.121D+01
 Coeff-En:   0.000D+00 0.000D+00 0.000D+00 0.000D+00 0.000D+00 0.000D+00
 Coeff-En:   0.000D+00 0.000D+00 0.000D+00 0.000D+00 0.000D+00 0.000D+00
 Coeff-En:   0.000D+00 0.000D+00 0.000D+00 0.100D+01
 Coeff:      0.734D-03-0.748D-03-0.213D-02-0.347D-02 0.109D-01 0.297D-01
 Coeff:      0.686D-01-0.157D+00-0.734D+00-0.162D+01 0.177D+01 0.398D+00
 Coeff:     -0.276D+01 0.663D+00 0.212D+01 0.121D+01
 Gap=     0.106 Goal=   None    Shift=    0.000
 Gap=     0.268 Goal=   None    Shift=    0.000
 RMSDP=1.15D-03 MaxDP=9.82D-02 DE= 1.49D-04 OVMax= 2.72D-01

 Cycle  17  Pass 1  IDiag  1:
 RMSU=  6.89D-04    CP:  7.12D-01  1.72D+00  9.16D-01  1.12D+00  1.17D+00
                    CP:  2.83D+00  3.00D+00  3.00D+00  3.00D+00  3.00D+00
                    CP:  3.00D+00  3.00D+00  3.00D+00  3.00D+00  3.00D+00
                    CP:  3.00D+00
 E= -1607.63028695522     Delta-E=       -0.000283468691 Rises=F Damp=F
 DIIS: error= 1.39D-03 at cycle  17 NSaved=  17.
 NSaved=17 IEnMin=17 EnMin= -1607.63028695522     IErMin=14 ErrMin= 1.12D-04
 ErrMax= 1.39D-03  0.00D+00 EMaxC= 1.00D-01 BMatC= 9.19D-04 BMatP= 1.18D-05
 IDIUse=3 WtCom= 9.99D-01 WtEn= 1.12D-03
 Coeff-Com:  0.530D-03-0.543D-03-0.226D-02-0.390D-02 0.956D-02 0.328D-01
 Coeff-Com:  0.775D-01-0.123D+00-0.698D+00-0.170D+01 0.105D+01 0.126D+01
 Coeff-Com: -0.230D+01 0.517D+00 0.169D+01 0.114D+01 0.444D-01
 Coeff-En:   0.000D+00 0.000D+00 0.000D+00 0.000D+00 0.000D+00 0.000D+00
 Coeff-En:   0.000D+00 0.000D+00 0.000D+00 0.000D+00 0.000D+00 0.000D+00
 Coeff-En:   0.000D+00 0.000D+00 0.000D+00 0.000D+00 0.100D+01
 Coeff:      0.529D-03-0.543D-03-0.225D-02-0.390D-02 0.955D-02 0.327D-01
 Coeff:      0.774D-01-0.123D+00-0.698D+00-0.169D+01 0.105D+01 0.126D+01
 Coeff:     -0.230D+01 0.517D+00 0.169D+01 0.114D+01 0.455D-01
 Gap=     0.119 Goal=   None    Shift=    0.000
 Gap=     0.263 Goal=   None    Shift=    0.000
 RMSDP=1.27D-04 MaxDP=1.20D-02 DE=-2.83D-04 OVMax= 2.96D-02

 Cycle  18  Pass 1  IDiag  1:
 RMSU=  4.14D-05    CP:  7.12D-01  1.72D+00  9.19D-01  1.12D+00  1.17D+00
                    CP:  2.73D+00  3.00D+00  3.00D+00  3.00D+00  3.00D+00
                    CP:  3.00D+00  3.00D+00  3.00D+00  3.00D+00  3.00D+00
                    CP:  3.00D+00  8.32D-01
 E= -1607.63033317740     Delta-E=       -0.000046222179 Rises=F Damp=F
 DIIS: error= 1.03D-03 at cycle  18 NSaved=  18.
 NSaved=18 IEnMin=18 EnMin= -1607.63033317740     IErMin=14 ErrMin= 1.12D-04
 ErrMax= 1.03D-03  0.00D+00 EMaxC= 1.00D-01 BMatC= 5.27D-04 BMatP= 1.18D-05
 IDIUse=3 WtCom= 9.99D-01 WtEn= 1.12D-03
 Coeff-Com:  0.502D-03-0.516D-03-0.229D-02-0.397D-02 0.100D-01 0.350D-01
 Coeff-Com:  0.753D-01-0.117D+00-0.686D+00-0.170D+01 0.123D+01 0.131D+01
 Coeff-Com: -0.221D+01 0.428D+00 0.128D+01 0.113D+01-0.265D+00 0.487D+00
 Coeff-En:   0.000D+00 0.000D+00 0.000D+00 0.000D+00 0.000D+00 0.000D+00
 Coeff-En:   0.000D+00 0.000D+00 0.000D+00 0.000D+00 0.000D+00 0.000D+00
 Coeff-En:   0.000D+00 0.000D+00 0.000D+00 0.000D+00 0.000D+00 0.100D+01
 Coeff:      0.501D-03-0.516D-03-0.229D-02-0.396D-02 0.100D-01 0.350D-01
 Coeff:      0.752D-01-0.117D+00-0.685D+00-0.170D+01 0.123D+01 0.130D+01
 Coeff:     -0.221D+01 0.428D+00 0.128D+01 0.113D+01-0.264D+00 0.488D+00
 Gap=     0.115 Goal=   None    Shift=    0.000
 Gap=     0.263 Goal=   None    Shift=    0.000
 RMSDP=6.37D-05 MaxDP=5.59D-03 DE=-4.62D-05 OVMax= 1.45D-02

 Cycle  19  Pass 1  IDiag  1:
 RMSU=  6.18D-06    CP:  7.12D-01  1.72D+00  9.20D-01  1.12D+00  1.16D+00
                    CP:  2.68D+00  3.00D+00  3.00D+00  3.00D+00  3.00D+00
                    CP:  3.00D+00  3.00D+00  3.00D+00  3.00D+00  3.00D+00
                    CP:  3.00D+00  7.48D-01  1.47D+00
 E= -1607.63036131997     Delta-E=       -0.000028142566 Rises=F Damp=F
 DIIS: error= 7.62D-04 at cycle  19 NSaved=  19.
 NSaved=19 IEnMin=19 EnMin= -1607.63036131997     IErMin=14 ErrMin= 1.12D-04
 ErrMax= 7.62D-04  0.00D+00 EMaxC= 1.00D-01 BMatC= 3.05D-04 BMatP= 1.18D-05
 IDIUse=3 WtCom= 9.99D-01 WtEn= 1.12D-03
 Coeff-Com:  0.646D-03-0.689D-03-0.144D-02-0.294D-02 0.707D-02 0.312D-01
 Coeff-Com:  0.585D-01-0.677D-01-0.531D+00-0.145D+01 0.949D+00 0.154D+01
 Coeff-Com: -0.192D+01 0.122D+00-0.819D-01 0.830D+00-0.111D-01-0.357D+01
 Coeff-Com:  0.510D+01
 Coeff-En:   0.000D+00 0.000D+00 0.000D+00 0.000D+00 0.000D+00 0.000D+00
 Coeff-En:   0.000D+00 0.000D+00 0.000D+00 0.000D+00 0.000D+00 0.000D+00
 Coeff-En:   0.000D+00 0.000D+00 0.000D+00 0.000D+00 0.000D+00 0.000D+00
 Coeff-En:   0.100D+01
 Coeff:      0.646D-03-0.688D-03-0.144D-02-0.293D-02 0.706D-02 0.311D-01
 Coeff:      0.584D-01-0.676D-01-0.530D+00-0.145D+01 0.948D+00 0.153D+01
 Coeff:     -0.192D+01 0.122D+00-0.818D-01 0.829D+00-0.111D-01-0.356D+01
 Coeff:      0.509D+01
 Gap=     0.116 Goal=   None    Shift=    0.000
 Gap=     0.265 Goal=   None    Shift=    0.000
 RMSDP=4.10D-04 MaxDP=4.12D-02 DE=-2.81D-05 OVMax= 9.75D-02

 Cycle  20  Pass 1  IDiag  1:
 RMSU=  4.91D-05    CP:  7.12D-01  1.72D+00  9.12D-01  1.11D+00  1.16D+00
                    CP:  2.97D+00  3.00D+00  3.00D+00  3.00D+00  3.00D+00
                    CP:  3.00D+00  3.00D+00  3.00D+00  3.00D+00  3.00D+00
                    CP:  3.00D+00  1.28D+00 -1.77D+00  3.00D+00
 E= -1607.63043461503     Delta-E=       -0.000073295065 Rises=F Damp=F
 DIIS: error= 9.85D-04 at cycle  20 NSaved=  20.
 NSaved=20 IEnMin=20 EnMin= -1607.63043461503     IErMin=14 ErrMin= 1.12D-04
 ErrMax= 9.85D-04  0.00D+00 EMaxC= 1.00D-01 BMatC= 4.48D-04 BMatP= 1.18D-05
 IDIUse=3 WtCom= 9.99D-01 WtEn= 1.12D-03
 Coeff-Com: -0.515D-04 0.115D-03 0.875D-03 0.111D-02-0.393D-02-0.824D-02
 Coeff-Com: -0.681D-02 0.134D-01 0.856D-01 0.223D+00-0.975D+00 0.148D+00
 Coeff-Com:  0.683D-01 0.100D+00-0.317D+00-0.321D-01-0.106D+01-0.370D+01
 Coeff-Com:  0.508D+01 0.139D+01
 Coeff-En:   0.000D+00 0.000D+00 0.000D+00 0.000D+00 0.000D+00 0.000D+00
 Coeff-En:   0.000D+00 0.000D+00 0.000D+00 0.000D+00 0.000D+00 0.000D+00
 Coeff-En:   0.000D+00 0.000D+00 0.000D+00 0.000D+00 0.000D+00 0.000D+00
 Coeff-En:   0.000D+00 0.100D+01
 Coeff:     -0.515D-04 0.114D-03 0.874D-03 0.111D-02-0.392D-02-0.823D-02
 Coeff:     -0.680D-02 0.134D-01 0.855D-01 0.223D+00-0.974D+00 0.148D+00
 Coeff:      0.682D-01 0.100D+00-0.317D+00-0.321D-01-0.106D+01-0.370D+01
 Coeff:      0.507D+01 0.139D+01
 Gap=     0.121 Goal=   None    Shift=    0.000
 Gap=     0.265 Goal=   None    Shift=    0.000
 RMSDP=3.92D-04 MaxDP=4.06D-02 DE=-7.33D-05 OVMax= 9.32D-02

 Cycle  21  Pass 1  IDiag  1:
 Restarting incremental Fock formation.
 E= -1607.63043543287     Delta-E=       -0.000000817836 Rises=F Damp=F
 DIIS: error= 1.37D-03 at cycle  21 NSaved=  20.
 NSaved=20 IEnMin=20 EnMin= -1607.63043543287     IErMin=13 ErrMin= 1.12D-04
 ErrMax= 1.37D-03  0.00D+00 EMaxC= 1.00D-01 BMatC= 8.66D-04 BMatP= 1.18D-05
 IDIUse=3 WtCom= 9.99D-01 WtEn= 1.12D-03
 Coeff-Com:  0.315D-04 0.831D-03 0.108D-02-0.375D-02-0.811D-02-0.743D-02
 Coeff-Com:  0.896D-02 0.763D-01 0.214D+00-0.897D+00 0.103D+00 0.210D-01
 Coeff-Com:  0.104D+00-0.298D+00-0.157D-01-0.107D+01-0.367D+01 0.510D+01
 Coeff-Com:  0.131D+01 0.270D-01
 Coeff-En:   0.000D+00 0.000D+00 0.000D+00 0.000D+00 0.000D+00 0.000D+00
 Coeff-En:   0.000D+00 0.000D+00 0.000D+00 0.000D+00 0.000D+00 0.000D+00
 Coeff-En:   0.000D+00 0.000D+00 0.000D+00 0.000D+00 0.000D+00 0.000D+00
 Coeff-En:   0.000D+00 0.100D+01
 Coeff:      0.315D-04 0.830D-03 0.108D-02-0.375D-02-0.810D-02-0.742D-02
 Coeff:      0.895D-02 0.762D-01 0.214D+00-0.896D+00 0.103D+00 0.210D-01
 Coeff:      0.104D+00-0.298D+00-0.156D-01-0.107D+01-0.366D+01 0.509D+01
 Coeff:      0.131D+01 0.281D-01
 Gap=     0.123 Goal=   None    Shift=    0.000
 Gap=     0.265 Goal=   None    Shift=    0.000
 RMSDP=3.10D-06 MaxDP=3.23D-04 DE=-8.18D-07 OVMax= 7.38D-04

 Cycle  22  Pass 1  IDiag  1:
 RMSU=  3.10D-06    CP:  1.00D+00
 E= -1607.63043467187     Delta-E=        0.000000761003 Rises=F Damp=F
 DIIS: error= 1.37D-03 at cycle  22 NSaved=  20.
 NSaved=20 IEnMin=19 EnMin= -1607.63043543287     IErMin=12 ErrMin= 1.12D-04
 ErrMax= 1.37D-03  0.00D+00 EMaxC= 1.00D-01 BMatC= 8.67D-04 BMatP= 1.18D-05
 IDIUse=3 WtCom= 9.99D-01 WtEn= 1.12D-03
 Rare condition: small coef for last iteration:  0.000D+00
 Coeff-Com:  0.858D-03 0.118D-02-0.378D-02-0.837D-02-0.514D-02 0.143D-01
 Coeff-Com:  0.853D-01 0.239D+00-0.105D+01 0.180D+00 0.110D+00 0.988D-01
 Coeff-Com: -0.325D+00-0.522D-01-0.111D+01-0.371D+01 0.517D+01 0.130D+01
 Coeff-Com: -0.237D+01 0.243D+01
 Coeff-En:   0.000D+00 0.000D+00 0.000D+00 0.000D+00 0.000D+00 0.000D+00
 Coeff-En:   0.000D+00 0.000D+00 0.000D+00 0.000D+00 0.000D+00 0.000D+00
 Coeff-En:   0.000D+00 0.000D+00 0.000D+00 0.000D+00 0.000D+00 0.000D+00
 Coeff-En:   0.000D+00 0.100D+01
 Coeff:      0.858D-03 0.118D-02-0.378D-02-0.837D-02-0.514D-02 0.143D-01
 Coeff:      0.853D-01 0.239D+00-0.105D+01 0.180D+00 0.110D+00 0.988D-01
 Coeff:     -0.325D+00-0.522D-01-0.111D+01-0.371D+01 0.517D+01 0.130D+01
 Coeff:     -0.237D+01 0.243D+01
 Gap=     0.123 Goal=   None    Shift=    0.000
 Gap=     0.265 Goal=   None    Shift=    0.000
 RMSDP=5.82D-06 MaxDP=6.01D-04 DE= 7.61D-07 OVMax= 1.38D-03

 Cycle  23  Pass 1  IDiag  1:
 RMSU=  7.18D-07    CP:  1.00D+00 -8.62D-01
 E= -1607.63043346403     Delta-E=        0.000001207836 Rises=F Damp=F
 DIIS: error= 1.38D-03 at cycle  23 NSaved=  20.
 NSaved=20 IEnMin=18 EnMin= -1607.63043543287     IErMin=11 ErrMin= 1.12D-04
 ErrMax= 1.38D-03  0.00D+00 EMaxC= 1.00D-01 BMatC= 8.79D-04 BMatP= 1.18D-05
 IDIUse=3 WtCom= 9.99D-01 WtEn= 1.12D-03
 Rare condition: small coef for last iteration:  0.000D+00
 Coeff-Com: -0.243D-03-0.102D-02 0.132D-02 0.137D-01-0.113D-02-0.204D-01
 Coeff-Com:  0.239D-01-0.820D+00 0.275D+00-0.441D-01 0.127D+00-0.322D+00
 Coeff-Com:  0.829D-01-0.122D+01-0.323D+01 0.484D+01 0.139D+01-0.479D+01
 Coeff-Com: -0.307D+01 0.776D+01
 Coeff-En:   0.000D+00 0.000D+00 0.000D+00 0.000D+00 0.000D+00 0.000D+00
 Coeff-En:   0.000D+00 0.000D+00 0.000D+00 0.000D+00 0.000D+00 0.000D+00
 Coeff-En:   0.000D+00 0.000D+00 0.000D+00 0.000D+00 0.000D+00 0.000D+00
 Coeff-En:   0.000D+00 0.100D+01
 Coeff:     -0.243D-03-0.102D-02 0.132D-02 0.137D-01-0.113D-02-0.204D-01
 Coeff:      0.239D-01-0.820D+00 0.275D+00-0.441D-01 0.127D+00-0.322D+00
 Coeff:      0.829D-01-0.122D+01-0.323D+01 0.484D+01 0.139D+01-0.479D+01
 Coeff:     -0.307D+01 0.776D+01
 Gap=     0.124 Goal=   None    Shift=    0.000
 Gap=     0.264 Goal=   None    Shift=    0.000
 RMSDP=3.31D-05 MaxDP=3.50D-03 DE= 1.21D-06 OVMax= 7.90D-03

 Cycle  24  Pass 1  IDiag  1:
 RMSU=  2.12D-05    CP:  1.00D+00  3.00D+00  1.88D+00
 E= -1607.63041880323     Delta-E=        0.000014660796 Rises=F Damp=F
 DIIS: error= 1.41D-03 at cycle  24 NSaved=  20.
 NSaved=20 IEnMin=17 EnMin= -1607.63043543287     IErMin=10 ErrMin= 1.12D-04
 ErrMax= 1.41D-03  0.00D+00 EMaxC= 1.00D-01 BMatC= 9.18D-04 BMatP= 1.18D-05
 IDIUse=3 WtCom= 9.99D-01 WtEn= 1.12D-03
 Large coefficients: NSaved= 20 BigCof=   11.30 CofMax=   10.00 Det=-5.93D-11
 Inversion failed.  Reducing to 19 matrices.
 Large coefficients: NSaved= 19 BigCof=   11.60 CofMax=   10.00 Det=-6.89D-11
 Inversion failed.  Reducing to 18 matrices.
 Large coefficients: NSaved= 18 BigCof=   11.44 CofMax=   10.00 Det=-6.96D-11
 Inversion failed.  Reducing to 17 matrices.
 Rare condition: small coef for last iteration:  0.000D+00
 Coeff-Com: -0.178D-01-0.334D-02 0.114D+00-0.627D+00 0.505D-01-0.723D-01
 Coeff-Com:  0.107D+00-0.355D+00 0.915D-01-0.117D+01-0.309D+01 0.472D+01
 Coeff-Com:  0.141D+01-0.180D+01-0.532D+01 0.814D+01-0.117D+01
 Coeff-En:   0.000D+00 0.000D+00 0.000D+00 0.000D+00 0.000D+00 0.000D+00
 Coeff-En:   0.000D+00 0.000D+00 0.000D+00 0.000D+00 0.000D+00 0.000D+00
 Coeff-En:   0.000D+00 0.000D+00 0.000D+00 0.000D+00 0.100D+01
 Coeff:     -0.178D-01-0.334D-02 0.114D+00-0.627D+00 0.505D-01-0.723D-01
 Coeff:      0.107D+00-0.355D+00 0.915D-01-0.117D+01-0.309D+01 0.472D+01
 Coeff:      0.141D+01-0.180D+01-0.532D+01 0.814D+01-0.117D+01
 Gap=     0.123 Goal=   None    Shift=    0.000
 Gap=     0.265 Goal=   None    Shift=    0.000
 RMSDP=2.10D-05 MaxDP=2.22D-03 DE= 1.47D-05 OVMax= 4.97D-03

 Cycle  25  Pass 1  IDiag  1:
 RMSU=  3.19D-07    CP:  1.00D+00  3.00D+00 -1.78D+00  1.49D-02
 E= -1607.63043726653     Delta-E=       -0.000018463301 Rises=F Damp=F
 DIIS: error= 1.35D-03 at cycle  25 NSaved=  18.
 NSaved=18 IEnMin=18 EnMin= -1607.63043726653     IErMin= 7 ErrMin= 1.12D-04
 ErrMax= 1.35D-03  0.00D+00 EMaxC= 1.00D-01 BMatC= 8.46D-04 BMatP= 1.18D-05
 IDIUse=3 WtCom= 9.99D-01 WtEn= 1.12D-03
 Large coefficients: NSaved= 18 BigCof=   10.46 CofMax=   10.00 Det=-1.25D-10
 Inversion failed.  Reducing to 17 matrices.
 Coeff-Com:  0.256D-01 0.138D+00-0.887D+00 0.226D+00 0.261D-01 0.863D-01
 Coeff-Com: -0.410D+00 0.648D-01-0.103D+01-0.302D+01 0.452D+01 0.149D+01
 Coeff-Com: -0.376D+01-0.410D+01 0.991D+01-0.343D+01 0.115D+01
 Coeff-En:   0.000D+00 0.000D+00 0.000D+00 0.000D+00 0.000D+00 0.000D+00
 Coeff-En:   0.000D+00 0.000D+00 0.000D+00 0.000D+00 0.000D+00 0.000D+00
 Coeff-En:   0.000D+00 0.000D+00 0.000D+00 0.000D+00 0.100D+01
 Coeff:      0.256D-01 0.138D+00-0.886D+00 0.226D+00 0.261D-01 0.862D-01
 Coeff:     -0.410D+00 0.647D-01-0.103D+01-0.302D+01 0.451D+01 0.148D+01
 Coeff:     -0.375D+01-0.409D+01 0.990D+01-0.342D+01 0.115D+01
 Gap=     0.123 Goal=   None    Shift=    0.000
 Gap=     0.265 Goal=   None    Shift=    0.000
 RMSDP=5.08D-05 MaxDP=5.32D-03 DE=-1.85D-05 OVMax= 1.21D-02

 Cycle  26  Pass 1  IDiag  1:
 RMSU=  1.37D-06    CP:  1.00D+00 -3.00D+00  1.83D+00 -1.50D+00  8.75D-01
 E= -1607.63044464993     Delta-E=       -0.000007383392 Rises=F Damp=F
 DIIS: error= 1.36D-03 at cycle  26 NSaved=  18.
 NSaved=18 IEnMin=18 EnMin= -1607.63044464993     IErMin= 6 ErrMin= 1.12D-04
 ErrMax= 1.36D-03  0.00D+00 EMaxC= 1.00D-01 BMatC= 8.63D-04 BMatP= 1.18D-05
 IDIUse=3 WtCom= 9.99D-01 WtEn= 1.12D-03
 Coeff-Com:  0.360D-01 0.159D+00-0.806D+00 0.148D+00 0.112D-01 0.661D-01
 Coeff-Com: -0.389D+00 0.291D-01-0.113D+01-0.318D+01 0.481D+01 0.122D+01
 Coeff-Com: -0.428D+01 0.386D+00 0.641D+01-0.298D+01 0.151D+01-0.101D+01
 Coeff-En:   0.000D+00 0.000D+00 0.000D+00 0.000D+00 0.000D+00 0.000D+00
 Coeff-En:   0.000D+00 0.000D+00 0.000D+00 0.000D+00 0.000D+00 0.000D+00
 Coeff-En:   0.000D+00 0.000D+00 0.000D+00 0.000D+00 0.000D+00 0.100D+01
 Coeff:      0.359D-01 0.159D+00-0.805D+00 0.148D+00 0.112D-01 0.660D-01
 Coeff:     -0.388D+00 0.290D-01-0.113D+01-0.318D+01 0.481D+01 0.121D+01
 Coeff:     -0.427D+01 0.385D+00 0.640D+01-0.298D+01 0.150D+01-0.101D+01
 Gap=     0.123 Goal=   None    Shift=    0.000
 Gap=     0.265 Goal=   None    Shift=    0.000
 RMSDP=9.37D-06 MaxDP=9.54D-04 DE=-7.38D-06 OVMax= 2.20D-03

 Cycle  27  Pass 1  IDiag  1:
 RMSU=  3.46D-07    CP:  1.00D+00 -3.00D+00 -5.12D-01 -1.07D+00  8.82D-01
                    CP:  3.58D-01
 E= -1607.63044844284     Delta-E=       -0.000003792909 Rises=F Damp=F
 DIIS: error= 1.34D-03 at cycle  27 NSaved=  19.
 NSaved=19 IEnMin=19 EnMin= -1607.63044844284     IErMin= 6 ErrMin= 1.12D-04
 ErrMax= 1.34D-03  0.00D+00 EMaxC= 1.00D-01 BMatC= 8.35D-04 BMatP= 1.18D-05
 IDIUse=3 WtCom= 9.99D-01 WtEn= 1.12D-03
 Large coefficients: NSaved= 19 BigCof=   11.41 CofMax=   10.00 Det=-4.37D-11
 Inversion failed.  Reducing to 18 matrices.
 Large coefficients: NSaved= 18 BigCof=   11.58 CofMax=   10.00 Det=-5.19D-11
 Inversion failed.  Reducing to 17 matrices.
 Coeff-Com: -0.703D+00 0.153D+00-0.159D+00 0.129D+00-0.193D+00 0.119D+00
 Coeff-Com: -0.128D+01-0.275D+01 0.463D+01 0.672D+00-0.313D+01-0.183D+01
 Coeff-Com:  0.638D+01-0.159D+01 0.138D+01-0.579D+01 0.498D+01
 Coeff-En:   0.000D+00 0.000D+00 0.000D+00 0.000D+00 0.000D+00 0.000D+00
 Coeff-En:   0.000D+00 0.000D+00 0.000D+00 0.000D+00 0.000D+00 0.000D+00
 Coeff-En:   0.000D+00 0.000D+00 0.000D+00 0.000D+00 0.100D+01
 Coeff:     -0.702D+00 0.152D+00-0.159D+00 0.129D+00-0.193D+00 0.119D+00
 Coeff:     -0.128D+01-0.274D+01 0.462D+01 0.671D+00-0.313D+01-0.183D+01
 Coeff:      0.637D+01-0.159D+01 0.137D+01-0.578D+01 0.497D+01
 Gap=     0.125 Goal=   None    Shift=    0.000
 Gap=     0.264 Goal=   None    Shift=    0.000
 RMSDP=1.00D-05 MaxDP=5.91D-04 DE=-3.79D-06 OVMax= 6.68D-04

 Cycle  28  Pass 1  IDiag  1:
 RMSU=  7.00D-06    CP:  1.00D+00 -3.00D+00  3.00D+00 -1.05D+00 -3.69D-01
                    CP:  2.25D+00 -3.00D+00
 E= -1607.63040690670     Delta-E=        0.000041536140 Rises=F Damp=F
 DIIS: error= 1.50D-03 at cycle  28 NSaved=  18.
 NSaved=18 IEnMin=17 EnMin= -1607.63044844284     IErMin= 4 ErrMin= 1.12D-04
 ErrMax= 1.50D-03  0.00D+00 EMaxC= 1.00D-01 BMatC= 1.05D-03 BMatP= 1.18D-05
 IDIUse=3 WtCom= 9.99D-01 WtEn= 1.12D-03
 Rare condition: small coef for last iteration:  0.000D+00
 Coeff-Com: -0.687D+00 0.115D+00-0.170D+00 0.145D+00-0.202D+00 0.142D+00
 Coeff-Com: -0.132D+01-0.266D+01 0.461D+01 0.680D+00-0.337D+01-0.311D+01
 Coeff-Com:  0.794D+01-0.193D+01 0.146D+01-0.687D+01 0.587D+01 0.339D+00
 Coeff-En:   0.000D+00 0.000D+00 0.000D+00 0.000D+00 0.000D+00 0.000D+00
 Coeff-En:   0.000D+00 0.000D+00 0.000D+00 0.000D+00 0.000D+00 0.000D+00
 Coeff-En:   0.000D+00 0.000D+00 0.000D+00 0.000D+00 0.000D+00 0.100D+01
 Coeff:     -0.687D+00 0.115D+00-0.170D+00 0.145D+00-0.202D+00 0.142D+00
 Coeff:     -0.132D+01-0.266D+01 0.461D+01 0.680D+00-0.337D+01-0.311D+01
 Coeff:      0.794D+01-0.193D+01 0.146D+01-0.687D+01 0.587D+01 0.339D+00
 Gap=     0.125 Goal=   None    Shift=    0.000
 Gap=     0.264 Goal=   None    Shift=    0.000
 RMSDP=7.55D-06 MaxDP=8.02D-04 DE= 4.15D-05 OVMax= 1.80D-03

 Cycle  29  Pass 1  IDiag  1:
 RMSU=  9.56D-08    CP:  1.00D+00 -3.00D+00  3.00D+00 -6.99D-01 -5.26D-01
                    CP:  2.14D+00 -3.00D+00  1.08D+00
 E= -1607.63040141724     Delta-E=        0.000005489459 Rises=F Damp=F
 DIIS: error= 1.51D-03 at cycle  29 NSaved=  19.
 NSaved=19 IEnMin=17 EnMin= -1607.63044844284     IErMin= 4 ErrMin= 1.12D-04
 ErrMax= 1.51D-03  0.00D+00 EMaxC= 1.00D-01 BMatC= 1.07D-03 BMatP= 1.18D-05
 IDIUse=3 WtCom= 9.99D-01 WtEn= 1.12D-03
 Large coefficients: NSaved= 19 BigCof=   10.33 CofMax=   10.00 Det=-3.33D-11
 Inversion failed.  Reducing to 18 matrices.
 Rare condition: small coef for last iteration:  0.000D+00
 Coeff-Com: -0.555D+00-0.329D+00 0.166D+00 0.399D-01 0.125D+00-0.127D+01
 Coeff-Com: -0.252D+01 0.434D+01 0.277D+00-0.230D+00-0.840D+01 0.731D+01
 Coeff-Com:  0.243D+01 0.873D+00-0.732D+01 0.726D+01 0.607D+01-0.726D+01
 Coeff-En:   0.000D+00 0.000D+00 0.000D+00 0.000D+00 0.000D+00 0.000D+00
 Coeff-En:   0.000D+00 0.000D+00 0.000D+00 0.000D+00 0.000D+00 0.000D+00
 Coeff-En:   0.000D+00 0.000D+00 0.000D+00 0.000D+00 0.000D+00 0.100D+01
 Coeff:     -0.555D+00-0.329D+00 0.166D+00 0.399D-01 0.125D+00-0.127D+01
 Coeff:     -0.252D+01 0.434D+01 0.277D+00-0.230D+00-0.840D+01 0.731D+01
 Coeff:      0.243D+01 0.873D+00-0.732D+01 0.726D+01 0.607D+01-0.726D+01
 Gap=     0.124 Goal=   None    Shift=    0.000
 Gap=     0.264 Goal=   None    Shift=    0.000
 RMSDP=2.97D-05 MaxDP=3.14D-03 DE= 5.49D-06 OVMax= 7.07D-03

 Cycle  30  Pass 1  IDiag  1:
 RMSU=  3.55D-07    CP:  1.00D+00 -3.00D+00  3.00D+00 -2.10D+00  4.13D-01
                    CP:  2.89D+00 -3.00D+00  8.74D-01 -1.08D+00
 E= -1607.63041831121     Delta-E=       -0.000016893978 Rises=F Damp=F
 DIIS: error= 1.47D-03 at cycle  30 NSaved=  19.
 NSaved=19 IEnMin=16 EnMin= -1607.63044844284     IErMin= 3 ErrMin= 1.12D-04
 ErrMax= 1.47D-03  0.00D+00 EMaxC= 1.00D-01 BMatC= 1.01D-03 BMatP= 1.18D-05
 IDIUse=3 WtCom= 9.99D-01 WtEn= 1.12D-03
 Coeff-Com: -0.540D+00-0.259D+00 0.138D+00-0.214D-01 0.862D-01-0.123D+01
 Coeff-Com: -0.261D+01 0.442D+01 0.340D+00-0.184D+01-0.632D+01 0.724D+01
 Coeff-Com:  0.211D+01 0.134D+01-0.784D+01 0.682D+01 0.673D+01-0.911D+01
 Coeff-Com:  0.155D+01
 Coeff-En:   0.000D+00 0.000D+00 0.000D+00 0.000D+00 0.000D+00 0.000D+00
 Coeff-En:   0.000D+00 0.000D+00 0.000D+00 0.000D+00 0.000D+00 0.000D+00
 Coeff-En:   0.000D+00 0.000D+00 0.000D+00 0.000D+00 0.000D+00 0.000D+00
 Coeff-En:   0.100D+01
 Coeff:     -0.539D+00-0.259D+00 0.138D+00-0.213D-01 0.861D-01-0.123D+01
 Coeff:     -0.261D+01 0.441D+01 0.339D+00-0.183D+01-0.632D+01 0.723D+01
 Coeff:      0.211D+01 0.133D+01-0.783D+01 0.682D+01 0.672D+01-0.910D+01
 Coeff:      0.155D+01
 Gap=     0.124 Goal=   None    Shift=    0.000
 Gap=     0.264 Goal=   None    Shift=    0.000
 RMSDP=2.44D-05 MaxDP=2.57D-03 DE=-1.69D-05 OVMax= 5.83D-03

 Cycle  31  Pass 1  IDiag  1:
 RMSU=  5.45D-06    CP:  1.00D+00 -3.00D+00  3.00D+00 -3.00D+00  9.15D-01
                    CP:  3.00D+00 -3.00D+00  9.87D-01 -3.00D+00  1.81D+00
 E= -1607.63042372011     Delta-E=       -0.000005408895 Rises=F Damp=F
 DIIS: error= 1.47D-03 at cycle  31 NSaved=  20.
 NSaved=20 IEnMin=16 EnMin= -1607.63044844284     IErMin= 3 ErrMin= 1.12D-04
 ErrMax= 1.47D-03  0.00D+00 EMaxC= 1.00D-01 BMatC= 1.01D-03 BMatP= 1.18D-05
 IDIUse=3 WtCom= 9.99D-01 WtEn= 1.12D-03
 Coeff-Com: -0.554D+00-0.258D+00 0.145D+00-0.118D-01 0.905D-01-0.124D+01
 Coeff-Com: -0.255D+01 0.436D+01 0.313D+00-0.211D+01-0.683D+01 0.790D+01
 Coeff-Com:  0.212D+01 0.129D+01-0.768D+01 0.696D+01 0.713D+01-0.943D+01
 Coeff-Com:  0.179D+01-0.426D+00
 Coeff-En:   0.000D+00 0.000D+00 0.000D+00 0.000D+00 0.000D+00 0.000D+00
 Coeff-En:   0.000D+00 0.000D+00 0.000D+00 0.000D+00 0.000D+00 0.000D+00
 Coeff-En:   0.000D+00 0.000D+00 0.000D+00 0.000D+00 0.000D+00 0.000D+00
 Coeff-En:   0.000D+00 0.100D+01
 Coeff:     -0.553D+00-0.257D+00 0.144D+00-0.118D-01 0.904D-01-0.124D+01
 Coeff:     -0.255D+01 0.436D+01 0.313D+00-0.210D+01-0.682D+01 0.789D+01
 Coeff:      0.212D+01 0.129D+01-0.767D+01 0.695D+01 0.712D+01-0.942D+01
 Coeff:      0.179D+01-0.425D+00
 Gap=     0.125 Goal=   None    Shift=    0.000
 Gap=     0.264 Goal=   None    Shift=    0.000
 RMSDP=3.89D-06 MaxDP=3.94D-04 DE=-5.41D-06 OVMax= 9.09D-04

 Cycle  32  Pass 1  IDiag  1:
 RMSU=  5.19D-07    CP:  1.00D+00 -3.00D+00  3.00D+00 -3.00D+00  8.65D-01
                    CP:  3.00D+00 -3.00D+00  1.09D+00 -3.00D+00  1.95D+00
                    CP:  1.69D+00
 E= -1607.63042166286     Delta-E=        0.000002057246 Rises=F Damp=F
 DIIS: error= 1.48D-03 at cycle  32 NSaved=  20.
 NSaved=20 IEnMin=15 EnMin= -1607.63044844284     IErMin= 2 ErrMin= 1.12D-04
 ErrMax= 1.48D-03  0.00D+00 EMaxC= 1.00D-01 BMatC= 1.02D-03 BMatP= 1.18D-05
 IDIUse=3 WtCom= 9.99D-01 WtEn= 1.12D-03
 Large coefficients: NSaved= 20 BigCof=   30.16 CofMax=   10.00 Det=-1.23D-11
 Inversion failed.  Reducing to 19 matrices.
 Large coefficients: NSaved= 19 BigCof=   32.48 CofMax=   10.00 Det=-1.97D-11
 Inversion failed.  Reducing to 18 matrices.
 Large coefficients: NSaved= 18 BigCof=   36.87 CofMax=   10.00 Det=-2.00D-11
 Inversion failed.  Reducing to 17 matrices.
 Large coefficients: NSaved= 17 BigCof=   38.54 CofMax=   10.00 Det=-2.02D-11
 Inversion failed.  Reducing to 16 matrices.
 Large coefficients: NSaved= 16 BigCof=   36.50 CofMax=   10.00 Det=-2.02D-11
 Inversion failed.  Reducing to 15 matrices.
 Large coefficients: NSaved= 15 BigCof=   35.80 CofMax=   10.00 Det=-2.04D-11
 Inversion failed.  Reducing to 14 matrices.
 Large coefficients: NSaved= 14 BigCof=   53.14 CofMax=   10.00 Det=-2.44D-11
 Inversion failed.  Reducing to 13 matrices.
 Large coefficients: NSaved= 13 BigCof=   52.69 CofMax=   10.00 Det=-2.44D-11
 Inversion failed.  Reducing to 12 matrices.
 Large coefficients: NSaved= 12 BigCof=   73.67 CofMax=   10.00 Det=-4.27D-11
 Inversion failed.  Reducing to 11 matrices.
 Large coefficients: NSaved= 11 BigCof=   71.83 CofMax=   10.00 Det=-4.42D-11
 Inversion failed.  Reducing to 10 matrices.
 Large coefficients: NSaved= 10 BigCof=   68.14 CofMax=   10.00 Det=-5.10D-11
 Inversion failed.  Reducing to  9 matrices.
 Large coefficients: NSaved=  9 BigCof=  100.20 CofMax=   10.00 Det=-6.18D-11
 Inversion failed.  Reducing to  8 matrices.
 Large coefficients: NSaved=  8 BigCof=   99.98 CofMax=   10.00 Det=-6.18D-11
 Inversion failed.  Reducing to  7 matrices.
 Large coefficients: NSaved=  7 BigCof=   96.59 CofMax=   10.00 Det=-7.22D-11
 Inversion failed.  Reducing to  6 matrices.
 Large coefficients: NSaved=  6 BigCof=  114.19 CofMax=   10.00 Det=-7.45D-11
 Inversion failed.  Reducing to  5 matrices.
 Large coefficients: NSaved=  5 BigCof=  103.99 CofMax=   10.00 Det=-7.71D-11
 Inversion failed.  Reducing to  4 matrices.
 Large coefficients: NSaved=  4 BigCof=  273.70 CofMax=   10.00 Det=-9.92D-11
 Inversion failed.  Reducing to  3 matrices.
 Large coefficients: NSaved=  3 BigCof=  307.74 CofMax=   10.00 Det=-1.03D-10
 Inversion failed.  Reducing to  2 matrices.
 Large coefficients: NSaved=  2 BigCof=  129.50 CofMax=   10.00 Det=-5.68D-08
 Coeff-Com:  0.130D+03-0.129D+03
 Coeff-En:   0.000D+00 0.100D+01
 Coeff:      0.129D+03-0.128D+03
 Gap=     0.104 Goal=   None    Shift=    0.000
 Gap=     0.267 Goal=   None    Shift=    0.000
 RMSDP=4.94D-04 MaxDP=4.94D-02 DE= 2.06D-06 OVMax= 1.16D-01

 Cycle  33  Pass 1  IDiag  1:
 RMSU=  3.20D-04    CP:  1.00D+00  3.00D+00 -3.00D+00  3.00D+00  3.00D+00
                    CP: -3.00D+00  3.00D+00 -3.00D+00 -3.00D+00  3.00D+00
                    CP: -3.00D+00 -3.00D+00
 E= -1607.63050961750     Delta-E=       -0.000087954638 Rises=F Damp=F
 DIIS: error= 1.90D-04 at cycle  33 NSaved=   3.
 NSaved= 3 IEnMin= 3 EnMin= -1607.63050961750     IErMin= 3 ErrMin= 1.90D-04
 ErrMax= 1.90D-04  0.00D+00 EMaxC= 1.00D-01 BMatC= 6.62D-05 BMatP= 1.01D-03
 IDIUse=3 WtCom= 9.99D-01 WtEn= 1.12D-03
 Large coefficients: NSaved=  3 BigCof=   66.05 CofMax=   10.00 Det=-1.07D-08
 Inversion failed.  Reducing to  2 matrices.
 Coeff-Com: -0.216D-01 0.102D+01
 Coeff-En:   0.000D+00 0.100D+01
 Coeff:     -0.216D-01 0.102D+01
 Gap=     0.104 Goal=   None    Shift=    0.000
 Gap=     0.266 Goal=   None    Shift=    0.000
 RMSDP=3.51D-05 MaxDP=1.62D-03 DE=-8.80D-05 OVMax= 3.99D-03

 Cycle  34  Pass 1  IDiag  1:
 RMSU=  3.26D-05    CP:  1.00D+00  3.00D+00 -3.00D+00  3.00D+00  3.00D+00
                    CP: -3.00D+00  3.00D+00 -3.00D+00 -3.00D+00  3.00D+00
                    CP: -3.00D+00 -3.00D+00  9.61D-01
 E= -1607.63049813698     Delta-E=        0.000011480518 Rises=F Damp=F
 DIIS: error= 2.74D-04 at cycle  34 NSaved=   3.
 NSaved= 3 IEnMin= 2 EnMin= -1607.63050961750     IErMin= 2 ErrMin= 1.90D-04
 ErrMax= 2.74D-04  0.00D+00 EMaxC= 1.00D-01 BMatC= 1.53D-04 BMatP= 6.62D-05
 IDIUse=3 WtCom= 9.99D-01 WtEn= 1.12D-03
 Coeff-Com: -0.517D-01 0.652D+00 0.399D+00
 Coeff-En:   0.000D+00 0.645D+00 0.355D+00
 Coeff:     -0.516D-01 0.652D+00 0.399D+00
 Gap=     0.104 Goal=   None    Shift=    0.000
 Gap=     0.266 Goal=   None    Shift=    0.000
 RMSDP=2.53D-05 MaxDP=1.64D-03 DE= 1.15D-05 OVMax= 4.70D-03

 Cycle  35  Pass 1  IDiag  1:
 RMSU=  5.74D-06    CP:  1.00D+00  3.00D+00 -3.00D+00  3.00D+00  3.00D+00
                    CP: -3.00D+00  3.00D+00 -3.00D+00 -3.00D+00  3.00D+00
                    CP: -3.00D+00 -3.00D+00  1.02D+00  4.96D-01
 E= -1607.63052011445     Delta-E=       -0.000021977464 Rises=F Damp=F
 DIIS: error= 3.67D-05 at cycle  35 NSaved=   4.
 NSaved= 4 IEnMin= 4 EnMin= -1607.63052011445     IErMin= 4 ErrMin= 3.67D-05
 ErrMax= 3.67D-05  0.00D+00 EMaxC= 1.00D-01 BMatC= 3.12D-06 BMatP= 6.62D-05
 IDIUse=1 WtCom= 1.00D+00 WtEn= 0.00D+00
 Coeff-Com: -0.363D-01 0.280D+00 0.148D+00 0.608D+00
 Coeff:     -0.363D-01 0.280D+00 0.148D+00 0.608D+00
 Gap=     0.104 Goal=   None    Shift=    0.000
 Gap=     0.266 Goal=   None    Shift=    0.000
 RMSDP=2.90D-06 MaxDP=2.24D-04 DE=-2.20D-05 OVMax= 4.34D-04

 Cycle  36  Pass 1  IDiag  1:
 RMSU=  2.43D-06    CP:  1.00D+00  3.00D+00 -3.00D+00  3.00D+00  3.00D+00
                    CP: -3.00D+00  3.00D+00 -3.00D+00 -3.00D+00  3.00D+00
                    CP: -3.00D+00 -3.00D+00  1.01D+00  5.07D-01  9.70D-01
 E= -1607.63052075663     Delta-E=       -0.000000642181 Rises=F Damp=F
 DIIS: error= 4.04D-05 at cycle  36 NSaved=   5.
 NSaved= 5 IEnMin= 5 EnMin= -1607.63052075663     IErMin= 4 ErrMin= 3.67D-05
 ErrMax= 4.04D-05  0.00D+00 EMaxC= 1.00D-01 BMatC= 1.76D-06 BMatP= 3.12D-06
 IDIUse=1 WtCom= 1.00D+00 WtEn= 0.00D+00
 Coeff-Com:  0.316D-01-0.225D+00-0.208D+00-0.167D+00 0.157D+01
 Coeff:      0.316D-01-0.225D+00-0.208D+00-0.167D+00 0.157D+01
 Gap=     0.103 Goal=   None    Shift=    0.000
 Gap=     0.266 Goal=   None    Shift=    0.000
 RMSDP=2.77D-05 MaxDP=2.86D-03 DE=-6.42D-07 OVMax= 6.64D-03

 Cycle  37  Pass 1  IDiag  1:
 RMSU=  3.09D-06    CP:  1.00D+00  3.00D+00 -3.00D+00  3.00D+00  3.00D+00
                    CP: -3.00D+00  3.00D+00 -3.00D+00 -3.00D+00  3.00D+00
                    CP: -3.00D+00 -3.00D+00  9.29D-01  5.51D-01  1.55D+00
                    CP:  2.33D+00
 E= -1607.63052688363     Delta-E=       -0.000006127006 Rises=F Damp=F
 DIIS: error= 4.10D-05 at cycle  37 NSaved=   6.
 NSaved= 6 IEnMin= 6 EnMin= -1607.63052688363     IErMin= 4 ErrMin= 3.67D-05
 ErrMax= 4.10D-05  0.00D+00 EMaxC= 1.00D-01 BMatC= 1.68D-06 BMatP= 1.76D-06
 IDIUse=1 WtCom= 1.00D+00 WtEn= 0.00D+00
 Coeff-Com:  0.522D-01-0.232D+00-0.216D+00-0.480D+00 0.247D+00 0.163D+01
 Coeff:      0.522D-01-0.232D+00-0.216D+00-0.480D+00 0.247D+00 0.163D+01
 Gap=     0.103 Goal=   None    Shift=    0.000
 Gap=     0.266 Goal=   None    Shift=    0.000
 RMSDP=5.57D-05 MaxDP=5.73D-03 DE=-6.13D-06 OVMax= 1.33D-02

 Cycle  38  Pass 1  IDiag  1:
 RMSU=  5.55D-06    CP:  1.00D+00  3.00D+00 -3.00D+00  3.00D+00  3.00D+00
                    CP: -3.00D+00  3.00D+00 -3.00D+00 -3.00D+00  3.00D+00
                    CP: -3.00D+00 -3.00D+00  7.58D-01  6.06D-01  2.45D+00
                    CP:  3.00D+00  2.40D+00
 E= -1607.63053888976     Delta-E=       -0.000012006127 Rises=F Damp=F
 DIIS: error= 3.89D-05 at cycle  38 NSaved=   7.
 NSaved= 7 IEnMin= 7 EnMin= -1607.63053888976     IErMin= 4 ErrMin= 3.67D-05
 ErrMax= 3.89D-05  0.00D+00 EMaxC= 1.00D-01 BMatC= 1.83D-06 BMatP= 1.68D-06
 IDIUse=1 WtCom= 1.00D+00 WtEn= 0.00D+00
 Coeff-Com:  0.518D-01-0.934D-02-0.635D-01-0.570D+00-0.250D+01 0.262D+01
 Coeff-Com:  0.147D+01
 Coeff:      0.518D-01-0.934D-02-0.635D-01-0.570D+00-0.250D+01 0.262D+01
 Coeff:      0.147D+01
 Gap=     0.103 Goal=   None    Shift=    0.000
 Gap=     0.266 Goal=   None    Shift=    0.000
 RMSDP=1.52D-04 MaxDP=1.56D-02 DE=-1.20D-05 OVMax= 3.64D-02

 Cycle  39  Pass 1  IDiag  1:
 RMSU=  1.56D-05    CP:  1.00D+00  3.00D+00 -3.00D+00  3.00D+00  3.00D+00
                    CP: -3.00D+00  3.00D+00 -3.00D+00 -3.00D+00 -5.07D-01
                    CP: -3.00D+00 -3.00D+00  2.90D-01  7.47D-01  3.00D+00
                    CP:  3.00D+00  3.00D+00  3.00D+00
 E= -1607.63057080717     Delta-E=       -0.000031917408 Rises=F Damp=F
 DIIS: error= 3.91D-05 at cycle  39 NSaved=   8.
 NSaved= 8 IEnMin= 8 EnMin= -1607.63057080717     IErMin= 4 ErrMin= 3.67D-05
 ErrMax= 3.91D-05  0.00D+00 EMaxC= 1.00D-01 BMatC= 1.77D-06 BMatP= 1.68D-06
 IDIUse=1 WtCom= 1.00D+00 WtEn= 0.00D+00
 Coeff-Com:  0.569D-01-0.342D-01-0.801D-01-0.589D+00-0.235D+01 0.267D+01
 Coeff-Com:  0.146D+01-0.137D+00
 Coeff:      0.569D-01-0.342D-01-0.801D-01-0.589D+00-0.235D+01 0.267D+01
 Coeff:      0.146D+01-0.137D+00
 Gap=     0.104 Goal=   None    Shift=    0.000
 Gap=     0.266 Goal=   None    Shift=    0.000
 RMSDP=2.90D-05 MaxDP=3.00D-03 DE=-3.19D-05 OVMax= 6.96D-03

 Cycle  40  Pass 1  IDiag  1:
 RMSU=  2.23D-06    CP:  1.00D+00  3.00D+00 -3.00D+00  3.00D+00  3.00D+00
                    CP: -3.00D+00  3.00D+00 -3.00D+00 -3.00D+00  9.49D-01
                    CP: -3.00D+00 -3.00D+00  3.79D-01  7.23D-01  3.00D+00
                    CP:  3.00D+00  3.00D+00  3.00D+00  7.22D-01
 E= -1607.63056478257     Delta-E=        0.000006024597 Rises=F Damp=F
 DIIS: error= 3.98D-05 at cycle  40 NSaved=   9.
 NSaved= 9 IEnMin= 8 EnMin= -1607.63057080717     IErMin= 4 ErrMin= 3.67D-05
 ErrMax= 3.98D-05  0.00D+00 EMaxC= 1.00D-01 BMatC= 1.74D-06 BMatP= 1.68D-06
 IDIUse=1 WtCom= 1.00D+00 WtEn= 0.00D+00
 Coeff-Com:  0.120D+00-0.103D+00-0.123D+00-0.725D+00-0.237D+01 0.330D+01
 Coeff-Com:  0.196D+01-0.999D+01 0.892D+01
 Coeff:      0.120D+00-0.103D+00-0.123D+00-0.725D+00-0.237D+01 0.330D+01
 Coeff:      0.196D+01-0.999D+01 0.892D+01
 Gap=     0.104 Goal=   None    Shift=    0.000
 Gap=     0.265 Goal=   None    Shift=    0.000
 RMSDP=3.81D-04 MaxDP=3.91D-02 DE= 6.02D-06 OVMax= 9.12D-02

 Cycle  41  Pass 1  IDiag  1:
 Restarting incremental Fock formation.
 E= -1607.63047861552     Delta-E=        0.000086167051 Rises=F Damp=F
 DIIS: error= 1.23D-04 at cycle  41 NSaved=  10.
 NSaved=10 IEnMin= 8 EnMin= -1607.63057080717     IErMin= 4 ErrMin= 3.67D-05
 ErrMax= 1.23D-04  0.00D+00 EMaxC= 1.00D-01 BMatC= 1.07D-05 BMatP= 1.68D-06
 IDIUse=1 WtCom= 1.00D+00 WtEn= 0.00D+00
 Large coefficients: NSaved= 10 BigCof=   11.88 CofMax=   10.00 Det=-4.62D-10
 Inversion failed.  Reducing to  9 matrices.
 Large coefficients: NSaved=  9 BigCof=   19.57 CofMax=   10.00 Det=-9.76D-10
 Inversion failed.  Reducing to  8 matrices.
 Large coefficients: NSaved=  8 BigCof=   19.52 CofMax=   10.00 Det=-1.63D-09
 Inversion failed.  Reducing to  7 matrices.
 Large coefficients: NSaved=  7 BigCof=   17.54 CofMax=   10.00 Det=-2.85D-09
 Inversion failed.  Reducing to  6 matrices.
 Large coefficients: NSaved=  6 BigCof=   18.31 CofMax=   10.00 Det=-3.02D-09
 Inversion failed.  Reducing to  5 matrices.
 Large coefficients: NSaved=  5 BigCof=   17.84 CofMax=   10.00 Det=-3.10D-09
 Inversion failed.  Reducing to  4 matrices.
 Large coefficients: NSaved=  4 BigCof=   17.83 CofMax=   10.00 Det=-3.11D-09
 Inversion failed.  Reducing to  3 matrices.
 Large coefficients: NSaved=  3 BigCof=   16.57 CofMax=   10.00 Det=-3.33D-09
 Inversion failed.  Reducing to  2 matrices.
 Coeff-Com:  0.123D+01-0.232D+00
 Coeff:      0.123D+01-0.232D+00
 Gap=     0.101 Goal=   None    Shift=    0.000
 Gap=     0.267 Goal=   None    Shift=    0.000
 RMSDP=4.82D-04 MaxDP=4.97D-02 DE= 8.62D-05 OVMax= 1.15D-01

 Cycle  42  Pass 1  IDiag  1:
 RMSU=  4.81D-04    CP:  9.99D-01
 E= -1607.63058575165     Delta-E=       -0.000107136128 Rises=F Damp=F
 DIIS: error= 3.93D-05 at cycle  42 NSaved=   3.
 NSaved= 3 IEnMin= 3 EnMin= -1607.63058575165     IErMin= 3 ErrMin= 3.93D-05
 ErrMax= 3.93D-05  0.00D+00 EMaxC= 1.00D-01 BMatC= 2.21D-06 BMatP= 1.74D-06
 IDIUse=1 WtCom= 1.00D+00 WtEn= 0.00D+00
 Coeff-Com:  0.757D+00-0.342D+00 0.585D+00
 Coeff:      0.757D+00-0.342D+00 0.585D+00
 Gap=     0.104 Goal=   None    Shift=    0.000
 Gap=     0.267 Goal=   None    Shift=    0.000
 RMSDP=1.01D-04 MaxDP=1.04D-02 DE=-1.07D-04 OVMax= 2.42D-02

 Cycle  43  Pass 1  IDiag  1:
 RMSU=  1.44D-05    CP:  9.99D-01  1.21D+00
 E= -1607.63060627242     Delta-E=       -0.000020520771 Rises=F Damp=F
 DIIS: error= 6.84D-05 at cycle  43 NSaved=   4.
 NSaved= 4 IEnMin= 4 EnMin= -1607.63060627242     IErMin= 3 ErrMin= 3.93D-05
 ErrMax= 6.84D-05  0.00D+00 EMaxC= 1.00D-01 BMatC= 3.83D-06 BMatP= 1.74D-06
 IDIUse=1 WtCom= 1.00D+00 WtEn= 0.00D+00
 Coeff-Com:  0.297D+00-0.813D+00 0.454D+00 0.106D+01
 Coeff:      0.297D+00-0.813D+00 0.454D+00 0.106D+01
 Gap=     0.106 Goal=   None    Shift=    0.000
 Gap=     0.267 Goal=   None    Shift=    0.000
 RMSDP=3.64D-04 MaxDP=3.74D-02 DE=-2.05D-05 OVMax= 8.72D-02

 Cycle  44  Pass 1  IDiag  1:
 RMSU=  6.36D-05    CP:  9.98D-01  1.94D+00  3.00D+00
 E= -1607.63067644581     Delta-E=       -0.000070173390 Rises=F Damp=F
 DIIS: error= 3.25D-04 at cycle  44 NSaved=   5.
 NSaved= 5 IEnMin= 5 EnMin= -1607.63067644581     IErMin= 3 ErrMin= 3.93D-05
 ErrMax= 3.25D-04  0.00D+00 EMaxC= 1.00D-01 BMatC= 4.85D-05 BMatP= 1.74D-06
 IDIUse=1 WtCom= 1.00D+00 WtEn= 0.00D+00
 Coeff-Com:  0.138D+01-0.791D+00 0.310D+00-0.135D+00 0.238D+00
 Coeff:      0.138D+01-0.791D+00 0.310D+00-0.135D+00 0.238D+00
 Gap=     0.106 Goal=   None    Shift=    0.000
 Gap=     0.267 Goal=   None    Shift=    0.000
 RMSDP=1.22D-04 MaxDP=1.24D-02 DE=-7.02D-05 OVMax= 2.92D-02

 Cycle  45  Pass 1  IDiag  1:
 RMSU=  3.71D-06    CP:  9.98D-01  1.70D+00  3.00D+00  4.11D-01
 E= -1607.63065494450     Delta-E=        0.000021501310 Rises=F Damp=F
 DIIS: error= 1.98D-04 at cycle  45 NSaved=   6.
 NSaved= 6 IEnMin= 5 EnMin= -1607.63067644581     IErMin= 3 ErrMin= 3.93D-05
 ErrMax= 1.98D-04  0.00D+00 EMaxC= 1.00D-01 BMatC= 1.87D-05 BMatP= 1.74D-06
 IDIUse=1 WtCom= 1.00D+00 WtEn= 0.00D+00
 Coeff-Com:  0.154D+01-0.109D+01 0.194D+00-0.533D+00-0.254D+00 0.114D+01
 Coeff:      0.154D+01-0.109D+01 0.194D+00-0.533D+00-0.254D+00 0.114D+01
 Gap=     0.108 Goal=   None    Shift=    0.000
 Gap=     0.267 Goal=   None    Shift=    0.000
 RMSDP=2.31D-04 MaxDP=2.34D-02 DE= 2.15D-05 OVMax= 5.54D-02

 Cycle  46  Pass 1  IDiag  1:
 RMSU=  3.63D-06    CP:  9.98D-01  2.15D+00  3.00D+00  1.61D+00 -1.10D+00
 E= -1607.63069560133     Delta-E=       -0.000040656833 Rises=F Damp=F
 DIIS: error= 4.07D-04 at cycle  46 NSaved=   7.
 NSaved= 7 IEnMin= 7 EnMin= -1607.63069560133     IErMin= 3 ErrMin= 3.93D-05
 ErrMax= 4.07D-04  0.00D+00 EMaxC= 1.00D-01 BMatC= 8.09D-05 BMatP= 1.74D-06
 IDIUse=1 WtCom= 1.00D+00 WtEn= 0.00D+00
 Coeff-Com:  0.107D+01-0.119D+01 0.233D+00 0.210D+00 0.456D+00 0.609D+00
 Coeff-Com: -0.388D+00
 Coeff:      0.107D+01-0.119D+01 0.233D+00 0.210D+00 0.456D+00 0.609D+00
 Coeff:     -0.388D+00
 Gap=     0.111 Goal=   None    Shift=    0.000
 Gap=     0.267 Goal=   None    Shift=    0.000
 RMSDP=8.41D-05 MaxDP=8.36D-03 DE=-4.07D-05 OVMax= 2.01D-02

 Cycle  47  Pass 1  IDiag  1:
 RMSU=  1.80D-06    CP:  9.98D-01  2.31D+00  3.00D+00  2.14D+00 -2.24D+00
                    CP:  8.60D-01
 E= -1607.63070288194     Delta-E=       -0.000007280606 Rises=F Damp=F
 DIIS: error= 5.38D-04 at cycle  47 NSaved=   8.
 NSaved= 8 IEnMin= 8 EnMin= -1607.63070288194     IErMin= 3 ErrMin= 3.93D-05
 ErrMax= 5.38D-04  0.00D+00 EMaxC= 1.00D-01 BMatC= 1.48D-04 BMatP= 1.74D-06
 IDIUse=1 WtCom= 1.00D+00 WtEn= 0.00D+00
 Coeff-Com:  0.109D+01-0.104D+01 0.236D+00 0.290D+00 0.791D+00 0.505D+00
 Coeff-Com: -0.152D+01 0.641D+00
 Coeff:      0.109D+01-0.104D+01 0.236D+00 0.290D+00 0.791D+00 0.505D+00
 Coeff:     -0.152D+01 0.641D+00
 Gap=     0.108 Goal=   None    Shift=    0.000
 Gap=     0.267 Goal=   None    Shift=    0.000
 RMSDP=1.57D-04 MaxDP=1.58D-02 DE=-7.28D-06 OVMax= 3.77D-02

 Cycle  48  Pass 1  IDiag  1:
 RMSU=  8.59D-07    CP:  9.98D-01  2.01D+00  3.00D+00  1.19D+00 -7.44D-01
                    CP: -2.01D-01  7.06D-01
 E= -1607.63067979740     Delta-E=        0.000023084539 Rises=F Damp=F
 DIIS: error= 3.88D-04 at cycle  48 NSaved=   9.
 NSaved= 9 IEnMin= 8 EnMin= -1607.63070288194     IErMin= 3 ErrMin= 3.93D-05
 ErrMax= 3.88D-04  0.00D+00 EMaxC= 1.00D-01 BMatC= 7.36D-05 BMatP= 1.74D-06
 IDIUse=1 WtCom= 1.00D+00 WtEn= 0.00D+00
 Coeff-Com:  0.292D+01-0.173D+01 0.114D+00-0.160D+01 0.125D+01 0.126D+01
 Coeff-Com: -0.749D+01 0.156D+01 0.472D+01
 Coeff:      0.292D+01-0.173D+01 0.114D+00-0.160D+01 0.125D+01 0.126D+01
 Coeff:     -0.749D+01 0.156D+01 0.472D+01
 Gap=     0.112 Goal=   None    Shift=    0.000
 Gap=     0.266 Goal=   None    Shift=    0.000
 RMSDP=5.01D-05 MaxDP=4.87D-03 DE= 2.31D-05 OVMax= 1.14D-02

 Cycle  49  Pass 1  IDiag  1:
 RMSU=  8.52D-06    CP:  9.98D-01  1.92D+00  3.00D+00  9.81D-01 -1.93D+00
                    CP: -3.00D+00  3.00D+00  3.00D+00
 E= -1607.63064354884     Delta-E=        0.000036248557 Rises=F Damp=F
 DIIS: error= 6.48D-04 at cycle  49 NSaved=  10.
 NSaved=10 IEnMin= 8 EnMin= -1607.63070288194     IErMin= 3 ErrMin= 3.93D-05
 ErrMax= 6.48D-04  0.00D+00 EMaxC= 1.00D-01 BMatC= 2.06D-04 BMatP= 1.74D-06
 IDIUse=1 WtCom= 1.00D+00 WtEn= 0.00D+00
 Coeff-Com:  0.492D+01-0.251D+01 0.266D+00-0.298D+01 0.900D+00 0.230D+01
 Coeff-Com: -0.864D+01 0.106D+01 0.401D+01 0.166D+01
 Coeff:      0.492D+01-0.251D+01 0.266D+00-0.298D+01 0.900D+00 0.230D+01
 Coeff:     -0.864D+01 0.106D+01 0.401D+01 0.166D+01
 Gap=     0.115 Goal=   None    Shift=    0.000
 Gap=     0.266 Goal=   None    Shift=    0.000
 RMSDP=3.30D-04 MaxDP=3.43D-02 DE= 3.62D-05 OVMax= 7.89D-02

 Cycle  50  Pass 1  IDiag  1:
 RMSU=  1.68D-05    CP:  9.99D-01  1.26D+00  1.71D+00  1.57D-02 -3.00D+00
                    CP: -3.00D+00  3.00D+00  3.00D+00  3.00D+00
 E= -1607.63052829941     Delta-E=        0.000115249427 Rises=F Damp=F
 DIIS: error= 9.57D-04 at cycle  50 NSaved=  11.
 NSaved=11 IEnMin= 8 EnMin= -1607.63070288194     IErMin= 3 ErrMin= 3.93D-05
 ErrMax= 9.57D-04  0.00D+00 EMaxC= 1.00D-01 BMatC= 4.35D-04 BMatP= 1.74D-06
 IDIUse=1 WtCom= 1.00D+00 WtEn= 0.00D+00
 Coeff-Com:  0.523D+01-0.275D+01 0.369D+00-0.278D+01 0.118D+01 0.229D+01
 Coeff-Com: -0.875D+01 0.181D+01 0.283D+01 0.126D+01 0.291D+00
 Coeff:      0.523D+01-0.275D+01 0.369D+00-0.278D+01 0.118D+01 0.229D+01
 Coeff:     -0.875D+01 0.181D+01 0.283D+01 0.126D+01 0.291D+00
 Gap=     0.117 Goal=   None    Shift=    0.000
 Gap=     0.265 Goal=   None    Shift=    0.000
 RMSDP=7.12D-05 MaxDP=7.50D-03 DE= 1.15D-04 OVMax= 1.70D-02

 >>>>>>>>>> Convergence criterion not met.
 SCF Done:  E(UHSEH1PBE) =  -1607.63052830     A.U. after   51 cycles
[...]
    15  H   -0.000048  -0.000002   0.257557  -0.000001   0.000000  -0.000047
    16  H    0.000000   0.000000  -0.000001   0.255833  -0.000001  -0.000069
    17  H   -0.000002  -0.000047   0.000000  -0.000001   0.257565  -0.000002
    18  H    0.000000   0.000000  -0.000047  -0.000069  -0.000002   0.281308
    19  H    0.000000   0.000000   0.000002   0.000001   0.000002  -0.000068
              19
     1  Mn  -0.008389
     2  O   -0.000421
     3  H   -0.000000
     4  O   -0.000023
     5  H   -0.000001
     6  O    0.003074
     7  H   -0.000070
     8  O    0.299571
     9  H   -0.011729
    10  O   -0.000023
    11  H   -0.000001
    12  O    0.000871
    13  H    0.000000
    14  H    0.000000
    15  H    0.000002
    16  H    0.000001
    17  H    0.000002
    18  H   -0.000068
    19  H    0.255836
          Atomic-Atomic Spin Densities.
               1          2          3          4          5          6
     1  Mn   4.192609  -0.039092  -0.000694  -0.042461  -0.000111  -0.063735
     2  O   -0.039092   0.021488   0.000552   0.023352  -0.000443  -0.015095
     3  H   -0.000694   0.000552   0.001413  -0.000632   0.000002   0.000236
     4  O   -0.042461   0.023352  -0.000632   0.028213  -0.000099  -0.017213
     5  H   -0.000111  -0.000443   0.000002  -0.000099   0.000885   0.000488
     6  O   -0.063735  -0.015095   0.000236  -0.017213   0.000488   0.158381
     7  H    0.001822   0.000494  -0.000001   0.000300  -0.000002  -0.004525
     8  O   -0.039117   0.002781  -0.000066   0.023356  -0.000514  -0.015106
     9  H   -0.000693  -0.000066  -0.000000  -0.000632   0.000023   0.000236
    10  O   -0.042464   0.023356  -0.000632   0.003467  -0.000073  -0.017212
    11  H   -0.000110  -0.000443   0.000002  -0.000073  -0.000000   0.000483
    12  O   -0.063768  -0.015099   0.001072  -0.017208   0.000482   0.008830
    13  H    0.001823   0.000493  -0.000024   0.001125  -0.000021  -0.000119
    14  H    0.001822   0.000496  -0.000024   0.000299  -0.000002  -0.000119
    15  H   -0.000109  -0.000513   0.000024  -0.000100  -0.000296   0.000482
    16  H   -0.000693   0.000550  -0.000524  -0.000632   0.000002   0.001074
    17  H   -0.000110  -0.000514   0.000023  -0.000073   0.000000   0.000488
    18  H    0.001822   0.000497  -0.000001   0.001124  -0.000022  -0.004525
    19  H   -0.000690  -0.000066   0.000000  -0.000633   0.000024   0.001076
               7          8          9         10         11         12
     1  Mn   0.001822  -0.039117  -0.000693  -0.042464  -0.000110  -0.063768
     2  O    0.000494   0.002781  -0.000066   0.023356  -0.000443  -0.015099
     3  H   -0.000001  -0.000066  -0.000000  -0.000632   0.000002   0.001072
     4  O    0.000300   0.023356  -0.000632   0.003467  -0.000073  -0.017208
     5  H   -0.000002  -0.000514   0.000023  -0.000073  -0.000000   0.000482
     6  O   -0.004525  -0.015106   0.000236  -0.017212   0.000483   0.008830
     7  H    0.002985   0.000497  -0.000001   0.001123  -0.000021  -0.000119
     8  O    0.000497   0.021567   0.000549   0.023352  -0.000513  -0.015111
     9  H   -0.000001   0.000549   0.001413  -0.000632   0.000023   0.001074
    10  O    0.001123   0.023352  -0.000632   0.028216  -0.000100  -0.017212
    11  H   -0.000021  -0.000513   0.000023  -0.000100   0.000885   0.000489
    12  O   -0.000119  -0.015111   0.001074  -0.017212   0.000489   0.158478
    13  H    0.000000   0.000496  -0.000024   0.000300  -0.000002  -0.004524
    14  H    0.000000   0.000494  -0.000024   0.001125  -0.000022  -0.004524
    15  H   -0.000002  -0.000443   0.000002  -0.000073   0.000000   0.000488
    16  H   -0.000024  -0.000066   0.000000  -0.000632   0.000002   0.000237
    17  H   -0.000022  -0.000443   0.000002  -0.000100  -0.000296   0.000483
    18  H    0.000772   0.000495  -0.000001   0.000299  -0.000002  -0.000119
    19  H   -0.000024   0.000546  -0.000523  -0.000632   0.000023   0.000236
              13         14         15         16         17         18
     1  Mn   0.001823   0.001822  -0.000109  -0.000693  -0.000110   0.001822
     2  O    0.000493   0.000496  -0.000513   0.000550  -0.000514   0.000497
     3  H   -0.000024  -0.000024   0.000024  -0.000524   0.000023  -0.000001
     4  O    0.001125   0.000299  -0.000100  -0.000632  -0.000073   0.001124
     5  H   -0.000021  -0.000002  -0.000296   0.000002   0.000000  -0.000022
     6  O   -0.000119  -0.000119   0.000482   0.001074   0.000488  -0.004525
     7  H    0.000000   0.000000  -0.000002  -0.000024  -0.000022   0.000772
     8  O    0.000496   0.000494  -0.000443  -0.000066  -0.000443   0.000495
     9  H   -0.000024  -0.000024   0.000002   0.000000   0.000002  -0.000001
    10  O    0.000300   0.001125  -0.000073  -0.000632  -0.000100   0.000299
    11  H   -0.000002  -0.000022   0.000000   0.000002  -0.000296  -0.000002
    12  O   -0.004524  -0.004524   0.000488   0.000237   0.000483  -0.000119
    13  H    0.002984   0.000772  -0.000022  -0.000001  -0.000002   0.000000
    14  H    0.000772   0.002981  -0.000002  -0.000001  -0.000021   0.000000
    15  H   -0.000022  -0.000002   0.000883   0.000023  -0.000000  -0.000021
    16  H   -0.000001  -0.000001   0.000023   0.001411   0.000024  -0.000024
    17  H   -0.000002  -0.000021  -0.000000   0.000024   0.000883  -0.000002
    18  H    0.000000   0.000000  -0.000021  -0.000024  -0.000002   0.002983
    19  H   -0.000001  -0.000001   0.000002  -0.000000   0.000002  -0.000024
              19
     1  Mn  -0.000690
     2  O   -0.000066
     3  H    0.000000
     4  O   -0.000633
     5  H    0.000024
     6  O    0.001076
     7  H   -0.000024
     8  O    0.000546
     9  H   -0.000523
    10  O   -0.000632
    11  H    0.000023
    12  O    0.000236
    13  H   -0.000001
    14  H   -0.000001
    15  H    0.000002
    16  H   -0.000000
    17  H    0.000002
    18  H   -0.000024
    19  H    0.001410
 Mulliken charges and spin densities:
               1          2
     1  Mn   1.537070   3.906052
     2  O   -0.652503   0.002727
     3  H    0.461405   0.000725
     4  O   -0.655031   0.001479
     5  H    0.459715   0.000325
     6  O   -0.673823   0.034126
     7  H    0.435274   0.003252
     8  O   -0.652480   0.002754
     9  H    0.461395   0.000726
    10  O   -0.655042   0.001477
    11  H    0.459752   0.000326
    12  O   -0.673702   0.034183
    13  H    0.435275   0.003251
    14  H    0.435264   0.003249
    15  H    0.459721   0.000324
    16  H    0.461382   0.000724
    17  H    0.459688   0.000323
    18  H    0.435270   0.003251
    19  H    0.461370   0.000724
 Sum of Mulliken charges =   3.00000   4.00000
 Mulliken charges and spin densities with hydrogens summed into heavy atoms:
               1          2
     1  Mn   1.537070   3.906052
     2  O    0.270285   0.004177
     4  O    0.264405   0.002128
     6  O    0.196721   0.040629
     8  O    0.270284   0.004204
    10  O    0.264398   0.002126
    12  O    0.196837   0.040684
 Electronic spatial extent (au):  <R**2>=           1034.7784
 Charge=              3.0000 electrons
 Dipole moment (field-independent basis, Debye):
    X=              0.0026    Y=             -0.0002    Z=             -0.0005  Tot=              0.0027
 Quadrupole moment (field-independent basis, Debye-Ang):
   XX=             -8.6398   YY=             -7.2599   ZZ=             -6.9229
   XY=              0.0057   XZ=              0.0043   YZ=             -0.0004
 Traceless Quadrupole moment (field-independent basis, Debye-Ang):
   XX=             -1.0323   YY=              0.3476   ZZ=              0.6846
   XY=              0.0057   XZ=              0.0043   YZ=             -0.0004
 Octapole moment (field-independent basis, Debye-Ang**2):
  XXX=              0.0147  YYY=             -0.0016  ZZZ=             -0.0210  XYY=             -0.0121
  XXY=              0.0017  XXZ=              0.0229  XZZ=              0.0165  YZZ=             -0.0029
  YYZ=             -0.0054  XYZ=             -0.0189
 Hexadecapole moment (field-independent basis, Debye-Ang**3):
 XXXX=            -66.9670 YYYY=            -44.5933 ZZZZ=            -45.1736 XXXY=              0.1370
 XXXZ=             -0.0386 YYYX=             -0.0577 YYYZ=             -2.1886 ZZZX=              0.0342
 ZZZY=              2.1308 XXYY=            -87.8892 XXZZ=            -91.9163 YYZZ=            -77.5991
 XXYZ=             -0.0467 YYXZ=              0.0316 ZZXY=             -0.0002
 N-N= 6.746024875479D+02 E-N=-5.116406108114D+03  KE= 1.603514169151D+03
                          Isotropic Fermi Contact Couplings
        Atom                 a.u.       MegaHertz       Gauss      10(-4) cm-1
     1  Mn(55)             0.26321      72.73474      25.95356      24.26170
     2  O(17)             -0.01275       1.93282       0.68968       0.64472
     3  H(1)               0.00038       0.43015       0.15349       0.14348
     4  O(17)             -0.01471       2.22997       0.79571       0.74384
     5  H(1)               0.00010       0.10717       0.03824       0.03575
     6  O(17)              0.13595     -20.60287      -7.35162      -6.87238
     7  H(1)               0.00162       1.80642       0.64458       0.60256
     8  O(17)             -0.01271       1.92641       0.68739       0.64258
     9  H(1)               0.00038       0.42940       0.15322       0.14323
    10  O(17)             -0.01471       2.22926       0.79545       0.74360
    11  H(1)               0.00010       0.10793       0.03851       0.03600
    12  O(17)              0.13599     -20.60884      -7.35375      -6.87437
    13  H(1)               0.00162       1.80612       0.64447       0.60246
    14  H(1)               0.00161       1.80409       0.64375       0.60178
    15  H(1)               0.00010       0.10658       0.03803       0.03555
    16  H(1)               0.00038       0.42859       0.15293       0.14296
    17  H(1)               0.00009       0.10596       0.03781       0.03534
    18  H(1)               0.00162       1.80513       0.64412       0.60213
    19  H(1)               0.00038       0.42733       0.15248       0.14254
 --------------------------------------------------------
       Center         ----  Spin Dipole Couplings  ----
                      3XX-RR        3YY-RR        3ZZ-RR
 --------------------------------------------------------
     1   Atom        2.171562     -1.078464     -1.093098
     2   Atom       -0.094509      0.123846     -0.029337
     3   Atom       -0.022387     -0.029718      0.052105
     4   Atom        0.120186     -0.026005     -0.094181
     5   Atom       -0.028432      0.050661     -0.022230
     6   Atom        0.191740     -0.165910     -0.025830
     7   Atom        0.043636     -0.012979     -0.030657
     8   Atom       -0.094578      0.123912     -0.029334
     9   Atom       -0.022400     -0.029722      0.052122
    10   Atom        0.120178     -0.025998     -0.094180
    11   Atom       -0.028434      0.051987     -0.023553
    12   Atom        0.191698     -0.166026     -0.025671
    13   Atom        0.043646     -0.012985     -0.030661
    14   Atom        0.043703     -0.013035     -0.030668
    15   Atom       -0.028438      0.051980     -0.023542
    16   Atom       -0.022361     -0.029727      0.052088
    17   Atom       -0.028435      0.050653     -0.022217
    18   Atom        0.043700     -0.013039     -0.030661
    19   Atom       -0.022342     -0.029728      0.052070
 --------------------------------------------------------
                        XY            XZ            YZ
 --------------------------------------------------------
     1   Atom        0.001803     -0.000477     -0.000164
     2   Atom        0.000554      0.000032     -0.001829
     3   Atom        0.000320      0.029052      0.000864
     4   Atom        0.000007     -0.001683     -0.000801
     5   Atom       -0.000273      0.000059     -0.029608
     6   Atom        0.000189      0.000026      0.001123
     7   Atom        0.026676     -0.000199     -0.000136
     8   Atom       -0.000777     -0.000008     -0.001829
     9   Atom       -0.000312     -0.029038      0.000832
    10   Atom        0.000330      0.001376     -0.000791
    11   Atom       -0.000243     -0.000056      0.027902
    12   Atom        0.000154     -0.000063      0.002081
    13   Atom        0.026681     -0.000432     -0.000277
    14   Atom       -0.026632      0.000375     -0.000255
    15   Atom        0.000212      0.000029      0.027923
    16   Atom       -0.000353     -0.029103      0.001019
    17   Atom        0.000155     -0.000015     -0.029630
    18   Atom       -0.026615      0.000211     -0.000138
    19   Atom        0.000360      0.029125      0.001046
 --------------------------------------------------------


 ---------------------------------------------------------------------------------
              Anisotropic Spin Dipole Couplings in Principal Axis System
 ---------------------------------------------------------------------------------

       Atom             a.u.   MegaHertz   Gauss  10(-4) cm-1        Axes

              Baa    -1.0931  -144.225   -51.463   -48.108  0.0001  0.0112  0.9999
     1 Mn(55) Bbb    -1.0785  -142.294   -50.774   -47.464 -0.0006  0.9999 -0.0112
              Bcc     2.1716   286.520   102.237    95.573  1.0000  0.0006 -0.0001
 
              Baa    -0.0945     6.839     2.440     2.281  1.0000 -0.0025 -0.0006
     2 O(17)  Bbb    -0.0294     2.124     0.758     0.709  0.0006  0.0119  0.9999
              Bcc     0.1239    -8.963    -3.198    -2.990  0.0025  0.9999 -0.0119
 
              Baa    -0.0324   -17.275    -6.164    -5.762  0.9456 -0.0083 -0.3251
     3 H(1)   Bbb    -0.0297   -15.861    -5.659    -5.291  0.0046  0.9999 -0.0122
              Bcc     0.0621    33.136    11.824    11.053  0.3252  0.0100  0.9456
 
              Baa    -0.0942     6.817     2.432     2.274  0.0079  0.0117  0.9999
     4 O(17)  Bbb    -0.0260     1.881     0.671     0.627 -0.0002  0.9999 -0.0117
              Bcc     0.1202    -8.698    -3.104    -2.901  1.0000  0.0001 -0.0079
 
              Baa    -0.0327   -17.469    -6.233    -5.827  0.0082  0.3346  0.9423
     5 H(1)   Bbb    -0.0284   -15.170    -5.413    -5.060  1.0000  0.0002 -0.0087
              Bcc     0.0612    32.639    11.646    10.887 -0.0031  0.9424 -0.3345
 
              Baa    -0.1659    12.006     4.284     4.005 -0.0005  1.0000 -0.0080
     6 O(17)  Bbb    -0.0258     1.868     0.667     0.623 -0.0001  0.0080  1.0000
              Bcc     0.1917   -13.874    -4.951    -4.628  1.0000  0.0005  0.0001
 
              Baa    -0.0307   -16.358    -5.837    -5.456 -0.0002  0.0079  1.0000
     7 H(1)   Bbb    -0.0236   -12.575    -4.487    -4.194 -0.3689  0.9294 -0.0074
              Bcc     0.0542    28.932    10.324     9.651  0.9295  0.3689 -0.0028
 
              Baa    -0.0946     6.844     2.442     2.283  1.0000  0.0036  0.0002
     8 O(17)  Bbb    -0.0294     2.124     0.758     0.709 -0.0003  0.0119  0.9999
              Bcc     0.1239    -8.968    -3.200    -2.991 -0.0036  0.9999 -0.0119
 
              Baa    -0.0324   -17.276    -6.164    -5.763  0.9457  0.0094  0.3249
     9 H(1)   Bbb    -0.0297   -15.863    -5.660    -5.291 -0.0057  0.9999 -0.0122
              Bcc     0.0621    33.139    11.825    11.054 -0.3250  0.0097  0.9457
 
              Baa    -0.0942     6.816     2.432     2.274 -0.0064  0.0116  0.9999
    10 O(17)  Bbb    -0.0260     1.881     0.671     0.627 -0.0021  0.9999 -0.0116
              Bcc     0.1202    -8.697    -3.103    -2.901  1.0000  0.0022  0.0064
 
              Baa    -0.0327   -17.469    -6.234    -5.827 -0.0052 -0.3128  0.9498
    11 H(1)   Bbb    -0.0284   -15.171    -5.414    -5.061  1.0000  0.0010  0.0058
              Bcc     0.0612    32.641    11.647    10.888 -0.0028  0.9498  0.3128
 
              Baa    -0.1661    12.016     4.288     4.008 -0.0004  0.9999 -0.0148
    12 O(17)  Bbb    -0.0256     1.855     0.662     0.619  0.0003  0.0148  0.9999
              Bcc     0.1917   -13.871    -4.950    -4.627  1.0000  0.0004 -0.0003
 
              Baa    -0.0307   -16.362    -5.838    -5.458  0.0004  0.0151  0.9999
    13 H(1)   Bbb    -0.0236   -12.578    -4.488    -4.195 -0.3690  0.9293 -0.0139
              Bcc     0.0542    28.939    10.326     9.653  0.9294  0.3689 -0.0059
 
              Baa    -0.0307   -16.365    -5.839    -5.459  0.0003  0.0149  0.9999
    14 H(1)   Bbb    -0.0236   -12.579    -4.488    -4.196  0.3681  0.9297 -0.0140
              Bcc     0.0542    28.944    10.328     9.655  0.9298 -0.3681  0.0052
 
              Baa    -0.0327   -17.471    -6.234    -5.828  0.0090 -0.3130  0.9497
    15 H(1)   Bbb    -0.0284   -15.173    -5.414    -5.061  1.0000  0.0006 -0.0093
              Bcc     0.0612    32.645    11.648    10.889  0.0023  0.9497  0.3130
 
              Baa    -0.0324   -17.280    -6.166    -5.764  0.9455  0.0006  0.3257
    16 H(1)   Bbb    -0.0297   -15.868    -5.662    -5.293  0.0032  0.9999 -0.0113
              Bcc     0.0621    33.148    11.828    11.057 -0.3257  0.0117  0.9454
 
              Baa    -0.0327   -17.471    -6.234    -5.828 -0.0089  0.3348  0.9423
    17 H(1)   Bbb    -0.0284   -15.172    -5.414    -5.061  1.0000  0.0014  0.0089
              Bcc     0.0612    32.643    11.648    10.888  0.0017  0.9423 -0.3348
 
              Baa    -0.0307   -16.360    -5.838    -5.457 -0.0001  0.0078  1.0000
    18 H(1)   Bbb    -0.0236   -12.575    -4.487    -4.195  0.3679  0.9298 -0.0072
              Bcc     0.0542    28.935    10.325     9.652  0.9299 -0.3679  0.0029
 
              Baa    -0.0324   -17.280    -6.166    -5.764  0.9454  0.0002 -0.3260
    19 H(1)   Bbb    -0.0297   -15.868    -5.662    -5.293 -0.0041  0.9999 -0.0113
              Bcc     0.0621    33.148    11.828    11.057  0.3260  0.0120  0.9453
 

 ---------------------------------------------------------------------------------

 No NMR shielding tensors so no spin-rotation constants.
 Leave Link  601 at Thu May 23 17:09:11 2024, MaxMem= 26843545600 cpu:              28.7 elap:               0.3
 (Enter /gpfs/fs1/soft/improv/software/custom-built/gaussian/g16/l9999.exe)
 Unable to Open any file for archive entry.
 1\1\GINC-I221\SP\UHSEH1PBE\Gen\H12Mn1O6(3+,5)\HHARB\23-May-2024\0\\#p 
 HSEH1PBE scf=(maxcycles=500,xqc,maxconventional=50) scrf=(cpcm,solvent
 =water) geom=allcheck guess=read chkbasis\\Title\\3,5\Mn,-0.7848139541
 ,0.7130264993,0.031563791\O,-1.326261295,2.5820529754,-0.1638472589\H,
 -1.4629969962,3.0433874246,-1.0115128998\O,1.0986890012,1.2590060567,0
 .0309655634\H,1.8629614815,0.6619550829,0.1165407696\O,-0.8441746971,0
 .9196817125,2.1707060942\H,-1.6025808297,0.7579991435,2.7553097625\O,-
 0.2434060821,-1.1558567003,0.2282767489\H,-0.0627256084,-1.7703850146,
 -0.5064062551\O,-2.6684266355,0.1674015557,0.0313549898\H,-2.994589369
 1,-0.7469795829,0.1056267381\O,-0.7253217699,0.505395438,-2.1072651499
 \H,0.0347071011,0.6612343366,-2.6913501856\H,-1.4530804776,0.236048356
 3,-2.6911384491\H,1.4248953634,2.1722240108,-0.0556907624\H,-1.5018608
 793,3.1971534456,0.5716010457\H,-3.4328107788,0.7659325091,-0.04135108
 95\H,-0.1180577971,1.1943639979,2.754135632\H,-0.1116633472,-1.6175614
 77,1.076526325\\Version=ES64L-G16RevC.02\State=5-A\HF=-1608.4922801\S2
 =6.019933\S2-1=0.\S2A=6.000051\RMSD=1.447e-09\Dipole=-0.0000166,0.0003
 202,0.0009981\Quadrupole=0.2788122,0.4751911,-0.7540033,-0.0665053,0.0
 317759,-0.1264896\PG=C01 [X(H12Mn1O6)]\\@
 The archive entry for this job was punched.


 YOU CAN LEAD A BOY TO COLLEGE....
 BUT YOU CANNOT MAKE HIM THINK....
           ELBERT HUBBARD
 Job cpu time:       0 days  2 hours 35 minutes  6.4 seconds.
 Elapsed time:       0 days  0 hours  1 minutes 18.6 seconds.
 File lengths (MBytes):  RWF=    121 Int=      0 D2E=      0 Chk=     32 Scr=      1
 Normal termination of Gaussian 16 at Thu May 23 17:09:11 2024.
