 Entering Gaussian System, Link 0=g16
 Input=Ti_2_B3LYP.com
 Output=Ti_2_B3LYP.log
 Initial command:
 /gpfs/fs1/soft/improv/software/custom-built/gaussian/g16/l1.exe "/scratch/Gau-387319.inp" -scrdir="/scratch/"
 Default CPUs for threads: 0-127
 Default linda workers: i220.lcrc.anl.gov
 Default is to use 128 SMP processors on each worker.
 Entering Link 1 = /gpfs/fs1/soft/improv/software/custom-built/gaussian/g16/l1.exe PID=    387320.
  
 Copyright (c) 1988-2021, Gaussian, Inc.  All Rights Reserved.
  
 This is part of the Gaussian(R) 16 program.  It is based on
 the Gaussian(R) 09 system (copyright 2009, Gaussian, Inc.),
 the Gaussian(R) 03 system (copyright 2003, Gaussian, Inc.),
 the Gaussian(R) 98 system (copyright 1998, Gaussian, Inc.),
 the Gaussian(R) 94 system (copyright 1995, Gaussian, Inc.),
 the Gaussian 92(TM) system (copyright 1992, Gaussian, Inc.),
 the Gaussian 90(TM) system (copyright 1990, Gaussian, Inc.),
 the Gaussian 88(TM) system (copyright 1988, Gaussian, Inc.),
 the Gaussian 86(TM) system (copyright 1986, Carnegie Mellon
 University), and the Gaussian 82(TM) system (copyright 1983,
 Carnegie Mellon University). Gaussian is a federally registered
 trademark of Gaussian, Inc.
  
 This software contains proprietary and confidential information,
 including trade secrets, belonging to Gaussian, Inc.
  
 This software is provided under written license and may be
 used, copied, transmitted, or stored only in accord with that
 written license.
  
 The following legend is applicable only to US Government
 contracts under FAR:
  
                    RESTRICTED RIGHTS LEGEND
  
 Use, reproduction and disclosure by the US Government is
 subject to restrictions as set forth in subparagraphs (a)
 and (c) of the Commercial Computer Software - Restricted
 Rights clause in FAR 52.227-19.
  
 Gaussian, Inc.
 340 Quinnipiac St., Bldg. 40, Wallingford CT 06492
  
  
 ---------------------------------------------------------------
 Warning -- This program may not be used in any manner that
 competes with the business of Gaussian, Inc. or will provide
 assistance to any competitor of Gaussian, Inc.  The licensee
 of this program is prohibited from giving any competitor of
 Gaussian, Inc. access to this program.  By using this program,
 the user acknowledges that Gaussian, Inc. is engaged in the
 business of creating and licensing software in the field of
 computational chemistry and represents and warrants to the
 licensee that it is not a competitor of Gaussian, Inc. and that
 it will not use this program in any manner prohibited above.
 ---------------------------------------------------------------
  

 Cite this work as:
 Gaussian 16, Revision C.02,
 M. J. Frisch, G. W. Trucks, H. B. Schlegel, G. E. Scuseria, 
 M. A. Robb, J. R. Cheeseman, G. Scalmani, V. Barone, 
 G. A. Petersson, H. Nakatsuji, X. Li, M. Caricato, A. V. Marenich, 
 J. Bloino, B. G. Janesko, R. Gomperts, B. Mennucci, H. P. Hratchian, 
 J. V. Ortiz, A. F. Izmaylov, J. L. Sonnenberg, D. Williams-Young, 
 F. Ding, F. Lipparini, F. Egidi, J. Goings, B. Peng, A. Petrone, 
 T. Henderson, D. Ranasinghe, V. G. Zakrzewski, J. Gao, N. Rega, 
 G. Zheng, W. Liang, M. Hada, M. Ehara, K. Toyota, R. Fukuda, 
 J. Hasegawa, M. Ishida, T. Nakajima, Y. Honda, O. Kitao, H. Nakai, 
 T. Vreven, K. Throssell, J. A. Montgomery, Jr., J. E. Peralta, 
 F. Ogliaro, M. J. Bearpark, J. J. Heyd, E. N. Brothers, K. N. Kudin, 
 V. N. Staroverov, T. A. Keith, R. Kobayashi, J. Normand, 
 K. Raghavachari, A. P. Rendell, J. C. Burant, S. S. Iyengar, 
 J. Tomasi, M. Cossi, J. M. Millam, M. Klene, C. Adamo, R. Cammi, 
 J. W. Ochterski, R. L. Martin, K. Morokuma, O. Farkas, 
 J. B. Foresman, and D. J. Fox, Gaussian, Inc., Wallingford CT, 2019.
 
 ******************************************
 Gaussian 16:  ES64L-G16RevC.02  7-Dec-2021
                23-May-2024 
 ******************************************
 %chk=Ti_2_B3LYP.chk
 SetSPE:  set environment variable "OMP_PROC_BIND" = "true"
 SetSPE:  set environment variable "OMP_PLACES" = "{0},{1},{2},{3},{4},{5},{6},{7},{8},{9},{10},{11},{12},{13},{14},{15},{16},{17},{18},{19},{20},{21},{22},{23},{24},{25},{26},{27},{28},{29},{30},{31},{32},{33},{34},{35},{36},{37},{38},{39},{40},{41},{42},{43},{44},{45},{46},{47},{48},{49},{50},{51},{52},{53},{54},{55},{56},{57},{58},{59},{60},{61},{62},{63},{64},{65},{66},{67},{68},{69},{70},{71},{72},{73},{74},{75},{76},{77},{78},{79},{80},{81},{82},{83},{84},{85},{86},{87},{88},{89},{90},{91},{92},{93},{94},{95},{96},{97},{98},{99},{100},{101},{102},{103},{104},{105},{106},{107},{108},{109},{110},{111},{112},{113},{114},{115},{116},{117},{118},{119},{120},{121},{122},{123},{124},{125},{126},{127}"
 SetLPE:    new flags="-opt 'Tsnet.Node.lindarsharg: ssh'  -nodelist 'i220.lcrc.anl.gov' -env GAUSS_MDEF=26843545600 -env GAUSS_EXEDIR="/gpfs/fs1/soft/improv/software/custom-built/gaussian/g16/bsd:/gpfs/fs1/soft/improv/software/custom-built/gaussian/g16" -env "OMP_PROC_BIND=true" -env "OMP_PLACES={0},{1},{2},{3},{4},{5},{6},{7},{8},{9},{10},{11},{12},{13},{14},{15},{16},{17},{18},{19},{20},{21},{22},{23},{24},{25},{26},{27},{28},{29},{30},{31},{32},{33},{34},{35},{36},{37},{38},{39},{40},{41},{42},{43},{44},{45},{46},{47},{48},{49},{50},{51},{52},{53},{54},{55},{56},{57},{58},{59},{60},{61},{62},{63},{64},{65},{66},{67},{68},{69},{70},{71},{72},{73},{74},{75},{76},{77},{78},{79},{80},{81},{82},{83},{84},{85},{86},{87},{88},{89},{90},{91},{92},{93},{94},{95},{96},{97},{98},{99},{100},{101},{102},{103},{104},{105},{106},{107},{108},{109},{110},{111},{112},{113},{114},{115},{116},{117},{118},{119},{120},{121},{122},{123},{124},{125},{126},{127}" -env GAUSS_ADEF="0,1,2,3,4,5,6,7,8,9,10,11,12,13,14,15,16,17,18,19,20,21,22,23,24,25,26,27,28,29,30,31,32,33,34,35,36,37,38,39,40,41,42,43,44,45,46,47,48,49,50,51,52,53,54,55,56,57,58,59,60,61,62,63,64,65,66,67,68,69,70,71,72,73,74,75,76,77,78,79,80,81,82,83,84,85,86,87,88,89,90,91,92,93,94,95,96,97,98,99,100,101,102,103,104,105,106,107,108,109,110,111,112,113,114,115,116,117,118,119,120,121,122,123,124,125,126,127""
 Will use up to    1 processors via Linda.
 ----------------------------------------------------------------------
 #p B3LYP empiricaldispersion=gd3 6-31+G(2df,p) opt=(cartesian,calcall,
 maxcycles=500) freq scf=(maxcycles=500,xqc,maxconventional=50)
 ----------------------------------------------------------------------
 1/6=500,10=4,18=10,26=3,38=1/1,3;
 2/12=2,17=6,18=5,29=2,40=1/2;
 3/5=1,6=6,7=114,11=2,25=1,30=1,71=2,74=-5,124=31,140=1/1,2,3;
 4//1;
 5/5=2,7=500,8=3,13=1,38=5,85=50/2,8;
 8/6=4,10=90,11=11/1;
 11/6=1,8=1,9=11,15=111,16=1/1,2,10;
 10/6=1/2;
 6/7=2,8=2,9=2,10=2,18=1,28=1/1;
 7/7=1,10=1,25=1/1,2,3,16;
 1/6=500,10=4,18=10,26=3/3(3);
 2/29=1/2;
 7/7=1,8=1,9=1,25=1,44=-1/16;
 99/12=1/99;
 2/29=1/2;
 3/5=1,6=6,7=114,11=2,25=1,30=1,71=2,74=-5,124=31,140=1/1,2,3;
 4/5=5,16=3,69=1/1;
 5/5=2,7=500,8=3,13=1,38=5,85=50/2,8;
 8/6=4,10=90,11=11/1;
 11/6=1,8=1,9=11,15=111,16=1/1,2,10;
 10/6=1/2;
 7/7=1,10=1,25=1/1,2,3,16;
 1/6=500,10=4,18=10,26=3/3(-8);
 2/29=1/2;
 6/7=2,8=2,9=2,10=2,18=1,19=2,28=1/1;
 7/7=1,8=1,9=1,25=1,44=-1/16;
 99/12=1/99;
 Leave Link    1 at Thu May 23 14:53:28 2024, MaxMem=           0 cpu:               1.4 elap:               0.1
 (Enter /gpfs/fs1/soft/improv/software/custom-built/gaussian/g16/l101.exe)
 -----
 Title
 -----
 Symbolic Z-matrix:
 Charge =  2 Multiplicity = 3
 Ti                   -0.79304   0.81881  -0.09491 
 O                    -1.20497   2.57394  -0.35687 
 H                    -2.12106   2.64974  -0.63312 
 O                     0.99012   1.19063  -0.05794 
 H                     1.42696   0.5998    0.55971 
 O                    -0.81752   1.03069   1.71365 
 H                    -1.02108   0.1906    2.13133 
 O                    -0.38507  -0.93351   0.17118 
 H                    -1.15682  -1.47369  -0.01433 
 O                    -2.57341   0.45178  -0.12186 
 H                    -2.77756  -0.08744  -0.88929 
 O                    -0.76966   0.60461  -1.90111 
 H                     0.09872   0.83457  -2.23949 
 H                    -0.96534  -0.30999  -2.11742 
 H                     1.12208   2.09943   0.22124 
 H                    -1.07671   3.0584    0.46184 
 H                    -2.81407  -0.02398   0.6765 
 H                     0.0422    1.33615   2.01181 
 H                    -0.11532  -1.06446   1.08312 
 
 ITRead=  0  0  0  0  0  0  0  0  0  0  0  0  0  0  0  0  0  0  0
 MicOpt= -1 -1 -1 -1 -1 -1 -1 -1 -1 -1 -1 -1 -1 -1 -1 -1 -1 -1 -1
 NAtoms=     19 NQM=       19 NQMF=       0 NMMI=      0 NMMIF=      0
                NMic=       0 NMicF=      0.
                    Isotopes and Nuclear Properties:
 (Nuclear quadrupole moments (NQMom) in fm**2, nuclear magnetic moments (NMagM)
  in nuclear magnetons)

  Atom         1           2           3           4           5           6           7           8           9          10
 IAtWgt=          48          16           1          16           1          16           1          16           1          16
 AtmWgt=  47.9479467  15.9949146   1.0078250  15.9949146   1.0078250  15.9949146   1.0078250  15.9949146   1.0078250  15.9949146
 NucSpn=           0           0           1           0           1           0           1           0           1           0
 AtZEff=  -0.0000000  -0.0000000  -0.0000000  -0.0000000  -0.0000000  -0.0000000  -0.0000000  -0.0000000  -0.0000000  -0.0000000
 NQMom=    0.0000000   0.0000000   0.0000000   0.0000000   0.0000000   0.0000000   0.0000000   0.0000000   0.0000000   0.0000000
 NMagM=    0.0000000   0.0000000   2.7928460   0.0000000   2.7928460   0.0000000   2.7928460   0.0000000   2.7928460   0.0000000
 AtZNuc=  22.0000000   8.0000000   1.0000000   8.0000000   1.0000000   8.0000000   1.0000000   8.0000000   1.0000000   8.0000000

  Atom        11          12          13          14          15          16          17          18          19
 IAtWgt=           1          16           1           1           1           1           1           1           1
 AtmWgt=   1.0078250  15.9949146   1.0078250   1.0078250   1.0078250   1.0078250   1.0078250   1.0078250   1.0078250
 NucSpn=           1           0           1           1           1           1           1           1           1
 AtZEff=  -0.0000000  -0.0000000  -0.0000000  -0.0000000  -0.0000000  -0.0000000  -0.0000000  -0.0000000  -0.0000000
 NQMom=    0.0000000   0.0000000   0.0000000   0.0000000   0.0000000   0.0000000   0.0000000   0.0000000   0.0000000
 NMagM=    2.7928460   0.0000000   2.7928460   2.7928460   2.7928460   2.7928460   2.7928460   2.7928460   2.7928460
 AtZNuc=   1.0000000   8.0000000   1.0000000   1.0000000   1.0000000   1.0000000   1.0000000   1.0000000   1.0000000
 Leave Link  101 at Thu May 23 14:53:28 2024, MaxMem= 26843545600 cpu:               0.4 elap:               0.1
 (Enter /gpfs/fs1/soft/improv/software/custom-built/gaussian/g16/l103.exe)

 GradGradGradGradGradGradGradGradGradGradGradGradGradGradGradGradGradGrad
 Berny optimization.
 Initialization pass.
 No Z-matrix variables, so optimization will use Cartesian coordinates.
 Trust Radius=3.00D-01 FncErr=1.00D-07 GrdErr=1.00D-06 EigMax=2.50D+02 EigMin=1.00D-04
 Number of steps in this run=    114 maximum allowed number of steps=    114.
 GradGradGradGradGradGradGradGradGradGradGradGradGradGradGradGradGradGrad

 Leave Link  103 at Thu May 23 14:53:28 2024, MaxMem= 26843545600 cpu:               0.4 elap:               0.0
 (Enter /gpfs/fs1/soft/improv/software/custom-built/gaussian/g16/l202.exe)
 ---------------------------------------------------------------------------------------------------
                            Z-MATRIX (ANGSTROMS AND DEGREES)
   CD    Cent   Atom    N1       Length/X        N2       Alpha/Y        N3        Beta/Z          J
 ---------------------------------------------------------------------------------------------------
      1      1  Ti       0  -0.793037          0.818805         -0.094905
      2      2  O        0  -1.204971          2.573941         -0.356874
      3      3  H        0  -2.121063          2.649743         -0.633122
      4      4  O        0   0.990122          1.190635         -0.057941
      5      5  H        0   1.426962          0.599798          0.559707
      6      6  O        0  -0.817519          1.030691          1.713650
      7      7  H        0  -1.021079          0.190602          2.131326
      8      8  O        0  -0.385068         -0.933506          0.171177
      9      9  H        0  -1.156817         -1.473692         -0.014327
     10     10  O        0  -2.573405          0.451778         -0.121857
     11     11  H        0  -2.777557         -0.087440         -0.889285
     12     12  O        0  -0.769659          0.604612         -1.901109
     13     13  H        0   0.098725          0.834573         -2.239490
     14     14  H        0  -0.965336         -0.309994         -2.117418
     15     15  H        0   1.122081          2.099426          0.221242
     16     16  H        0  -1.076711          3.058396          0.461841
     17     17  H        0  -2.814074         -0.023981          0.676500
     18     18  H        0   0.042204          1.336153          2.011809
     19     19  H        0  -0.115315         -1.064459          1.083123
 ---------------------------------------------------------------------------------------------------
                         Z-Matrix orientation:                         
 ---------------------------------------------------------------------
 Center     Atomic      Atomic             Coordinates (Angstroms)
 Number     Number       Type             X           Y           Z
 ---------------------------------------------------------------------
      1         22           0       -0.793037    0.818805   -0.094905
      2          8           0       -1.204971    2.573941   -0.356874
      3          1           0       -2.121063    2.649743   -0.633122
      4          8           0        0.990122    1.190635   -0.057941
      5          1           0        1.426962    0.599798    0.559707
      6          8           0       -0.817519    1.030691    1.713650
      7          1           0       -1.021079    0.190602    2.131326
      8          8           0       -0.385068   -0.933506    0.171177
      9          1           0       -1.156817   -1.473692   -0.014327
     10          8           0       -2.573405    0.451778   -0.121857
     11          1           0       -2.777557   -0.087440   -0.889285
     12          8           0       -0.769659    0.604612   -1.901109
     13          1           0        0.098725    0.834573   -2.239490
     14          1           0       -0.965336   -0.309994   -2.117418
     15          1           0        1.122081    2.099426    0.221242
     16          1           0       -1.076711    3.058396    0.461841
     17          1           0       -2.814074   -0.023981    0.676500
     18          1           0        0.042204    1.336153    2.011809
     19          1           0       -0.115315   -1.064459    1.083123
 ---------------------------------------------------------------------
                    Distance matrix (angstroms):
                    1          2          3          4          5
     1  Ti   0.000000
     2  O    1.821762   0.000000
     3  H    2.325008   0.959835   0.000000
     4  O    1.821889   2.611767   3.484150   0.000000
     5  H    2.324839   3.415322   4.267739   0.959899   0.000000
     6  O    1.821090   2.611285   3.134947   2.536076   2.560263
     7  H    2.324381   3.450400   3.859988   3.136540   2.937743
     8  O    1.818745   3.640503   4.062050   2.540791   2.405292
     9  H    2.322579   4.062387   4.279649   3.421971   3.362259
    10  O    1.818006   2.536025   2.301533   3.639880   4.060711
    11  H    2.321775   3.136788   2.826442   4.064482   4.499984
    12  O    1.819010   2.540161   2.759827   2.614866   3.298603
    13  H    2.322657   2.875634   3.286750   2.383386   3.107223
    14  H    2.322591   3.387332   3.506977   3.212032   3.703756
    15  H    2.325429   2.444290   3.398642   0.959822   1.567289
    16  H    2.325125   0.959918   1.567358   2.833814   3.510364
    17  H    2.321626   3.225876   3.056824   4.060370   4.288255
    18  H    2.324547   2.949275   3.660724   2.281137   2.137375
    19  H    2.322443   4.061883   4.556733   2.758526   2.328591
                    6          7          8          9         10
     6  O    0.000000
     7  H    0.960021   0.000000
     8  O    2.534622   2.347406   0.000000
     9  H    3.061530   2.718847   0.960108   0.000000
    10  O    2.605257   2.748593   2.606473   2.392848   0.000000
    11  H    3.444886   3.505227   2.750347   2.305222   0.959885
    12  O    3.640099   4.061422   2.609231   2.833582   2.538227
    13  H    4.062670   4.557707   3.028445   3.443229   3.430916
    14  H    4.061572   4.278496   2.441955   2.411193   2.673658
    15  H    2.670492   3.447487   3.387136   4.244531   4.060675
    16  H    2.397039   3.318813   4.061790   4.557738   3.061904
    17  H    2.484803   2.318921   2.642472   2.307685   0.960023
    18  H    0.959858   1.567527   2.953276   3.665802   3.489421
    19  H    2.297892   1.869309   0.959980   1.567353   3.129403
                   11         12         13         14         15
    11  H    0.000000
    12  O    2.352526   0.000000
    13  H    3.308498   0.959935   0.000000
    14  H    2.200452   0.959991   1.567533   0.000000
    15  H    4.606825   3.212091   2.949969   3.953725   0.000000
    16  H    3.822919   3.420362   3.691102   4.243941   2.410850
    17  H    1.567497   3.349453   4.210050   3.362383   4.495491
    18  H    4.288824   4.062660   4.281159   4.558009   2.225950
    19  H    3.454344   3.481323   3.833001   3.396353   3.504877
                   16         17         18         19
    16  H    0.000000
    17  H    3.544793   0.000000
    18  H    2.573032   3.433851   0.000000
    19  H    4.278809   2.920828   2.578800   0.000000
 Stoichiometry    H12O6Ti(2+,3)
 Framework group  C1[X(H12O6Ti)]
 Deg. of freedom    51
 Full point group                 C1      NOp   1
 Largest Abelian subgroup         C1      NOp   1
 Largest concise Abelian subgroup C1      NOp   1
                         Standard orientation:                         
 ---------------------------------------------------------------------
 Center     Atomic      Atomic             Coordinates (Angstroms)
 Number     Number       Type             X           Y           Z
 ---------------------------------------------------------------------
      1         22           0       -0.021180   -0.031230    0.010242
      2          8           0       -0.320919   -1.688924   -0.683318
      3          1           0       -1.137185   -1.681640   -1.188234
      4          8           0        1.254245   -0.678703    1.138670
      5          1           0        1.942694   -0.019880    1.254406
      6          8           0        1.297272    0.293478   -1.203273
      7          1           0        1.380717    1.240156   -1.339207
      8          8           0        0.279127    1.625671    0.697504
      9          1           0       -0.432969    2.214440    0.436587
     10          8           0       -1.286964    0.614116   -1.123984
     11          1           0       -2.036002    0.936648   -0.617728
     12          8           0       -1.338898   -0.352897    1.222244
     13          1           0       -0.972045   -0.816749    1.978376
     14          1           0       -1.718130    0.480302    1.511284
     15          1           0        1.635288   -1.477345    0.766869
     16          1           0        0.408469   -1.932016   -1.258072
     17          1           0       -0.916621    1.333448   -1.640754
     18          1           0        2.128227   -0.056953   -0.874579
     19          1           0        1.112611    1.964725    0.362979
 ---------------------------------------------------------------------
 Rotational constants (GHZ):           2.0397079           1.9739543           1.9252950
 Leave Link  202 at Thu May 23 14:53:28 2024, MaxMem= 26843545600 cpu:               0.5 elap:               0.0
 (Enter /gpfs/fs1/soft/improv/software/custom-built/gaussian/g16/l301.exe)
 Standard basis: 6-31+G(2df,p) (6D, 7F)
 Ernie: Thresh=  0.10000D-02 Tol=  0.10000D-05 Strict=F.
 There are   347 symmetry adapted cartesian basis functions of A   symmetry.
 There are   317 symmetry adapted basis functions of A   symmetry.
   317 basis functions,   514 primitive gaussians,   347 cartesian basis functions
    41 alpha electrons       39 beta electrons
       nuclear repulsion energy       701.0339313636 Hartrees.
 IExCor=  402 DFT=T Ex+Corr=B3LYP ExCW=0 ScaHFX=  0.200000
 ScaDFX=  0.800000  0.720000  1.000000  0.810000 ScalE2=  1.000000  1.000000
 IRadAn=      5 IRanWt=     -1 IRanGd=            0 ICorTp=0 IEmpDi=131
 NAtoms=   19 NActive=   19 NUniq=   19 SFac= 1.00D+00 NAtFMM=   60 NAOKFM=F Big=F
 Integral buffers will be    131072 words long.
 Raffenetti 2 integral format.
 Two-electron integral symmetry is turned on.
 R6Disp:  Grimme-D3 Dispersion energy=       -0.0213441433 Hartrees.
 Nuclear repulsion after empirical dispersion term =      701.0125872203 Hartrees.
 Leave Link  301 at Thu May 23 14:53:28 2024, MaxMem= 26843545600 cpu:               0.4 elap:               0.0
 (Enter /gpfs/fs1/soft/improv/software/custom-built/gaussian/g16/l302.exe)
 NPDir=0 NMtPBC=     1 NCelOv=     1 NCel=       1 NClECP=     1 NCelD=      1
         NCelK=      1 NCelE2=     1 NClLst=     1 CellRange=     0.0.
 One-electron integrals computed using PRISM.
 One-electron integral symmetry used in STVInt
 NBasis=   317 RedAO= T EigKep=  4.19D-05  NBF=   317
 NBsUse=   317 1.00D-06 EigRej= -1.00D+00 NBFU=   317
 Precomputing XC quadrature grid using
 IXCGrd= 4 IRadAn=           5 IRanWt=          -1 IRanGd=           0 AccXCQ= 0.00D+00.
 Generated NRdTot=       0 NPtTot=           0 NUsed=           0 NTot=          32
 NSgBfM=   347   347   347   347   347 MxSgAt=    19 MxSgA2=    19.
 Leave Link  302 at Thu May 23 14:53:29 2024, MaxMem= 26843545600 cpu:              21.8 elap:               0.3
 (Enter /gpfs/fs1/soft/improv/software/custom-built/gaussian/g16/l303.exe)
 DipDrv:  MaxL=1.
 Leave Link  303 at Thu May 23 14:53:29 2024, MaxMem= 26843545600 cpu:               1.0 elap:               0.0
 (Enter /gpfs/fs1/soft/improv/software/custom-built/gaussian/g16/l401.exe)
 ExpMin= 9.99D-03 ExpMax= 4.32D+04 ExpMxC= 6.48D+03 IAcc=3 IRadAn=         5 AccDes= 0.00D+00
 Harris functional with IExCor=  402 and IRadAn=       5 diagonalized for initial guess.
 HarFok:  IExCor=  402 AccDes= 0.00D+00 IRadAn=         5 IDoV= 1 UseB2=F ITyADJ=14
 ICtDFT=  3500011 ScaDFX=  1.000000  1.000000  1.000000  1.000000
 FoFCou: FMM=F IPFlag=           0 FMFlag=      100000 FMFlg1=           0
         NFxFlg=           0 DoJE=T BraDBF=F KetDBF=T FulRan=T
         wScrn=  0.000000 ICntrl=       500 IOpCl=  0 I1Cent=   200000004 NGrid=           0
         NMat0=    1 NMatS0=      1 NMatT0=    0 NMatD0=    1 NMtDS0=    0 NMtDT0=    0
 Petite list used in FoFCou.
 Harris En= -1307.66411859978    
 JPrj=0 DoOrth=F DoCkMO=F.
 Initial guess <Sx>= 0.0000 <Sy>= 0.0000 <Sz>= 1.0000 <S**2>= 2.0000 S= 1.0000
 Leave Link  401 at Thu May 23 14:53:29 2024, MaxMem= 26843545600 cpu:              41.0 elap:               0.4
 (Enter /gpfs/fs1/soft/improv/software/custom-built/gaussian/g16/l502.exe)
 Integral symmetry usage will be decided dynamically.
 UHF open shell SCF:
 Using DIIS extrapolation, IDIIS=  1040.
 NGot= 26843545600 LenX= 26843256607 LenY= 26843135757
 Requested convergence on RMS density matrix=1.00D-08 within  50 cycles.
 Requested convergence on MAX density matrix=1.00D-06.
 Requested convergence on             energy=1.00D-06.
 No special actions if energy rises.
 Fock matrices will be formed incrementally for  20 cycles.

 Cycle   1  Pass 1  IDiag  1:
 FoFJK:  IHMeth= 1 ICntrl=       0 DoSepK=F KAlg= 0 I1Cent=           0 FoldK=F
 IRaf= 990000000 NMat=       1 IRICut=       1 DoRegI=T DoRafI=F ISym2E= 0 IDoP0=0 IntGTp=1.
 FoFCou: FMM=F IPFlag=           0 FMFlag=      100000 FMFlg1=           0
         NFxFlg=           0 DoJE=F BraDBF=F KetDBF=F FulRan=T
         wScrn=  0.000000 ICntrl=         0 IOpCl=  1 I1Cent=           0 NGrid=           0
         NMat0=    1 NMatS0=      1 NMatT0=    0 NMatD0=    1 NMtDS0=    0 NMtDT0=    0
 Symmetry not used in FoFCou.
 E= -1306.82672897577    
 DIIS: error= 3.69D-02 at cycle   1 NSaved=   1.
 NSaved= 1 IEnMin= 1 EnMin= -1306.82672897577     IErMin= 1 ErrMin= 3.69D-02
 ErrMax= 3.69D-02  0.00D+00 EMaxC= 1.00D-01 BMatC= 2.92D+00 BMatP= 2.92D+00
 IDIUse=3 WtCom= 6.31D-01 WtEn= 3.69D-01
 Coeff-Com:  0.100D+01
 Coeff-En:   0.100D+01
 Coeff:      0.100D+01
 Gap=     0.120 Goal=   None    Shift=    0.000
 Gap=     0.422 Goal=   None    Shift=    0.000
 GapD=    0.120 DampG=1.000 DampE=0.250 DampFc=0.2500 IDamp=-1.
 Damping current iteration by 2.50D-01
 RMSDP=5.11D-02 MaxDP=4.21D+00              OVMax= 9.65D-01

 Cycle   2  Pass 1  IDiag  1:
 RMSU=  1.28D-02    CP:  9.99D-01
 E= -1306.99822935203     Delta-E=       -0.171500376257 Rises=F Damp=T
 DIIS: error= 1.50D-02 at cycle   2 NSaved=   2.
 NSaved= 2 IEnMin= 2 EnMin= -1306.99822935203     IErMin= 2 ErrMin= 1.50D-02
 ErrMax= 1.50D-02  0.00D+00 EMaxC= 1.00D-01 BMatC= 4.58D-01 BMatP= 2.92D+00
 IDIUse=3 WtCom= 8.50D-01 WtEn= 1.50D-01
 Coeff-Com: -0.422D+00 0.142D+01
 Coeff-En:   0.511D-01 0.949D+00
 Coeff:     -0.351D+00 0.135D+01
 Gap=    -0.008 Goal=   None    Shift=    0.000
 Gap=     0.349 Goal=   None    Shift=    0.000
 RMSDP=1.30D-02 MaxDP=1.05D+00 DE=-1.72D-01 OVMax= 9.94D-01

 Cycle   3  Pass 1  IDiag  1:
 RMSU=  4.19D-03    CP:  9.49D-01  4.26D-02
 E= -1307.13584719288     Delta-E=       -0.137617840858 Rises=F Damp=F
 DIIS: error= 2.43D-02 at cycle   3 NSaved=   3.
 NSaved= 3 IEnMin= 3 EnMin= -1307.13584719288     IErMin= 2 ErrMin= 1.50D-02
 ErrMax= 2.43D-02  0.00D+00 EMaxC= 1.00D-01 BMatC= 1.10D+00 BMatP= 4.58D-01
 IDIUse=2 WtCom= 0.00D+00 WtEn= 1.00D+00
 Coeff-En:   0.000D+00 0.241D+00 0.759D+00
 Coeff:      0.000D+00 0.241D+00 0.759D+00
 Gap=     0.110 Goal=   None    Shift=    0.000
 Gap=     0.622 Goal=   None    Shift=    0.000
 RMSDP=4.29D-02 MaxDP=5.43D+00 DE=-1.38D-01 OVMax= 9.96D-01

 Cycle   4  Pass 1  IDiag  1:
 RMSU=  2.82D-02    CP:  9.95D-01  2.53D+00 -2.98D-01
 E= -1306.43615882265     Delta-E=        0.699688370234 Rises=F Damp=F
 DIIS: error= 4.38D-02 at cycle   4 NSaved=   4.
 NSaved= 4 IEnMin= 3 EnMin= -1307.13584719288     IErMin= 2 ErrMin= 1.50D-02
 ErrMax= 4.38D-02  0.00D+00 EMaxC= 1.00D-01 BMatC= 3.16D+00 BMatP= 4.58D-01
 IDIUse=2 WtCom= 0.00D+00 WtEn= 1.00D+00
 Coeff-En:   0.000D+00 0.000D+00 0.727D+00 0.273D+00
 Coeff:      0.000D+00 0.000D+00 0.727D+00 0.273D+00
 Gap=     0.022 Goal=   None    Shift=    0.000
 Gap=     0.356 Goal=   None    Shift=    0.000
 RMSDP=3.98D-02 MaxDP=4.93D+00 DE= 7.00D-01 OVMax= 9.86D-01

 Cycle   5  Pass 1  IDiag  1:
 RMSU=  1.19D-02    CP:  9.71D-01  4.11D-01  2.24D-01  5.91D-02
 E= -1307.27139727285     Delta-E=       -0.835238450203 Rises=F Damp=F
 DIIS: error= 1.40D-02 at cycle   5 NSaved=   5.
 NSaved= 5 IEnMin= 5 EnMin= -1307.27139727285     IErMin= 5 ErrMin= 1.40D-02
 ErrMax= 1.40D-02  0.00D+00 EMaxC= 1.00D-01 BMatC= 3.72D-01 BMatP= 4.58D-01
 IDIUse=3 WtCom= 8.60D-01 WtEn= 1.40D-01
 Coeff-Com: -0.187D+00 0.436D+00 0.316D+00-0.349D-01 0.469D+00
 Coeff-En:   0.000D+00 0.000D+00 0.333D+00 0.000D+00 0.667D+00
 Coeff:     -0.161D+00 0.375D+00 0.319D+00-0.300D-01 0.497D+00
 Gap=     0.055 Goal=   None    Shift=    0.000
 Gap=     0.334 Goal=   None    Shift=    0.000
 RMSDP=9.73D-03 MaxDP=1.07D+00 DE=-8.35D-01 OVMax= 6.53D-01

 Cycle   6  Pass 1  IDiag  1:
 RMSU=  2.98D-03    CP:  9.65D-01  1.60D-01  6.12D-01  3.17D-03  2.97D-01
 E= -1307.33634732834     Delta-E=       -0.064950055484 Rises=F Damp=F
 DIIS: error= 5.57D-03 at cycle   6 NSaved=   6.
 NSaved= 6 IEnMin= 6 EnMin= -1307.33634732834     IErMin= 6 ErrMin= 5.57D-03
 ErrMax= 5.57D-03  0.00D+00 EMaxC= 1.00D-01 BMatC= 6.09D-02 BMatP= 3.72D-01
 IDIUse=3 WtCom= 9.44D-01 WtEn= 5.57D-02
 Coeff-Com: -0.109D+00 0.161D+00-0.369D-01-0.184D-01 0.225D+00 0.778D+00
 Coeff-En:   0.000D+00 0.000D+00 0.000D+00 0.000D+00 0.212D+00 0.788D+00
 Coeff:     -0.103D+00 0.152D+00-0.348D-01-0.174D-01 0.225D+00 0.778D+00
 Gap=     0.038 Goal=   None    Shift=    0.000
 Gap=     0.326 Goal=   None    Shift=    0.000
 RMSDP=2.80D-03 MaxDP=2.58D-01 DE=-6.50D-02 OVMax= 1.68D-01

 Cycle   7  Pass 1  IDiag  1:
 RMSU=  6.03D-04    CP:  9.68D-01  2.53D-01  5.25D-01  1.18D-02  4.97D-01
                    CP:  1.15D+00
 E= -1307.35006266720     Delta-E=       -0.013715338866 Rises=F Damp=F
 DIIS: error= 6.25D-04 at cycle   7 NSaved=   7.
 NSaved= 7 IEnMin= 7 EnMin= -1307.35006266720     IErMin= 7 ErrMin= 6.25D-04
 ErrMax= 6.25D-04  0.00D+00 EMaxC= 1.00D-01 BMatC= 1.21D-03 BMatP= 6.09D-02
 IDIUse=3 WtCom= 9.94D-01 WtEn= 6.25D-03
 Coeff-Com: -0.401D-01 0.565D-01-0.293D-01-0.426D-02 0.717D-01 0.274D+00
 Coeff-Com:  0.671D+00
 Coeff-En:   0.000D+00 0.000D+00 0.000D+00 0.000D+00 0.000D+00 0.000D+00
 Coeff-En:   0.100D+01
 Coeff:     -0.398D-01 0.561D-01-0.292D-01-0.423D-02 0.713D-01 0.272D+00
 Coeff:      0.673D+00
 Gap=     0.045 Goal=   None    Shift=    0.000
 Gap=     0.324 Goal=   None    Shift=    0.000
 RMSDP=3.01D-04 MaxDP=3.77D-02 DE=-1.37D-02 OVMax= 2.00D-02

 Cycle   8  Pass 1  IDiag  1:
 RMSU=  2.37D-04    CP:  9.68D-01  2.55D-01  5.16D-01  1.16D-02  5.12D-01
                    CP:  1.15D+00  9.97D-01
 E= -1307.35032938327     Delta-E=       -0.000266716071 Rises=F Damp=F
 DIIS: error= 2.82D-04 at cycle   8 NSaved=   8.
 NSaved= 8 IEnMin= 8 EnMin= -1307.35032938327     IErMin= 8 ErrMin= 2.82D-04
 ErrMax= 2.82D-04  0.00D+00 EMaxC= 1.00D-01 BMatC= 3.47D-04 BMatP= 1.21D-03
 IDIUse=3 WtCom= 9.97D-01 WtEn= 2.82D-03
 Coeff-Com: -0.124D-02 0.252D-02-0.212D-02 0.115D-02-0.372D-02-0.520D-01
 Coeff-Com:  0.368D+00 0.688D+00
 Coeff-En:   0.000D+00 0.000D+00 0.000D+00 0.000D+00 0.000D+00 0.000D+00
 Coeff-En:   0.000D+00 0.100D+01
 Coeff:     -0.123D-02 0.251D-02-0.211D-02 0.115D-02-0.371D-02-0.518D-01
 Coeff:      0.367D+00 0.688D+00
 Gap=     0.047 Goal=   None    Shift=    0.000
 Gap=     0.324 Goal=   None    Shift=    0.000
 RMSDP=3.02D-04 MaxDP=3.26D-02 DE=-2.67D-04 OVMax= 2.43D-02

 Cycle   9  Pass 1  IDiag  1:
 RMSU=  9.59D-05    CP:  9.68D-01  2.63D-01  5.11D-01  1.27D-02  5.32D-01
                    CP:  1.14D+00  1.11D+00  1.30D+00
 E= -1307.35046578013     Delta-E=       -0.000136396862 Rises=F Damp=F
 DIIS: error= 2.10D-04 at cycle   9 NSaved=   9.
 NSaved= 9 IEnMin= 9 EnMin= -1307.35046578013     IErMin= 9 ErrMin= 2.10D-04
 ErrMax= 2.10D-04  0.00D+00 EMaxC= 1.00D-01 BMatC= 7.18D-05 BMatP= 3.47D-04
 IDIUse=3 WtCom= 9.98D-01 WtEn= 2.10D-03
 Coeff-Com:  0.359D-02-0.381D-02 0.218D-02 0.700D-03-0.114D-01-0.259D-01
 Coeff-Com:  0.415D-01 0.190D+00 0.804D+00
 Coeff-En:   0.000D+00 0.000D+00 0.000D+00 0.000D+00 0.000D+00 0.000D+00
 Coeff-En:   0.000D+00 0.000D+00 0.100D+01
 Coeff:      0.358D-02-0.380D-02 0.217D-02 0.698D-03-0.113D-01-0.258D-01
 Coeff:      0.414D-01 0.189D+00 0.804D+00
 Gap=     0.047 Goal=   None    Shift=    0.000
 Gap=     0.324 Goal=   None    Shift=    0.000
 RMSDP=1.91D-04 MaxDP=2.26D-02 DE=-1.36D-04 OVMax= 1.70D-02

 Cycle  10  Pass 1  IDiag  1:
 RMSU=  4.92D-05    CP:  9.68D-01  2.66D-01  5.10D-01  1.36D-02  5.43D-01
                    CP:  1.13D+00  1.17D+00  1.61D+00  1.75D+00
 E= -1307.35050879104     Delta-E=       -0.000043010902 Rises=F Damp=F
 DIIS: error= 2.58D-04 at cycle  10 NSaved=  10.
 NSaved=10 IEnMin=10 EnMin= -1307.35050879104     IErMin= 9 ErrMin= 2.10D-04
 ErrMax= 2.58D-04  0.00D+00 EMaxC= 1.00D-01 BMatC= 1.22D-04 BMatP= 7.18D-05
 IDIUse=3 WtCom= 9.98D-01 WtEn= 2.10D-03
 Coeff-Com:  0.274D-02-0.287D-02-0.789D-03 0.418D-04-0.944D-02 0.453D-01
 Coeff-Com: -0.887D-01-0.199D+00 0.103D+00 0.115D+01
 Coeff-En:   0.000D+00 0.000D+00 0.000D+00 0.000D+00 0.000D+00 0.000D+00
 Coeff-En:   0.000D+00 0.000D+00 0.000D+00 0.100D+01
 Coeff:      0.274D-02-0.286D-02-0.787D-03 0.417D-04-0.942D-02 0.452D-01
 Coeff:     -0.885D-01-0.199D+00 0.103D+00 0.115D+01
 Gap=     0.048 Goal=   None    Shift=    0.000
 Gap=     0.325 Goal=   None    Shift=    0.000
 RMSDP=2.08D-04 MaxDP=2.21D-02 DE=-4.30D-05 OVMax= 2.03D-02

 Cycle  11  Pass 1  IDiag  1:
 RMSU=  2.75D-05    CP:  9.68D-01  2.67D-01  5.11D-01  1.46D-02  5.52D-01
                    CP:  1.11D+00  1.19D+00  2.05D+00  2.95D+00  2.20D+00
 E= -1307.35057077983     Delta-E=       -0.000061988798 Rises=F Damp=F
 DIIS: error= 2.29D-04 at cycle  11 NSaved=  11.
 NSaved=11 IEnMin=11 EnMin= -1307.35057077983     IErMin= 9 ErrMin= 2.10D-04
 ErrMax= 2.29D-04  0.00D+00 EMaxC= 1.00D-01 BMatC= 9.47D-05 BMatP= 7.18D-05
 IDIUse=3 WtCom= 9.98D-01 WtEn= 2.10D-03
 Coeff-Com:  0.954D-03-0.623D-03-0.282D-02-0.254D-03-0.538D-02 0.653D-01
 Coeff-Com: -0.633D-01-0.237D+00-0.442D+00 0.462D+00 0.122D+01
 Coeff-En:   0.000D+00 0.000D+00 0.000D+00 0.000D+00 0.000D+00 0.000D+00
 Coeff-En:   0.000D+00 0.000D+00 0.000D+00 0.000D+00 0.100D+01
 Coeff:      0.952D-03-0.621D-03-0.281D-02-0.254D-03-0.537D-02 0.652D-01
 Coeff:     -0.632D-01-0.237D+00-0.441D+00 0.461D+00 0.122D+01
 Gap=     0.048 Goal=   None    Shift=    0.000
 Gap=     0.325 Goal=   None    Shift=    0.000
 RMSDP=2.58D-04 MaxDP=2.42D-02 DE=-6.20D-05 OVMax= 2.59D-02

 Cycle  12  Pass 1  IDiag  1:
 RMSU=  1.57D-04    CP:  9.67D-01  2.67D-01  5.14D-01  1.59D-02  5.60D-01
                    CP:  1.08D+00  1.20D+00  2.58D+00  3.00D+00  3.00D+00
                    CP:  2.23D+00
 E= -1307.35063729283     Delta-E=       -0.000066512993 Rises=F Damp=F
 DIIS: error= 1.37D-04 at cycle  12 NSaved=  12.
 NSaved=12 IEnMin=12 EnMin= -1307.35063729283     IErMin=12 ErrMin= 1.37D-04
 ErrMax= 1.37D-04  0.00D+00 EMaxC= 1.00D-01 BMatC= 3.48D-05 BMatP= 7.18D-05
 IDIUse=3 WtCom= 9.99D-01 WtEn= 1.37D-03
 Coeff-Com: -0.376D-03 0.101D-02-0.219D-02-0.257D-03-0.121D-02 0.350D-01
 Coeff-Com:  0.576D-02-0.850D-01-0.462D+00-0.396D+00 0.890D+00 0.101D+01
 Coeff-En:   0.000D+00 0.000D+00 0.000D+00 0.000D+00 0.000D+00 0.000D+00
 Coeff-En:   0.000D+00 0.000D+00 0.000D+00 0.000D+00 0.000D+00 0.100D+01
 Coeff:     -0.375D-03 0.101D-02-0.218D-02-0.256D-03-0.121D-02 0.350D-01
 Coeff:      0.575D-02-0.849D-01-0.461D+00-0.396D+00 0.889D+00 0.101D+01
 Gap=     0.049 Goal=   None    Shift=    0.000
 Gap=     0.326 Goal=   None    Shift=    0.000
 RMSDP=2.84D-04 MaxDP=2.52D-02 DE=-6.65D-05 OVMax= 2.89D-02

 Cycle  13  Pass 1  IDiag  1:
 RMSU=  5.54D-05    CP:  9.67D-01  2.66D-01  5.18D-01  1.74D-02  5.69D-01
                    CP:  1.05D+00  1.20D+00  3.00D+00  3.00D+00  3.00D+00
                    CP:  3.00D+00  2.25D+00
 E= -1307.35067990254     Delta-E=       -0.000042609716 Rises=F Damp=F
 DIIS: error= 2.40D-05 at cycle  13 NSaved=  13.
 NSaved=13 IEnMin=13 EnMin= -1307.35067990254     IErMin=13 ErrMin= 2.40D-05
 ErrMax= 2.40D-05  0.00D+00 EMaxC= 1.00D-01 BMatC= 2.30D-06 BMatP= 3.48D-05
 IDIUse=1 WtCom= 1.00D+00 WtEn= 0.00D+00
 Coeff-Com: -0.475D-03 0.984D-03-0.518D-04-0.115D-03 0.573D-03-0.277D-02
 Coeff-Com:  0.180D-01 0.211D-01-0.700D-01-0.229D+00-0.606D-01 0.363D+00
 Coeff-Com:  0.960D+00
 Coeff:     -0.475D-03 0.984D-03-0.518D-04-0.115D-03 0.573D-03-0.277D-02
 Coeff:      0.180D-01 0.211D-01-0.700D-01-0.229D+00-0.606D-01 0.363D+00
 Coeff:      0.960D+00
 Gap=     0.049 Goal=   None    Shift=    0.000
 Gap=     0.326 Goal=   None    Shift=    0.000
 RMSDP=1.45D-04 MaxDP=1.39D-02 DE=-4.26D-05 OVMax= 1.44D-02

 Cycle  14  Pass 1  IDiag  1:
 RMSU=  3.83D-05    CP:  9.66D-01  2.67D-01  5.19D-01  1.83D-02  5.74D-01
                    CP:  1.03D+00  1.20D+00  3.00D+00  3.00D+00  3.00D+00
                    CP:  3.00D+00  2.86D+00  1.98D+00
 E= -1307.35068929129     Delta-E=       -0.000009388743 Rises=F Damp=F
 DIIS: error= 1.33D-05 at cycle  14 NSaved=  14.
 NSaved=14 IEnMin=14 EnMin= -1307.35068929129     IErMin=14 ErrMin= 1.33D-05
 ErrMax= 1.33D-05  0.00D+00 EMaxC= 1.00D-01 BMatC= 6.71D-07 BMatP= 2.30D-06
 IDIUse=1 WtCom= 1.00D+00 WtEn= 0.00D+00
 Coeff-Com: -0.152D-04 0.127D-03 0.397D-03-0.206D-04-0.823D-04-0.421D-02
 Coeff-Com: -0.414D-02 0.393D-02 0.814D-01 0.153D+00-0.193D+00-0.293D+00
 Coeff-Com: -0.433D-01 0.130D+01
 Coeff:     -0.152D-04 0.127D-03 0.397D-03-0.206D-04-0.823D-04-0.421D-02
 Coeff:     -0.414D-02 0.393D-02 0.814D-01 0.153D+00-0.193D+00-0.293D+00
 Coeff:     -0.433D-01 0.130D+01
 Gap=     0.049 Goal=   None    Shift=    0.000
 Gap=     0.326 Goal=   None    Shift=    0.000
 RMSDP=7.96D-05 MaxDP=8.60D-03 DE=-9.39D-06 OVMax= 7.07D-03

 Cycle  15  Pass 1  IDiag  1:
 RMSU=  2.45D-05    CP:  9.66D-01  2.67D-01  5.19D-01  1.88D-02  5.79D-01
                    CP:  1.03D+00  1.20D+00  3.00D+00  3.00D+00  3.00D+00
                    CP:  3.00D+00  3.00D+00  2.43D+00  1.47D+00
 E= -1307.35069178589     Delta-E=       -0.000002494605 Rises=F Damp=F
 DIIS: error= 3.58D-05 at cycle  15 NSaved=  15.
 NSaved=15 IEnMin=15 EnMin= -1307.35069178589     IErMin=14 ErrMin= 1.33D-05
 ErrMax= 3.58D-05  0.00D+00 EMaxC= 1.00D-01 BMatC= 2.55D-06 BMatP= 6.71D-07
 IDIUse=1 WtCom= 1.00D+00 WtEn= 0.00D+00
 Coeff-Com:  0.235D-03-0.303D-03 0.177D-03 0.325D-04-0.709D-03-0.113D-02
 Coeff-Com: -0.954D-03 0.216D-02 0.468D-01 0.986D-01-0.111D+00-0.200D+00
 Coeff-Com: -0.166D+00 0.704D+00 0.629D+00
 Coeff:      0.235D-03-0.303D-03 0.177D-03 0.325D-04-0.709D-03-0.113D-02
 Coeff:     -0.954D-03 0.216D-02 0.468D-01 0.986D-01-0.111D+00-0.200D+00
 Coeff:     -0.166D+00 0.704D+00 0.629D+00
 Gap=     0.049 Goal=   None    Shift=    0.000
 Gap=     0.326 Goal=   None    Shift=    0.000
 RMSDP=3.61D-05 MaxDP=3.49D-03 DE=-2.49D-06 OVMax= 3.31D-03

 Cycle  16  Pass 1  IDiag  1:
 RMSU=  6.24D-06    CP:  9.66D-01  2.68D-01  5.19D-01  1.90D-02  5.80D-01
                    CP:  1.02D+00  1.20D+00  3.00D+00  3.00D+00  3.00D+00
                    CP:  3.00D+00  3.00D+00  2.67D+00  1.75D+00  1.95D+00
 E= -1307.35069299743     Delta-E=       -0.000001211540 Rises=F Damp=F
 DIIS: error= 2.51D-05 at cycle  16 NSaved=  16.
 NSaved=16 IEnMin=16 EnMin= -1307.35069299743     IErMin=14 ErrMin= 1.33D-05
 ErrMax= 2.51D-05  0.00D+00 EMaxC= 1.00D-01 BMatC= 1.28D-06 BMatP= 6.71D-07
 IDIUse=1 WtCom= 1.00D+00 WtEn= 0.00D+00
 Coeff-Com:  0.253D-03-0.349D-03-0.118D-03 0.373D-04-0.779D-03 0.195D-02
 Coeff-Com:  0.600D-02 0.302D-02-0.147D-01-0.218D-01-0.555D-02 0.308D-01
 Coeff-Com:  0.504D-03-0.181D+00 0.179D+00 0.100D+01
 Coeff:      0.253D-03-0.349D-03-0.118D-03 0.373D-04-0.779D-03 0.195D-02
 Coeff:      0.600D-02 0.302D-02-0.147D-01-0.218D-01-0.555D-02 0.308D-01
 Coeff:      0.504D-03-0.181D+00 0.179D+00 0.100D+01
 Gap=     0.049 Goal=   None    Shift=    0.000
 Gap=     0.326 Goal=   None    Shift=    0.000
 RMSDP=2.83D-05 MaxDP=2.75D-03 DE=-1.21D-06 OVMax= 2.30D-03

 Cycle  17  Pass 1  IDiag  1:
 RMSU=  4.06D-06    CP:  9.66D-01  2.67D-01  5.20D-01  1.92D-02  5.81D-01
                    CP:  1.02D+00  1.20D+00  3.00D+00  3.00D+00  3.00D+00
                    CP:  3.00D+00  3.00D+00  2.87D+00  1.99D+00  2.74D+00
                    CP:  1.32D+00
 E= -1307.35069392044     Delta-E=       -0.000000923004 Rises=F Damp=F
 DIIS: error= 1.04D-05 at cycle  17 NSaved=  17.
 NSaved=17 IEnMin=17 EnMin= -1307.35069392044     IErMin=17 ErrMin= 1.04D-05
 ErrMax= 1.04D-05  0.00D+00 EMaxC= 1.00D-01 BMatC= 2.20D-07 BMatP= 6.71D-07
 IDIUse=1 WtCom= 1.00D+00 WtEn= 0.00D+00
 Coeff-Com: -0.853D-04 0.132D-03-0.185D-03-0.372D-04 0.336D-03 0.281D-02
 Coeff-Com:  0.596D-03-0.838D-02-0.406D-01-0.989D-02 0.102D+00 0.948D-01
 Coeff-Com:  0.484D-01-0.492D+00-0.694D+00-0.388D+00 0.238D+01
 Coeff:     -0.853D-04 0.132D-03-0.185D-03-0.372D-04 0.336D-03 0.281D-02
 Coeff:      0.596D-03-0.838D-02-0.406D-01-0.989D-02 0.102D+00 0.948D-01
 Coeff:      0.484D-01-0.492D+00-0.694D+00-0.388D+00 0.238D+01
 Gap=     0.049 Goal=   None    Shift=    0.000
 Gap=     0.326 Goal=   None    Shift=    0.000
 RMSDP=4.63D-05 MaxDP=4.77D-03 DE=-9.23D-07 OVMax= 4.96D-03

 Cycle  18  Pass 1  IDiag  1:
 RMSU=  2.54D-05    CP:  9.66D-01  2.68D-01  5.20D-01  1.94D-02  5.82D-01
                    CP:  1.02D+00  1.20D+00  3.00D+00  3.00D+00  3.00D+00
                    CP:  3.00D+00  3.00D+00  3.00D+00  2.34D+00  3.00D+00
                    CP: -2.71D-01  3.00D+00
 E= -1307.35069505716     Delta-E=       -0.000001136719 Rises=F Damp=F
 DIIS: error= 6.06D-06 at cycle  18 NSaved=  18.
 NSaved=18 IEnMin=18 EnMin= -1307.35069505716     IErMin=18 ErrMin= 6.06D-06
 ErrMax= 6.06D-06  0.00D+00 EMaxC= 1.00D-01 BMatC= 4.85D-08 BMatP= 2.20D-07
 IDIUse=1 WtCom= 1.00D+00 WtEn= 0.00D+00
 Coeff-Com: -0.168D-03 0.216D-03 0.401D-05-0.242D-04 0.593D-03-0.714D-03
 Coeff-Com:  0.229D-03-0.266D-03-0.172D-01-0.129D-01 0.475D-01 0.479D-01
 Coeff-Com:  0.307D-01-0.100D+00-0.335D+00-0.603D+00 0.759D+00 0.118D+01
 Coeff:     -0.168D-03 0.216D-03 0.401D-05-0.242D-04 0.593D-03-0.714D-03
 Coeff:      0.229D-03-0.266D-03-0.172D-01-0.129D-01 0.475D-01 0.479D-01
 Coeff:      0.307D-01-0.100D+00-0.335D+00-0.603D+00 0.759D+00 0.118D+01
 Gap=     0.049 Goal=   None    Shift=    0.000
 Gap=     0.326 Goal=   None    Shift=    0.000
 RMSDP=2.57D-05 MaxDP=2.14D-03 DE=-1.14D-06 OVMax= 3.30D-03

 Cycle  19  Pass 1  IDiag  1:
 RMSU=  7.24D-06    CP:  9.66D-01  2.68D-01  5.20D-01  1.95D-02  5.83D-01
                    CP:  1.01D+00  1.20D+00  3.00D+00  3.00D+00  3.00D+00
                    CP:  3.00D+00  3.00D+00  3.00D+00  2.54D+00  3.00D+00
                    CP: -1.46D+00  3.00D+00  1.82D+00
 E= -1307.35069541743     Delta-E=       -0.000000360274 Rises=F Damp=F
 DIIS: error= 1.09D-05 at cycle  19 NSaved=  19.
 NSaved=19 IEnMin=19 EnMin= -1307.35069541743     IErMin=18 ErrMin= 6.06D-06
 ErrMax= 1.09D-05  0.00D+00 EMaxC= 1.00D-01 BMatC= 2.30D-07 BMatP= 4.85D-08
 IDIUse=1 WtCom= 1.00D+00 WtEn= 0.00D+00
 Coeff-Com: -0.111D-03 0.117D-03 0.836D-04-0.504D-05 0.409D-03-0.193D-02
 Coeff-Com:  0.612D-03 0.405D-02-0.515D-03-0.102D-01 0.116D-02-0.918D-03
 Coeff-Com: -0.180D-01 0.106D+00 0.112D+00 0.277D-01-0.579D+00 0.249D+00
 Coeff-Com:  0.111D+01
 Coeff:     -0.111D-03 0.117D-03 0.836D-04-0.504D-05 0.409D-03-0.193D-02
 Coeff:      0.612D-03 0.405D-02-0.515D-03-0.102D-01 0.116D-02-0.918D-03
 Coeff:     -0.180D-01 0.106D+00 0.112D+00 0.277D-01-0.579D+00 0.249D+00
 Coeff:      0.111D+01
 Gap=     0.049 Goal=   None    Shift=    0.000
 Gap=     0.326 Goal=   None    Shift=    0.000
 RMSDP=1.18D-05 MaxDP=6.21D-04 DE=-3.60D-07 OVMax= 1.62D-03

 Cycle  20  Pass 1  IDiag  1:
 RMSU=  4.06D-06    CP:  9.66D-01  2.68D-01  5.20D-01  1.95D-02  5.83D-01
                    CP:  1.01D+00  1.19D+00  3.00D+00  3.00D+00  3.00D+00
                    CP:  3.00D+00  3.00D+00  3.00D+00  2.59D+00  3.00D+00
                    CP: -2.24D+00  3.00D+00  2.15D+00  1.62D+00
 E= -1307.35069554030     Delta-E=       -0.000000122875 Rises=F Damp=F
 DIIS: error= 1.12D-05 at cycle  20 NSaved=  20.
 NSaved=20 IEnMin=20 EnMin= -1307.35069554030     IErMin=18 ErrMin= 6.06D-06
 ErrMax= 1.12D-05  0.00D+00 EMaxC= 1.00D-01 BMatC= 2.40D-07 BMatP= 4.85D-08
 IDIUse=1 WtCom= 1.00D+00 WtEn= 0.00D+00
 Coeff-Com: -0.484D-04 0.520D-04 0.301D-04 0.941D-06 0.166D-03-0.886D-03
 Coeff-Com:  0.368D-03 0.211D-02-0.757D-03-0.615D-02 0.180D-02-0.101D-01
 Coeff-Com: -0.431D-01 0.311D-01 0.218D+00 0.466D+00-0.684D+00-0.600D+00
 Coeff-Com:  0.519D+00 0.111D+01
 Coeff:     -0.484D-04 0.520D-04 0.301D-04 0.941D-06 0.166D-03-0.886D-03
 Coeff:      0.368D-03 0.211D-02-0.757D-03-0.615D-02 0.180D-02-0.101D-01
 Coeff:     -0.431D-01 0.311D-01 0.218D+00 0.466D+00-0.684D+00-0.600D+00
 Coeff:      0.519D+00 0.111D+01
 Gap=     0.049 Goal=   None    Shift=    0.000
 Gap=     0.326 Goal=   None    Shift=    0.000
 RMSDP=1.01D-05 MaxDP=5.67D-04 DE=-1.23D-07 OVMax= 1.27D-03

 Cycle  21  Pass 1  IDiag  1:
 Restarting incremental Fock formation.
 E= -1307.35069563333     Delta-E=       -0.000000093030 Rises=F Damp=F
 DIIS: error= 7.22D-06 at cycle  21 NSaved=  20.
 NSaved=20 IEnMin=20 EnMin= -1307.35069563333     IErMin=17 ErrMin= 6.06D-06
 ErrMax= 7.22D-06  0.00D+00 EMaxC= 1.00D-01 BMatC= 9.86D-08 BMatP= 4.85D-08
 IDIUse=1 WtCom= 1.00D+00 WtEn= 0.00D+00
 Coeff-Com:  0.599D-05-0.584D-05-0.410D-04-0.140D-04 0.405D-03 0.849D-04
 Coeff-Com: -0.834D-03-0.732D-02-0.581D-02 0.194D-01 0.615D-02-0.307D-01
 Coeff-Com: -0.899D-01 0.890D-01 0.405D+00-0.176D+00-0.609D+00-0.268D+00
 Coeff-Com:  0.743D+00 0.925D+00
 Coeff:      0.599D-05-0.584D-05-0.410D-04-0.140D-04 0.405D-03 0.849D-04
 Coeff:     -0.834D-03-0.732D-02-0.581D-02 0.194D-01 0.615D-02-0.307D-01
 Coeff:     -0.899D-01 0.890D-01 0.405D+00-0.176D+00-0.609D+00-0.268D+00
 Coeff:      0.743D+00 0.925D+00
 Gap=     0.049 Goal=   None    Shift=    0.000
 Gap=     0.326 Goal=   None    Shift=    0.000
 RMSDP=8.22D-06 MaxDP=4.74D-04 DE=-9.30D-08 OVMax= 9.92D-04

 Cycle  22  Pass 1  IDiag  1:
 RMSU=  8.22D-06    CP:  1.00D+00
 E= -1307.35069567824     Delta-E=       -0.000000044904 Rises=F Damp=F
 DIIS: error= 1.78D-06 at cycle  22 NSaved=  20.
 NSaved=20 IEnMin=20 EnMin= -1307.35069567824     IErMin=20 ErrMin= 1.78D-06
 ErrMax= 1.78D-06  0.00D+00 EMaxC= 1.00D-01 BMatC= 6.96D-09 BMatP= 4.85D-08
 IDIUse=1 WtCom= 1.00D+00 WtEn= 0.00D+00
 Coeff-Com:  0.226D-05-0.185D-04 0.299D-05 0.239D-03 0.217D-03-0.219D-03
 Coeff-Com: -0.407D-02-0.520D-02 0.970D-02 0.111D-01 0.466D-02-0.473D-01
 Coeff-Com: -0.350D-01 0.132D-01 0.102D+00-0.845D-02-0.108D+00-0.120D+00
 Coeff-Com:  0.904D-01 0.110D+01
 Coeff:      0.226D-05-0.185D-04 0.299D-05 0.239D-03 0.217D-03-0.219D-03
 Coeff:     -0.407D-02-0.520D-02 0.970D-02 0.111D-01 0.466D-02-0.473D-01
 Coeff:     -0.350D-01 0.132D-01 0.102D+00-0.845D-02-0.108D+00-0.120D+00
 Coeff:      0.904D-01 0.110D+01
 Gap=     0.049 Goal=   None    Shift=    0.000
 Gap=     0.326 Goal=   None    Shift=    0.000
 RMSDP=3.06D-06 MaxDP=1.89D-04 DE=-4.49D-08 OVMax= 3.52D-04

 Cycle  23  Pass 1  IDiag  1:
 RMSU=  5.23D-07    CP:  1.00D+00  1.37D+00
 E= -1307.35069568422     Delta-E=       -0.000000005985 Rises=F Damp=F
 DIIS: error= 5.10D-07 at cycle  23 NSaved=  20.
 NSaved=20 IEnMin=20 EnMin= -1307.35069568422     IErMin=20 ErrMin= 5.10D-07
 ErrMax= 5.10D-07  0.00D+00 EMaxC= 1.00D-01 BMatC= 3.61D-10 BMatP= 6.96D-09
 IDIUse=1 WtCom= 1.00D+00 WtEn= 0.00D+00
 Coeff-Com:  0.110D-04-0.439D-05-0.725D-04 0.954D-04 0.378D-03 0.184D-02
 Coeff-Com:  0.975D-03-0.470D-02 0.459D-03 0.132D-01 0.226D-01-0.448D-01
 Coeff-Com: -0.148D+00 0.102D+00 0.210D+00 0.992D-01-0.333D+00-0.377D+00
 Coeff-Com:  0.250D+00 0.121D+01
 Coeff:      0.110D-04-0.439D-05-0.725D-04 0.954D-04 0.378D-03 0.184D-02
 Coeff:      0.975D-03-0.470D-02 0.459D-03 0.132D-01 0.226D-01-0.448D-01
 Coeff:     -0.148D+00 0.102D+00 0.210D+00 0.992D-01-0.333D+00-0.377D+00
 Coeff:      0.250D+00 0.121D+01
 Gap=     0.049 Goal=   None    Shift=    0.000
 Gap=     0.326 Goal=   None    Shift=    0.000
 RMSDP=2.27D-06 MaxDP=1.35D-04 DE=-5.98D-09 OVMax= 2.25D-04

 Cycle  24  Pass 1  IDiag  1:
 RMSU=  7.99D-07    CP:  1.00D+00  1.62D+00  1.35D+00
 E= -1307.35069568549     Delta-E=       -0.000000001271 Rises=F Damp=F
 DIIS: error= 1.32D-06 at cycle  24 NSaved=  20.
 NSaved=20 IEnMin=20 EnMin= -1307.35069568549     IErMin=19 ErrMin= 5.10D-07
 ErrMax= 1.32D-06  0.00D+00 EMaxC= 1.00D-01 BMatC= 2.69D-09 BMatP= 3.61D-10
 IDIUse=1 WtCom= 1.00D+00 WtEn= 0.00D+00
 Coeff-Com: -0.129D-04-0.303D-05 0.174D-03 0.223D-03 0.887D-03 0.513D-03
 Coeff-Com: -0.374D-02-0.190D-02 0.334D-02 0.159D-01 0.166D-03-0.264D-01
 Coeff-Com: -0.816D-02 0.106D-01 0.615D-01-0.623D-02-0.701D-01-0.261D+00
 Coeff-Com:  0.260D+00 0.102D+01
 Coeff:     -0.129D-04-0.303D-05 0.174D-03 0.223D-03 0.887D-03 0.513D-03
 Coeff:     -0.374D-02-0.190D-02 0.334D-02 0.159D-01 0.166D-03-0.264D-01
 Coeff:     -0.816D-02 0.106D-01 0.615D-01-0.623D-02-0.701D-01-0.261D+00
 Coeff:      0.260D+00 0.102D+01
 Gap=     0.049 Goal=   None    Shift=    0.000
 Gap=     0.326 Goal=   None    Shift=    0.000
 RMSDP=1.00D-06 MaxDP=6.51D-05 DE=-1.27D-09 OVMax= 9.09D-05

 Cycle  25  Pass 1  IDiag  1:
 RMSU=  6.16D-07    CP:  1.00D+00  1.70D+00  2.02D+00  5.87D-01
 E= -1307.35069568636     Delta-E=       -0.000000000861 Rises=F Damp=F
 DIIS: error= 5.70D-07 at cycle  25 NSaved=  20.
 NSaved=20 IEnMin=20 EnMin= -1307.35069568636     IErMin=18 ErrMin= 5.10D-07
 ErrMax= 5.70D-07  0.00D+00 EMaxC= 1.00D-01 BMatC= 5.37D-10 BMatP= 3.61D-10
 IDIUse=1 WtCom= 1.00D+00 WtEn= 0.00D+00
 Coeff-Com:  0.250D-04 0.508D-04-0.441D-04 0.169D-03 0.928D-03-0.139D-02
 Coeff-Com: -0.319D-02-0.420D-02 0.624D-02 0.192D-01 0.382D-01-0.494D-01
 Coeff-Com: -0.809D-01 0.992D-02 0.145D+00 0.123D+00-0.329D+00-0.403D+00
 Coeff-Com:  0.649D+00 0.879D+00
 Coeff:      0.250D-04 0.508D-04-0.441D-04 0.169D-03 0.928D-03-0.139D-02
 Coeff:     -0.319D-02-0.420D-02 0.624D-02 0.192D-01 0.382D-01-0.494D-01
 Coeff:     -0.809D-01 0.992D-02 0.145D+00 0.123D+00-0.329D+00-0.403D+00
 Coeff:      0.649D+00 0.879D+00
 Gap=     0.049 Goal=   None    Shift=    0.000
 Gap=     0.326 Goal=   None    Shift=    0.000
 RMSDP=9.12D-07 MaxDP=8.99D-05 DE=-8.61D-10 OVMax= 6.30D-05

 Cycle  26  Pass 1  IDiag  1:
 RMSU=  1.74D-07    CP:  1.00D+00  1.74D+00  2.75D+00  1.45D-01  2.02D+00
 E= -1307.35069568666     Delta-E=       -0.000000000301 Rises=F Damp=F
 DIIS: error= 8.93D-08 at cycle  26 NSaved=  20.
 NSaved=20 IEnMin=20 EnMin= -1307.35069568666     IErMin=20 ErrMin= 8.93D-08
 ErrMax= 8.93D-08  0.00D+00 EMaxC= 1.00D-01 BMatC= 1.70D-11 BMatP= 3.61D-10
 IDIUse=1 WtCom= 1.00D+00 WtEn= 0.00D+00
 Coeff-Com: -0.203D-04-0.216D-04 0.319D-03 0.873D-03-0.878D-03-0.207D-02
 Coeff-Com: -0.289D-02 0.634D-02 0.112D-01 0.122D-01-0.306D-01-0.883D-02
 Coeff-Com:  0.107D-01 0.214D-01 0.181D-01-0.621D-01-0.130D+00-0.787D-01
 Coeff-Com:  0.246D+00 0.989D+00
 Coeff:     -0.203D-04-0.216D-04 0.319D-03 0.873D-03-0.878D-03-0.207D-02
 Coeff:     -0.289D-02 0.634D-02 0.112D-01 0.122D-01-0.306D-01-0.883D-02
 Coeff:      0.107D-01 0.214D-01 0.181D-01-0.621D-01-0.130D+00-0.787D-01
 Coeff:      0.246D+00 0.989D+00
 Gap=     0.049 Goal=   None    Shift=    0.000
 Gap=     0.326 Goal=   None    Shift=    0.000
 RMSDP=4.17D-07 MaxDP=2.81D-05 DE=-3.01D-10 OVMax= 3.74D-05

 Cycle  27  Pass 1  IDiag  1:
 RMSU=  4.71D-08    CP:  1.00D+00  1.78D+00  2.99D+00  1.29D-01  2.43D+00
                    CP:  1.53D+00
 E= -1307.35069568672     Delta-E=       -0.000000000067 Rises=F Damp=F
 DIIS: error= 1.07D-07 at cycle  27 NSaved=  20.
 NSaved=20 IEnMin=20 EnMin= -1307.35069568672     IErMin=19 ErrMin= 8.93D-08
 ErrMax= 1.07D-07  0.00D+00 EMaxC= 1.00D-01 BMatC= 1.69D-11 BMatP= 1.70D-11
 IDIUse=1 WtCom= 1.00D+00 WtEn= 0.00D+00
 Coeff-Com: -0.108D-05-0.170D-03-0.233D-03 0.519D-03 0.697D-03 0.312D-03
 Coeff-Com: -0.200D-02-0.262D-02-0.456D-02 0.627D-02 0.182D-01-0.408D-02
 Coeff-Com: -0.326D-01-0.187D-01 0.886D-01 0.598D-01-0.246D+00-0.177D+00
 Coeff-Com:  0.291D+00 0.102D+01
 Coeff:     -0.108D-05-0.170D-03-0.233D-03 0.519D-03 0.697D-03 0.312D-03
 Coeff:     -0.200D-02-0.262D-02-0.456D-02 0.627D-02 0.182D-01-0.408D-02
 Coeff:     -0.326D-01-0.187D-01 0.886D-01 0.598D-01-0.246D+00-0.177D+00
 Coeff:      0.291D+00 0.102D+01
 Gap=     0.049 Goal=   None    Shift=    0.000
 Gap=     0.326 Goal=   None    Shift=    0.000
 RMSDP=2.60D-07 MaxDP=3.03D-05 DE=-6.73D-11 OVMax= 1.48D-05

 Cycle  28  Pass 1  IDiag  1:
 RMSU=  9.34D-08    CP:  1.00D+00  1.78D+00  3.00D+00 -2.36D-02  2.73D+00
                    CP:  1.94D+00  1.71D+00
 E= -1307.35069568669     Delta-E=        0.000000000029 Rises=F Damp=F
 DIIS: error= 9.05D-09 at cycle  28 NSaved=  20.
 NSaved=20 IEnMin=19 EnMin= -1307.35069568672     IErMin=20 ErrMin= 9.05D-09
 ErrMax= 9.05D-09  0.00D+00 EMaxC= 1.00D-01 BMatC= 2.85D-13 BMatP= 1.69D-11
 IDIUse=1 WtCom= 1.00D+00 WtEn= 0.00D+00
 Coeff-Com: -0.207D-05-0.324D-04 0.239D-04 0.202D-03 0.428D-03 0.184D-04
 Coeff-Com: -0.148D-02-0.391D-02 0.359D-02 0.725D-02-0.131D-03-0.129D-01
 Coeff-Com: -0.107D-01 0.246D-01 0.376D-01-0.482D-01-0.722D-01-0.770D-02
 Coeff-Com:  0.246D+00 0.837D+00
 Coeff:     -0.207D-05-0.324D-04 0.239D-04 0.202D-03 0.428D-03 0.184D-04
 Coeff:     -0.148D-02-0.391D-02 0.359D-02 0.725D-02-0.131D-03-0.129D-01
 Coeff:     -0.107D-01 0.246D-01 0.376D-01-0.482D-01-0.722D-01-0.770D-02
 Coeff:      0.246D+00 0.837D+00
 Gap=     0.049 Goal=   None    Shift=    0.000
 Gap=     0.326 Goal=   None    Shift=    0.000
 RMSDP=4.97D-08 MaxDP=3.00D-06 DE= 2.91D-11 OVMax= 4.08D-06

 Cycle  29  Pass 1  IDiag  1:
 RMSU=  5.93D-09    CP:  1.00D+00  1.79D+00  3.00D+00  1.43D-02  2.73D+00
                    CP:  1.90D+00  1.69D+00  8.56D-01
 E= -1307.35069568671     Delta-E=       -0.000000000015 Rises=F Damp=F
 DIIS: error= 1.76D-08 at cycle  29 NSaved=  20.
 NSaved=20 IEnMin=18 EnMin= -1307.35069568672     IErMin=19 ErrMin= 9.05D-09
 ErrMax= 1.76D-08  0.00D+00 EMaxC= 1.00D-01 BMatC= 5.32D-13 BMatP= 2.85D-13
 IDIUse=1 WtCom= 1.00D+00 WtEn= 0.00D+00
 Coeff-Com: -0.612D-05-0.237D-04 0.360D-04 0.165D-03 0.100D-03-0.434D-03
 Coeff-Com: -0.101D-02 0.110D-02 0.759D-03 0.596D-04-0.120D-02-0.144D-02
 Coeff-Com:  0.118D-02 0.659D-02 0.158D-03-0.748D-02-0.211D-01 0.114D-01
 Coeff-Com:  0.240D+00 0.771D+00
 Coeff:     -0.612D-05-0.237D-04 0.360D-04 0.165D-03 0.100D-03-0.434D-03
 Coeff:     -0.101D-02 0.110D-02 0.759D-03 0.596D-04-0.120D-02-0.144D-02
 Coeff:      0.118D-02 0.659D-02 0.158D-03-0.748D-02-0.211D-01 0.114D-01
 Coeff:      0.240D+00 0.771D+00
 Gap=     0.049 Goal=   None    Shift=    0.000
 Gap=     0.326 Goal=   None    Shift=    0.000
 RMSDP=8.38D-09 MaxDP=4.19D-07 DE=-1.55D-11 OVMax= 5.42D-07

 SCF Done:  E(UB3LYP) =  -1307.35069569     A.U. after   29 cycles
            NFock= 29  Conv=0.84D-08     -V/T= 2.0004
 <Sx>= 0.0000 <Sy>= 0.0000 <Sz>= 1.0000 <S**2>= 2.0023 S= 1.0008
 <L.S>=  0.00000000000    
 KE= 1.306838183199D+03 PE=-4.469113780379D+03 EE= 1.153912314273D+03
 Annihilation of the first spin contaminant:
 S**2 before annihilation     2.0023,   after     2.0000
 Leave Link  502 at Thu May 23 14:54:16 2024, MaxMem= 26843545600 cpu:            5376.5 elap:              47.2
 (Enter /gpfs/fs1/soft/improv/software/custom-built/gaussian/g16/l508.exe)
 QCSCF skips out because SCF is already converged.
 Leave Link  508 at Thu May 23 14:54:16 2024, MaxMem= 26843545600 cpu:               0.2 elap:               0.0
 (Enter /gpfs/fs1/soft/improv/software/custom-built/gaussian/g16/l801.exe)
 DoSCS=F DFT=T ScalE2(SS,OS)=  1.000000  1.000000
 Range of M.O.s used for correlation:     1   317
 NBasis=   317 NAE=    41 NBE=    39 NFC=     0 NFV=     0
 NROrb=    317 NOA=    41 NOB=    39 NVA=   276 NVB=   278

 **** Warning!!: The largest alpha MO coefficient is  0.78987919D+02


 **** Warning!!: The smallest alpha delta epsilon is  0.48860547D-01


 **** Warning!!: The largest beta MO coefficient is  0.78982334D+02

 Leave Link  801 at Thu May 23 14:54:17 2024, MaxMem= 26843545600 cpu:               0.3 elap:               0.0
 (Enter /gpfs/fs1/soft/improv/software/custom-built/gaussian/g16/l1101.exe)
 Using compressed storage, NAtomX=    19.
 Will process     20 centers per pass.
 R6Disp: Adding Grimme-D3 dispersion energy 1st derivatives to the gradient.
 Leave Link 1101 at Thu May 23 14:54:17 2024, MaxMem= 26843545600 cpu:              50.7 elap:               0.5
 (Enter /gpfs/fs1/soft/improv/software/custom-built/gaussian/g16/l1102.exe)
 Symmetrizing basis deriv contribution to polar:
 IMax=3 JMax=2 DiffMx= 0.00D+00
 Leave Link 1102 at Thu May 23 14:54:17 2024, MaxMem= 26843545600 cpu:               0.9 elap:               0.0
 (Enter /gpfs/fs1/soft/improv/software/custom-built/gaussian/g16/l1110.exe)
 Forming Gx(P) for the SCF density, NAtomX=    19.
 Integral derivatives from FoFJK, PRISM(SPDF).
 Do as many integral derivatives as possible in FoFJK.
 G2DrvN: MDV=   26843543431.
 G2DrvN: will do    20 centers at a time, making    1 passes.
 Calling FoFCou, ICntrl=  3107 FMM=F I1Cent=   0 AccDes= 0.00D+00.
 FoFJK:  IHMeth= 1 ICntrl=    3107 DoSepK=F KAlg= 0 I1Cent=           0 FoldK=F
 IRaf=         0 NMat=       1 IRICut=       1 DoRegI=T DoRafI=F ISym2E= 0 IDoP0=0 IntGTp=1.
 FoFCou: FMM=F IPFlag=           0 FMFlag=      100000 FMFlg1=           0
         NFxFlg=           0 DoJE=F BraDBF=F KetDBF=F FulRan=T
         wScrn=  0.000000 ICntrl=      3107 IOpCl=  1 I1Cent=           0 NGrid=           0
         NMat0=    1 NMatS0=      1 NMatT0=    0 NMatD0=    1 NMtDS0=    0 NMtDT0=    0
 Symmetry not used in FoFCou.
 End of G2Drv F.D. properties file   721 does not exist.
 End of G2Drv F.D. properties file   722 does not exist.
 End of G2Drv F.D. properties file   788 does not exist.
 Leave Link 1110 at Thu May 23 14:54:32 2024, MaxMem= 26843545600 cpu:            1890.6 elap:              15.1
 (Enter /gpfs/fs1/soft/improv/software/custom-built/gaussian/g16/l1002.exe)
 Minotr:  UHF open shell wavefunction.
          IDoAtm=1111111111111111111
          Direct CPHF calculation.
          Differentiating once with respect to electric field.
                with respect to dipole field.
          Differentiating once with respect to nuclear coordinates.
          Requested convergence is 1.0D-08 RMS, and 1.0D-07 maximum.
          Secondary convergence is 1.0D-12 RMS, and 1.0D-12 maximum.
          NewPWx=T KeepS1=F KeepF1=F KeepIn=T MapXYZ=F SortEE=F KeepMc=T.
         6034 words used for storage of precomputed grid.
 Two-electron integrals replicated using symmetry.
          MDV=   26843545600 using IRadAn=       1.
          Solving linear equations simultaneously, MaxMat=     384.
 FoF2E skips out because all densities are zero.
 CalDSu exits because no D1Ps are significant.
 FoFJK:  IHMeth= 1 ICntrl=       0 DoSepK=F KAlg= 0 I1Cent=           0 FoldK=F
 IRaf= 990000000 NMat=      57 IRICut=     142 DoRegI=T DoRafI=T ISym2E= 2 IDoP0=3 IntGTp=2.
 FoFCou: FMM=F IPFlag=           0 FMFlag=      100000 FMFlg1=           0
         NFxFlg=           0 DoJE=F BraDBF=F KetDBF=F FulRan=T
         wScrn=  0.000000 ICntrl=         0 IOpCl=  1 I1Cent=           0 NGrid=           0
         NMat0=   57 NMatS0=     57 NMatT0=    0 NMatD0=   57 NMtDS0=    0 NMtDT0=    0
 Integrals replicated using symmetry in FoFCou.
 Raff kept on since  98.11% of shell-pairs survive, threshold=   0.20 IRatSp=98.
          There are    60 degrees of freedom in the 1st order CPHF.  IDoFFX=6 NUNeed=     3.
     57 vectors produced by pass  0 Test12= 3.69D-14 1.67D-09 XBig12= 6.30D+02 2.05D+01.
 AX will form    57 AO Fock derivatives at one time.
     57 vectors produced by pass  1 Test12= 3.69D-14 1.67D-09 XBig12= 1.70D+02 3.18D+00.
     57 vectors produced by pass  2 Test12= 3.69D-14 1.67D-09 XBig12= 3.81D+00 2.25D-01.
     57 vectors produced by pass  3 Test12= 3.69D-14 1.67D-09 XBig12= 3.39D-02 2.00D-02.
     57 vectors produced by pass  4 Test12= 3.69D-14 1.67D-09 XBig12= 2.15D-04 1.20D-03.
     57 vectors produced by pass  5 Test12= 3.69D-14 1.67D-09 XBig12= 1.14D-06 8.21D-05.
     48 vectors produced by pass  6 Test12= 3.69D-14 1.67D-09 XBig12= 4.56D-09 6.34D-06.
     11 vectors produced by pass  7 Test12= 3.69D-14 1.67D-09 XBig12= 1.47D-11 3.22D-07.
      3 vectors produced by pass  8 Test12= 3.69D-14 1.67D-09 XBig12= 4.81D-14 1.96D-08.
 InvSVY:  IOpt=1 It=  1 EMax= 2.13D-14
 Solved reduced A of dimension   404 with    60 vectors.
 FullF1:  Do perturbations      1 to       3.
 Isotropic polarizability for W=    0.000000      110.22 Bohr**3.
 End of Minotr F.D. properties file   721 does not exist.
 End of Minotr F.D. properties file   722 does not exist.
 End of Minotr F.D. properties file   788 does not exist.
 Leave Link 1002 at Thu May 23 14:55:39 2024, MaxMem= 26843545600 cpu:            8065.6 elap:              66.6
 (Enter /gpfs/fs1/soft/improv/software/custom-built/gaussian/g16/l601.exe)
 Copying SCF densities to generalized density rwf, IOpCl= 1 IROHF=0.

 **********************************************************************

            Population analysis using the SCF Density.

 **********************************************************************

 Orbital symmetries:
 Alpha Orbitals:
       Occupied  (A) (A) (A) (A) (A) (A) (A) (A) (A) (A) (A) (A)
                 (A) (A) (A) (A) (A) (A) (A) (A) (A) (A) (A) (A)
                 (A) (A) (A) (A) (A) (A) (A) (A) (A) (A) (A) (A)
                 (A) (A) (A) (A) (A)
       Virtual   (A) (A) (A) (A) (A) (A) (A) (A) (A) (A) (A) (A)
                 (A) (A) (A) (A) (A) (A) (A) (A) (A) (A) (A) (A)
                 (A) (A) (A) (A) (A) (A) (A) (A) (A) (A) (A) (A)
                 (A) (A) (A) (A) (A) (A) (A) (A) (A) (A) (A) (A)
                 (A) (A) (A) (A) (A) (A) (A) (A) (A) (A) (A) (A)
                 (A) (A) (A) (A) (A) (A) (A) (A) (A) (A) (A) (A)
                 (A) (A) (A) (A) (A) (A) (A) (A) (A) (A) (A) (A)
                 (A) (A) (A) (A) (A) (A) (A) (A) (A) (A) (A) (A)
                 (A) (A) (A) (A) (A) (A) (A) (A) (A) (A) (A) (A)
                 (A) (A) (A) (A) (A) (A) (A) (A) (A) (A) (A) (A)
                 (A) (A) (A) (A) (A) (A) (A) (A) (A) (A) (A) (A)
                 (A) (A) (A) (A) (A) (A) (A) (A) (A) (A) (A) (A)
                 (A) (A) (A) (A) (A) (A) (A) (A) (A) (A) (A) (A)
                 (A) (A) (A) (A) (A) (A) (A) (A) (A) (A) (A) (A)
                 (A) (A) (A) (A) (A) (A) (A) (A) (A) (A) (A) (A)
                 (A) (A) (A) (A) (A) (A) (A) (A) (A) (A) (A) (A)
                 (A) (A) (A) (A) (A) (A) (A) (A) (A) (A) (A) (A)
                 (A) (A) (A) (A) (A) (A) (A) (A) (A) (A) (A) (A)
                 (A) (A) (A) (A) (A) (A) (A) (A) (A) (A) (A) (A)
                 (A) (A) (A) (A) (A) (A) (A) (A) (A) (A) (A) (A)
                 (A) (A) (A) (A) (A) (A) (A) (A) (A) (A) (A) (A)
                 (A) (A) (A) (A) (A) (A) (A) (A) (A) (A) (A) (A)
                 (A) (A) (A) (A) (A) (A) (A) (A) (A) (A) (A) (A)
 Beta  Orbitals:
       Occupied  (A) (A) (A) (A) (A) (A) (A) (A) (A) (A) (A) (A)
                 (A) (A) (A) (A) (A) (A) (A) (A) (A) (A) (A) (A)
                 (A) (A) (A) (A) (A) (A) (A) (A) (A) (A) (A) (A)
                 (A) (A) (A)
       Virtual   (A) (A) (A) (A) (A) (A) (A) (A) (A) (A) (A) (A)
                 (A) (A) (A) (A) (A) (A) (A) (A) (A) (A) (A) (A)
                 (A) (A) (A) (A) (A) (A) (A) (A) (A) (A) (A) (A)
                 (A) (A) (A) (A) (A) (A) (A) (A) (A) (A) (A) (A)
                 (A) (A) (A) (A) (A) (A) (A) (A) (A) (A) (A) (A)
                 (A) (A) (A) (A) (A) (A) (A) (A) (A) (A) (A) (A)
                 (A) (A) (A) (A) (A) (A) (A) (A) (A) (A) (A) (A)
                 (A) (A) (A) (A) (A) (A) (A) (A) (A) (A) (A) (A)
                 (A) (A) (A) (A) (A) (A) (A) (A) (A) (A) (A) (A)
                 (A) (A) (A) (A) (A) (A) (A) (A) (A) (A) (A) (A)
                 (A) (A) (A) (A) (A) (A) (A) (A) (A) (A) (A) (A)
                 (A) (A) (A) (A) (A) (A) (A) (A) (A) (A) (A) (A)
                 (A) (A) (A) (A) (A) (A) (A) (A) (A) (A) (A) (A)
                 (A) (A) (A) (A) (A) (A) (A) (A) (A) (A) (A) (A)
                 (A) (A) (A) (A) (A) (A) (A) (A) (A) (A) (A) (A)
                 (A) (A) (A) (A) (A) (A) (A) (A) (A) (A) (A) (A)
                 (A) (A) (A) (A) (A) (A) (A) (A) (A) (A) (A) (A)
                 (A) (A) (A) (A) (A) (A) (A) (A) (A) (A) (A) (A)
                 (A) (A) (A) (A) (A) (A) (A) (A) (A) (A) (A) (A)
                 (A) (A) (A) (A) (A) (A) (A) (A) (A) (A) (A) (A)
                 (A) (A) (A) (A) (A) (A) (A) (A) (A) (A) (A) (A)
                 (A) (A) (A) (A) (A) (A) (A) (A) (A) (A) (A) (A)
                 (A) (A) (A) (A) (A) (A) (A) (A) (A) (A) (A) (A)
                 (A) (A)
 The electronic state is 3-A.
 Alpha  occ. eigenvalues -- -179.04190 -20.10198 -19.56207 -19.55865 -19.54956
 Alpha  occ. eigenvalues --  -19.54928 -19.53929 -19.53797 -16.81570 -16.81317
 Alpha  occ. eigenvalues --  -16.80784  -2.64864  -1.78857  -1.78661  -1.78372
 Alpha  occ. eigenvalues --   -1.45760  -1.44008  -1.43215  -1.42128  -1.41241
 Alpha  occ. eigenvalues --   -1.41084  -0.99286  -0.98002  -0.95803  -0.95518
 Alpha  occ. eigenvalues --   -0.94632  -0.93200  -0.86095  -0.85583  -0.84706
 Alpha  occ. eigenvalues --   -0.82560  -0.81605  -0.79132  -0.77688  -0.75333
 Alpha  occ. eigenvalues --   -0.74960  -0.73645  -0.72136  -0.70681  -0.46037
 Alpha  occ. eigenvalues --   -0.42859
 Alpha virt. eigenvalues --   -0.37973  -0.33381  -0.33058  -0.30888  -0.29934
 Alpha virt. eigenvalues --   -0.27142  -0.26795  -0.24110  -0.23736  -0.21065
 Alpha virt. eigenvalues --   -0.19841  -0.19212  -0.18733  -0.17599  -0.16716
 Alpha virt. eigenvalues --   -0.16286  -0.16205  -0.15550  -0.14727  -0.14134
 Alpha virt. eigenvalues --   -0.13098  -0.12467  -0.11845  -0.10381  -0.10052
 Alpha virt. eigenvalues --   -0.09439  -0.08526  -0.08126  -0.07380  -0.05730
 Alpha virt. eigenvalues --   -0.05049  -0.04485  -0.03104  -0.02924  -0.02224
 Alpha virt. eigenvalues --   -0.01455  -0.01429   0.00485   0.01154   0.02663
 Alpha virt. eigenvalues --    0.03686   0.04153   0.05032   0.06739   0.07362
 Alpha virt. eigenvalues --    0.07618   0.09628   0.10280   0.11624   0.12227
 Alpha virt. eigenvalues --    0.14925   0.16882   0.17909   0.20311   0.23109
 Alpha virt. eigenvalues --    0.24850   0.39897   0.40681   0.40910   0.42202
 Alpha virt. eigenvalues --    0.44224   0.45150   0.45588   0.46872   0.49835
 Alpha virt. eigenvalues --    0.51542   0.52583   0.53020   0.53074   0.55621
 Alpha virt. eigenvalues --    0.56163   0.56281   0.57006   0.58470   0.59084
 Alpha virt. eigenvalues --    0.62196   0.63988   0.65576   0.66107   0.68112
 Alpha virt. eigenvalues --    0.69504   0.70342   0.70993   0.72194   0.73170
 Alpha virt. eigenvalues --    0.74913   0.75617   0.76257   0.78860   0.79417
 Alpha virt. eigenvalues --    0.81810   0.82597   0.86028   0.87276   0.88607
 Alpha virt. eigenvalues --    0.91046   0.93335   0.95423   0.96018   0.97347
 Alpha virt. eigenvalues --    0.98850   1.00528   1.02514   1.04422   1.06900
 Alpha virt. eigenvalues --    1.07522   1.14328   1.16190   1.18734   1.20325
 Alpha virt. eigenvalues --    1.24331   1.29069   1.30618   1.33263   1.35844
 Alpha virt. eigenvalues --    1.40494   1.41337   1.45636   1.47854   1.51700
 Alpha virt. eigenvalues --    1.53085   1.55567   1.57475   1.58984   1.64644
 Alpha virt. eigenvalues --    1.68226   1.86932   1.87808   1.89878   1.90228
 Alpha virt. eigenvalues --    1.91117   1.93234   1.94204   1.95695   2.00236
 Alpha virt. eigenvalues --    2.03056   2.06225   2.07760   2.09328   2.11924
 Alpha virt. eigenvalues --    2.15689   2.16910   2.19905   2.24365   2.26194
 Alpha virt. eigenvalues --    2.31522   2.37937   2.39592   2.46152   2.47955
 Alpha virt. eigenvalues --    2.50165   2.52175   2.54279   2.55179   2.56936
 Alpha virt. eigenvalues --    2.58541   2.60487   2.62113   2.63507   2.65651
 Alpha virt. eigenvalues --    2.66898   2.67758   2.68002   2.70063   2.72849
 Alpha virt. eigenvalues --    2.79909   2.81233   2.82973   2.84584   2.85330
 Alpha virt. eigenvalues --    2.86987   2.89640   2.93760   2.94945   2.98007
 Alpha virt. eigenvalues --    3.03917   3.06939   3.10285   3.24896   3.25421
 Alpha virt. eigenvalues --    3.26175   3.29053   3.32214   3.70179   3.72380
 Alpha virt. eigenvalues --    3.75199   3.77980   3.80180   3.81959   3.83821
 Alpha virt. eigenvalues --    3.85234   3.85836   3.86914   3.88089   3.91705
 Alpha virt. eigenvalues --    3.94439   3.96784   3.98675   4.05506   4.06098
 Alpha virt. eigenvalues --    4.09017   4.11779   4.17666   4.18324   4.21061
 Alpha virt. eigenvalues --    4.24867   4.28090   4.29190   4.36977   4.38115
 Alpha virt. eigenvalues --    4.38593   4.42539   4.43166   4.51765   4.53612
 Alpha virt. eigenvalues --    4.55702   4.57196   4.58896   4.59421   4.62066
 Alpha virt. eigenvalues --    4.71075   4.82207   4.87562   4.89661   4.93962
 Alpha virt. eigenvalues --    4.94590   4.96236   5.04853   5.07089   5.09668
 Alpha virt. eigenvalues --    5.09967   5.10288   5.11099   5.17195   5.18298
 Alpha virt. eigenvalues --    5.19778   5.24923   5.26062   5.27318   5.29386
 Alpha virt. eigenvalues --    5.31615   5.36286   5.37458   5.40936   5.43891
 Alpha virt. eigenvalues --    5.44051   5.45445   5.47124   5.48581   5.49894
 Alpha virt. eigenvalues --    5.53864   5.54950   5.56301   5.58203   5.59063
 Alpha virt. eigenvalues --    5.60646   5.62906   5.64097   5.67591   5.72483
 Alpha virt. eigenvalues --    6.00510   6.02728   6.06815   7.09313   7.12118
 Alpha virt. eigenvalues --    7.13119   7.24069   7.29769   7.33817  13.34565
 Alpha virt. eigenvalues --   13.37021  13.38032  13.94041  13.97853  14.03743
 Alpha virt. eigenvalues --   28.64754
  Beta  occ. eigenvalues -- -179.04182 -20.08769 -19.56165 -19.55818 -19.54881
  Beta  occ. eigenvalues --  -19.54875 -19.53906 -19.53809 -16.80692 -16.80167
  Beta  occ. eigenvalues --  -16.79174  -2.59740  -1.74966  -1.73763  -1.71764
  Beta  occ. eigenvalues --   -1.45470  -1.43763  -1.42914  -1.41616  -1.40924
  Beta  occ. eigenvalues --   -1.40584  -0.98746  -0.97624  -0.95482  -0.95228
  Beta  occ. eigenvalues --   -0.94380  -0.92979  -0.85737  -0.85199  -0.84348
  Beta  occ. eigenvalues --   -0.82303  -0.81298  -0.78900  -0.77349  -0.75142
  Beta  occ. eigenvalues --   -0.74692  -0.73294  -0.71936  -0.70510
  Beta virt. eigenvalues --   -0.37906  -0.33304  -0.31766  -0.30845  -0.30245
  Beta virt. eigenvalues --   -0.29453  -0.29063  -0.26391  -0.26219  -0.23333
  Beta virt. eigenvalues --   -0.23041  -0.20474  -0.19545  -0.19022  -0.18612
  Beta virt. eigenvalues --   -0.17439  -0.16140  -0.16047  -0.15777  -0.14515
  Beta virt. eigenvalues --   -0.14057  -0.13546  -0.13036  -0.12192  -0.11720
  Beta virt. eigenvalues --   -0.09752  -0.09685  -0.09184  -0.08306  -0.07921
  Beta virt. eigenvalues --   -0.07028  -0.05653  -0.04506  -0.04341  -0.03044
  Beta virt. eigenvalues --   -0.02610  -0.01992  -0.01249  -0.01196   0.00693
  Beta virt. eigenvalues --    0.01312   0.02921   0.03888   0.04289   0.05229
  Beta virt. eigenvalues --    0.06967   0.07573   0.07958   0.09867   0.10582
  Beta virt. eigenvalues --    0.11814   0.12482   0.15478   0.17629   0.18599
  Beta virt. eigenvalues --    0.20868   0.23784   0.25369   0.40390   0.41381
  Beta virt. eigenvalues --    0.42045   0.43079   0.45457   0.45894   0.46617
  Beta virt. eigenvalues --    0.47879   0.50156   0.51945   0.52915   0.53312
  Beta virt. eigenvalues --    0.53440   0.55922   0.56427   0.56790   0.57386
  Beta virt. eigenvalues --    0.58831   0.59568   0.62515   0.64213   0.65850
  Beta virt. eigenvalues --    0.66568   0.68393   0.69722   0.70746   0.71443
  Beta virt. eigenvalues --    0.72426   0.73335   0.75131   0.75852   0.76713
  Beta virt. eigenvalues --    0.79206   0.79812   0.82063   0.82833   0.86499
  Beta virt. eigenvalues --    0.87425   0.88859   0.91200   0.94142   0.95775
  Beta virt. eigenvalues --    0.96403   0.97713   0.99121   1.01951   1.02853
  Beta virt. eigenvalues --    1.04614   1.07346   1.07882   1.15300   1.16948
  Beta virt. eigenvalues --    1.19685   1.20959   1.24906   1.31620   1.32024
  Beta virt. eigenvalues --    1.35088   1.38010   1.42268   1.43234   1.46563
  Beta virt. eigenvalues --    1.48686   1.52426   1.53533   1.56607   1.58276
  Beta virt. eigenvalues --    1.60404   1.65694   1.69033   1.87568   1.88370
  Beta virt. eigenvalues --    1.90255   1.90948   1.91881   1.93695   1.94690
  Beta virt. eigenvalues --    1.96251   2.00827   2.03559   2.06740   2.08485
  Beta virt. eigenvalues --    2.09869   2.12607   2.16446   2.17628   2.20788
  Beta virt. eigenvalues --    2.25349   2.27296   2.33183   2.38829   2.40345
  Beta virt. eigenvalues --    2.46894   2.48809   2.50919   2.53124   2.55042
  Beta virt. eigenvalues --    2.55943   2.57622   2.59160   2.61304   2.63070
  Beta virt. eigenvalues --    2.64223   2.66462   2.67733   2.68574   2.68709
  Beta virt. eigenvalues --    2.70920   2.73537   2.80548   2.81699   2.83598
  Beta virt. eigenvalues --    2.85026   2.86275   2.88069   2.91220   2.94770
  Beta virt. eigenvalues --    2.96242   3.00246   3.05219   3.08190   3.11521
  Beta virt. eigenvalues --    3.26340   3.26772   3.27716   3.30592   3.34052
  Beta virt. eigenvalues --    3.70523   3.72652   3.75369   3.78610   3.80485
  Beta virt. eigenvalues --    3.82424   3.84028   3.85654   3.86212   3.87234
  Beta virt. eigenvalues --    3.88272   3.92079   3.94771   3.97033   3.98817
  Beta virt. eigenvalues --    4.05773   4.06388   4.09252   4.12218   4.18090
  Beta virt. eigenvalues --    4.18927   4.21678   4.29123   4.30068   4.30506
  Beta virt. eigenvalues --    4.37569   4.39125   4.40925   4.42924   4.45542
  Beta virt. eigenvalues --    4.52423   4.54394   4.56443   4.58351   4.59432
  Beta virt. eigenvalues --    4.60152   4.63054   4.73308   4.82381   4.88086
  Beta virt. eigenvalues --    4.90017   4.94350   4.94906   4.96654   5.04986
  Beta virt. eigenvalues --    5.07225   5.09864   5.10068   5.10429   5.11336
  Beta virt. eigenvalues --    5.17528   5.18613   5.20154   5.25363   5.26953
  Beta virt. eigenvalues --    5.27715   5.30147   5.31995   5.36599   5.37956
  Beta virt. eigenvalues --    5.41304   5.44142   5.44279   5.45767   5.47406
  Beta virt. eigenvalues --    5.49105   5.50380   5.54225   5.55208   5.56862
  Beta virt. eigenvalues --    5.58502   5.59671   5.60926   5.63477   5.64514
  Beta virt. eigenvalues --    5.67997   5.73099   6.00662   6.02903   6.07064
  Beta virt. eigenvalues --    7.09578   7.12428   7.13435   7.24247   7.29944
  Beta virt. eigenvalues --    7.34028  13.34743  13.37180  13.38203  13.94120
  Beta virt. eigenvalues --   13.97939  14.03824  28.65851
          Condensed to atoms (all electrons):
               1          2          3          4          5          6
     1  Ti  22.489575  -0.046415  -0.010969   0.088944  -0.003368  -0.353857
     2  O   -0.046415   8.012985   0.302855  -0.034854  -0.004105   0.007820
     3  H   -0.010969   0.302855   0.304950   0.005179   0.000084  -0.010182
     4  O    0.088944  -0.034854   0.005179   8.086544   0.297738  -0.113308
     5  H   -0.003368  -0.004105   0.000084   0.297738   0.344344  -0.006331
     6  O   -0.353857   0.007820  -0.010182  -0.113308  -0.006331   8.465382
     7  H    0.043159  -0.003058   0.000282   0.005355   0.002432   0.237303
     8  O   -0.070909   0.028731  -0.000033  -0.056736   0.006747  -0.117153
     9  H   -0.005734  -0.000229  -0.000016   0.002637   0.000127  -0.003394
    10  O   -0.102841   0.009597   0.020916   0.004384  -0.001688   0.017187
    11  H    0.023140   0.007235   0.000542  -0.000549   0.000064  -0.005275
    12  O   -0.448863  -0.003368  -0.013733   0.028097  -0.023148   0.057699
    13  H   -0.008045  -0.006796   0.000481   0.016054   0.000534  -0.000519
    14  H    0.020821   0.004996   0.000108  -0.004137   0.000312  -0.001437
    15  H   -0.009466   0.009210  -0.000096   0.294883  -0.021276  -0.003557
    16  H   -0.033485   0.333120  -0.018508  -0.007455   0.000024   0.005814
    17  H   -0.018613  -0.001147   0.000539  -0.000574   0.000022   0.002066
    18  H    0.033754  -0.001812   0.000305   0.030487   0.007637   0.223400
    19  H    0.031104  -0.003232   0.000076   0.009221   0.010510  -0.004930
               7          8          9         10         11         12
     1  Ti   0.043159  -0.070909  -0.005734  -0.102841   0.023140  -0.448863
     2  O   -0.003058   0.028731  -0.000229   0.009597   0.007235  -0.003368
     3  H    0.000282  -0.000033  -0.000016   0.020916   0.000542  -0.013733
     4  O    0.005355  -0.056736   0.002637   0.004384  -0.000549   0.028097
     5  H    0.002432   0.006747   0.000127  -0.001688   0.000064  -0.023148
     6  O    0.237303  -0.117153  -0.003394   0.017187  -0.005275   0.057699
     7  H    0.353557   0.004507  -0.000637  -0.011351   0.000249  -0.007322
     8  O    0.004507   8.153581   0.305434  -0.031577  -0.005335  -0.009816
     9  H   -0.000637   0.305434   0.305926   0.002251   0.002545  -0.004459
    10  O   -0.011351  -0.031577   0.002251   8.134638   0.265682  -0.032272
    11  H    0.000249  -0.005335   0.002545   0.265682   0.337073  -0.011172
    12  O   -0.007322  -0.009816  -0.004459  -0.032272  -0.011172   8.441815
    13  H    0.000034  -0.004513  -0.000020   0.005197  -0.000140   0.299798
    14  H   -0.000002   0.005921   0.002311  -0.010344   0.008340   0.260350
    15  H    0.000062   0.001623  -0.000028  -0.001878   0.000005   0.000532
    16  H   -0.000306  -0.000139   0.000012  -0.004492   0.000089   0.000844
    17  H    0.003115  -0.001495  -0.001917   0.315759  -0.024808  -0.001916
    18  H   -0.010171   0.000583   0.000267  -0.003290   0.000088  -0.006888
    19  H    0.020044   0.254206  -0.019012  -0.013204   0.000791  -0.020002
              13         14         15         16         17         18
     1  Ti  -0.008045   0.020821  -0.009466  -0.033485  -0.018613   0.033754
     2  O   -0.006796   0.004996   0.009210   0.333120  -0.001147  -0.001812
     3  H    0.000481   0.000108  -0.000096  -0.018508   0.000539   0.000305
     4  O    0.016054  -0.004137   0.294883  -0.007455  -0.000574   0.030487
     5  H    0.000534   0.000312  -0.021276   0.000024   0.000022   0.007637
     6  O   -0.000519  -0.001437  -0.003557   0.005814   0.002066   0.223400
     7  H    0.000034  -0.000002   0.000062  -0.000306   0.003115  -0.010171
     8  O   -0.004513   0.005921   0.001623  -0.000139  -0.001495   0.000583
     9  H   -0.000020   0.002311  -0.000028   0.000012  -0.001917   0.000267
    10  O    0.005197  -0.010344  -0.001878  -0.004492   0.315759  -0.003290
    11  H   -0.000140   0.008340   0.000005   0.000089  -0.024808   0.000088
    12  O    0.299798   0.260350   0.000532   0.000844  -0.001916  -0.006888
    13  H    0.287155  -0.019459  -0.000499  -0.000086  -0.000011  -0.000007
    14  H   -0.019459   0.342588   0.000052  -0.000004  -0.000161   0.000060
    15  H   -0.000499   0.000052   0.296120   0.001384  -0.000000   0.001229
    16  H   -0.000086  -0.000004   0.001384   0.304323  -0.000108   0.000662
    17  H   -0.000011  -0.000161  -0.000000  -0.000108   0.303980  -0.000092
    18  H   -0.000007   0.000060   0.001229   0.000662  -0.000092   0.341640
    19  H    0.000210   0.000405  -0.000036  -0.000040   0.000988   0.004106
              19
     1  Ti   0.031104
     2  O   -0.003232
     3  H    0.000076
     4  O    0.009221
     5  H    0.010510
     6  O   -0.004930
     7  H    0.020044
     8  O    0.254206
     9  H   -0.019012
    10  O   -0.013204
    11  H    0.000791
    12  O   -0.020002
    13  H    0.000210
    14  H    0.000405
    15  H   -0.000036
    16  H   -0.000040
    17  H    0.000988
    18  H    0.004106
    19  H    0.375312
          Atomic-Atomic Spin Densities.
               1          2          3          4          5          6
     1  Ti   3.037765  -0.086122  -0.001663  -0.022582   0.007391  -0.426987
     2  O   -0.086122   0.063003  -0.007681  -0.011501  -0.003851   0.034783
     3  H   -0.001663  -0.007681   0.033532   0.003220   0.000113  -0.009977
     4  O   -0.022582  -0.011501   0.003220   0.110398  -0.008762  -0.045584
     5  H    0.007391  -0.003851   0.000113  -0.008762   0.062326  -0.005679
     6  O   -0.426987   0.034783  -0.009977  -0.045584  -0.005679   0.443090
     7  H    0.049139  -0.005881   0.000291   0.006890   0.002437  -0.067832
     8  O   -0.103672  -0.000499   0.000442  -0.015237   0.006142  -0.012476
     9  H   -0.002475   0.000815  -0.000007  -0.000991   0.000111  -0.004035
    10  O   -0.209738  -0.025419   0.016608  -0.000987  -0.001009   0.054737
    11  H    0.024996   0.005415   0.000750   0.000396   0.000055  -0.007021
    12  O   -0.508921  -0.002338  -0.010708  -0.011642  -0.024111   0.032768
    13  H    0.005491  -0.001557   0.000419   0.010562   0.000585  -0.000225
[...]
    17  H    0.000002  -0.000004   0.000000   0.000001   0.314424  -0.000027
    18  H    0.000000   0.000000  -0.000004  -0.000021  -0.000027   0.314427
    19  H    0.000001  -0.000027  -0.000027   0.000000  -0.000004  -0.000004
              19
     1  Ti  -0.000107
     2  O   -0.000261
     3  H    0.000000
     4  O    0.002797
     5  H   -0.000021
     6  O    0.001945
     7  H   -0.000010
     8  O    0.287389
     9  H   -0.017003
    10  O    0.000532
    11  H    0.000002
    12  O    0.000969
    13  H    0.000001
    14  H   -0.000027
    15  H   -0.000027
    16  H    0.000000
    17  H   -0.000004
    18  H   -0.000004
    19  H    0.314393
          Atomic-Atomic Spin Densities.
               1          2          3          4          5          6
     1  Ti   2.198078  -0.019998  -0.003529  -0.019979  -0.004302  -0.019977
     2  O   -0.019998   0.002400   0.001609   0.000625   0.000037   0.000460
     3  H   -0.003529   0.001609   0.003585  -0.000037   0.000001  -0.000327
     4  O   -0.019979   0.000625  -0.000037   0.002385   0.002992   0.000642
     5  H   -0.004302   0.000037   0.000001   0.002992   0.004691   0.000505
     6  O   -0.019977   0.000460  -0.000327   0.000642   0.000505   0.002325
     7  H   -0.004301  -0.000296   0.000002   0.000037  -0.000017   0.002995
     8  O   -0.019996   0.000479  -0.000025   0.000430   0.000346   0.000639
     9  H   -0.004302  -0.000010  -0.000000  -0.000295  -0.000002   0.000037
    10  O   -0.019978   0.000429   0.001055   0.000477  -0.000010   0.000449
    11  H   -0.004302   0.000346   0.000019  -0.000010   0.000000  -0.000295
    12  O   -0.019978   0.000639   0.000164   0.000450  -0.000295   0.000473
    13  H   -0.004301   0.000503   0.000033   0.000346  -0.000002  -0.000010
    14  H   -0.003538  -0.000037  -0.000002  -0.000327   0.000002  -0.000025
    15  H   -0.003531   0.000163  -0.000002   0.001617  -0.001370  -0.000038
    16  H   -0.004302   0.002993  -0.001369   0.000504  -0.000017   0.000346
    17  H   -0.003531  -0.000327  -0.000012  -0.000025  -0.000000   0.001053
    18  H   -0.003538   0.001055  -0.000012   0.000164   0.000033   0.001622
    19  H   -0.003529  -0.000025   0.000000   0.001055   0.000019   0.000164
               7          8          9         10         11         12
     1  Ti  -0.004301  -0.019996  -0.004302  -0.019978  -0.004302  -0.019978
     2  O   -0.000296   0.000479  -0.000010   0.000429   0.000346   0.000639
     3  H    0.000002  -0.000025  -0.000000   0.001055   0.000019   0.000164
     4  O    0.000037   0.000430  -0.000295   0.000477  -0.000010   0.000450
     5  H   -0.000017   0.000346  -0.000002  -0.000010   0.000000  -0.000295
     6  O    0.002995   0.000639   0.000037   0.000449  -0.000295   0.000473
     7  H    0.004694   0.000503  -0.000017   0.000346  -0.000002  -0.000010
     8  O    0.000503   0.002398   0.002993   0.000625   0.000037   0.000459
     9  H   -0.000017   0.002993   0.004688   0.000504  -0.000017   0.000346
    10  O    0.000346   0.000625   0.000504   0.002384   0.002992   0.000642
    11  H   -0.000002   0.000037  -0.000017   0.002992   0.004691   0.000505
    12  O   -0.000010   0.000459   0.000346   0.000642   0.000505   0.002327
    13  H    0.000000  -0.000296  -0.000002   0.000037  -0.000017   0.002995
    14  H   -0.000000   0.001055   0.000019   0.000164   0.000033   0.001622
    15  H    0.000001  -0.000327   0.000002  -0.000025  -0.000000   0.001053
    16  H   -0.000002  -0.000010   0.000000  -0.000295  -0.000002   0.000037
    17  H    0.000019   0.000163   0.000033   0.001617  -0.001370  -0.000038
    18  H   -0.001371  -0.000037   0.000001  -0.000327   0.000002  -0.000025
    19  H    0.000033   0.001610  -0.001370  -0.000037   0.000001  -0.000327
              13         14         15         16         17         18
     1  Ti  -0.004301  -0.003538  -0.003531  -0.004302  -0.003531  -0.003538
     2  O    0.000503  -0.000037   0.000163   0.002993  -0.000327   0.001055
     3  H    0.000033  -0.000002  -0.000002  -0.001369  -0.000012  -0.000012
     4  O    0.000346  -0.000327   0.001617   0.000504  -0.000025   0.000164
     5  H   -0.000002   0.000002  -0.001370  -0.000017  -0.000000   0.000033
     6  O   -0.000010  -0.000025  -0.000038   0.000346   0.001053   0.001622
     7  H    0.000000  -0.000000   0.000001  -0.000002   0.000019  -0.001371
     8  O   -0.000296   0.001055  -0.000327  -0.000010   0.000163  -0.000037
     9  H   -0.000002   0.000019   0.000002   0.000000   0.000033   0.000001
    10  O    0.000037   0.000164  -0.000025  -0.000295   0.001617  -0.000327
    11  H   -0.000017   0.000033  -0.000000  -0.000002  -0.001370   0.000002
    12  O    0.002995   0.001622   0.001053   0.000037  -0.000038  -0.000025
    13  H    0.004694  -0.001370   0.000019  -0.000017   0.000001  -0.000000
    14  H   -0.001370   0.003580  -0.000012   0.000001  -0.000002   0.000000
    15  H    0.000019  -0.000012   0.003580   0.000033   0.000000  -0.000002
    16  H   -0.000017   0.000001   0.000033   0.004687   0.000002   0.000019
    17  H    0.000001  -0.000002   0.000000   0.000002   0.003581  -0.000012
    18  H   -0.000000   0.000000  -0.000002   0.000019  -0.000012   0.003580
    19  H    0.000002  -0.000012  -0.000012  -0.000000  -0.000002  -0.000002
              19
     1  Ti  -0.003529
     2  O   -0.000025
     3  H    0.000000
     4  O    0.001055
     5  H    0.000019
     6  O    0.000164
     7  H    0.000033
     8  O    0.001610
     9  H   -0.001370
    10  O   -0.000037
    11  H    0.000001
    12  O   -0.000327
    13  H    0.000002
    14  H   -0.000012
    15  H   -0.000012
    16  H   -0.000000
    17  H   -0.000002
    18  H   -0.000002
    19  H    0.003585
 Mulliken charges and spin densities:
               1          2
     1  Ti   1.401903   2.031165
     2  O   -0.715341  -0.008953
     3  H    0.409438   0.001152
     4  O   -0.715477  -0.008949
     5  H    0.405679   0.002610
     6  O   -0.715504  -0.008961
     7  H    0.405682   0.002613
     8  O   -0.715333  -0.008953
     9  H    0.405713   0.002607
    10  O   -0.715462  -0.008950
    11  H    0.405677   0.002610
    12  O   -0.715495  -0.008962
    13  H    0.405680   0.002613
    14  H    0.409427   0.001149
    15  H    0.409418   0.001149
    16  H    0.405714   0.002607
    17  H    0.409416   0.001150
    18  H    0.409428   0.001149
    19  H    0.409436   0.001153
 Sum of Mulliken charges =   2.00000   2.00000
 Mulliken charges and spin densities with hydrogens summed into heavy atoms:
               1          2
     1  Ti   1.401903   2.031165
     2  O    0.099810  -0.005194
     4  O    0.099621  -0.005190
     6  O    0.099606  -0.005199
     8  O    0.099817  -0.005194
    10  O    0.099632  -0.005190
    12  O    0.099612  -0.005199
 Electronic spatial extent (au):  <R**2>=           1233.8990
 Charge=              2.0000 electrons
 Dipole moment (field-independent basis, Debye):
    X=              0.0000    Y=              0.0000    Z=              0.0000  Tot=              0.0000
 Quadrupole moment (field-independent basis, Debye-Ang):
   XX=            -14.1878   YY=            -14.1771   ZZ=            -18.9605
   XY=             -0.0006   XZ=              0.0016   YZ=             -0.0045
 Traceless Quadrupole moment (field-independent basis, Debye-Ang):
   XX=              1.5873   YY=              1.5981   ZZ=             -3.1854
   XY=             -0.0006   XZ=              0.0016   YZ=             -0.0045
 Octapole moment (field-independent basis, Debye-Ang**2):
  XXX=             -0.0002  YYY=             -0.0007  ZZZ=              0.0001  XYY=             -0.0002
  XXY=              0.0000  XXZ=              0.0002  XZZ=              0.0001  YZZ=              0.0015
  YYZ=             -0.0003  XYZ=             -0.0002
 Hexadecapole moment (field-independent basis, Debye-Ang**3):
 XXXX=           -247.8966 YYYY=           -247.5528 ZZZZ=           -304.0668 XXXY=             -0.0247
 XXXZ=              9.5432 YYYX=             -0.0248 YYYZ=             44.1913 ZZZX=             -0.0104
 ZZZY=             -0.2807 XXYY=            -82.7273 XXZZ=            -28.2316 YYZZ=            -28.3862
 XXYZ=            -43.9213 YYXZ=             -9.5132 ZZXY=              0.0300
 N-N= 5.822361993512D+02 E-N=-4.233685109664D+03  KE= 1.303464098807D+03
                          Isotropic Fermi Contact Couplings
        Atom                 a.u.       MegaHertz       Gauss      10(-4) cm-1
     1  Ti(47)            -0.05186       6.54421       2.33514       2.18291
     2  O(17)             -0.00634       1.92109       0.68549       0.64081
     3  H(1)               0.00115       2.57162       0.91762       0.85780
     4  O(17)             -0.00632       1.91495       0.68330       0.63876
     5  H(1)               0.00190       4.23945       1.51274       1.41413
     6  O(17)             -0.00636       1.92724       0.68769       0.64286
     7  H(1)               0.00190       4.24456       1.51456       1.41583
     8  O(17)             -0.00634       1.92097       0.68545       0.64077
     9  H(1)               0.00190       4.23635       1.51163       1.41309
    10  O(17)             -0.00632       1.91494       0.68330       0.63876
    11  H(1)               0.00190       4.23973       1.51284       1.41422
    12  O(17)             -0.00636       1.92728       0.68770       0.64287
    13  H(1)               0.00190       4.24440       1.51451       1.41578
    14  H(1)               0.00115       2.56994       0.91702       0.85724
    15  H(1)               0.00115       2.57106       0.91742       0.85761
    16  H(1)               0.00190       4.23593       1.51148       1.41295
    17  H(1)               0.00115       2.57160       0.91761       0.85779
    18  H(1)               0.00115       2.56988       0.91700       0.85722
    19  H(1)               0.00115       2.57208       0.91778       0.85795
 --------------------------------------------------------
       Center         ----  Spin Dipole Couplings  ----
                      3XX-RR        3YY-RR        3ZZ-RR
 --------------------------------------------------------
     1   Atom        0.284116      0.284138     -0.568254
     2   Atom       -0.015832      0.016474     -0.000642
     3   Atom       -0.010629      0.006062      0.004567
     4   Atom       -0.004087      0.004742     -0.000654
     5   Atom        0.016369     -0.010966     -0.005403
     6   Atom        0.020859     -0.020269     -0.000590
     7   Atom        0.000452      0.004926     -0.005378
     8   Atom       -0.015834      0.016476     -0.000642
     9   Atom       -0.008712      0.014144     -0.005432
    10   Atom       -0.004086      0.004738     -0.000652
    11   Atom        0.016368     -0.010966     -0.005402
    12   Atom        0.020859     -0.020270     -0.000589
    13   Atom        0.000452      0.004927     -0.005379
    14   Atom        0.005889     -0.010509      0.004620
    15   Atom       -0.002169     -0.002468      0.004637
    16   Atom       -0.008712      0.014145     -0.005433
    17   Atom       -0.002169     -0.002468      0.004636
    18   Atom        0.005889     -0.010510      0.004621
    19   Atom       -0.010629      0.006062      0.004567
 --------------------------------------------------------
                        XY            XZ            YZ
 --------------------------------------------------------
     1   Atom        0.000109     -0.000011     -0.001084
     2   Atom        0.014383     -0.017702      0.005777
     3   Atom        0.004660      0.004490      0.016636
     4   Atom       -0.021166      0.013905      0.012407
     5   Atom       -0.005275      0.013096     -0.002426
     6   Atom        0.006792      0.003796     -0.018182
     7   Atom        0.014466     -0.008674     -0.010137
     8   Atom        0.014381     -0.017699      0.005778
     9   Atom       -0.009190     -0.004428      0.012534
    10   Atom       -0.021166      0.013903      0.012405
    11   Atom       -0.005275      0.013097     -0.002426
    12   Atom        0.006793      0.003798     -0.018182
    13   Atom        0.014467     -0.008673     -0.010137
    14   Atom        0.004864     -0.016666     -0.004411
    15   Atom       -0.009524      0.012177     -0.012203
    16   Atom       -0.009190     -0.004427      0.012533
    17   Atom       -0.009524      0.012177     -0.012204
    18   Atom        0.004864     -0.016666     -0.004410
    19   Atom        0.004661      0.004491      0.016637
 --------------------------------------------------------


 ---------------------------------------------------------------------------------
              Anisotropic Spin Dipole Couplings in Principal Axis System
 ---------------------------------------------------------------------------------

       Atom             a.u.   MegaHertz   Gauss  10(-4) cm-1        Axes

              Baa    -0.5683    17.120     6.109     5.710  0.0000  0.0013  1.0000
     1 Ti(47) Bbb     0.2840    -8.557    -3.053    -2.854  0.7436 -0.6686  0.0008
              Bcc     0.2842    -8.563    -3.056    -2.856  0.6686  0.7436 -0.0010
 
              Baa    -0.0323     2.334     0.833     0.779  0.8084 -0.2987  0.5073
     2 O(17)  Bbb     0.0103    -0.742    -0.265    -0.247 -0.4500  0.2420  0.8596
              Bcc     0.0220    -1.592    -0.568    -0.531  0.3796  0.9231 -0.0612
 
              Baa    -0.0119    -6.332    -2.259    -2.112  0.9812 -0.1038 -0.1629
     3 H(1)   Bbb    -0.0113    -6.049    -2.159    -2.018  0.0452 -0.6967  0.7160
              Bcc     0.0232    12.381     4.418     4.130  0.1879  0.7098  0.6788
 
              Baa    -0.0323     2.334     0.833     0.779  0.6635  0.5497 -0.5076
     4 O(17)  Bbb     0.0103    -0.743    -0.265    -0.248  0.4332  0.2710  0.8596
              Bcc     0.0220    -1.592    -0.568    -0.531 -0.6101  0.7902  0.0583
 
              Baa    -0.0119    -6.375    -2.275    -2.127  0.1953  0.9804 -0.0274
     5 H(1)   Bbb    -0.0115    -6.158    -2.197    -2.054 -0.4058  0.1063  0.9077
              Bcc     0.0235    12.534     4.472     4.181  0.8928 -0.1662  0.4186
 
              Baa    -0.0322     2.333     0.832     0.778 -0.1449  0.8504  0.5059
     6 O(17)  Bbb     0.0102    -0.741    -0.264    -0.247  0.0179 -0.5089  0.8606
              Bcc     0.0220    -1.592    -0.568    -0.531  0.9893  0.1338  0.0586
 
              Baa    -0.0119    -6.376    -2.275    -2.127  0.7515 -0.6592 -0.0250
     7 H(1)   Bbb    -0.0115    -6.159    -2.198    -2.054  0.2938  0.3005  0.9074
              Bcc     0.0235    12.535     4.473     4.181  0.5907  0.6893 -0.4195
 
              Baa    -0.0323     2.334     0.833     0.778  0.8084 -0.2987  0.5072
     8 O(17)  Bbb     0.0102    -0.742    -0.265    -0.247 -0.4501  0.2417  0.8597
              Bcc     0.0220    -1.592    -0.568    -0.531  0.3794  0.9232 -0.0610
 
              Baa    -0.0119    -6.375    -2.275    -2.127  0.9466  0.3215  0.0248
     9 H(1)   Bbb    -0.0115    -6.158    -2.197    -2.054  0.1130 -0.4028  0.9083
              Bcc     0.0235    12.533     4.472     4.181 -0.3020  0.8570  0.4176
 
              Baa    -0.0323     2.334     0.833     0.779  0.6634  0.5497 -0.5076
    10 O(17)  Bbb     0.0103    -0.743    -0.265    -0.248  0.4331  0.2711  0.8596
              Bcc     0.0220    -1.592    -0.568    -0.531 -0.6102  0.7901  0.0582
 
              Baa    -0.0119    -6.375    -2.275    -2.127  0.1953  0.9804 -0.0273
    11 H(1)   Bbb    -0.0115    -6.158    -2.197    -2.054 -0.4059  0.1062  0.9077
              Bcc     0.0235    12.534     4.472     4.181  0.8928 -0.1662  0.4187
 
              Baa    -0.0322     2.333     0.833     0.778 -0.1450  0.8504  0.5058
    12 O(17)  Bbb     0.0102    -0.741    -0.264    -0.247  0.0177 -0.5089  0.8606
              Bcc     0.0220    -1.592    -0.568    -0.531  0.9893  0.1337  0.0587
 
              Baa    -0.0119    -6.376    -2.275    -2.127  0.7515 -0.6592 -0.0250
    13 H(1)   Bbb    -0.0115    -6.159    -2.198    -2.054  0.2938  0.3005  0.9074
              Bcc     0.0235    12.535     4.473     4.181  0.5907  0.6893 -0.4195
 
              Baa    -0.0119    -6.333    -2.260    -2.112 -0.4007  0.9015 -0.1638
    14 H(1)   Bbb    -0.0113    -6.051    -2.159    -2.018  0.5817  0.3884  0.7147
              Bcc     0.0232    12.384     4.419     4.131  0.7079  0.1911 -0.6800
 
              Baa    -0.0119    -6.333    -2.260    -2.112  0.5799  0.7983  0.1624
    15 H(1)   Bbb    -0.0113    -6.050    -2.159    -2.018 -0.6269  0.3101  0.7147
              Bcc     0.0232    12.383     4.419     4.131  0.5202 -0.5163  0.6803
 
              Baa    -0.0119    -6.375    -2.275    -2.127  0.9466  0.3215  0.0249
    16 H(1)   Bbb    -0.0115    -6.158    -2.197    -2.054  0.1129 -0.4028  0.9083
              Bcc     0.0235    12.533     4.472     4.181 -0.3020  0.8570  0.4176
 
              Baa    -0.0119    -6.333    -2.260    -2.112  0.5798  0.7984  0.1625
    17 H(1)   Bbb    -0.0113    -6.050    -2.159    -2.018 -0.6271  0.3099  0.7147
              Bcc     0.0232    12.383     4.419     4.131  0.5202 -0.5163  0.6803
 
              Baa    -0.0119    -6.333    -2.260    -2.113 -0.4007  0.9014 -0.1639
    18 H(1)   Bbb    -0.0113    -6.051    -2.159    -2.018  0.5817  0.3885  0.7147
              Bcc     0.0232    12.384     4.419     4.131  0.7079  0.1910 -0.6800
 
              Baa    -0.0119    -6.332    -2.259    -2.112  0.9811 -0.1037 -0.1631
    19 H(1)   Bbb    -0.0113    -6.049    -2.159    -2.018  0.0454 -0.6967  0.7159
              Bcc     0.0232    12.381     4.418     4.130  0.1879  0.7098  0.6789
 

 ---------------------------------------------------------------------------------

 No NMR shielding tensors so no spin-rotation constants.
 Leave Link  601 at Thu May 23 17:06:26 2024, MaxMem= 26843545600 cpu:              29.4 elap:               0.3
 (Enter /gpfs/fs1/soft/improv/software/custom-built/gaussian/g16/l9999.exe)
 Unable to Open any file for archive entry.
 1\1\GINC-I220\SP\UB3LYP\Gen\H12O6Ti1(2+,3)\HHARB\23-May-2024\0\\#p B3L
 YP empiricaldispersion=gd3 scf=(maxcycles=500,xqc,maxconventional=50) 
 scrf=(cpcm,solvent=water) geom=allcheck guess=read chkbasis\\Title\\2,
 3\Ti,-0.7848278163,0.7129378779,0.0317927591\O,-1.2585348644,2.8515099
 763,-0.2811930664\H,-2.1038848018,3.2263917318,-0.5659007686\O,1.34747
 75687,1.2842675485,0.1811123308\H,1.8851556835,1.2862578323,0.98580173
 87\O,-0.9185320221,0.9278726706,2.229788066\H,-1.0068331429,0.20883510
 79,2.8715078151\O,-0.3110464286,-1.4256179478,0.3447420034\H,-0.892646
 8912,-2.1752347222,0.1538517071\O,-2.9171361152,0.1416342904,-0.117496
 2035\H,-3.4548448804,0.1396909576,-0.9221620751\O,-0.6511349791,0.4980
 400926,-2.1662057151\H,-0.5628493392,1.2171022756,-2.8079002183\H,-0.5
 973209343,-0.3264787381,-2.6696783238\H,1.9430997989,1.5113673743,-0.5
 46811436\H,-0.6768669812,3.6010909135,-0.090364721\H,-3.5127236478,-0.
 0855473354,0.6104308772\H,-0.9723745682,1.7524106498,2.7332273769\H,0.
 5343067917,-1.8004507856,0.6295032635\\Version=ES64L-G16RevC.02\State=
 3-A\HF=-1307.9605672\S2=2.001406\S2-1=0.\S2A=2.000001\RMSD=4.463e-09\D
 ipole=0.0000059,-0.000009,0.0000132\Quadrupole=-0.7633149,0.3632178,0.
 400097,1.2660249,1.2320019,-0.8053275\PG=C01 [X(H12O6Ti1)]\\@
 The archive entry for this job was punched.


 ALL OUR THINKING ABOUT NATURE MUST NECESSARILY MOVE IN CIRCLES OR SPIRALS;
 FOR WE CAN ONLY UNDERSTAND NATURE IF WE THINK ABOUT HER, AND WE CAN ONLY
 THINK BECAUSE OUR BRAIN IS BUILT IN ACCORDANCE WITH NATURE'S LAWS.

                                             -- TIMOTHY FERRIS, "GALAXIES"
 Job cpu time:       0 days  0 hours 55 minutes 43.5 seconds.
 Elapsed time:       0 days  0 hours  0 minutes 30.3 seconds.
 File lengths (MBytes):  RWF=    125 Int=      0 D2E=      0 Chk=     32 Scr=      1
 Normal termination of Gaussian 16 at Thu May 23 17:06:26 2024.
