 Entering Gaussian System, Link 0=g16
 Input=Ti_3_HSE06.com
 Output=Ti_3_HSE06.log
 Initial command:
 /gpfs/fs1/soft/improv/software/custom-built/gaussian/g16/l1.exe "/scratch/Gau-497278.inp" -scrdir="/scratch/"
 Default CPUs for threads: 0-127
 Default linda workers: i018.lcrc.anl.gov
 Default is to use 128 SMP processors on each worker.
 Entering Link 1 = /gpfs/fs1/soft/improv/software/custom-built/gaussian/g16/l1.exe PID=    497279.
  
 Copyright (c) 1988-2021, Gaussian, Inc.  All Rights Reserved.
  
 This is part of the Gaussian(R) 16 program.  It is based on
 the Gaussian(R) 09 system (copyright 2009, Gaussian, Inc.),
 the Gaussian(R) 03 system (copyright 2003, Gaussian, Inc.),
 the Gaussian(R) 98 system (copyright 1998, Gaussian, Inc.),
 the Gaussian(R) 94 system (copyright 1995, Gaussian, Inc.),
 the Gaussian 92(TM) system (copyright 1992, Gaussian, Inc.),
 the Gaussian 90(TM) system (copyright 1990, Gaussian, Inc.),
 the Gaussian 88(TM) system (copyright 1988, Gaussian, Inc.),
 the Gaussian 86(TM) system (copyright 1986, Carnegie Mellon
 University), and the Gaussian 82(TM) system (copyright 1983,
 Carnegie Mellon University). Gaussian is a federally registered
 trademark of Gaussian, Inc.
  
 This software contains proprietary and confidential information,
 including trade secrets, belonging to Gaussian, Inc.
  
 This software is provided under written license and may be
 used, copied, transmitted, or stored only in accord with that
 written license.
  
 The following legend is applicable only to US Government
 contracts under FAR:
  
                    RESTRICTED RIGHTS LEGEND
  
 Use, reproduction and disclosure by the US Government is
 subject to restrictions as set forth in subparagraphs (a)
 and (c) of the Commercial Computer Software - Restricted
 Rights clause in FAR 52.227-19.
  
 Gaussian, Inc.
 340 Quinnipiac St., Bldg. 40, Wallingford CT 06492
  
  
 ---------------------------------------------------------------
 Warning -- This program may not be used in any manner that
 competes with the business of Gaussian, Inc. or will provide
 assistance to any competitor of Gaussian, Inc.  The licensee
 of this program is prohibited from giving any competitor of
 Gaussian, Inc. access to this program.  By using this program,
 the user acknowledges that Gaussian, Inc. is engaged in the
 business of creating and licensing software in the field of
 computational chemistry and represents and warrants to the
 licensee that it is not a competitor of Gaussian, Inc. and that
 it will not use this program in any manner prohibited above.
 ---------------------------------------------------------------
  

 Cite this work as:
 Gaussian 16, Revision C.02,
 M. J. Frisch, G. W. Trucks, H. B. Schlegel, G. E. Scuseria, 
 M. A. Robb, J. R. Cheeseman, G. Scalmani, V. Barone, 
 G. A. Petersson, H. Nakatsuji, X. Li, M. Caricato, A. V. Marenich, 
 J. Bloino, B. G. Janesko, R. Gomperts, B. Mennucci, H. P. Hratchian, 
 J. V. Ortiz, A. F. Izmaylov, J. L. Sonnenberg, D. Williams-Young, 
 F. Ding, F. Lipparini, F. Egidi, J. Goings, B. Peng, A. Petrone, 
 T. Henderson, D. Ranasinghe, V. G. Zakrzewski, J. Gao, N. Rega, 
 G. Zheng, W. Liang, M. Hada, M. Ehara, K. Toyota, R. Fukuda, 
 J. Hasegawa, M. Ishida, T. Nakajima, Y. Honda, O. Kitao, H. Nakai, 
 T. Vreven, K. Throssell, J. A. Montgomery, Jr., J. E. Peralta, 
 F. Ogliaro, M. J. Bearpark, J. J. Heyd, E. N. Brothers, K. N. Kudin, 
 V. N. Staroverov, T. A. Keith, R. Kobayashi, J. Normand, 
 K. Raghavachari, A. P. Rendell, J. C. Burant, S. S. Iyengar, 
 J. Tomasi, M. Cossi, J. M. Millam, M. Klene, C. Adamo, R. Cammi, 
 J. W. Ochterski, R. L. Martin, K. Morokuma, O. Farkas, 
 J. B. Foresman, and D. J. Fox, Gaussian, Inc., Wallingford CT, 2019.
 
 ******************************************
 Gaussian 16:  ES64L-G16RevC.02  7-Dec-2021
                23-May-2024 
 ******************************************
 %chk=Ti_3_HSE06.chk
 SetSPE:  set environment variable "OMP_PROC_BIND" = "true"
 SetSPE:  set environment variable "OMP_PLACES" = "{0},{1},{2},{3},{4},{5},{6},{7},{8},{9},{10},{11},{12},{13},{14},{15},{16},{17},{18},{19},{20},{21},{22},{23},{24},{25},{26},{27},{28},{29},{30},{31},{32},{33},{34},{35},{36},{37},{38},{39},{40},{41},{42},{43},{44},{45},{46},{47},{48},{49},{50},{51},{52},{53},{54},{55},{56},{57},{58},{59},{60},{61},{62},{63},{64},{65},{66},{67},{68},{69},{70},{71},{72},{73},{74},{75},{76},{77},{78},{79},{80},{81},{82},{83},{84},{85},{86},{87},{88},{89},{90},{91},{92},{93},{94},{95},{96},{97},{98},{99},{100},{101},{102},{103},{104},{105},{106},{107},{108},{109},{110},{111},{112},{113},{114},{115},{116},{117},{118},{119},{120},{121},{122},{123},{124},{125},{126},{127}"
 SetLPE:    new flags="-opt 'Tsnet.Node.lindarsharg: ssh'  -nodelist 'i018.lcrc.anl.gov' -env GAUSS_MDEF=26843545600 -env GAUSS_EXEDIR="/gpfs/fs1/soft/improv/software/custom-built/gaussian/g16/bsd:/gpfs/fs1/soft/improv/software/custom-built/gaussian/g16" -env "OMP_PROC_BIND=true" -env "OMP_PLACES={0},{1},{2},{3},{4},{5},{6},{7},{8},{9},{10},{11},{12},{13},{14},{15},{16},{17},{18},{19},{20},{21},{22},{23},{24},{25},{26},{27},{28},{29},{30},{31},{32},{33},{34},{35},{36},{37},{38},{39},{40},{41},{42},{43},{44},{45},{46},{47},{48},{49},{50},{51},{52},{53},{54},{55},{56},{57},{58},{59},{60},{61},{62},{63},{64},{65},{66},{67},{68},{69},{70},{71},{72},{73},{74},{75},{76},{77},{78},{79},{80},{81},{82},{83},{84},{85},{86},{87},{88},{89},{90},{91},{92},{93},{94},{95},{96},{97},{98},{99},{100},{101},{102},{103},{104},{105},{106},{107},{108},{109},{110},{111},{112},{113},{114},{115},{116},{117},{118},{119},{120},{121},{122},{123},{124},{125},{126},{127}" -env GAUSS_ADEF="0,1,2,3,4,5,6,7,8,9,10,11,12,13,14,15,16,17,18,19,20,21,22,23,24,25,26,27,28,29,30,31,32,33,34,35,36,37,38,39,40,41,42,43,44,45,46,47,48,49,50,51,52,53,54,55,56,57,58,59,60,61,62,63,64,65,66,67,68,69,70,71,72,73,74,75,76,77,78,79,80,81,82,83,84,85,86,87,88,89,90,91,92,93,94,95,96,97,98,99,100,101,102,103,104,105,106,107,108,109,110,111,112,113,114,115,116,117,118,119,120,121,122,123,124,125,126,127""
 Will use up to    1 processors via Linda.
 ----------------------------------------------------------------------
 #p HSEH1PBE 6-31+G(2df,p) opt=(cartesian,calcall,maxcycles=500) freq s
 cf=(maxcycles=500,xqc,maxconventional=50)
 ----------------------------------------------------------------------
 1/6=500,10=4,18=10,26=3,38=1/1,3;
 2/12=2,17=6,18=5,29=2,40=1/2;
 3/5=1,6=6,7=114,11=2,25=1,30=1,71=2,74=-51,140=1/1,2,3;
 4//1;
 5/5=2,7=500,8=3,13=1,38=5,85=50/2,8;
 8/6=4,10=90,11=11/1;
 11/6=1,8=1,9=11,15=111,16=1/1,2,10;
 10/6=1/2;
 6/7=2,8=2,9=2,10=2,18=1,28=1/1;
 7/7=1,10=1,25=1/1,2,3,16;
 1/6=500,10=4,18=10,26=3/3(3);
 2/29=1/2;
 7/7=1,8=1,9=1,25=1,44=-1/16;
 99/12=1/99;
 2/29=1/2;
 3/5=1,6=6,7=114,11=2,25=1,30=1,71=2,74=-51,140=1/1,2,3;
 4/5=5,16=3,69=1/1;
 5/5=2,7=500,8=3,13=1,38=5,85=50/2,8;
 8/6=4,10=90,11=11/1;
 11/6=1,8=1,9=11,15=111,16=1/1,2,10;
 10/6=1/2;
 7/7=1,10=1,25=1/1,2,3,16;
 1/6=500,10=4,18=10,26=3/3(-8);
 2/29=1/2;
 6/7=2,8=2,9=2,10=2,18=1,19=2,28=1/1;
 7/7=1,8=1,9=1,25=1,44=-1/16;
 99/12=1/99;
 Leave Link    1 at Thu May 23 16:29:36 2024, MaxMem=           0 cpu:               4.5 elap:               0.1
 (Enter /gpfs/fs1/soft/improv/software/custom-built/gaussian/g16/l101.exe)
 -----
 Title
 -----
 Symbolic Z-matrix:
 Charge =  3 Multiplicity = 2
 Ti                   -0.79304   0.81881  -0.09491 
 O                    -1.20497   2.57394  -0.35687 
 H                    -2.12106   2.64974  -0.63312 
 O                     0.99012   1.19063  -0.05794 
 H                     1.42696   0.5998    0.55971 
 O                    -0.81752   1.03069   1.71365 
 H                    -1.02108   0.1906    2.13133 
 O                    -0.38507  -0.93351   0.17118 
 H                    -1.15682  -1.47369  -0.01433 
 O                    -2.57341   0.45178  -0.12186 
 H                    -2.77756  -0.08744  -0.88929 
 O                    -0.76966   0.60461  -1.90111 
 H                     0.09872   0.83457  -2.23949 
 H                    -0.96534  -0.30999  -2.11742 
 H                     1.12208   2.09943   0.22124 
 H                    -1.07671   3.0584    0.46184 
 H                    -2.81407  -0.02398   0.6765 
 H                     0.0422    1.33615   2.01181 
 H                    -0.11532  -1.06446   1.08312 
 
 ITRead=  0  0  0  0  0  0  0  0  0  0  0  0  0  0  0  0  0  0  0
 MicOpt= -1 -1 -1 -1 -1 -1 -1 -1 -1 -1 -1 -1 -1 -1 -1 -1 -1 -1 -1
 NAtoms=     19 NQM=       19 NQMF=       0 NMMI=      0 NMMIF=      0
                NMic=       0 NMicF=      0.
                    Isotopes and Nuclear Properties:
 (Nuclear quadrupole moments (NQMom) in fm**2, nuclear magnetic moments (NMagM)
  in nuclear magnetons)

  Atom         1           2           3           4           5           6           7           8           9          10
 IAtWgt=          48          16           1          16           1          16           1          16           1          16
 AtmWgt=  47.9479467  15.9949146   1.0078250  15.9949146   1.0078250  15.9949146   1.0078250  15.9949146   1.0078250  15.9949146
 NucSpn=           0           0           1           0           1           0           1           0           1           0
 AtZEff=  -0.0000000  -0.0000000  -0.0000000  -0.0000000  -0.0000000  -0.0000000  -0.0000000  -0.0000000  -0.0000000  -0.0000000
 NQMom=    0.0000000   0.0000000   0.0000000   0.0000000   0.0000000   0.0000000   0.0000000   0.0000000   0.0000000   0.0000000
 NMagM=    0.0000000   0.0000000   2.7928460   0.0000000   2.7928460   0.0000000   2.7928460   0.0000000   2.7928460   0.0000000
 AtZNuc=  22.0000000   8.0000000   1.0000000   8.0000000   1.0000000   8.0000000   1.0000000   8.0000000   1.0000000   8.0000000

  Atom        11          12          13          14          15          16          17          18          19
 IAtWgt=           1          16           1           1           1           1           1           1           1
 AtmWgt=   1.0078250  15.9949146   1.0078250   1.0078250   1.0078250   1.0078250   1.0078250   1.0078250   1.0078250
 NucSpn=           1           0           1           1           1           1           1           1           1
 AtZEff=  -0.0000000  -0.0000000  -0.0000000  -0.0000000  -0.0000000  -0.0000000  -0.0000000  -0.0000000  -0.0000000
 NQMom=    0.0000000   0.0000000   0.0000000   0.0000000   0.0000000   0.0000000   0.0000000   0.0000000   0.0000000
 NMagM=    2.7928460   0.0000000   2.7928460   2.7928460   2.7928460   2.7928460   2.7928460   2.7928460   2.7928460
 AtZNuc=   1.0000000   8.0000000   1.0000000   1.0000000   1.0000000   1.0000000   1.0000000   1.0000000   1.0000000
 Leave Link  101 at Thu May 23 16:29:36 2024, MaxMem= 26843545600 cpu:               0.4 elap:               0.0
 (Enter /gpfs/fs1/soft/improv/software/custom-built/gaussian/g16/l103.exe)

 GradGradGradGradGradGradGradGradGradGradGradGradGradGradGradGradGradGrad
 Berny optimization.
 Initialization pass.
 No Z-matrix variables, so optimization will use Cartesian coordinates.
 Trust Radius=3.00D-01 FncErr=1.00D-07 GrdErr=1.00D-06 EigMax=2.50D+02 EigMin=1.00D-04
 Number of steps in this run=    114 maximum allowed number of steps=    114.
 GradGradGradGradGradGradGradGradGradGradGradGradGradGradGradGradGradGrad

 Leave Link  103 at Thu May 23 16:29:36 2024, MaxMem= 26843545600 cpu:               0.3 elap:               0.1
 (Enter /gpfs/fs1/soft/improv/software/custom-built/gaussian/g16/l202.exe)
 ---------------------------------------------------------------------------------------------------
                            Z-MATRIX (ANGSTROMS AND DEGREES)
   CD    Cent   Atom    N1       Length/X        N2       Alpha/Y        N3        Beta/Z          J
 ---------------------------------------------------------------------------------------------------
      1      1  Ti       0  -0.793037          0.818805         -0.094905
      2      2  O        0  -1.204971          2.573941         -0.356874
      3      3  H        0  -2.121063          2.649743         -0.633122
      4      4  O        0   0.990122          1.190635         -0.057941
      5      5  H        0   1.426962          0.599798          0.559707
      6      6  O        0  -0.817519          1.030691          1.713650
      7      7  H        0  -1.021079          0.190602          2.131326
      8      8  O        0  -0.385068         -0.933506          0.171177
      9      9  H        0  -1.156817         -1.473692         -0.014327
     10     10  O        0  -2.573405          0.451778         -0.121857
     11     11  H        0  -2.777557         -0.087440         -0.889285
     12     12  O        0  -0.769659          0.604612         -1.901109
     13     13  H        0   0.098725          0.834573         -2.239490
     14     14  H        0  -0.965336         -0.309994         -2.117418
     15     15  H        0   1.122081          2.099426          0.221242
     16     16  H        0  -1.076711          3.058396          0.461841
     17     17  H        0  -2.814074         -0.023981          0.676500
     18     18  H        0   0.042204          1.336153          2.011809
     19     19  H        0  -0.115315         -1.064459          1.083123
 ---------------------------------------------------------------------------------------------------
                         Z-Matrix orientation:                         
 ---------------------------------------------------------------------
 Center     Atomic      Atomic             Coordinates (Angstroms)
 Number     Number       Type             X           Y           Z
 ---------------------------------------------------------------------
      1         22           0       -0.793037    0.818805   -0.094905
      2          8           0       -1.204971    2.573941   -0.356874
      3          1           0       -2.121063    2.649743   -0.633122
      4          8           0        0.990122    1.190635   -0.057941
      5          1           0        1.426962    0.599798    0.559707
      6          8           0       -0.817519    1.030691    1.713650
      7          1           0       -1.021079    0.190602    2.131326
      8          8           0       -0.385068   -0.933506    0.171177
      9          1           0       -1.156817   -1.473692   -0.014327
     10          8           0       -2.573405    0.451778   -0.121857
     11          1           0       -2.777557   -0.087440   -0.889285
     12          8           0       -0.769659    0.604612   -1.901109
     13          1           0        0.098725    0.834573   -2.239490
     14          1           0       -0.965336   -0.309994   -2.117418
     15          1           0        1.122081    2.099426    0.221242
     16          1           0       -1.076711    3.058396    0.461841
     17          1           0       -2.814074   -0.023981    0.676500
     18          1           0        0.042204    1.336153    2.011809
     19          1           0       -0.115315   -1.064459    1.083123
 ---------------------------------------------------------------------
                    Distance matrix (angstroms):
                    1          2          3          4          5
     1  Ti   0.000000
     2  O    1.821762   0.000000
     3  H    2.325008   0.959835   0.000000
     4  O    1.821889   2.611767   3.484150   0.000000
     5  H    2.324839   3.415322   4.267739   0.959899   0.000000
     6  O    1.821090   2.611285   3.134947   2.536076   2.560263
     7  H    2.324381   3.450400   3.859988   3.136540   2.937743
     8  O    1.818745   3.640503   4.062050   2.540791   2.405292
     9  H    2.322579   4.062387   4.279649   3.421971   3.362259
    10  O    1.818006   2.536025   2.301533   3.639880   4.060711
    11  H    2.321775   3.136788   2.826442   4.064482   4.499984
    12  O    1.819010   2.540161   2.759827   2.614866   3.298603
    13  H    2.322657   2.875634   3.286750   2.383386   3.107223
    14  H    2.322591   3.387332   3.506977   3.212032   3.703756
    15  H    2.325429   2.444290   3.398642   0.959822   1.567289
    16  H    2.325125   0.959918   1.567358   2.833814   3.510364
    17  H    2.321626   3.225876   3.056824   4.060370   4.288255
    18  H    2.324547   2.949275   3.660724   2.281137   2.137375
    19  H    2.322443   4.061883   4.556733   2.758526   2.328591
                    6          7          8          9         10
     6  O    0.000000
     7  H    0.960021   0.000000
     8  O    2.534622   2.347406   0.000000
     9  H    3.061530   2.718847   0.960108   0.000000
    10  O    2.605257   2.748593   2.606473   2.392848   0.000000
    11  H    3.444886   3.505227   2.750347   2.305222   0.959885
    12  O    3.640099   4.061422   2.609231   2.833582   2.538227
    13  H    4.062670   4.557707   3.028445   3.443229   3.430916
    14  H    4.061572   4.278496   2.441955   2.411193   2.673658
    15  H    2.670492   3.447487   3.387136   4.244531   4.060675
    16  H    2.397039   3.318813   4.061790   4.557738   3.061904
    17  H    2.484803   2.318921   2.642472   2.307685   0.960023
    18  H    0.959858   1.567527   2.953276   3.665802   3.489421
    19  H    2.297892   1.869309   0.959980   1.567353   3.129403
                   11         12         13         14         15
    11  H    0.000000
    12  O    2.352526   0.000000
    13  H    3.308498   0.959935   0.000000
    14  H    2.200452   0.959991   1.567533   0.000000
    15  H    4.606825   3.212091   2.949969   3.953725   0.000000
    16  H    3.822919   3.420362   3.691102   4.243941   2.410850
    17  H    1.567497   3.349453   4.210050   3.362383   4.495491
    18  H    4.288824   4.062660   4.281159   4.558009   2.225950
    19  H    3.454344   3.481323   3.833001   3.396353   3.504877
                   16         17         18         19
    16  H    0.000000
    17  H    3.544793   0.000000
    18  H    2.573032   3.433851   0.000000
    19  H    4.278809   2.920828   2.578800   0.000000
 Stoichiometry    H12O6Ti(3+,2)
 Framework group  C1[X(H12O6Ti)]
 Deg. of freedom    51
 Full point group                 C1      NOp   1
 Largest Abelian subgroup         C1      NOp   1
 Largest concise Abelian subgroup C1      NOp   1
                         Standard orientation:                         
 ---------------------------------------------------------------------
 Center     Atomic      Atomic             Coordinates (Angstroms)
 Number     Number       Type             X           Y           Z
 ---------------------------------------------------------------------
      1         22           0       -0.021180   -0.031230    0.010242
      2          8           0       -0.320919   -1.688924   -0.683318
      3          1           0       -1.137185   -1.681640   -1.188234
      4          8           0        1.254245   -0.678703    1.138670
      5          1           0        1.942694   -0.019880    1.254406
      6          8           0        1.297272    0.293478   -1.203273
      7          1           0        1.380717    1.240156   -1.339207
      8          8           0        0.279127    1.625671    0.697504
      9          1           0       -0.432969    2.214440    0.436587
     10          8           0       -1.286964    0.614116   -1.123984
     11          1           0       -2.036002    0.936648   -0.617728
     12          8           0       -1.338898   -0.352897    1.222244
     13          1           0       -0.972045   -0.816749    1.978376
     14          1           0       -1.718130    0.480302    1.511284
     15          1           0        1.635288   -1.477345    0.766869
     16          1           0        0.408469   -1.932016   -1.258072
     17          1           0       -0.916621    1.333448   -1.640754
     18          1           0        2.128227   -0.056953   -0.874579
     19          1           0        1.112611    1.964725    0.362979
 ---------------------------------------------------------------------
 Rotational constants (GHZ):           2.0397079           1.9739543           1.9252950
 Leave Link  202 at Thu May 23 16:29:37 2024, MaxMem= 26843545600 cpu:               0.5 elap:               0.1
 (Enter /gpfs/fs1/soft/improv/software/custom-built/gaussian/g16/l301.exe)
 Standard basis: 6-31+G(2df,p) (6D, 7F)
 Ernie: Thresh=  0.10000D-02 Tol=  0.10000D-05 Strict=F.
 There are   347 symmetry adapted cartesian basis functions of A   symmetry.
 There are   317 symmetry adapted basis functions of A   symmetry.
   317 basis functions,   514 primitive gaussians,   347 cartesian basis functions
    40 alpha electrons       39 beta electrons
       nuclear repulsion energy       701.0339313636 Hartrees.
 IExCor= 3909 DFT=T Ex+Corr=HSEH1PBE ExCW=0 ScaHFX=  0.250000
 ScaDFX=  1.000000  1.000000  1.000000  1.000000 ScalE2=  1.000000  1.000000
 IRadAn=      5 IRanWt=     -1 IRanGd=            0 ICorTp=0 IEmpDi=  4
 HFx  wShort=  0.110000 wLong=  0.000000 cFull=  0.000000 cShort=  1.000000 cLong=  0.000000
 DFx  wShort=  0.110000 wLong=  0.000000 cFull=  0.000000 cShort= -0.250000 cLong=  1.000000
 NAtoms=   19 NActive=   19 NUniq=   19 SFac= 1.00D+00 NAtFMM=   60 NAOKFM=F Big=F
 Integral buffers will be    131072 words long.
 Raffenetti 2 integral format.
 Two-electron integral symmetry is turned on.
 Leave Link  301 at Thu May 23 16:29:37 2024, MaxMem= 26843545600 cpu:               0.4 elap:               0.0
 (Enter /gpfs/fs1/soft/improv/software/custom-built/gaussian/g16/l302.exe)
 NPDir=0 NMtPBC=     1 NCelOv=     1 NCel=       1 NClECP=     1 NCelD=      1
         NCelK=      1 NCelE2=     1 NClLst=     1 CellRange=     0.0.
 One-electron integrals computed using PRISM.
 One-electron integral symmetry used in STVInt
 NBasis=   317 RedAO= T EigKep=  4.19D-05  NBF=   317
 NBsUse=   317 1.00D-06 EigRej= -1.00D+00 NBFU=   317
 Precomputing XC quadrature grid using
 IXCGrd= 4 IRadAn=           5 IRanWt=          -1 IRanGd=           0 AccXCQ= 0.00D+00.
 Generated NRdTot=       0 NPtTot=           0 NUsed=           0 NTot=          32
 NSgBfM=   347   347   347   347   347 MxSgAt=    19 MxSgA2=    19.
 Leave Link  302 at Thu May 23 16:29:37 2024, MaxMem= 26843545600 cpu:              22.0 elap:               0.3
 (Enter /gpfs/fs1/soft/improv/software/custom-built/gaussian/g16/l303.exe)
 DipDrv:  MaxL=1.
 Leave Link  303 at Thu May 23 16:29:38 2024, MaxMem= 26843545600 cpu:               1.0 elap:               0.0
 (Enter /gpfs/fs1/soft/improv/software/custom-built/gaussian/g16/l401.exe)
 ExpMin= 9.99D-03 ExpMax= 4.32D+04 ExpMxC= 6.48D+03 IAcc=3 IRadAn=         5 AccDes= 0.00D+00
 Harris functional with IExCor= 1009 and IRadAn=       5 diagonalized for initial guess.
 HarFok:  IExCor= 1009 AccDes= 0.00D+00 IRadAn=         5 IDoV= 1 UseB2=F ITyADJ=14
 ICtDFT=  3500011 ScaDFX=  1.000000  1.000000  1.000000  1.000000
 FoFCou: FMM=F IPFlag=           0 FMFlag=      100000 FMFlg1=           0
         NFxFlg=           0 DoJE=T BraDBF=F KetDBF=T FulRan=T
         wScrn=  0.000000 ICntrl=       500 IOpCl=  0 I1Cent=   200000004 NGrid=           0
         NMat0=    1 NMatS0=      1 NMatT0=    0 NMatD0=    1 NMtDS0=    0 NMtDT0=    0
 Petite list used in FoFCou.
 Harris En= -1306.75257666505    
 JPrj=0 DoOrth=F DoCkMO=F.
 Initial guess <Sx>= 0.0000 <Sy>= 0.0000 <Sz>= 0.5000 <S**2>= 0.7500 S= 0.5000
 Leave Link  401 at Thu May 23 16:29:38 2024, MaxMem= 26843545600 cpu:              40.2 elap:               0.5
 (Enter /gpfs/fs1/soft/improv/software/custom-built/gaussian/g16/l502.exe)
 Integral symmetry usage will be decided dynamically.
 UHF open shell SCF:
 Using DIIS extrapolation, IDIIS=  1040.
 NGot= 26843545600 LenX= 26843256607 LenY= 26843135757
 Requested convergence on RMS density matrix=1.00D-08 within  50 cycles.
 Requested convergence on MAX density matrix=1.00D-06.
 Requested convergence on             energy=1.00D-06.
 No special actions if energy rises.
 Fock matrices will be formed incrementally for  20 cycles.

 Cycle   1  Pass 1  IDiag  1:
 FoFJK:  IHMeth= 1 ICntrl=       0 DoSepK=T KAlg= 0 I1Cent=           0 FoldK=F
 IRaf=         1 NMat=       1 IRICut=       1 DoRegI=T DoRafI=F ISym2E= 0 IDoP0=0 IntGTp=1.
 FoFCou: FMM=F IPFlag=           0 FMFlag=      100000 FMFlg1=           0
         NFxFlg=           0 DoJE=T BraDBF=F KetDBF=F FulRan=T
         wScrn=  0.000000 ICntrl=       500 IOpCl=  0 I1Cent=           0 NGrid=           0
         NMat0=    1 NMatS0=      1 NMatT0=    0 NMatD0=    1 NMtDS0=    0 NMtDT0=    0
 Symmetry not used in FoFCou.
 E= -1305.83446318661    
 DIIS: error= 3.12D-02 at cycle   1 NSaved=   1.
 NSaved= 1 IEnMin= 1 EnMin= -1305.83446318661     IErMin= 1 ErrMin= 3.12D-02
 ErrMax= 3.12D-02  0.00D+00 EMaxC= 1.00D-01 BMatC= 2.34D+00 BMatP= 2.34D+00
 IDIUse=3 WtCom= 6.88D-01 WtEn= 3.12D-01
 Coeff-Com:  0.100D+01
 Coeff-En:   0.100D+01
 Coeff:      0.100D+01
 Gap=     0.109 Goal=   None    Shift=    0.000
 Gap=     0.195 Goal=   None    Shift=    0.000
 GapD=    0.109 DampG=1.000 DampE=0.250 DampFc=0.2500 IDamp=-1.
 Damping current iteration by 2.50D-01
 RMSDP=7.23D-03 MaxDP=3.60D-01              OVMax= 2.03D-01

 Cycle   2  Pass 1  IDiag  1:
 RMSU=  1.78D-03    CP:  9.82D-01
 E= -1305.96610768243     Delta-E=       -0.131644495822 Rises=F Damp=T
 DIIS: error= 1.52D-02 at cycle   2 NSaved=   2.
 NSaved= 2 IEnMin= 2 EnMin= -1305.96610768243     IErMin= 2 ErrMin= 1.52D-02
 ErrMax= 1.52D-02  0.00D+00 EMaxC= 1.00D-01 BMatC= 4.43D-01 BMatP= 2.34D+00
 IDIUse=3 WtCom= 8.48D-01 WtEn= 1.52D-01
 Coeff-Com: -0.634D+00 0.163D+01
 Coeff-En:   0.000D+00 0.100D+01
 Coeff:     -0.538D+00 0.154D+01
 Gap=     0.132 Goal=   None    Shift=    0.000
 Gap=     0.354 Goal=   None    Shift=    0.000
 RMSDP=2.11D-03 MaxDP=1.17D-01 DE=-1.32D-01 OVMax= 1.64D-01

 Cycle   3  Pass 1  IDiag  1:
 RMSU=  1.46D-03    CP:  9.61D-01  1.82D+00
 E= -1306.18407275213     Delta-E=       -0.217965069695 Rises=F Damp=F
 DIIS: error= 5.63D-03 at cycle   3 NSaved=   3.
 NSaved= 3 IEnMin= 3 EnMin= -1306.18407275213     IErMin= 3 ErrMin= 5.63D-03
 ErrMax= 5.63D-03  0.00D+00 EMaxC= 1.00D-01 BMatC= 6.24D-02 BMatP= 4.43D-01
 IDIUse=3 WtCom= 9.44D-01 WtEn= 5.63D-02
 Coeff-Com: -0.274D+00 0.676D+00 0.598D+00
 Coeff-En:   0.000D+00 0.000D+00 0.100D+01
 Coeff:     -0.259D+00 0.638D+00 0.621D+00
 Gap=     0.144 Goal=   None    Shift=    0.000
 Gap=     0.348 Goal=   None    Shift=    0.000
 RMSDP=1.19D-03 MaxDP=6.87D-02 DE=-2.18D-01 OVMax= 5.52D-02

 Cycle   4  Pass 1  IDiag  1:
 RMSU=  1.09D-03    CP:  9.57D-01  2.04D+00  8.15D-01
 E= -1306.19383499525     Delta-E=       -0.009762243129 Rises=F Damp=F
 DIIS: error= 2.42D-03 at cycle   4 NSaved=   4.
 NSaved= 4 IEnMin= 4 EnMin= -1306.19383499525     IErMin= 4 ErrMin= 2.42D-03
 ErrMax= 2.42D-03  0.00D+00 EMaxC= 1.00D-01 BMatC= 1.49D-02 BMatP= 6.24D-02
 IDIUse=3 WtCom= 9.76D-01 WtEn= 2.42D-02
 Coeff-Com: -0.425D-01 0.570D-01 0.320D+00 0.665D+00
 Coeff-En:   0.000D+00 0.000D+00 0.186D+00 0.814D+00
 Coeff:     -0.414D-01 0.556D-01 0.317D+00 0.669D+00
 Gap=     0.116 Goal=   None    Shift=    0.000
 Gap=     0.326 Goal=   None    Shift=    0.000
 RMSDP=3.52D-04 MaxDP=2.39D-02 DE=-9.76D-03 OVMax= 1.11D-02

 Cycle   5  Pass 1  IDiag  1:
 RMSU=  1.31D-04    CP:  9.57D-01  2.00D+00  8.61D-01  7.16D-01
 E= -1306.19674885810     Delta-E=       -0.002913862847 Rises=F Damp=F
 DIIS: error= 2.64D-04 at cycle   5 NSaved=   5.
 NSaved= 5 IEnMin= 5 EnMin= -1306.19674885810     IErMin= 5 ErrMin= 2.64D-04
 ErrMax= 2.64D-04  0.00D+00 EMaxC= 1.00D-01 BMatC= 2.22D-04 BMatP= 1.49D-02
 IDIUse=3 WtCom= 9.97D-01 WtEn= 2.64D-03
 Coeff-Com: -0.158D-01 0.182D-01 0.120D+00 0.282D+00 0.596D+00
 Coeff-En:   0.000D+00 0.000D+00 0.000D+00 0.000D+00 0.100D+01
 Coeff:     -0.157D-01 0.181D-01 0.119D+00 0.281D+00 0.597D+00
 Gap=     0.116 Goal=   None    Shift=    0.000
 Gap=     0.325 Goal=   None    Shift=    0.000
 RMSDP=2.98D-05 MaxDP=1.20D-03 DE=-2.91D-03 OVMax= 3.15D-03

 Cycle   6  Pass 1  IDiag  1:
 RMSU=  2.96D-05    CP:  9.57D-01  2.00D+00  8.60D-01  7.18D-01  1.01D+00
 E= -1306.19678317466     Delta-E=       -0.000034316559 Rises=F Damp=F
 DIIS: error= 1.05D-04 at cycle   6 NSaved=   6.
 NSaved= 6 IEnMin= 6 EnMin= -1306.19678317466     IErMin= 6 ErrMin= 1.05D-04
 ErrMax= 1.05D-04  0.00D+00 EMaxC= 1.00D-01 BMatC= 4.19D-05 BMatP= 2.22D-04
 IDIUse=3 WtCom= 9.99D-01 WtEn= 1.05D-03
 Coeff-Com: -0.169D-04-0.144D-02-0.692D-02 0.715D-02 0.310D+00 0.692D+00
 Coeff-En:   0.000D+00 0.000D+00 0.000D+00 0.000D+00 0.718D-01 0.928D+00
 Coeff:     -0.168D-04-0.144D-02-0.692D-02 0.714D-02 0.309D+00 0.692D+00
 Gap=     0.116 Goal=   None    Shift=    0.000
 Gap=     0.325 Goal=   None    Shift=    0.000
 RMSDP=2.35D-05 MaxDP=1.11D-03 DE=-3.43D-05 OVMax= 3.92D-03

 Cycle   7  Pass 1  IDiag  1:
 RMSU=  1.61D-05    CP:  9.56D-01  2.00D+00  8.58D-01  7.30D-01  1.04D+00
                    CP:  8.97D-01
 E= -1306.19679491216     Delta-E=       -0.000011737504 Rises=F Damp=F
 DIIS: error= 4.72D-05 at cycle   7 NSaved=   7.
 NSaved= 7 IEnMin= 7 EnMin= -1306.19679491216     IErMin= 7 ErrMin= 4.72D-05
 ErrMax= 4.72D-05  0.00D+00 EMaxC= 1.00D-01 BMatC= 2.64D-06 BMatP= 4.19D-05
 IDIUse=1 WtCom= 1.00D+00 WtEn= 0.00D+00
 Coeff-Com:  0.705D-03-0.100D-02-0.888D-02-0.145D-01 0.634D-01 0.226D+00
 Coeff-Com:  0.734D+00
 Coeff:      0.705D-03-0.100D-02-0.888D-02-0.145D-01 0.634D-01 0.226D+00
 Coeff:      0.734D+00
 Gap=     0.116 Goal=   None    Shift=    0.000
 Gap=     0.325 Goal=   None    Shift=    0.000
 RMSDP=1.23D-05 MaxDP=1.12D-03 DE=-1.17D-05 OVMax= 3.36D-03

 Cycle   8  Pass 1  IDiag  1:
 RMSU=  6.45D-06    CP:  9.57D-01  2.00D+00  8.59D-01  7.29D-01  1.07D+00
                    CP:  1.07D+00  1.52D+00
 E= -1306.19679872995     Delta-E=       -0.000003817789 Rises=F Damp=F
 DIIS: error= 4.00D-05 at cycle   8 NSaved=   8.
 NSaved= 8 IEnMin= 8 EnMin= -1306.19679872995     IErMin= 8 ErrMin= 4.00D-05
 ErrMax= 4.00D-05  0.00D+00 EMaxC= 1.00D-01 BMatC= 1.50D-06 BMatP= 2.64D-06
 IDIUse=1 WtCom= 1.00D+00 WtEn= 0.00D+00
 Coeff-Com:  0.418D-04 0.151D-03 0.613D-03-0.208D-02-0.352D-01-0.696D-01
 Coeff-Com:  0.343D-01 0.107D+01
 Coeff:      0.418D-04 0.151D-03 0.613D-03-0.208D-02-0.352D-01-0.696D-01
 Coeff:      0.343D-01 0.107D+01
 Gap=     0.116 Goal=   None    Shift=    0.000
 Gap=     0.325 Goal=   None    Shift=    0.000
 RMSDP=1.63D-05 MaxDP=1.58D-03 DE=-3.82D-06 OVMax= 4.73D-03

 Cycle   9  Pass 1  IDiag  1:
 RMSU=  3.04D-06    CP:  9.57D-01  2.00D+00  8.59D-01  7.29D-01  1.09D+00
                    CP:  1.27D+00  2.36D+00  1.95D+00
 E= -1306.19680352116     Delta-E=       -0.000004791211 Rises=F Damp=F
 DIIS: error= 3.75D-05 at cycle   9 NSaved=   9.
 NSaved= 9 IEnMin= 9 EnMin= -1306.19680352116     IErMin= 9 ErrMin= 3.75D-05
 ErrMax= 3.75D-05  0.00D+00 EMaxC= 1.00D-01 BMatC= 1.26D-06 BMatP= 1.50D-06
 IDIUse=1 WtCom= 1.00D+00 WtEn= 0.00D+00
 Coeff-Com: -0.646D-03 0.949D-03 0.838D-02 0.135D-01-0.582D-01-0.214D+00
 Coeff-Com: -0.639D+00 0.773D-01 0.181D+01
 Coeff:     -0.646D-03 0.949D-03 0.838D-02 0.135D-01-0.582D-01-0.214D+00
 Coeff:     -0.639D+00 0.773D-01 0.181D+01
 Gap=     0.116 Goal=   None    Shift=    0.000
 Gap=     0.325 Goal=   None    Shift=    0.000
 RMSDP=3.75D-05 MaxDP=3.69D-03 DE=-4.79D-06 OVMax= 1.09D-02

 Cycle  10  Pass 1  IDiag  1:
 RMSU=  2.19D-05    CP:  9.57D-01  2.00D+00  8.59D-01  7.29D-01  1.12D+00
                    CP:  1.71D+00  3.00D+00  3.00D+00  3.00D+00
 E= -1306.19681302018     Delta-E=       -0.000009499016 Rises=F Damp=F
 DIIS: error= 2.63D-05 at cycle  10 NSaved=  10.
 NSaved=10 IEnMin=10 EnMin= -1306.19681302018     IErMin=10 ErrMin= 2.63D-05
 ErrMax= 2.63D-05  0.00D+00 EMaxC= 1.00D-01 BMatC= 8.96D-07 BMatP= 1.26D-06
 IDIUse=1 WtCom= 1.00D+00 WtEn= 0.00D+00
 Coeff-Com: -0.568D-03 0.680D-03 0.485D-02 0.121D-01 0.278D-02-0.759D-01
 Coeff-Com: -0.455D+00-0.133D+01 0.131D+01 0.153D+01
 Coeff:     -0.568D-03 0.680D-03 0.485D-02 0.121D-01 0.278D-02-0.759D-01
 Coeff:     -0.455D+00-0.133D+01 0.131D+01 0.153D+01
 Gap=     0.117 Goal=   None    Shift=    0.000
 Gap=     0.325 Goal=   None    Shift=    0.000
 RMSDP=6.21D-05 MaxDP=6.23D-03 DE=-9.50D-06 OVMax= 1.81D-02

 Cycle  11  Pass 1  IDiag  1:
 RMSU=  1.74D-05    CP:  9.57D-01  2.00D+00  8.58D-01  7.30D-01  1.19D+00
                    CP:  2.44D+00  3.00D+00  3.00D+00  3.00D+00  3.00D+00
 E= -1306.19682421875     Delta-E=       -0.000011198566 Rises=F Damp=F
 DIIS: error= 1.67D-05 at cycle  11 NSaved=  11.
 NSaved=11 IEnMin=11 EnMin= -1306.19682421875     IErMin=11 ErrMin= 1.67D-05
 ErrMax= 1.67D-05  0.00D+00 EMaxC= 1.00D-01 BMatC= 4.86D-07 BMatP= 8.96D-07
 IDIUse=1 WtCom= 1.00D+00 WtEn= 0.00D+00
 Coeff-Com: -0.997D-04 0.130D-03-0.278D-02-0.785D-03 0.531D-01 0.124D+00
 Coeff-Com:  0.216D+00-0.979D+00-0.480D+00 0.102D+01 0.105D+01
 Coeff:     -0.997D-04 0.130D-03-0.278D-02-0.785D-03 0.531D-01 0.124D+00
 Coeff:      0.216D+00-0.979D+00-0.480D+00 0.102D+01 0.105D+01
 Gap=     0.117 Goal=   None    Shift=    0.000
 Gap=     0.325 Goal=   None    Shift=    0.000
 RMSDP=4.83D-05 MaxDP=4.93D-03 DE=-1.12D-05 OVMax= 1.41D-02

 Cycle  12  Pass 1  IDiag  1:
 RMSU=  2.35D-05    CP:  9.57D-01  2.00D+00  8.58D-01  7.30D-01  1.23D+00
                    CP:  3.00D+00  3.00D+00  3.00D+00  3.00D+00  3.00D+00
                    CP:  3.00D+00
 E= -1306.19682920010     Delta-E=       -0.000004981354 Rises=F Damp=F
 DIIS: error= 1.27D-05 at cycle  12 NSaved=  12.
 NSaved=12 IEnMin=12 EnMin= -1306.19682920010     IErMin=12 ErrMin= 1.27D-05
 ErrMax= 1.27D-05  0.00D+00 EMaxC= 1.00D-01 BMatC= 1.94D-07 BMatP= 4.86D-07
 IDIUse=1 WtCom= 1.00D+00 WtEn= 0.00D+00
 Coeff-Com: -0.492D-04 0.113D-03-0.266D-03-0.163D-02 0.177D-02 0.364D-01
 Coeff-Com:  0.111D+00 0.568D+00-0.898D-01-0.825D+00-0.581D+00 0.178D+01
 Coeff:     -0.492D-04 0.113D-03-0.266D-03-0.163D-02 0.177D-02 0.364D-01
 Coeff:      0.111D+00 0.568D+00-0.898D-01-0.825D+00-0.581D+00 0.178D+01
 Gap=     0.116 Goal=   None    Shift=    0.000
 Gap=     0.326 Goal=   None    Shift=    0.000
 RMSDP=1.64D-05 MaxDP=1.58D-03 DE=-4.98D-06 OVMax= 4.90D-03

 Cycle  13  Pass 1  IDiag  1:
 RMSU=  1.40D-05    CP:  9.57D-01  2.00D+00  8.58D-01  7.30D-01  1.24D+00
                    CP:  3.00D+00  3.00D+00  3.00D+00  3.00D+00  3.00D+00
                    CP:  3.00D+00  1.36D+00
 E= -1306.19683056436     Delta-E=       -0.000001364262 Rises=F Damp=F
 DIIS: error= 1.10D-05 at cycle  13 NSaved=  13.
 NSaved=13 IEnMin=13 EnMin= -1306.19683056436     IErMin=13 ErrMin= 1.10D-05
 ErrMax= 1.10D-05  0.00D+00 EMaxC= 1.00D-01 BMatC= 1.21D-07 BMatP= 1.94D-07
 IDIUse=1 WtCom= 1.00D+00 WtEn= 0.00D+00
 Coeff-Com:  0.375D-04-0.222D-04 0.138D-02-0.438D-03-0.355D-01-0.680D-01
 Coeff-Com: -0.801D-01 0.706D+00 0.246D+00-0.889D+00-0.737D+00 0.905D+00
 Coeff-Com:  0.952D+00
 Coeff:      0.375D-04-0.222D-04 0.138D-02-0.438D-03-0.355D-01-0.680D-01
 Coeff:     -0.801D-01 0.706D+00 0.246D+00-0.889D+00-0.737D+00 0.905D+00
 Coeff:      0.952D+00
 Gap=     0.116 Goal=   None    Shift=    0.000
 Gap=     0.326 Goal=   None    Shift=    0.000
 RMSDP=1.67D-05 MaxDP=1.60D-03 DE=-1.36D-06 OVMax= 4.96D-03

 Cycle  14  Pass 1  IDiag  1:
 RMSU=  1.56D-06    CP:  9.57D-01  2.00D+00  8.58D-01  7.30D-01  1.26D+00
                    CP:  3.00D+00  3.00D+00  3.00D+00  3.00D+00  3.00D+00
                    CP:  3.00D+00  1.76D+00  1.97D+00
 E= -1306.19683148329     Delta-E=       -0.000000918933 Rises=F Damp=F
 DIIS: error= 7.86D-06 at cycle  14 NSaved=  14.
 NSaved=14 IEnMin=14 EnMin= -1306.19683148329     IErMin=14 ErrMin= 7.86D-06
 ErrMax= 7.86D-06  0.00D+00 EMaxC= 1.00D-01 BMatC= 6.88D-08 BMatP= 1.21D-07
 IDIUse=1 WtCom= 1.00D+00 WtEn= 0.00D+00
 Coeff-Com:  0.915D-04-0.108D-03 0.864D-03-0.580D-04-0.222D-01-0.509D-01
 Coeff-Com: -0.600D-01 0.320D+00 0.157D+00-0.326D+00-0.223D+00 0.233D-01
 Coeff-Com: -0.644D+00 0.183D+01
 Coeff:      0.915D-04-0.108D-03 0.864D-03-0.580D-04-0.222D-01-0.509D-01
 Coeff:     -0.600D-01 0.320D+00 0.157D+00-0.326D+00-0.223D+00 0.233D-01
 Coeff:     -0.644D+00 0.183D+01
 Gap=     0.117 Goal=   None    Shift=    0.000
 Gap=     0.326 Goal=   None    Shift=    0.000
 RMSDP=1.44D-05 MaxDP=1.19D-03 DE=-9.19D-07 OVMax= 4.33D-03

 Cycle  15  Pass 1  IDiag  1:
 RMSU=  2.75D-06    CP:  9.57D-01  2.00D+00  8.58D-01  7.31D-01  1.27D+00
                    CP:  3.00D+00  3.00D+00  3.00D+00  3.00D+00  3.00D+00
                    CP:  3.00D+00  2.05D+00  2.84D+00  8.99D-02
 E= -1306.19683209269     Delta-E=       -0.000000609395 Rises=F Damp=F
 DIIS: error= 4.79D-06 at cycle  15 NSaved=  15.
 NSaved=15 IEnMin=15 EnMin= -1306.19683209269     IErMin=15 ErrMin= 4.79D-06
 ErrMax= 4.79D-06  0.00D+00 EMaxC= 1.00D-01 BMatC= 5.32D-08 BMatP= 6.88D-08
 IDIUse=1 WtCom= 1.00D+00 WtEn= 0.00D+00
 Coeff-Com:  0.811D-04-0.105D-03 0.760D-04-0.592D-04-0.113D-02-0.488D-02
 Coeff-Com:  0.716D-02 0.386D-01-0.749D-02 0.446D-01 0.112D+00-0.249D+00
 Coeff-Com: -0.156D+01 0.169D+01 0.936D+00
 Coeff:      0.811D-04-0.105D-03 0.760D-04-0.592D-04-0.113D-02-0.488D-02
 Coeff:      0.716D-02 0.386D-01-0.749D-02 0.446D-01 0.112D+00-0.249D+00
 Coeff:     -0.156D+01 0.169D+01 0.936D+00
 Gap=     0.117 Goal=   None    Shift=    0.000
 Gap=     0.326 Goal=   None    Shift=    0.000
 RMSDP=1.36D-05 MaxDP=1.09D-03 DE=-6.09D-07 OVMax= 4.07D-03

 Cycle  16  Pass 1  IDiag  1:
 RMSU=  9.27D-06    CP:  9.57D-01  2.00D+00  8.58D-01  7.31D-01  1.28D+00
                    CP:  3.00D+00  3.00D+00  3.00D+00  3.00D+00  3.00D+00
                    CP:  3.00D+00  2.30D+00  3.00D+00 -1.31D+00  2.26D+00
 E= -1306.19683235461     Delta-E=       -0.000000261924 Rises=F Damp=F
 DIIS: error= 1.06D-06 at cycle  16 NSaved=  16.
 NSaved=16 IEnMin=16 EnMin= -1306.19683235461     IErMin=16 ErrMin= 1.06D-06
 ErrMax= 1.06D-06  0.00D+00 EMaxC= 1.00D-01 BMatC= 4.73D-09 BMatP= 5.32D-08
 IDIUse=1 WtCom= 1.00D+00 WtEn= 0.00D+00
 Coeff-Com:  0.141D-04-0.231D-04-0.220D-03-0.991D-04 0.507D-02 0.123D-01
 Coeff-Com:  0.221D-01-0.634D-01-0.611D-01 0.940D-01 0.111D+00-0.189D-01
 Coeff-Com: -0.436D+00 0.122D+00 0.310D+00 0.903D+00
 Coeff:      0.141D-04-0.231D-04-0.220D-03-0.991D-04 0.507D-02 0.123D-01
 Coeff:      0.221D-01-0.634D-01-0.611D-01 0.940D-01 0.111D+00-0.189D-01
 Coeff:     -0.436D+00 0.122D+00 0.310D+00 0.903D+00
 Gap=     0.117 Goal=   None    Shift=    0.000
 Gap=     0.326 Goal=   None    Shift=    0.000
 RMSDP=2.61D-06 MaxDP=2.12D-04 DE=-2.62D-07 OVMax= 7.82D-04

 Cycle  17  Pass 1  IDiag  1:
 RMSU=  2.07D-07    CP:  9.57D-01  2.00D+00  8.58D-01  7.31D-01  1.28D+00
                    CP:  3.00D+00  3.00D+00  3.00D+00  3.00D+00  3.00D+00
                    CP:  3.00D+00  2.34D+00  3.00D+00 -1.59D+00  2.56D+00
                    CP:  1.23D+00
 E= -1306.19683236399     Delta-E=       -0.000000009377 Rises=F Damp=F
 DIIS: error= 3.35D-07 at cycle  17 NSaved=  17.
 NSaved=17 IEnMin=17 EnMin= -1306.19683236399     IErMin=17 ErrMin= 3.35D-07
 ErrMax= 3.35D-07  0.00D+00 EMaxC= 1.00D-01 BMatC= 2.80D-10 BMatP= 4.73D-09
 IDIUse=1 WtCom= 1.00D+00 WtEn= 0.00D+00
 Coeff-Com: -0.517D-05 0.598D-05-0.474D-04-0.390D-04 0.931D-03 0.294D-02
 Coeff-Com:  0.353D-02-0.820D-02-0.912D-02 0.468D-02 0.986D-03 0.251D-01
 Coeff-Com:  0.778D-01-0.156D+00-0.262D-01 0.246D+00 0.839D+00
 Coeff:     -0.517D-05 0.598D-05-0.474D-04-0.390D-04 0.931D-03 0.294D-02
 Coeff:      0.353D-02-0.820D-02-0.912D-02 0.468D-02 0.986D-03 0.251D-01
 Coeff:      0.778D-01-0.156D+00-0.262D-01 0.246D+00 0.839D+00
 Gap=     0.117 Goal=   None    Shift=    0.000
 Gap=     0.326 Goal=   None    Shift=    0.000
 RMSDP=3.12D-07 MaxDP=2.55D-05 DE=-9.38D-09 OVMax= 9.26D-05

 Cycle  18  Pass 1  IDiag  1:
 RMSU=  4.48D-08    CP:  9.57D-01  2.00D+00  8.58D-01  7.31D-01  1.28D+00
                    CP:  3.00D+00  3.00D+00  3.00D+00  3.00D+00  3.00D+00
                    CP:  3.00D+00  2.35D+00  3.00D+00 -1.66D+00  2.60D+00
                    CP:  1.26D+00  9.58D-01
 E= -1306.19683236417     Delta-E=       -0.000000000180 Rises=F Damp=F
 DIIS: error= 1.01D-07 at cycle  18 NSaved=  18.
 NSaved=18 IEnMin=18 EnMin= -1306.19683236417     IErMin=18 ErrMin= 1.01D-07
 ErrMax= 1.01D-07  0.00D+00 EMaxC= 1.00D-01 BMatC= 3.49D-11 BMatP= 2.80D-10
 IDIUse=1 WtCom= 1.00D+00 WtEn= 0.00D+00
 Coeff-Com: -0.323D-05 0.429D-05-0.245D-05-0.213D-05 0.128D-04 0.192D-03
 Coeff-Com: -0.404D-03 0.174D-03 0.158D-02-0.309D-02-0.615D-02 0.653D-02
 Coeff-Com:  0.534D-01-0.601D-01-0.247D-01 0.469D-01 0.282D+00 0.704D+00
 Coeff:     -0.323D-05 0.429D-05-0.245D-05-0.213D-05 0.128D-04 0.192D-03
 Coeff:     -0.404D-03 0.174D-03 0.158D-02-0.309D-02-0.615D-02 0.653D-02
 Coeff:      0.534D-01-0.601D-01-0.247D-01 0.469D-01 0.282D+00 0.704D+00
 Gap=     0.117 Goal=   None    Shift=    0.000
 Gap=     0.326 Goal=   None    Shift=    0.000
 RMSDP=5.00D-08 MaxDP=5.59D-06 DE=-1.80D-10 OVMax= 1.44D-05

 Cycle  19  Pass 1  IDiag  1:
 RMSU=  1.57D-08    CP:  9.57D-01  2.00D+00  8.58D-01  7.31D-01  1.28D+00
                    CP:  3.00D+00  3.00D+00  3.00D+00  3.00D+00  3.00D+00
                    CP:  3.00D+00  2.35D+00  3.00D+00 -1.67D+00  2.61D+00
                    CP:  1.26D+00  9.56D-01  1.10D+00
 E= -1306.19683236416     Delta-E=        0.000000000006 Rises=F Damp=F
 DIIS: error= 5.99D-08 at cycle  19 NSaved=  19.
 NSaved=19 IEnMin=18 EnMin= -1306.19683236417     IErMin=19 ErrMin= 5.99D-08
 ErrMax= 5.99D-08  0.00D+00 EMaxC= 1.00D-01 BMatC= 1.34D-11 BMatP= 3.49D-11
 IDIUse=1 WtCom= 1.00D+00 WtEn= 0.00D+00
 Coeff-Com: -0.506D-06 0.939D-06 0.141D-04 0.175D-04-0.290D-03-0.935D-03
 Coeff-Com: -0.163D-02 0.113D-02 0.433D-02-0.151D-02-0.264D-02-0.738D-02
 Coeff-Com:  0.669D-02 0.181D-01-0.626D-02-0.574D-01-0.135D+00 0.411D+00
 Coeff-Com:  0.772D+00
 Coeff:     -0.506D-06 0.939D-06 0.141D-04 0.175D-04-0.290D-03-0.935D-03
 Coeff:     -0.163D-02 0.113D-02 0.433D-02-0.151D-02-0.264D-02-0.738D-02
 Coeff:      0.669D-02 0.181D-01-0.626D-02-0.574D-01-0.135D+00 0.411D+00
 Coeff:      0.772D+00
 Gap=     0.117 Goal=   None    Shift=    0.000
 Gap=     0.326 Goal=   None    Shift=    0.000
 RMSDP=1.61D-08 MaxDP=1.47D-06 DE= 6.37D-12 OVMax= 4.35D-06

 Cycle  20  Pass 1  IDiag  1:
 RMSU=  7.26D-09    CP:  9.57D-01  2.00D+00  8.58D-01  7.31D-01  1.28D+00
                    CP:  3.00D+00  3.00D+00  3.00D+00  3.00D+00  3.00D+00
                    CP:  3.00D+00  2.35D+00  3.00D+00 -1.66D+00  2.60D+00
                    CP:  1.25D+00  9.68D-01  1.29D+00  1.02D+00
 E= -1306.19683236416     Delta-E=        0.000000000000 Rises=F Damp=F
 DIIS: error= 1.47D-08 at cycle  20 NSaved=  20.
 NSaved=20 IEnMin=18 EnMin= -1306.19683236417     IErMin=20 ErrMin= 1.47D-08
 ErrMax= 1.47D-08  0.00D+00 EMaxC= 1.00D-01 BMatC= 3.64D-13 BMatP= 1.34D-11
 IDIUse=1 WtCom= 1.00D+00 WtEn= 0.00D+00
 Coeff-Com:  0.168D-06-0.256D-06 0.753D-06 0.375D-05 0.652D-05-0.434D-04
 Coeff-Com: -0.655D-04-0.828D-03-0.678D-04 0.114D-02 0.112D-02-0.191D-02
 Coeff-Com: -0.283D-02 0.526D-02 0.881D-03-0.904D-02-0.356D-01-0.370D-01
 Coeff-Com:  0.773D-01 0.100D+01
 Coeff:      0.168D-06-0.256D-06 0.753D-06 0.375D-05 0.652D-05-0.434D-04
 Coeff:     -0.655D-04-0.828D-03-0.678D-04 0.114D-02 0.112D-02-0.191D-02
 Coeff:     -0.283D-02 0.526D-02 0.881D-03-0.904D-02-0.356D-01-0.370D-01
 Coeff:      0.773D-01 0.100D+01
 Gap=     0.117 Goal=   None    Shift=    0.000
 Gap=     0.326 Goal=   None    Shift=    0.000
 RMSDP=1.49D-08 MaxDP=1.18D-06 DE= 0.00D+00 OVMax= 4.26D-06

 Cycle  21  Pass 1  IDiag  1:
 Restarting incremental Fock formation.
 E= -1306.19683236419     Delta-E=       -0.000000000022 Rises=F Damp=F
 DIIS: error= 6.87D-09 at cycle  21 NSaved=  20.
 NSaved=20 IEnMin=20 EnMin= -1306.19683236419     IErMin=20 ErrMin= 6.87D-09
 ErrMax= 6.87D-09  0.00D+00 EMaxC= 1.00D-01 BMatC= 9.79D-14 BMatP= 3.64D-13
 IDIUse=1 WtCom= 1.00D+00 WtEn= 0.00D+00
 Coeff-Com:  0.483D-08 0.449D-07 0.104D-05 0.177D-04 0.392D-04 0.365D-04
 Coeff-Com: -0.323D-03-0.175D-03 0.427D-03 0.375D-03-0.367D-03-0.304D-03
 Coeff-Com: -0.180D-03 0.383D-03 0.221D-02 0.470D-03-0.401D-01-0.332D-01
 Coeff-Com:  0.268D+00 0.803D+00
 Coeff:      0.483D-08 0.449D-07 0.104D-05 0.177D-04 0.392D-04 0.365D-04
 Coeff:     -0.323D-03-0.175D-03 0.427D-03 0.375D-03-0.367D-03-0.304D-03
 Coeff:     -0.180D-03 0.383D-03 0.221D-02 0.470D-03-0.401D-01-0.332D-01
 Coeff:      0.268D+00 0.803D+00
 Gap=     0.117 Goal=   None    Shift=    0.000
 Gap=     0.326 Goal=   None    Shift=    0.000
 RMSDP=3.99D-09 MaxDP=3.82D-07 DE=-2.18D-11 OVMax= 1.18D-06

 SCF Done:  E(UHSEH1PBE) =  -1306.19683236     A.U. after   21 cycles
            NFock= 21  Conv=0.40D-08     -V/T= 2.0002
 <Sx>= 0.0000 <Sy>= 0.0000 <Sz>= 0.5000 <S**2>= 0.7512 S= 0.5006
 <L.S>=  0.00000000000    
 KE= 1.305885647324D+03 PE=-4.449826374304D+03 EE= 1.136709963252D+03
 Annihilation of the first spin contaminant:
 S**2 before annihilation     0.7512,   after     0.7500
 Leave Link  502 at Thu May 23 16:31:27 2024, MaxMem= 26843545600 cpu:           13004.6 elap:             108.9
 (Enter /gpfs/fs1/soft/improv/software/custom-built/gaussian/g16/l508.exe)
 QCSCF skips out because SCF is already converged.
 Leave Link  508 at Thu May 23 16:31:28 2024, MaxMem= 26843545600 cpu:               0.2 elap:               0.0
 (Enter /gpfs/fs1/soft/improv/software/custom-built/gaussian/g16/l801.exe)
 DoSCS=F DFT=T ScalE2(SS,OS)=  1.000000  1.000000
 Range of M.O.s used for correlation:     1   317
 NBasis=   317 NAE=    40 NBE=    39 NFC=     0 NFV=     0
 NROrb=    317 NOA=    40 NOB=    39 NVA=   277 NVB=   278

 **** Warning!!: The largest alpha MO coefficient is  0.78988405D+02


 **** Warning!!: The largest beta MO coefficient is  0.78985022D+02

 Leave Link  801 at Thu May 23 16:31:28 2024, MaxMem= 26843545600 cpu:               0.4 elap:               0.0
 (Enter /gpfs/fs1/soft/improv/software/custom-built/gaussian/g16/l1101.exe)
 Using compressed storage, NAtomX=    19.
 Will process     20 centers per pass.
 Leave Link 1101 at Thu May 23 16:31:29 2024, MaxMem= 26843545600 cpu:              51.5 elap:               0.5
 (Enter /gpfs/fs1/soft/improv/software/custom-built/gaussian/g16/l1102.exe)
 Symmetrizing basis deriv contribution to polar:
 IMax=3 JMax=2 DiffMx= 0.00D+00
 Leave Link 1102 at Thu May 23 16:31:29 2024, MaxMem= 26843545600 cpu:               0.9 elap:               0.0
 (Enter /gpfs/fs1/soft/improv/software/custom-built/gaussian/g16/l1110.exe)
 Forming Gx(P) for the SCF density, NAtomX=    19.
 Integral derivatives from FoFJK, PRISM(SPDF).
 Do as many integral derivatives as possible in FoFJK.
 G2DrvN: MDV=   26843543431.
 G2DrvN: will do    20 centers at a time, making    1 passes.
 Calling FoFCou, ICntrl=  3107 FMM=F I1Cent=   0 AccDes= 0.00D+00.
 FoFJK:  IHMeth= 1 ICntrl=    3107 DoSepK=T KAlg= 0 I1Cent=           0 FoldK=F
 IRaf=         1 NMat=       1 IRICut=       1 DoRegI=T DoRafI=F ISym2E= 0 IDoP0=0 IntGTp=1.
 FoFCou: FMM=F IPFlag=           0 FMFlag=      100000 FMFlg1=           0
         NFxFlg=           0 DoJE=F BraDBF=F KetDBF=F FulRan=T
         wScrn=  0.000000 ICntrl=      3507 IOpCl=  0 I1Cent=           0 NGrid=           0
         NMat0=    1 NMatS0=      1 NMatT0=    0 NMatD0=    1 NMtDS0=    0 NMtDT0=    0
 Symmetry not used in FoFCou.
 End of G2Drv F.D. properties file   721 does not exist.
 End of G2Drv F.D. properties file   722 does not exist.
 End of G2Drv F.D. properties file   788 does not exist.
 Leave Link 1110 at Thu May 23 16:31:49 2024, MaxMem= 26843545600 cpu:            2436.8 elap:              19.6
 (Enter /gpfs/fs1/soft/improv/software/custom-built/gaussian/g16/l1002.exe)
 Minotr:  UHF open shell wavefunction.
          IDoAtm=1111111111111111111
          Direct CPHF calculation.
          Differentiating once with respect to electric field.
                with respect to dipole field.
          Differentiating once with respect to nuclear coordinates.
          Requested convergence is 1.0D-08 RMS, and 1.0D-07 maximum.
          Secondary convergence is 1.0D-12 RMS, and 1.0D-12 maximum.
          NewPWx=T KeepS1=F KeepF1=F KeepIn=T MapXYZ=F SortEE=F KeepMc=T.
         6034 words used for storage of precomputed grid.
 Two-electron integrals replicated using symmetry.
          MDV=   26843545600 using IRadAn=       1.
          Solving linear equations simultaneously, MaxMat=     384.
 FoF2E skips out because all densities are zero.
 CalDSu exits because no D1Ps are significant.
 FoFJK:  IHMeth= 1 ICntrl=       0 DoSepK=T KAlg= 0 I1Cent=           0 FoldK=F
 IRaf=         1 NMat=      57 IRICut=       1 DoRegI=T DoRafI=F ISym2E= 2 IDoP0=3 IntGTp=2.
 FoFCou: FMM=F IPFlag=           0 FMFlag=      100000 FMFlg1=           0
         NFxFlg=           0 DoJE=F BraDBF=F KetDBF=F FulRan=T
         wScrn=  0.000000 ICntrl=       500 IOpCl=  0 I1Cent=           0 NGrid=           0
         NMat0=   57 NMatS0=     57 NMatT0=    0 NMatD0=   57 NMtDS0=    0 NMtDT0=    0
 Integrals replicated using symmetry in FoFCou.
          There are    60 degrees of freedom in the 1st order CPHF.  IDoFFX=6 NUNeed=     3.
     57 vectors produced by pass  0 Test12= 3.65D-14 1.67D-09 XBig12= 5.44D+01 1.30D+00.
 AX will form    57 AO Fock derivatives at one time.
     57 vectors produced by pass  1 Test12= 3.65D-14 1.67D-09 XBig12= 5.23D+00 2.39D-01.
     57 vectors produced by pass  2 Test12= 3.65D-14 1.67D-09 XBig12= 4.96D-02 2.09D-02.
     57 vectors produced by pass  3 Test12= 3.65D-14 1.67D-09 XBig12= 1.56D-04 1.53D-03.
     57 vectors produced by pass  4 Test12= 3.65D-14 1.67D-09 XBig12= 7.67D-07 1.17D-04.
     57 vectors produced by pass  5 Test12= 3.65D-14 1.67D-09 XBig12= 4.66D-09 8.72D-06.
     34 vectors produced by pass  6 Test12= 3.65D-14 1.67D-09 XBig12= 2.01D-11 4.10D-07.
      6 vectors produced by pass  7 Test12= 3.65D-14 1.67D-09 XBig12= 7.25D-14 2.32D-08.
 InvSVY:  IOpt=1 It=  1 EMax= 3.55D-15
 Solved reduced A of dimension   382 with    60 vectors.
 FullF1:  Do perturbations      1 to       3.
 Isotropic polarizability for W=    0.000000       48.87 Bohr**3.
 End of Minotr F.D. properties file   721 does not exist.
 End of Minotr F.D. properties file   722 does not exist.
 End of Minotr F.D. properties file   788 does not exist.
 Leave Link 1002 at Thu May 23 16:32:57 2024, MaxMem= 26843545600 cpu:            8193.0 elap:              68.5
 (Enter /gpfs/fs1/soft/improv/software/custom-built/gaussian/g16/l601.exe)
 Copying SCF densities to generalized density rwf, IOpCl= 1 IROHF=0.

 **********************************************************************

            Population analysis using the SCF Density.

 **********************************************************************

 Orbital symmetries:
 Alpha Orbitals:
       Occupied  (A) (A) (A) (A) (A) (A) (A) (A) (A) (A) (A) (A)
                 (A) (A) (A) (A) (A) (A) (A) (A) (A) (A) (A) (A)
                 (A) (A) (A) (A) (A) (A) (A) (A) (A) (A) (A) (A)
                 (A) (A) (A) (A)
       Virtual   (A) (A) (A) (A) (A) (A) (A) (A) (A) (A) (A) (A)
                 (A) (A) (A) (A) (A) (A) (A) (A) (A) (A) (A) (A)
                 (A) (A) (A) (A) (A) (A) (A) (A) (A) (A) (A) (A)
                 (A) (A) (A) (A) (A) (A) (A) (A) (A) (A) (A) (A)
                 (A) (A) (A) (A) (A) (A) (A) (A) (A) (A) (A) (A)
                 (A) (A) (A) (A) (A) (A) (A) (A) (A) (A) (A) (A)
                 (A) (A) (A) (A) (A) (A) (A) (A) (A) (A) (A) (A)
                 (A) (A) (A) (A) (A) (A) (A) (A) (A) (A) (A) (A)
                 (A) (A) (A) (A) (A) (A) (A) (A) (A) (A) (A) (A)
                 (A) (A) (A) (A) (A) (A) (A) (A) (A) (A) (A) (A)
                 (A) (A) (A) (A) (A) (A) (A) (A) (A) (A) (A) (A)
                 (A) (A) (A) (A) (A) (A) (A) (A) (A) (A) (A) (A)
                 (A) (A) (A) (A) (A) (A) (A) (A) (A) (A) (A) (A)
                 (A) (A) (A) (A) (A) (A) (A) (A) (A) (A) (A) (A)
                 (A) (A) (A) (A) (A) (A) (A) (A) (A) (A) (A) (A)
                 (A) (A) (A) (A) (A) (A) (A) (A) (A) (A) (A) (A)
                 (A) (A) (A) (A) (A) (A) (A) (A) (A) (A) (A) (A)
                 (A) (A) (A) (A) (A) (A) (A) (A) (A) (A) (A) (A)
                 (A) (A) (A) (A) (A) (A) (A) (A) (A) (A) (A) (A)
                 (A) (A) (A) (A) (A) (A) (A) (A) (A) (A) (A) (A)
                 (A) (A) (A) (A) (A) (A) (A) (A) (A) (A) (A) (A)
                 (A) (A) (A) (A) (A) (A) (A) (A) (A) (A) (A) (A)
                 (A) (A) (A) (A) (A) (A) (A) (A) (A) (A) (A) (A)
                 (A)
 Beta  Orbitals:
       Occupied  (A) (A) (A) (A) (A) (A) (A) (A) (A) (A) (A) (A)
                 (A) (A) (A) (A) (A) (A) (A) (A) (A) (A) (A) (A)
                 (A) (A) (A) (A) (A) (A) (A) (A) (A) (A) (A) (A)
                 (A) (A) (A)
       Virtual   (A) (A) (A) (A) (A) (A) (A) (A) (A) (A) (A) (A)
                 (A) (A) (A) (A) (A) (A) (A) (A) (A) (A) (A) (A)
                 (A) (A) (A) (A) (A) (A) (A) (A) (A) (A) (A) (A)
                 (A) (A) (A) (A) (A) (A) (A) (A) (A) (A) (A) (A)
                 (A) (A) (A) (A) (A) (A) (A) (A) (A) (A) (A) (A)
                 (A) (A) (A) (A) (A) (A) (A) (A) (A) (A) (A) (A)
                 (A) (A) (A) (A) (A) (A) (A) (A) (A) (A) (A) (A)
                 (A) (A) (A) (A) (A) (A) (A) (A) (A) (A) (A) (A)
                 (A) (A) (A) (A) (A) (A) (A) (A) (A) (A) (A) (A)
                 (A) (A) (A) (A) (A) (A) (A) (A) (A) (A) (A) (A)
                 (A) (A) (A) (A) (A) (A) (A) (A) (A) (A) (A) (A)
                 (A) (A) (A) (A) (A) (A) (A) (A) (A) (A) (A) (A)
                 (A) (A) (A) (A) (A) (A) (A) (A) (A) (A) (A) (A)
                 (A) (A) (A) (A) (A) (A) (A) (A) (A) (A) (A) (A)
                 (A) (A) (A) (A) (A) (A) (A) (A) (A) (A) (A) (A)
                 (A) (A) (A) (A) (A) (A) (A) (A) (A) (A) (A) (A)
                 (A) (A) (A) (A) (A) (A) (A) (A) (A) (A) (A) (A)
                 (A) (A) (A) (A) (A) (A) (A) (A) (A) (A) (A) (A)
                 (A) (A) (A) (A) (A) (A) (A) (A) (A) (A) (A) (A)
                 (A) (A) (A) (A) (A) (A) (A) (A) (A) (A) (A) (A)
                 (A) (A) (A) (A) (A) (A) (A) (A) (A) (A) (A) (A)
                 (A) (A) (A) (A) (A) (A) (A) (A) (A) (A) (A) (A)
                 (A) (A) (A) (A) (A) (A) (A) (A) (A) (A) (A) (A)
                 (A) (A)
 The electronic state is 2-A.
 Alpha  occ. eigenvalues -- -179.56827 -20.48398 -19.83343 -19.83075 -19.82086
 Alpha  occ. eigenvalues --  -19.81595 -19.79574 -19.79144 -17.16281 -17.15902
 Alpha  occ. eigenvalues --  -17.15234  -2.94538  -2.06391  -2.06265  -2.05941
 Alpha  occ. eigenvalues --   -1.67666  -1.65715  -1.65360  -1.63641  -1.61941
 Alpha  occ. eigenvalues --   -1.61569  -1.19985  -1.18261  -1.16226  -1.15635
 Alpha  occ. eigenvalues --   -1.13756  -1.12432  -1.06915  -1.06723  -1.06181
 Alpha  occ. eigenvalues --   -1.02701  -1.01884  -0.99347  -0.98356  -0.95670
 Alpha  occ. eigenvalues --   -0.95338  -0.93429  -0.91554  -0.90476  -0.71205
 Alpha virt. eigenvalues --   -0.59546  -0.58072  -0.55610  -0.49974  -0.47975
 Alpha virt. eigenvalues --   -0.46884  -0.44647  -0.44211  -0.41615  -0.40619
 Alpha virt. eigenvalues --   -0.40252  -0.39593  -0.36885  -0.35626  -0.35183
 Alpha virt. eigenvalues --   -0.33618  -0.32478  -0.31894  -0.30912  -0.29086
 Alpha virt. eigenvalues --   -0.28313  -0.27814  -0.27519  -0.26997  -0.25041
 Alpha virt. eigenvalues --   -0.24910  -0.24390  -0.23787  -0.22415  -0.21573
 Alpha virt. eigenvalues --   -0.21076  -0.19832  -0.19370  -0.18711  -0.17279
 Alpha virt. eigenvalues --   -0.16459  -0.15658  -0.15327  -0.14889  -0.14296
 Alpha virt. eigenvalues --   -0.12585  -0.11891  -0.11068  -0.09918  -0.08786
 Alpha virt. eigenvalues --   -0.07714  -0.07516  -0.06018  -0.05083  -0.04110
 Alpha virt. eigenvalues --   -0.02853  -0.02135  -0.00243   0.01299   0.03565
 Alpha virt. eigenvalues --    0.05937   0.08305   0.19700   0.20772   0.21243
 Alpha virt. eigenvalues --    0.22970   0.25001   0.25599   0.26317   0.27096
 Alpha virt. eigenvalues --    0.31366   0.32914   0.33843   0.34420   0.34855
 Alpha virt. eigenvalues --    0.37522   0.37702   0.38445   0.38715   0.40187
 Alpha virt. eigenvalues --    0.40582   0.44393   0.46186   0.47473   0.48160
 Alpha virt. eigenvalues --    0.49234   0.50980   0.51999   0.52524   0.53483
 Alpha virt. eigenvalues --    0.54984   0.56460   0.57578   0.57887   0.60622
 Alpha virt. eigenvalues --    0.61738   0.63996   0.64945   0.67391   0.69892
 Alpha virt. eigenvalues --    0.69996   0.72939   0.74161   0.77292   0.78079
 Alpha virt. eigenvalues --    0.78617   0.79158   0.80486   0.83659   0.84994
 Alpha virt. eigenvalues --    0.87763   0.88361   0.93699   0.95005   0.97981
 Alpha virt. eigenvalues --    0.99734   1.03542   1.07493   1.09505   1.12153
 Alpha virt. eigenvalues --    1.14035   1.18907   1.19695   1.25806   1.27678
 Alpha virt. eigenvalues --    1.31649   1.34461   1.35275   1.37409   1.38575
 Alpha virt. eigenvalues --    1.44301   1.48221   1.66875   1.67789   1.70050
 Alpha virt. eigenvalues --    1.70603   1.71648   1.74812   1.74900   1.76433
 Alpha virt. eigenvalues --    1.80904   1.84296   1.86965   1.87966   1.90033
 Alpha virt. eigenvalues --    1.92113   1.95273   1.96951   1.99464   2.03853
 Alpha virt. eigenvalues --    2.06111   2.10948   2.18056   2.19597   2.25902
 Alpha virt. eigenvalues --    2.27802   2.30780   2.32343   2.34117   2.35186
 Alpha virt. eigenvalues --    2.37642   2.39235   2.40738   2.41780   2.44175
 Alpha virt. eigenvalues --    2.44439   2.46635   2.48407   2.48629   2.50414
 Alpha virt. eigenvalues --    2.53925   2.60707   2.62422   2.63980   2.65163
 Alpha virt. eigenvalues --    2.66303   2.66841   2.69637   2.73675   2.75736
 Alpha virt. eigenvalues --    2.76826   2.81830   2.85808   2.89199   3.02967
 Alpha virt. eigenvalues --    3.04085   3.04942   3.07356   3.10378   3.50035
 Alpha virt. eigenvalues --    3.52077   3.55120   3.57648   3.60060   3.61471
 Alpha virt. eigenvalues --    3.64189   3.64902   3.66128   3.67217   3.67941
 Alpha virt. eigenvalues --    3.71319   3.74433   3.76743   3.79227   3.85644
 Alpha virt. eigenvalues --    3.86407   3.89008   3.91476   3.96722   3.97951
 Alpha virt. eigenvalues --    4.00322   4.02607   4.05484   4.07792   4.16209
 Alpha virt. eigenvalues --    4.16446   4.17313   4.21186   4.23346   4.30841
 Alpha virt. eigenvalues --    4.32057   4.34638   4.36682   4.39077   4.39647
 Alpha virt. eigenvalues --    4.41494   4.49045   4.61991   4.67127   4.69190
 Alpha virt. eigenvalues --    4.73725   4.74623   4.76361   4.84896   4.86634
 Alpha virt. eigenvalues --    4.90172   4.90231   4.90823   4.91498   4.97371
 Alpha virt. eigenvalues --    4.98067   4.99680   5.03781   5.05306   5.07277
 Alpha virt. eigenvalues --    5.08782   5.11445   5.16140   5.17183   5.21373
 Alpha virt. eigenvalues --    5.23744   5.24563   5.25766   5.27323   5.28410
 Alpha virt. eigenvalues --    5.29750   5.34583   5.35427   5.36643   5.38094
 Alpha virt. eigenvalues --    5.39049   5.41337   5.42939   5.44224   5.47747
 Alpha virt. eigenvalues --    5.52299   5.80988   5.83051   5.87373   6.91329
 Alpha virt. eigenvalues --    6.93951   6.94889   7.06654   7.12275   7.16264
 Alpha virt. eigenvalues --   13.17867  13.20069  13.20803  13.77228  13.81225
 Alpha virt. eigenvalues --   13.87061  28.46120
  Beta  occ. eigenvalues -- -179.56826 -20.47372 -19.83371 -19.83111 -19.82087
  Beta  occ. eigenvalues --  -19.81572 -19.79598 -19.79166 -17.15902 -17.15107
  Beta  occ. eigenvalues --  -17.13749  -2.90886  -2.04695  -2.02733  -1.99757
  Beta  occ. eigenvalues --   -1.67582  -1.65625  -1.65286  -1.63418  -1.61801
  Beta  occ. eigenvalues --   -1.61418  -1.19569  -1.18129  -1.16065  -1.15532
  Beta  occ. eigenvalues --   -1.13544  -1.12296  -1.06742  -1.06518  -1.05970
  Beta  occ. eigenvalues --   -1.02599  -1.01753  -0.99237  -0.98205  -0.95549
  Beta  occ. eigenvalues --   -0.95164  -0.93314  -0.91459  -0.90456
  Beta virt. eigenvalues --   -0.57905  -0.56781  -0.55145  -0.54588  -0.49854
  Beta virt. eigenvalues --   -0.47673  -0.46769  -0.44130  -0.43832  -0.40933
  Beta virt. eigenvalues --   -0.40312  -0.39716  -0.38860  -0.36595  -0.35490
  Beta virt. eigenvalues --   -0.35037  -0.33364  -0.32398  -0.31773  -0.30786
  Beta virt. eigenvalues --   -0.28949  -0.28209  -0.27724  -0.27350  -0.26871
  Beta virt. eigenvalues --   -0.24911  -0.24830  -0.24264  -0.23368  -0.22087
  Beta virt. eigenvalues --   -0.21425  -0.20973  -0.19724  -0.19239  -0.18292
  Beta virt. eigenvalues --   -0.17107  -0.16342  -0.15538  -0.15259  -0.14712
  Beta virt. eigenvalues --   -0.14189  -0.12359  -0.11725  -0.10916  -0.09821
  Beta virt. eigenvalues --   -0.08359  -0.07543  -0.07387  -0.05783  -0.04887
  Beta virt. eigenvalues --   -0.03953  -0.02759  -0.01740   0.00391   0.01689
  Beta virt. eigenvalues --    0.03855   0.06235   0.08600   0.20712   0.21228
  Beta virt. eigenvalues --    0.21895   0.23586   0.25688   0.26617   0.26669
  Beta virt. eigenvalues --    0.27583   0.31523   0.33071   0.34022   0.34623
  Beta virt. eigenvalues --    0.34980   0.37731   0.37972   0.38639   0.38884
  Beta virt. eigenvalues --    0.40447   0.40873   0.44613   0.46360   0.47846
  Beta virt. eigenvalues --    0.48274   0.49379   0.51210   0.52144   0.52705
  Beta virt. eigenvalues --    0.53626   0.55126   0.56625   0.57767   0.58047
  Beta virt. eigenvalues --    0.60851   0.61940   0.64202   0.65052   0.67755
  Beta virt. eigenvalues --    0.70054   0.70208   0.73064   0.74928   0.77493
  Beta virt. eigenvalues --    0.78305   0.78878   0.79250   0.81304   0.83819
  Beta virt. eigenvalues --    0.85063   0.88045   0.88591   0.94313   0.95496
  Beta virt. eigenvalues --    0.98664   1.00104   1.03854   1.10047   1.10521
  Beta virt. eigenvalues --    1.12900   1.15619   1.20203   1.21169   1.26329
  Beta virt. eigenvalues --    1.28059   1.31964   1.34690   1.35967   1.37844
  Beta virt. eigenvalues --    1.39636   1.44802   1.48598   1.67150   1.68083
  Beta virt. eigenvalues --    1.70337   1.70965   1.72005   1.75011   1.75205
  Beta virt. eigenvalues --    1.76660   1.81182   1.84512   1.87226   1.88468
  Beta virt. eigenvalues --    1.90335   1.92585   1.95670   1.97414   1.99964
  Beta virt. eigenvalues --    2.04563   2.06897   2.12129   2.18628   2.20031
  Beta virt. eigenvalues --    2.26255   2.28205   2.31304   2.33004   2.34560
  Beta virt. eigenvalues --    2.35748   2.38074   2.39531   2.41061   2.42567
  Beta virt. eigenvalues --    2.44515   2.45175   2.46972   2.48704   2.48937
  Beta virt. eigenvalues --    2.50962   2.54436   2.61015   2.62660   2.64257
  Beta virt. eigenvalues --    2.66137   2.66523   2.67537   2.70356   2.74407
  Beta virt. eigenvalues --    2.76053   2.78283   2.82568   2.86497   2.90068
  Beta virt. eigenvalues --    3.04427   3.04781   3.06009   3.08424   3.11624
  Beta virt. eigenvalues --    3.50278   3.52270   3.55211   3.57997   3.60287
  Beta virt. eigenvalues --    3.61673   3.64327   3.65263   3.66236   3.67341
  Beta virt. eigenvalues --    3.68006   3.71542   3.74560   3.76842   3.79249
  Beta virt. eigenvalues --    3.85871   3.86613   3.89104   3.91681   3.97774
  Beta virt. eigenvalues --    3.98368   4.01390   4.04721   4.06695   4.08666
  Beta virt. eigenvalues --    4.17081   4.17456   4.18431   4.22357   4.23436
  Beta virt. eigenvalues --    4.31166   4.32530   4.35370   4.37412   4.39375
  Beta virt. eigenvalues --    4.40102   4.41878   4.50651   4.62047   4.67398
  Beta virt. eigenvalues --    4.69383   4.73965   4.74757   4.76619   4.84933
  Beta virt. eigenvalues --    4.86667   4.90265   4.90327   4.90870   4.91621
  Beta virt. eigenvalues --    4.97544   4.98215   4.99892   5.04058   5.06048
  Beta virt. eigenvalues --    5.07515   5.09033   5.11680   5.16324   5.17376
  Beta virt. eigenvalues --    5.21619   5.23879   5.24654   5.25918   5.27516
  Beta virt. eigenvalues --    5.28695   5.30044   5.34798   5.35556   5.37010
  Beta virt. eigenvalues --    5.38407   5.39181   5.41482   5.43319   5.44434
  Beta virt. eigenvalues --    5.47995   5.52656   5.81026   5.83101   5.87476
  Beta virt. eigenvalues --    6.91450   6.94089   6.95049   7.06728   7.12329
  Beta virt. eigenvalues --    7.16343  13.17968  13.20145  13.20865  13.77242
  Beta virt. eigenvalues --   13.81256  13.87078  28.46872
          Condensed to atoms (all electrons):
               1          2          3          4          5          6
     1  Ti  20.837732   0.071338  -0.002799   0.127090  -0.002200   0.060956
     2  O    0.071338   7.894762   0.300023  -0.033598  -0.000241  -0.030787
     3  H   -0.002799   0.300023   0.245569   0.001058  -0.000021   0.000684
     4  O    0.127090  -0.033598   0.001058   7.981494   0.296616  -0.104667
     5  H   -0.002200  -0.000241  -0.000021   0.296616   0.266237   0.000636
     6  O    0.060956  -0.030787   0.000684  -0.104667   0.000636   8.029493
     7  H   -0.014532   0.001210   0.000034  -0.003933   0.000071   0.307733
     8  O    0.035675   0.052685  -0.000675  -0.063416   0.000826  -0.112138
     9  H   -0.003757  -0.000963  -0.000017   0.003112  -0.000006  -0.001076
    10  O    0.132788   0.032445   0.003939   0.037989  -0.000980  -0.066194
    11  H   -0.004388   0.001769  -0.000427  -0.001160   0.000007   0.000694
    12  O    0.088156  -0.012126  -0.001072   0.033501   0.000612   0.053263
    13  H   -0.008479  -0.002739   0.000119   0.004481   0.000068  -0.000427
    14  H   -0.001117   0.001149  -0.000068   0.000009   0.000016  -0.000656
    15  H   -0.003447   0.004062  -0.000031   0.295453  -0.018846  -0.004813
    16  H   -0.009579   0.310150  -0.013160  -0.004909   0.000040   0.000196
    17  H   -0.004747   0.000076   0.000216  -0.001510  -0.000006   0.003423
    18  H   -0.009848  -0.000541  -0.000007   0.015777  -0.001469   0.297189
    19  H   -0.011217  -0.001864   0.000009  -0.008292   0.000698   0.013363
               7          8          9         10         11         12
     1  Ti  -0.014532   0.035675  -0.003757   0.132788  -0.004388   0.088156
     2  O    0.001210   0.052685  -0.000963   0.032445   0.001769  -0.012126
     3  H    0.000034  -0.000675  -0.000017   0.003939  -0.000427  -0.001072
     4  O   -0.003933  -0.063416   0.003112   0.037989  -0.001160   0.033501
     5  H    0.000071   0.000826  -0.000006  -0.000980   0.000007   0.000612
     6  O    0.307733  -0.112138  -0.001076  -0.066194   0.000694   0.053263
     7  H    0.288083   0.008019  -0.000591  -0.004336  -0.000066  -0.001823
     8  O    0.008019   8.036840   0.297525  -0.065110  -0.005338  -0.044062
     9  H   -0.000591   0.297525   0.260089   0.007071   0.000775  -0.002591
    10  O   -0.004336  -0.065110   0.007071   7.962353   0.293569  -0.058091
    11  H   -0.000066  -0.005338   0.000775   0.293569   0.265675   0.004832
    12  O   -0.001823  -0.044062  -0.002591  -0.058091   0.004832   7.899054
    13  H    0.000012  -0.000648   0.000004   0.002470  -0.000157   0.303571
    14  H   -0.000035   0.000078   0.000731  -0.006952   0.002767   0.299894
    15  H    0.000119   0.001564  -0.000030  -0.001370  -0.000001   0.001331
    16  H   -0.000148  -0.000307   0.000007  -0.000110   0.000019  -0.000024
    17  H    0.001460   0.000754  -0.001412   0.294147  -0.019698   0.001003
    18  H   -0.018290  -0.003131   0.000102   0.002062  -0.000016  -0.000947
    19  H    0.004631   0.302684  -0.016433  -0.003828   0.000080   0.002584
              13         14         15         16         17         18
     1  Ti  -0.008479  -0.001117  -0.003447  -0.009579  -0.004747  -0.009848
     2  O   -0.002739   0.001149   0.004062   0.310150   0.000076  -0.000541
     3  H    0.000119  -0.000068  -0.000031  -0.013160   0.000216  -0.000007
     4  O    0.004481   0.000009   0.295453  -0.004909  -0.001510   0.015777
     5  H    0.000068   0.000016  -0.018846   0.000040  -0.000006  -0.001469
     6  O   -0.000427  -0.000656  -0.004813   0.000196   0.003423   0.297189
     7  H    0.000012  -0.000035   0.000119  -0.000148   0.001460  -0.018290
     8  O   -0.000648   0.000078   0.001564  -0.000307   0.000754  -0.003131
     9  H    0.000004   0.000731  -0.000030   0.000007  -0.001412   0.000102
    10  O    0.002470  -0.006952  -0.001370  -0.000110   0.294147   0.002062
    11  H   -0.000157   0.002767  -0.000001   0.000019  -0.019698  -0.000016
    12  O    0.303571   0.299894   0.001331  -0.000024   0.001003  -0.000947
    13  H    0.244805  -0.014722  -0.000245  -0.000026  -0.000025  -0.000024
    14  H   -0.014722   0.281898   0.000004  -0.000022  -0.000063   0.000011
    15  H   -0.000245   0.000004   0.254888   0.000840   0.000008   0.000295
    16  H   -0.000026  -0.000022   0.000840   0.265500  -0.000008   0.000227
    17  H   -0.000025  -0.000063   0.000008  -0.000008   0.267531  -0.000111
    18  H   -0.000024   0.000011   0.000295   0.000227  -0.000111   0.263544
    19  H    0.000036  -0.000166   0.000005  -0.000029   0.000254  -0.000943
              19
     1  Ti  -0.011217
     2  O   -0.001864
     3  H    0.000009
     4  O   -0.008292
     5  H    0.000698
     6  O    0.013363
     7  H    0.004631
     8  O    0.302684
     9  H   -0.016433
    10  O   -0.003828
    11  H    0.000080
    12  O    0.002584
    13  H    0.000036
    14  H   -0.000166
    15  H    0.000005
    16  H   -0.000029
    17  H    0.000254
    18  H   -0.000943
    19  H    0.282286
          Atomic-Atomic Spin Densities.
               1          2          3          4          5          6
     1  Ti   1.159419  -0.012037  -0.001483  -0.027116  -0.000877  -0.016785
     2  O   -0.012037  -0.009833   0.000177   0.005183  -0.000279  -0.000399
     3  H   -0.001483   0.000177   0.004839  -0.000398   0.000004   0.000189
     4  O   -0.027116   0.005183  -0.000398   0.016338   0.000566   0.000405
     5  H   -0.000877  -0.000279   0.000004   0.000566  -0.000138   0.000244
     6  O   -0.016785  -0.000399   0.000189   0.000405   0.000244  -0.015657
     7  H   -0.015096  -0.001246   0.000037  -0.002314   0.000129   0.010364
     8  O   -0.012477  -0.000760   0.000064  -0.001077   0.000283   0.004306
     9  H   -0.004412   0.000119  -0.000008   0.000077  -0.000035  -0.001615
    10  O   -0.015874  -0.001478   0.001750  -0.000112  -0.000061   0.003232
    11  H   -0.008999   0.000084  -0.000247   0.000085  -0.000003  -0.001123
    12  O   -0.013500   0.003870   0.000038   0.001485  -0.000072  -0.000561
    13  H   -0.004693  -0.000170   0.000091   0.002336   0.000064   0.000151
    14  H   -0.013782  -0.000136  -0.000071  -0.000838  -0.000026  -0.000464
    15  H   -0.005923   0.001501  -0.000045   0.003882  -0.000538   0.000138
    16  H   -0.009279   0.007013  -0.001478   0.001820  -0.000026   0.000398
    17  H   -0.005238  -0.000516   0.000120  -0.000265   0.000005   0.001934
    18  H   -0.006987   0.002260  -0.000050   0.005694  -0.000363   0.001184
    19  H   -0.010452  -0.000392   0.000006  -0.001412   0.000322   0.004167
               7          8          9         10         11         12
     1  Ti  -0.015096  -0.012477  -0.004412  -0.015874  -0.008999  -0.013500
     2  O   -0.001246  -0.000760   0.000119  -0.001478   0.000084   0.003870
     3  H    0.000037   0.000064  -0.000008   0.001750  -0.000247   0.000038
     4  O   -0.002314  -0.001077   0.000077  -0.000112   0.000085   0.001485
     5  H    0.000129   0.000283  -0.000035  -0.000061  -0.000003  -0.000072
     6  O    0.010364   0.004306  -0.001615   0.003232  -0.001123  -0.000561
     7  H    0.015774   0.003498  -0.000434   0.000321  -0.000115  -0.000318
     8  O    0.003498  -0.012273   0.002086   0.001494   0.000286   0.002371
     9  H   -0.000434   0.002086   0.005336   0.001719   0.000716   0.001438
    10  O    0.000321   0.001494   0.001719  -0.005539   0.003860   0.003731
    11  H   -0.000115   0.000286   0.000716   0.003860   0.010731   0.002470
    12  O   -0.000318   0.002371   0.001438   0.003731   0.002470  -0.018410
    13  H    0.000008  -0.000207  -0.000073  -0.000325  -0.000121   0.003452
    14  H   -0.000022   0.001196   0.000690   0.001764   0.001236   0.007802
    15  H   -0.000072  -0.000511   0.000007  -0.000046   0.000003  -0.000295
    16  H   -0.000135  -0.000233   0.000004  -0.000984   0.000035  -0.000281
    17  H    0.000808   0.000528  -0.000482   0.002893  -0.001869  -0.000596
    18  H   -0.003666  -0.002049   0.000058  -0.000342   0.000016  -0.000000
    19  H    0.002529   0.005644  -0.002309  -0.000658  -0.000114  -0.000725
              13         14         15         16         17         18
     1  Ti  -0.004693  -0.013782  -0.005923  -0.009279  -0.005238  -0.006987
     2  O   -0.000170  -0.000136   0.001501   0.007013  -0.000516   0.002260
     3  H    0.000091  -0.000071  -0.000045  -0.001478   0.000120  -0.000050
     4  O    0.002336  -0.000838   0.003882   0.001820  -0.000265   0.005694
     5  H    0.000064  -0.000026  -0.000538  -0.000026   0.000005  -0.000363
     6  O    0.000151  -0.000464   0.000138   0.000398   0.001934   0.001184
     7  H    0.000008  -0.000022  -0.000072  -0.000135   0.000808  -0.003666
     8  O   -0.000207   0.001196  -0.000511  -0.000233   0.000528  -0.002049
     9  H   -0.000073   0.000690   0.000007   0.000004  -0.000482   0.000058
    10  O   -0.000325   0.001764  -0.000046  -0.000984   0.002893  -0.000342
    11  H   -0.000121   0.001236   0.000003   0.000035  -0.001869   0.000016
    12  O    0.003452   0.007802  -0.000295  -0.000281  -0.000596  -0.000000
    13  H    0.007946  -0.002664  -0.000140  -0.000040   0.000012  -0.000014
    14  H   -0.002664   0.012215   0.000021   0.000015  -0.000108   0.000010
    15  H   -0.000140   0.000021   0.004715   0.000342  -0.000003   0.000669
    16  H   -0.000040   0.000015   0.000342   0.006189  -0.000048   0.000490
    17  H    0.000012  -0.000108  -0.000003  -0.000048   0.003003  -0.000089
    18  H   -0.000014   0.000010   0.000669   0.000490  -0.000089   0.011533
    19  H    0.000043  -0.000151  -0.000055  -0.000013   0.000248  -0.000683
              19
     1  Ti  -0.010452
     2  O   -0.000392
     3  H    0.000006
     4  O   -0.001412
     5  H    0.000322
     6  O    0.004167
     7  H    0.002529
     8  O    0.005644
     9  H   -0.002309
    10  O   -0.000658
    11  H   -0.000114
    12  O   -0.000725
    13  H    0.000043
    14  H   -0.000151
    15  H   -0.000055
    16  H   -0.000013
    17  H    0.000248
    18  H   -0.000683
    19  H    0.012400
 Mulliken charges and spin densities:
               1          2
     1  Ti   0.722375   0.974408
     2  O   -0.586811  -0.007039
     3  H    0.466625   0.003534
     4  O   -0.575096   0.004339
     5  H    0.457942  -0.000802
     6  O   -0.446873  -0.009893
     7  H    0.432382   0.010050
     8  O   -0.441824  -0.007831
     9  H    0.457461   0.002883
    10  O   -0.561866  -0.004655
    11  H    0.461064   0.006931
    12  O   -0.567067  -0.008102
    13  H    0.471925   0.005656
    14  H    0.437244   0.006686
    15  H    0.470213   0.003650
    16  H    0.451344   0.003788
    17  H    0.458707   0.000335
    18  H    0.456117   0.007669
    19  H    0.436139   0.008393
 Sum of Mulliken charges =   3.00000   1.00000
 Mulliken charges and spin densities with hydrogens summed into heavy atoms:
               1          2
     1  Ti   0.722375   0.974408
     2  O    0.331157   0.000283
     4  O    0.353059   0.007188
     6  O    0.441626   0.007826
     8  O    0.451776   0.003445
    10  O    0.357906   0.002611
    12  O    0.342102   0.004240
 APT charges:
               1
     1  Ti   2.297429
     2  O   -0.678582
     3  H    0.414233
     4  O   -0.651996
     5  H    0.377217
     6  O   -0.590490
     7  H    0.343021
     8  O   -0.626439
     9  H    0.381478
    10  O   -0.641446
    11  H    0.376241
    12  O   -0.642785
    13  H    0.412207
    14  H    0.368540
    15  H    0.384630
    16  H    0.384859
    17  H    0.376828
    18  H    0.365665
    19  H    0.349392
 Sum of APT charges =   3.00000
 APT charges with hydrogens summed into heavy atoms:
               1
     1  Ti   2.297429
     2  O    0.120510
     4  O    0.109851
     6  O    0.118195
     8  O    0.104430
    10  O    0.111622
    12  O    0.137962
 Electronic spatial extent (au):  <R**2>=            839.4522
 Charge=              3.0000 electrons
 Dipole moment (field-independent basis, Debye):
    X=              2.3040    Y=              3.7215    Z=             -1.0310  Tot=              4.4968
 Quadrupole moment (field-independent basis, Debye-Ang):
   XX=            -12.3283   YY=            -15.7196   ZZ=            -26.6964
   XY=             -4.2099   XZ=             -1.4216   YZ=             -0.8589
 Traceless Quadrupole moment (field-independent basis, Debye-Ang):
   XX=              5.9198   YY=              2.5285   ZZ=             -8.4483
   XY=             -4.2099   XZ=             -1.4216   YZ=             -0.8589
 Octapole moment (field-independent basis, Debye-Ang**2):
  XXX=             18.5094  YYY=             17.7400  ZZZ=              4.7818  XYY=              4.1297
  XXY=              9.1465  XXZ=              3.1823  XZZ=             -8.0416  YZZ=             -3.2123
  YYZ=            -14.6556  XYZ=             -3.1429
 Hexadecapole moment (field-independent basis, Debye-Ang**3):
 XXXX=           -167.4487 YYYY=           -174.5740 ZZZZ=           -213.9142 XXXY=            -21.6097
 XXXZ=              2.8782 YYYX=             -9.8203 YYYZ=             10.7872 ZZZX=            -16.2254
 ZZZY=            -14.8753 XXYY=            -47.1247 XXZZ=            -54.6114 YYZZ=            -51.0397
 XXYZ=              0.0997 YYXZ=              3.3585 ZZXY=              1.8938
 N-N= 7.010339313636D+02 E-N=-4.449826373556D+03  KE= 1.305885647324D+03
  Exact polarizability:      50.643      -0.533      49.629      -1.073      -0.056      46.330
 Approx polarizability:      70.093      -0.830      69.011      -2.161      -0.039      63.315
                          Isotropic Fermi Contact Couplings
        Atom                 a.u.       MegaHertz       Gauss      10(-4) cm-1
     1  Ti(47)            -0.06316      15.94183       5.68844       5.31762
     2  O(17)             -0.01061       6.43297       2.29544       2.14581
     3  H(1)               0.00235      10.48512       3.74135       3.49746
     4  O(17)              0.00247      -1.49642      -0.53396      -0.49915
     5  H(1)              -0.00022      -0.98179      -0.35033      -0.32749
     6  O(17)             -0.01558       9.44713       3.37097       3.15122
     7  H(1)               0.00650      29.03404      10.36007       9.68471
     8  O(17)             -0.00980       5.93962       2.11940       1.98124
     9  H(1)               0.00193       8.64854       3.08601       2.88484
    10  O(17)             -0.00379       2.29660       0.81948       0.76606
    11  H(1)               0.00508      22.72830       8.11002       7.58135
    12  O(17)             -0.01318       7.98831       2.85043       2.66461
    13  H(1)               0.00394      17.60653       6.28245       5.87291
    14  H(1)               0.00504      22.52915       8.03896       7.51491
    15  H(1)               0.00297      13.29530       4.74409       4.43483
    16  H(1)               0.00300      13.40537       4.78337       4.47155
    17  H(1)               0.00057       2.56477       0.91517       0.85551
    18  H(1)               0.00461      20.60453       7.35221       6.87293
    19  H(1)               0.00501      22.41233       7.99728       7.47595
 --------------------------------------------------------
       Center         ----  Spin Dipole Couplings  ----
                      3XX-RR        3YY-RR        3ZZ-RR
 --------------------------------------------------------
     1   Atom        0.213409      0.102829     -0.316238
     2   Atom        0.007499      0.002272     -0.009771
     3   Atom       -0.003147      0.004274     -0.001126
     4   Atom       -0.017571     -0.040403      0.057974
     5   Atom        0.010158     -0.009763     -0.000395
[...]
    19  H    0.000003   0.000002  -0.000005   0.000000   0.000003  -0.000015
              19
     1  Ti   0.000049
     2  O   -0.000410
     3  H   -0.000000
     4  O    0.002003
     5  H   -0.000043
     6  O    0.001810
     7  H   -0.000044
     8  O    0.290088
     9  H   -0.012402
    10  O    0.001398
    11  H   -0.000014
    12  O    0.000269
    13  H    0.000003
    14  H    0.000002
    15  H   -0.000005
    16  H    0.000000
    17  H    0.000003
    18  H   -0.000015
    19  H    0.270869
          Atomic-Atomic Spin Densities.
               1          2          3          4          5          6
     1  Ti   1.066846  -0.002719  -0.001799  -0.002685  -0.001791  -0.002719
     2  O   -0.002719  -0.011625   0.001669   0.000643  -0.000014   0.000647
     3  H   -0.001799   0.001669   0.001809   0.000041   0.000001  -0.000015
     4  O   -0.002685   0.000643   0.000041  -0.011648   0.001653   0.000647
     5  H   -0.001791  -0.000014   0.000001   0.001653   0.001805   0.000042
     6  O   -0.002719   0.000647  -0.000015   0.000647   0.000042  -0.011588
     7  H   -0.001785   0.000043   0.000001  -0.000015   0.000001   0.001658
     8  O   -0.002737  -0.000073  -0.000013   0.001157   0.000236   0.001176
     9  H   -0.001195  -0.000012  -0.000000  -0.000136  -0.000016  -0.000098
    10  O   -0.002645   0.001163  -0.000041  -0.000072  -0.000013   0.001169
    11  H   -0.001205  -0.000098  -0.000002  -0.000012  -0.000000  -0.000137
    12  O   -0.002718   0.001173   0.000233   0.001167  -0.000041  -0.000074
    13  H   -0.001787  -0.000040   0.000023   0.000230   0.000023  -0.000013
    14  H   -0.001194  -0.000137  -0.000016  -0.000097  -0.000002  -0.000012
    15  H   -0.001200   0.000215  -0.000011   0.000924  -0.000553   0.000041
    16  H   -0.001198   0.000917  -0.000555   0.000043  -0.000002   0.000216
    17  H   -0.001794   0.000236   0.000023  -0.000013   0.000000  -0.000041
    18  H   -0.001195   0.000041  -0.000002   0.000218  -0.000011   0.000914
    19  H   -0.001797  -0.000013   0.000000  -0.000042   0.000023   0.000234
               7          8          9         10         11         12
     1  Ti  -0.001785  -0.002737  -0.001195  -0.002645  -0.001205  -0.002718
     2  O    0.000043  -0.000073  -0.000012   0.001163  -0.000098   0.001173
     3  H    0.000001  -0.000013  -0.000000  -0.000041  -0.000002   0.000233
     4  O   -0.000015   0.001157  -0.000136  -0.000072  -0.000012   0.001167
     5  H    0.000001   0.000236  -0.000016  -0.000013  -0.000000  -0.000041
     6  O    0.001658   0.001176  -0.000098   0.001169  -0.000137  -0.000074
     7  H    0.001793  -0.000040  -0.000002   0.000229  -0.000016  -0.000013
     8  O   -0.000040  -0.011570   0.000914   0.000641   0.000216   0.000648
     9  H   -0.000002   0.000914   0.001984   0.000042   0.000029   0.000216
    10  O    0.000229   0.000641   0.000042  -0.011737   0.000925   0.000647
    11  H   -0.000016   0.000216   0.000029   0.000925   0.001992   0.000041
    12  O   -0.000013   0.000648   0.000216   0.000647   0.000041  -0.011590
    13  H    0.000000   0.000043  -0.000011  -0.000015  -0.000002   0.001660
    14  H   -0.000000   0.000040   0.000029   0.000216   0.000029   0.000913
    15  H   -0.000002  -0.000097   0.000002  -0.000012   0.000000  -0.000136
    16  H   -0.000011  -0.000012   0.000000  -0.000136   0.000002  -0.000098
    17  H    0.000023  -0.000014  -0.000002   0.001658  -0.000555   0.000043
    18  H   -0.000552  -0.000137   0.000002  -0.000096   0.000002  -0.000012
    19  H    0.000023   0.001665  -0.000554   0.000041  -0.000011  -0.000015
              13         14         15         16         17         18
     1  Ti  -0.001787  -0.001194  -0.001200  -0.001198  -0.001794  -0.001195
     2  O   -0.000040  -0.000137   0.000215   0.000917   0.000236   0.000041
     3  H    0.000023  -0.000016  -0.000011  -0.000555   0.000023  -0.000002
     4  O    0.000230  -0.000097   0.000924   0.000043  -0.000013   0.000218
     5  H    0.000023  -0.000002  -0.000553  -0.000002   0.000000  -0.000011
     6  O   -0.000013  -0.000012   0.000041   0.000216  -0.000041   0.000914
     7  H    0.000000  -0.000000  -0.000002  -0.000011   0.000023  -0.000552
     8  O    0.000043   0.000040  -0.000097  -0.000012  -0.000014  -0.000137
     9  H   -0.000011   0.000029   0.000002   0.000000  -0.000002   0.000002
    10  O   -0.000015   0.000216  -0.000012  -0.000136   0.001658  -0.000096
    11  H   -0.000002   0.000029   0.000000   0.000002  -0.000555   0.000002
    12  O    0.001660   0.000913  -0.000136  -0.000098   0.000043  -0.000012
    13  H    0.001796  -0.000552  -0.000016  -0.000002   0.000001  -0.000000
    14  H   -0.000552   0.001977   0.000002   0.000002  -0.000011   0.000000
    15  H   -0.000016   0.000002   0.001978   0.000029  -0.000000   0.000029
    16  H   -0.000002   0.000002   0.000029   0.001988  -0.000016   0.000029
    17  H    0.000001  -0.000011  -0.000000  -0.000016   0.001811  -0.000002
    18  H   -0.000000   0.000000   0.000029   0.000029  -0.000002   0.001978
    19  H    0.000001  -0.000002  -0.000002  -0.000000   0.000001  -0.000016
              19
     1  Ti  -0.001797
     2  O   -0.000013
     3  H    0.000000
     4  O   -0.000042
     5  H    0.000023
     6  O    0.000234
     7  H    0.000023
     8  O    0.001665
     9  H   -0.000554
    10  O    0.000041
    11  H   -0.000011
    12  O   -0.000015
    13  H    0.000001
    14  H   -0.000002
    15  H   -0.000002
    16  H   -0.000000
    17  H    0.000001
    18  H   -0.000016
    19  H    0.001803
 Mulliken charges and spin densities:
               1          2
     1  Ti   1.646866   1.032682
     2  O   -0.673062  -0.007985
     3  H    0.446453   0.001345
     4  O   -0.673152  -0.007993
     5  H    0.446574   0.001341
     6  O   -0.672961  -0.007951
     7  H    0.446545   0.001333
     8  O   -0.672899  -0.007958
     9  H    0.451951   0.001193
    10  O   -0.672922  -0.008035
    11  H    0.452023   0.001199
    12  O   -0.672923  -0.007955
    13  H    0.446518   0.001337
    14  H    0.452011   0.001186
    15  H    0.452020   0.001191
    16  H    0.451979   0.001195
    17  H    0.446525   0.001346
    18  H    0.452014   0.001189
    19  H    0.446439   0.001339
 Sum of Mulliken charges =   3.00000   1.00000
 Mulliken charges and spin densities with hydrogens summed into heavy atoms:
               1          2
     1  Ti   1.646866   1.032682
     2  O    0.225370  -0.005445
     4  O    0.225441  -0.005461
     6  O    0.225599  -0.005428
     8  O    0.225491  -0.005426
    10  O    0.225626  -0.005490
    12  O    0.225606  -0.005431
 Electronic spatial extent (au):  <R**2>=           1084.0779
 Charge=              3.0000 electrons
 Dipole moment (field-independent basis, Debye):
    X=              0.0004    Y=             -0.0009    Z=              0.0001  Tot=              0.0010
 Quadrupole moment (field-independent basis, Debye-Ang):
   XX=             -7.7876   YY=             -7.8200   ZZ=             -5.9269
   XY=             -0.0021   XZ=              0.0007   YZ=             -0.0077
 Traceless Quadrupole moment (field-independent basis, Debye-Ang):
   XX=             -0.6094   YY=             -0.6419   ZZ=              1.2513
   XY=             -0.0021   XZ=              0.0007   YZ=             -0.0077
 Octapole moment (field-independent basis, Debye-Ang**2):
  XXX=             -0.0194  YYY=              0.0327  ZZZ=             -0.0107  XYY=              0.0414
  XXY=             -0.0146  XXZ=             -0.0030  XZZ=             -0.0187  YZZ=             -0.0240
  YYZ=              0.0102  XYZ=              0.0155
 Hexadecapole moment (field-independent basis, Debye-Ang**3):
 XXXX=           -161.0069 YYYY=           -160.6740 ZZZZ=           -143.7427 XXXY=              0.1899
 XXXZ=            -37.0035 YYYX=             -0.2902 YYYZ=            -50.7861 ZZZX=             -0.0478
 ZZZY=              0.0885 XXYY=            -53.8154 XXZZ=            -28.2187 YYZZ=            -28.7313
 XXYZ=             50.6289 YYXZ=             37.0577 ZZXY=              0.0674
 N-N= 6.146804893429D+02 E-N=-4.277329292554D+03  KE= 1.302594537631D+03
                          Isotropic Fermi Contact Couplings
        Atom                 a.u.       MegaHertz       Gauss      10(-4) cm-1
     1  Ti(47)            -0.05731      14.46560       5.16169       4.82520
     2  O(17)             -0.01095       6.63653       2.36808       2.21371
     3  H(1)               0.00100       4.48346       1.59981       1.49552
     4  O(17)             -0.01098       6.65416       2.37437       2.21959
     5  H(1)               0.00100       4.46705       1.59395       1.49005
     6  O(17)             -0.01095       6.63531       2.36764       2.21330
     7  H(1)               0.00099       4.44603       1.58645       1.48304
     8  O(17)             -0.01094       6.62959       2.36560       2.21139
     9  H(1)               0.00095       4.24627       1.51517       1.41640
    10  O(17)             -0.01100       6.66978       2.37994       2.22480
    11  H(1)               0.00095       4.26624       1.52230       1.42307
    12  O(17)             -0.01095       6.63504       2.36755       2.21321
    13  H(1)               0.00100       4.45534       1.58978       1.48614
    14  H(1)               0.00095       4.22643       1.50810       1.40979
    15  H(1)               0.00095       4.24050       1.51312       1.41448
    16  H(1)               0.00095       4.25515       1.51834       1.41937
    17  H(1)               0.00100       4.48369       1.59989       1.49560
    18  H(1)               0.00095       4.23118       1.50979       1.41137
    19  H(1)               0.00100       4.46479       1.59315       1.48929
 --------------------------------------------------------
       Center         ----  Spin Dipole Couplings  ----
                      3XX-RR        3YY-RR        3ZZ-RR
 --------------------------------------------------------
     1   Atom       -0.581289     -0.577479      1.158768
     2   Atom       -0.011333      0.005866      0.005468
     3   Atom       -0.006079      0.011052     -0.004973
     4   Atom        0.009310     -0.014807      0.005497
     5   Atom        0.006811     -0.001888     -0.004923
     6   Atom       -0.006153      0.000748      0.005406
     7   Atom        0.006680     -0.001738     -0.004942
     8   Atom       -0.011300      0.005820      0.005480
     9   Atom       -0.004672      0.002057      0.002614
    10   Atom        0.009273     -0.014796      0.005523
    11   Atom        0.003793     -0.006463      0.002670
    12   Atom       -0.006144      0.000747      0.005397
    13   Atom        0.006694     -0.001750     -0.004943
    14   Atom       -0.003095      0.000414      0.002681
    15   Atom        0.003799     -0.006468      0.002669
    16   Atom       -0.004679      0.002056      0.002623
    17   Atom        0.006818     -0.001890     -0.004928
    18   Atom       -0.003103      0.000424      0.002680
    19   Atom       -0.006079      0.011053     -0.004974
 --------------------------------------------------------
                        XY            XZ            YZ
 --------------------------------------------------------
     1   Atom       -0.001800      0.001023     -0.003856
     2   Atom       -0.008916     -0.008261     -0.001522
     3   Atom       -0.000089      0.000107     -0.006118
     4   Atom       -0.003019      0.002787      0.007780
     5   Atom       -0.007345     -0.005403      0.002999
     6   Atom        0.011863      0.005473     -0.006413
     7   Atom        0.007437      0.005275      0.003161
     8   Atom       -0.008924     -0.008324     -0.001499
     9   Atom       -0.004009      0.004468     -0.009786
    10   Atom       -0.003127      0.002695      0.007730
    11   Atom       -0.000903     -0.010709      0.001024
    12   Atom        0.011873      0.005462     -0.006414
    13   Atom        0.007431      0.005278      0.003158
    14   Atom        0.004896      0.006263      0.008750
    15   Atom       -0.000878     -0.010712      0.001004
    16   Atom       -0.004002      0.004464     -0.009789
    17   Atom       -0.007349     -0.005399      0.002994
    18   Atom        0.004894      0.006256      0.008756
    19   Atom       -0.000078      0.000102     -0.006118
 --------------------------------------------------------


 ---------------------------------------------------------------------------------
              Anisotropic Spin Dipole Couplings in Principal Axis System
 ---------------------------------------------------------------------------------

       Atom             a.u.   MegaHertz   Gauss  10(-4) cm-1        Axes

              Baa    -0.5820    17.534     6.257     5.849  0.9291  0.3698  0.0003
     1 Ti(47) Bbb    -0.5768    17.376     6.200     5.796 -0.3698  0.9291  0.0023
              Bcc     1.1588   -34.910   -12.457   -11.645  0.0006 -0.0022  1.0000
 
              Baa    -0.0180     1.302     0.465     0.434  0.8768  0.3487  0.3312
     2 O(17)  Bbb     0.0071    -0.517    -0.185    -0.173 -0.0412 -0.6318  0.7740
              Bcc     0.0109    -0.785    -0.280    -0.262 -0.4792  0.6923  0.5396
 
              Baa    -0.0070    -3.760    -1.342    -1.254 -0.0754  0.3190  0.9448
     3 H(1)   Bbb    -0.0061    -3.241    -1.156    -1.081  0.9971  0.0300  0.0695
              Bcc     0.0131     7.001     2.498     2.335 -0.0062  0.9473 -0.3203
 
              Baa    -0.0180     1.300     0.464     0.434  0.1369  0.9353 -0.3264
     4 O(17)  Bbb     0.0071    -0.516    -0.184    -0.172 -0.5162  0.3486  0.7823
              Bcc     0.0108    -0.784    -0.280    -0.262  0.8455  0.0614  0.5305
 
              Baa    -0.0070    -3.758    -1.341    -1.254  0.3147 -0.1006  0.9438
     5 H(1)   Bbb    -0.0061    -3.239    -1.156    -1.080  0.4738  0.8783 -0.0644
              Bcc     0.0131     6.997     2.497     2.334  0.8225 -0.4675 -0.3241
 
              Baa    -0.0180     1.300     0.464     0.434  0.7404 -0.5836 -0.3335
     6 O(17)  Bbb     0.0071    -0.515    -0.184    -0.172  0.5681  0.2781  0.7746
              Bcc     0.0109    -0.785    -0.280    -0.262  0.3593  0.7629 -0.5375
 
              Baa    -0.0070    -3.757    -1.341    -1.253 -0.2415 -0.2241  0.9442
     7 H(1)   Bbb    -0.0061    -3.238    -1.156    -1.080 -0.5235  0.8494  0.0677
              Bcc     0.0131     6.996     2.496     2.334  0.8171  0.4779  0.3224
 
              Baa    -0.0180     1.304     0.465     0.435  0.8761  0.3489  0.3327
     8 O(17)  Bbb     0.0071    -0.515    -0.184    -0.172 -0.0353 -0.6418  0.7661
              Bcc     0.0109    -0.788    -0.281    -0.263 -0.4808  0.6829  0.5500
 
              Baa    -0.0075    -4.008    -1.430    -1.337 -0.2302  0.6470  0.7269
     9 H(1)   Bbb    -0.0065    -3.488    -1.245    -1.163  0.9240  0.3796 -0.0452
              Bcc     0.0140     7.496     2.675     2.500  0.3052 -0.6613  0.6852
 
              Baa    -0.0179     1.298     0.463     0.433  0.1396  0.9356 -0.3243
    10 O(17)  Bbb     0.0072    -0.522    -0.186    -0.174 -0.5045  0.3490  0.7897
              Bcc     0.0107    -0.776    -0.277    -0.259  0.8521  0.0533  0.5207
 
              Baa    -0.0075    -4.006    -1.429    -1.336  0.6770 -0.1259  0.7251
    11 H(1)   Bbb    -0.0065    -3.488    -1.245    -1.164  0.1345  0.9898  0.0463
              Bcc     0.0140     7.494     2.674     2.500  0.7235 -0.0662 -0.6871
 
              Baa    -0.0180     1.300     0.464     0.434  0.7403 -0.5839 -0.3333
    12 O(17)  Bbb     0.0071    -0.514    -0.184    -0.172  0.5671  0.2760  0.7760
              Bcc     0.0109    -0.786    -0.280    -0.262  0.3611  0.7635 -0.5354
 
              Baa    -0.0070    -3.758    -1.341    -1.254 -0.2413 -0.2246  0.9441
    13 H(1)   Bbb    -0.0061    -3.239    -1.156    -1.080 -0.5230  0.8496  0.0685
              Bcc     0.0131     6.997     2.497     2.334  0.8175  0.4772  0.3224
 
              Baa    -0.0075    -4.007    -1.430    -1.336 -0.4471 -0.5241  0.7248
    14 H(1)   Bbb    -0.0065    -3.488    -1.245    -1.164  0.7896 -0.6121  0.0445
              Bcc     0.0140     7.495     2.674     2.500  0.4203  0.5922  0.6875
 
              Baa    -0.0075    -4.007    -1.430    -1.336  0.6768 -0.1284  0.7249
    15 H(1)   Bbb    -0.0065    -3.488    -1.245    -1.164  0.1351  0.9896  0.0492
              Bcc     0.0140     7.495     2.674     2.500  0.7237 -0.0646 -0.6871
 
              Baa    -0.0075    -4.007    -1.430    -1.337 -0.2315  0.6467  0.7267
    16 H(1)   Bbb    -0.0065    -3.489    -1.245    -1.164  0.9239  0.3802 -0.0440
              Bcc     0.0140     7.496     2.675     2.500  0.3047 -0.6612  0.6855
 
              Baa    -0.0070    -3.759    -1.341    -1.254  0.3153 -0.0987  0.9439
    17 H(1)   Bbb    -0.0061    -3.240    -1.156    -1.081  0.4731  0.8785 -0.0661
              Bcc     0.0131     6.999     2.497     2.335  0.8227 -0.4674 -0.3237
 
              Baa    -0.0075    -4.007    -1.430    -1.337 -0.4466 -0.5245  0.7249
    18 H(1)   Bbb    -0.0065    -3.488    -1.245    -1.164  0.7901 -0.6113  0.0444
              Bcc     0.0140     7.495     2.675     2.500  0.4198  0.5926  0.6874
 
              Baa    -0.0070    -3.760    -1.342    -1.254 -0.0732  0.3190  0.9449
    19 H(1)   Bbb    -0.0061    -3.241    -1.156    -1.081  0.9973  0.0287  0.0675
              Bcc     0.0131     7.001     2.498     2.335 -0.0056  0.9473 -0.3203
 

 ---------------------------------------------------------------------------------

 No NMR shielding tensors so no spin-rotation constants.
 Leave Link  601 at Thu May 23 18:12:00 2024, MaxMem= 26843545600 cpu:              28.7 elap:               0.3
 (Enter /gpfs/fs1/soft/improv/software/custom-built/gaussian/g16/l9999.exe)
 Unable to Open any file for archive entry.
 1\1\GINC-I018\SP\UHSEH1PBE\Gen\H12O6Ti1(3+,2)\HHARB\23-May-2024\0\\#p 
 HSEH1PBE scf=(maxcycles=500,xqc,maxconventional=50) scrf=(cpcm,solvent
 =water) geom=allcheck guess=read chkbasis\\Title\\3,2\Ti,-0.7850133423
 ,0.712839611,0.0318247531\O,-1.3442789012,2.6938933774,-0.2391722207\H
 ,-1.688021647,3.0877509216,-1.0599822029\O,1.22753213,1.2229345972,0.0
 428140006\H,1.9757791937,0.6172248218,-0.0992938079\O,-0.9036352372,0.
 9010375328,2.0960292216\H,-1.5981598448,0.5317599943,2.6689465023\O,-0
 .2256093359,-1.2681027836,0.3031532573\H,-0.2192495876,-1.9782949807,-
 0.361715404\O,-2.7977221935,0.2039957497,0.0202105934\H,-3.1844250143,
 -0.6812308735,-0.0953087622\O,-0.6653040751,0.5237652085,-2.0322222074
 \H,0.0297924711,0.8926816601,-2.6046685746\H,-1.299013479,0.083153227,
 -2.6244526393\H,1.6133493875,2.1087891619,0.1562781714\H,-1.3494188807
 ,3.4042780642,0.4255375325\H,-3.5453833814,0.8100979479,0.1638040503\H
 ,-0.2695397283,1.3416336583,2.6878562709\H,0.1168038962,-1.6621271258,
 1.1244068757\\Version=ES64L-G16RevC.02\State=2-A\HF=-1307.1242389\S2=0
 .751649\S2-1=0.\S2A=0.750002\RMSD=5.634e-09\Dipole=-0.0002756,0.000261
 8,-0.000108\Quadrupole=-0.2558123,0.3529983,-0.0971859,0.4109624,0.265
 0481,0.5571479\PG=C01 [X(H12O6Ti1)]\\@
 The archive entry for this job was punched.


 ... I FELL INTO A REVERIE ... THE ATOMS WERE GAMBOLING BEFORE MY EYES
 ... I SAW HOW TWO SMALL ONES UNITED TO FORM A PAIR;
 HOW THE LARGER ONES SEIZED TWO OF THE SMALLER ONES;
 HOW STILL LARGER ONES KEPT HOLD OF THREE OR FOUR
 SMALLER ONES ... I SAW HOW THE LARGER ONES FORMED A CHAIN ...
 THIS WAS THE ORIGIN OF THE STRUCTURE THEORY.

                                   -- C.F.KEKULE VON STRADONITZ
 Job cpu time:       0 days  2 hours 45 minutes 54.2 seconds.
 Elapsed time:       0 days  0 hours  1 minutes 24.0 seconds.
 File lengths (MBytes):  RWF=    121 Int=      0 D2E=      0 Chk=     32 Scr=      1
 Normal termination of Gaussian 16 at Thu May 23 18:12:00 2024.
