 Entering Gaussian System, Link 0=g16
 Input=V_2_BLYP.com
 Output=V_2_BLYP.log
 Initial command:
 /gpfs/fs1/soft/improv/software/custom-built/gaussian/g16/l1.exe "/scratch/Gau-445189.inp" -scrdir="/scratch/"
 Default CPUs for threads: 0-127
 Default linda workers: i182.lcrc.anl.gov
 Default is to use 128 SMP processors on each worker.
 Entering Link 1 = /gpfs/fs1/soft/improv/software/custom-built/gaussian/g16/l1.exe PID=    445190.
  
 Copyright (c) 1988-2021, Gaussian, Inc.  All Rights Reserved.
  
 This is part of the Gaussian(R) 16 program.  It is based on
 the Gaussian(R) 09 system (copyright 2009, Gaussian, Inc.),
 the Gaussian(R) 03 system (copyright 2003, Gaussian, Inc.),
 the Gaussian(R) 98 system (copyright 1998, Gaussian, Inc.),
 the Gaussian(R) 94 system (copyright 1995, Gaussian, Inc.),
 the Gaussian 92(TM) system (copyright 1992, Gaussian, Inc.),
 the Gaussian 90(TM) system (copyright 1990, Gaussian, Inc.),
 the Gaussian 88(TM) system (copyright 1988, Gaussian, Inc.),
 the Gaussian 86(TM) system (copyright 1986, Carnegie Mellon
 University), and the Gaussian 82(TM) system (copyright 1983,
 Carnegie Mellon University). Gaussian is a federally registered
 trademark of Gaussian, Inc.
  
 This software contains proprietary and confidential information,
 including trade secrets, belonging to Gaussian, Inc.
  
 This software is provided under written license and may be
 used, copied, transmitted, or stored only in accord with that
 written license.
  
 The following legend is applicable only to US Government
 contracts under FAR:
  
                    RESTRICTED RIGHTS LEGEND
  
 Use, reproduction and disclosure by the US Government is
 subject to restrictions as set forth in subparagraphs (a)
 and (c) of the Commercial Computer Software - Restricted
 Rights clause in FAR 52.227-19.
  
 Gaussian, Inc.
 340 Quinnipiac St., Bldg. 40, Wallingford CT 06492
  
  
 ---------------------------------------------------------------
 Warning -- This program may not be used in any manner that
 competes with the business of Gaussian, Inc. or will provide
 assistance to any competitor of Gaussian, Inc.  The licensee
 of this program is prohibited from giving any competitor of
 Gaussian, Inc. access to this program.  By using this program,
 the user acknowledges that Gaussian, Inc. is engaged in the
 business of creating and licensing software in the field of
 computational chemistry and represents and warrants to the
 licensee that it is not a competitor of Gaussian, Inc. and that
 it will not use this program in any manner prohibited above.
 ---------------------------------------------------------------
  

 Cite this work as:
 Gaussian 16, Revision C.02,
 M. J. Frisch, G. W. Trucks, H. B. Schlegel, G. E. Scuseria, 
 M. A. Robb, J. R. Cheeseman, G. Scalmani, V. Barone, 
 G. A. Petersson, H. Nakatsuji, X. Li, M. Caricato, A. V. Marenich, 
 J. Bloino, B. G. Janesko, R. Gomperts, B. Mennucci, H. P. Hratchian, 
 J. V. Ortiz, A. F. Izmaylov, J. L. Sonnenberg, D. Williams-Young, 
 F. Ding, F. Lipparini, F. Egidi, J. Goings, B. Peng, A. Petrone, 
 T. Henderson, D. Ranasinghe, V. G. Zakrzewski, J. Gao, N. Rega, 
 G. Zheng, W. Liang, M. Hada, M. Ehara, K. Toyota, R. Fukuda, 
 J. Hasegawa, M. Ishida, T. Nakajima, Y. Honda, O. Kitao, H. Nakai, 
 T. Vreven, K. Throssell, J. A. Montgomery, Jr., J. E. Peralta, 
 F. Ogliaro, M. J. Bearpark, J. J. Heyd, E. N. Brothers, K. N. Kudin, 
 V. N. Staroverov, T. A. Keith, R. Kobayashi, J. Normand, 
 K. Raghavachari, A. P. Rendell, J. C. Burant, S. S. Iyengar, 
 J. Tomasi, M. Cossi, J. M. Millam, M. Klene, C. Adamo, R. Cammi, 
 J. W. Ochterski, R. L. Martin, K. Morokuma, O. Farkas, 
 J. B. Foresman, and D. J. Fox, Gaussian, Inc., Wallingford CT, 2019.
 
 ******************************************
 Gaussian 16:  ES64L-G16RevC.02  7-Dec-2021
                23-May-2024 
 ******************************************
 %chk=V_2_BLYP.chk
 SetSPE:  set environment variable "OMP_PROC_BIND" = "true"
 SetSPE:  set environment variable "OMP_PLACES" = "{0},{1},{2},{3},{4},{5},{6},{7},{8},{9},{10},{11},{12},{13},{14},{15},{16},{17},{18},{19},{20},{21},{22},{23},{24},{25},{26},{27},{28},{29},{30},{31},{32},{33},{34},{35},{36},{37},{38},{39},{40},{41},{42},{43},{44},{45},{46},{47},{48},{49},{50},{51},{52},{53},{54},{55},{56},{57},{58},{59},{60},{61},{62},{63},{64},{65},{66},{67},{68},{69},{70},{71},{72},{73},{74},{75},{76},{77},{78},{79},{80},{81},{82},{83},{84},{85},{86},{87},{88},{89},{90},{91},{92},{93},{94},{95},{96},{97},{98},{99},{100},{101},{102},{103},{104},{105},{106},{107},{108},{109},{110},{111},{112},{113},{114},{115},{116},{117},{118},{119},{120},{121},{122},{123},{124},{125},{126},{127}"
 SetLPE:    new flags="-opt 'Tsnet.Node.lindarsharg: ssh'  -nodelist 'i182.lcrc.anl.gov' -env GAUSS_MDEF=26843545600 -env GAUSS_EXEDIR="/gpfs/fs1/soft/improv/software/custom-built/gaussian/g16/bsd:/gpfs/fs1/soft/improv/software/custom-built/gaussian/g16" -env "OMP_PROC_BIND=true" -env "OMP_PLACES={0},{1},{2},{3},{4},{5},{6},{7},{8},{9},{10},{11},{12},{13},{14},{15},{16},{17},{18},{19},{20},{21},{22},{23},{24},{25},{26},{27},{28},{29},{30},{31},{32},{33},{34},{35},{36},{37},{38},{39},{40},{41},{42},{43},{44},{45},{46},{47},{48},{49},{50},{51},{52},{53},{54},{55},{56},{57},{58},{59},{60},{61},{62},{63},{64},{65},{66},{67},{68},{69},{70},{71},{72},{73},{74},{75},{76},{77},{78},{79},{80},{81},{82},{83},{84},{85},{86},{87},{88},{89},{90},{91},{92},{93},{94},{95},{96},{97},{98},{99},{100},{101},{102},{103},{104},{105},{106},{107},{108},{109},{110},{111},{112},{113},{114},{115},{116},{117},{118},{119},{120},{121},{122},{123},{124},{125},{126},{127}" -env GAUSS_ADEF="0,1,2,3,4,5,6,7,8,9,10,11,12,13,14,15,16,17,18,19,20,21,22,23,24,25,26,27,28,29,30,31,32,33,34,35,36,37,38,39,40,41,42,43,44,45,46,47,48,49,50,51,52,53,54,55,56,57,58,59,60,61,62,63,64,65,66,67,68,69,70,71,72,73,74,75,76,77,78,79,80,81,82,83,84,85,86,87,88,89,90,91,92,93,94,95,96,97,98,99,100,101,102,103,104,105,106,107,108,109,110,111,112,113,114,115,116,117,118,119,120,121,122,123,124,125,126,127""
 Will use up to    1 processors via Linda.
 ----------------------------------------------------------------------
 #p BLYP empiricaldispersion=gd3 6-31+G(2df,p) opt=(cartesian,calcall,m
 axcycles=500) freq scf=(maxcycles=500,xqc,maxconventional=50)
 ----------------------------------------------------------------------
 1/6=500,10=4,18=10,26=3,38=1/1,3;
 2/12=2,17=6,18=5,29=2,40=1/2;
 3/5=1,6=6,7=114,11=2,25=1,30=1,71=2,74=402,124=31,140=1/1,2,3;
 4//1;
 5/5=2,7=500,8=3,13=1,38=5,85=50/2,8;
 8/6=4,10=90,11=11/1;
 11/6=1,8=1,9=11,15=111,16=1/1,2,10;
 10/6=1/2;
 6/7=2,8=2,9=2,10=2,18=1,28=1/1;
 7/7=1,10=1,25=1/1,2,3,16;
 1/6=500,10=4,18=10,26=3/3(3);
 2/29=1/2;
 7/7=1,8=1,9=1,25=1,44=-1/16;
 99/12=1/99;
 2/29=1/2;
 3/5=1,6=6,7=114,11=2,25=1,30=1,71=2,74=402,124=31,140=1/1,2,3;
 4/5=5,16=3,69=1/1;
 5/5=2,7=500,8=3,13=1,38=5,85=50/2,8;
 8/6=4,10=90,11=11/1;
 11/6=1,8=1,9=11,15=111,16=1/1,2,10;
 10/6=1/2;
 7/7=1,10=1,25=1/1,2,3,16;
 1/6=500,10=4,18=10,26=3/3(-8);
 2/29=1/2;
 6/7=2,8=2,9=2,10=2,18=1,19=2,28=1/1;
 7/7=1,8=1,9=1,25=1,44=-1/16;
 99/12=1/99;
 Leave Link    1 at Thu May 23 17:03:24 2024, MaxMem=           0 cpu:               5.1 elap:               0.1
 (Enter /gpfs/fs1/soft/improv/software/custom-built/gaussian/g16/l101.exe)
 -----
 Title
 -----
 Symbolic Z-matrix:
 Charge =  2 Multiplicity = 4
 V                    -0.79304   0.81881  -0.09491 
 O                    -1.20497   2.57394  -0.35687 
 H                    -2.12106   2.64974  -0.63312 
 O                     0.99012   1.19063  -0.05794 
 H                     1.42696   0.5998    0.55971 
 O                    -0.81752   1.03069   1.71365 
 H                    -1.02108   0.1906    2.13133 
 O                    -0.38507  -0.93351   0.17118 
 H                    -1.15682  -1.47369  -0.01433 
 O                    -2.57341   0.45178  -0.12186 
 H                    -2.77756  -0.08744  -0.88929 
 O                    -0.76966   0.60461  -1.90111 
 H                     0.09872   0.83457  -2.23949 
 H                    -0.96534  -0.30999  -2.11742 
 H                     1.12208   2.09943   0.22124 
 H                    -1.07671   3.0584    0.46184 
 H                    -2.81407  -0.02398   0.6765 
 H                     0.0422    1.33615   2.01181 
 H                    -0.11532  -1.06446   1.08312 
 
 ITRead=  0  0  0  0  0  0  0  0  0  0  0  0  0  0  0  0  0  0  0
 MicOpt= -1 -1 -1 -1 -1 -1 -1 -1 -1 -1 -1 -1 -1 -1 -1 -1 -1 -1 -1
 NAtoms=     19 NQM=       19 NQMF=       0 NMMI=      0 NMMIF=      0
                NMic=       0 NMicF=      0.
                    Isotopes and Nuclear Properties:
 (Nuclear quadrupole moments (NQMom) in fm**2, nuclear magnetic moments (NMagM)
  in nuclear magnetons)

  Atom         1           2           3           4           5           6           7           8           9          10
 IAtWgt=          51          16           1          16           1          16           1          16           1          16
 AtmWgt=  50.9439625  15.9949146   1.0078250  15.9949146   1.0078250  15.9949146   1.0078250  15.9949146   1.0078250  15.9949146
 NucSpn=           7           0           1           0           1           0           1           0           1           0
 AtZEff=  -0.0000000  -0.0000000  -0.0000000  -0.0000000  -0.0000000  -0.0000000  -0.0000000  -0.0000000  -0.0000000  -0.0000000
 NQMom=   -5.2000000   0.0000000   0.0000000   0.0000000   0.0000000   0.0000000   0.0000000   0.0000000   0.0000000   0.0000000
 NMagM=    5.1514000   0.0000000   2.7928460   0.0000000   2.7928460   0.0000000   2.7928460   0.0000000   2.7928460   0.0000000
 AtZNuc=  23.0000000   8.0000000   1.0000000   8.0000000   1.0000000   8.0000000   1.0000000   8.0000000   1.0000000   8.0000000

  Atom        11          12          13          14          15          16          17          18          19
 IAtWgt=           1          16           1           1           1           1           1           1           1
 AtmWgt=   1.0078250  15.9949146   1.0078250   1.0078250   1.0078250   1.0078250   1.0078250   1.0078250   1.0078250
 NucSpn=           1           0           1           1           1           1           1           1           1
 AtZEff=  -0.0000000  -0.0000000  -0.0000000  -0.0000000  -0.0000000  -0.0000000  -0.0000000  -0.0000000  -0.0000000
 NQMom=    0.0000000   0.0000000   0.0000000   0.0000000   0.0000000   0.0000000   0.0000000   0.0000000   0.0000000
 NMagM=    2.7928460   0.0000000   2.7928460   2.7928460   2.7928460   2.7928460   2.7928460   2.7928460   2.7928460
 AtZNuc=   1.0000000   8.0000000   1.0000000   1.0000000   1.0000000   1.0000000   1.0000000   1.0000000   1.0000000
 Leave Link  101 at Thu May 23 17:03:24 2024, MaxMem= 26843545600 cpu:               0.4 elap:               0.0
 (Enter /gpfs/fs1/soft/improv/software/custom-built/gaussian/g16/l103.exe)

 GradGradGradGradGradGradGradGradGradGradGradGradGradGradGradGradGradGrad
 Berny optimization.
 Initialization pass.
 No Z-matrix variables, so optimization will use Cartesian coordinates.
 Trust Radius=3.00D-01 FncErr=1.00D-07 GrdErr=1.00D-06 EigMax=2.50D+02 EigMin=1.00D-04
 Number of steps in this run=    114 maximum allowed number of steps=    114.
 GradGradGradGradGradGradGradGradGradGradGradGradGradGradGradGradGradGrad

 Leave Link  103 at Thu May 23 17:03:24 2024, MaxMem= 26843545600 cpu:               0.4 elap:               0.1
 (Enter /gpfs/fs1/soft/improv/software/custom-built/gaussian/g16/l202.exe)
 ---------------------------------------------------------------------------------------------------
                            Z-MATRIX (ANGSTROMS AND DEGREES)
   CD    Cent   Atom    N1       Length/X        N2       Alpha/Y        N3        Beta/Z          J
 ---------------------------------------------------------------------------------------------------
      1      1  V        0  -0.793037          0.818805         -0.094905
      2      2  O        0  -1.204971          2.573941         -0.356874
      3      3  H        0  -2.121063          2.649743         -0.633122
      4      4  O        0   0.990122          1.190635         -0.057941
      5      5  H        0   1.426962          0.599798          0.559707
      6      6  O        0  -0.817519          1.030691          1.713650
      7      7  H        0  -1.021079          0.190602          2.131326
      8      8  O        0  -0.385068         -0.933506          0.171177
      9      9  H        0  -1.156817         -1.473692         -0.014327
     10     10  O        0  -2.573405          0.451778         -0.121857
     11     11  H        0  -2.777557         -0.087440         -0.889285
     12     12  O        0  -0.769659          0.604612         -1.901109
     13     13  H        0   0.098725          0.834573         -2.239490
     14     14  H        0  -0.965336         -0.309994         -2.117418
     15     15  H        0   1.122081          2.099426          0.221242
     16     16  H        0  -1.076711          3.058396          0.461841
     17     17  H        0  -2.814074         -0.023981          0.676500
     18     18  H        0   0.042204          1.336153          2.011809
     19     19  H        0  -0.115315         -1.064459          1.083123
 ---------------------------------------------------------------------------------------------------
                         Z-Matrix orientation:                         
 ---------------------------------------------------------------------
 Center     Atomic      Atomic             Coordinates (Angstroms)
 Number     Number       Type             X           Y           Z
 ---------------------------------------------------------------------
      1         23           0       -0.793037    0.818805   -0.094905
      2          8           0       -1.204971    2.573941   -0.356874
      3          1           0       -2.121063    2.649743   -0.633122
      4          8           0        0.990122    1.190635   -0.057941
      5          1           0        1.426962    0.599798    0.559707
      6          8           0       -0.817519    1.030691    1.713650
      7          1           0       -1.021079    0.190602    2.131326
      8          8           0       -0.385068   -0.933506    0.171177
      9          1           0       -1.156817   -1.473692   -0.014327
     10          8           0       -2.573405    0.451778   -0.121857
     11          1           0       -2.777557   -0.087440   -0.889285
     12          8           0       -0.769659    0.604612   -1.901109
     13          1           0        0.098725    0.834573   -2.239490
     14          1           0       -0.965336   -0.309994   -2.117418
     15          1           0        1.122081    2.099426    0.221242
     16          1           0       -1.076711    3.058396    0.461841
     17          1           0       -2.814074   -0.023981    0.676500
     18          1           0        0.042204    1.336153    2.011809
     19          1           0       -0.115315   -1.064459    1.083123
 ---------------------------------------------------------------------
                    Distance matrix (angstroms):
                    1          2          3          4          5
     1  V    0.000000
     2  O    1.821762   0.000000
     3  H    2.325008   0.959835   0.000000
     4  O    1.821889   2.611767   3.484150   0.000000
     5  H    2.324839   3.415322   4.267739   0.959899   0.000000
     6  O    1.821090   2.611285   3.134947   2.536076   2.560263
     7  H    2.324381   3.450400   3.859988   3.136540   2.937743
     8  O    1.818745   3.640503   4.062050   2.540791   2.405292
     9  H    2.322579   4.062387   4.279649   3.421971   3.362259
    10  O    1.818006   2.536025   2.301533   3.639880   4.060711
    11  H    2.321775   3.136788   2.826442   4.064482   4.499984
    12  O    1.819010   2.540161   2.759827   2.614866   3.298603
    13  H    2.322657   2.875634   3.286750   2.383386   3.107223
    14  H    2.322591   3.387332   3.506977   3.212032   3.703756
    15  H    2.325429   2.444290   3.398642   0.959822   1.567289
    16  H    2.325125   0.959918   1.567358   2.833814   3.510364
    17  H    2.321626   3.225876   3.056824   4.060370   4.288255
    18  H    2.324547   2.949275   3.660724   2.281137   2.137375
    19  H    2.322443   4.061883   4.556733   2.758526   2.328591
                    6          7          8          9         10
     6  O    0.000000
     7  H    0.960021   0.000000
     8  O    2.534622   2.347406   0.000000
     9  H    3.061530   2.718847   0.960108   0.000000
    10  O    2.605257   2.748593   2.606473   2.392848   0.000000
    11  H    3.444886   3.505227   2.750347   2.305222   0.959885
    12  O    3.640099   4.061422   2.609231   2.833582   2.538227
    13  H    4.062670   4.557707   3.028445   3.443229   3.430916
    14  H    4.061572   4.278496   2.441955   2.411193   2.673658
    15  H    2.670492   3.447487   3.387136   4.244531   4.060675
    16  H    2.397039   3.318813   4.061790   4.557738   3.061904
    17  H    2.484803   2.318921   2.642472   2.307685   0.960023
    18  H    0.959858   1.567527   2.953276   3.665802   3.489421
    19  H    2.297892   1.869309   0.959980   1.567353   3.129403
                   11         12         13         14         15
    11  H    0.000000
    12  O    2.352526   0.000000
    13  H    3.308498   0.959935   0.000000
    14  H    2.200452   0.959991   1.567533   0.000000
    15  H    4.606825   3.212091   2.949969   3.953725   0.000000
    16  H    3.822919   3.420362   3.691102   4.243941   2.410850
    17  H    1.567497   3.349453   4.210050   3.362383   4.495491
    18  H    4.288824   4.062660   4.281159   4.558009   2.225950
    19  H    3.454344   3.481323   3.833001   3.396353   3.504877
                   16         17         18         19
    16  H    0.000000
    17  H    3.544793   0.000000
    18  H    2.573032   3.433851   0.000000
    19  H    4.278809   2.920828   2.578800   0.000000
 Stoichiometry    H12O6V(2+,4)
 Framework group  C1[X(H12O6V)]
 Deg. of freedom    51
 Full point group                 C1      NOp   1
 Largest Abelian subgroup         C1      NOp   1
 Largest concise Abelian subgroup C1      NOp   1
                         Standard orientation:                         
 ---------------------------------------------------------------------
 Center     Atomic      Atomic             Coordinates (Angstroms)
 Number     Number       Type             X           Y           Z
 ---------------------------------------------------------------------
      1         23           0       -0.020930   -0.030851    0.010117
      2          8           0       -0.320881   -1.688468   -0.683537
      3          1           0       -1.137136   -1.681045   -1.188468
      4          8           0        1.254385   -0.678558    1.138536
      5          1           0        1.942922   -0.019835    1.254320
      6          8           0        1.297591    0.293740   -1.203355
      7          1           0        1.381168    1.240413   -1.339237
      8          8           0        0.279591    1.625972    0.697472
      9          1           0       -0.432419    2.214852    0.436571
     10          8           0       -1.286602    0.614727   -1.124100
     11          1           0       -2.035606    0.937335   -0.617843
     12          8           0       -1.338715   -0.352402    1.222076
     13          1           0       -0.971940   -0.816344    1.978190
     14          1           0       -1.717839    0.480834    1.511152
     15          1           0        1.635326   -1.477232    0.766701
     16          1           0        0.408485   -1.931629   -1.258289
     17          1           0       -0.916150    1.334035   -1.640826
     18          1           0        2.128491   -0.056823   -0.874663
     19          1           0        1.113128    1.964930    0.362980
 ---------------------------------------------------------------------
 Rotational constants (GHZ):           2.0397021           1.9739483           1.9252864
 Leave Link  202 at Thu May 23 17:03:24 2024, MaxMem= 26843545600 cpu:               0.4 elap:               0.0
 (Enter /gpfs/fs1/soft/improv/software/custom-built/gaussian/g16/l301.exe)
 Standard basis: 6-31+G(2df,p) (6D, 7F)
 Ernie: Thresh=  0.10000D-02 Tol=  0.10000D-05 Strict=F.
 There are   347 symmetry adapted cartesian basis functions of A   symmetry.
 There are   317 symmetry adapted basis functions of A   symmetry.
   317 basis functions,   514 primitive gaussians,   347 cartesian basis functions
    42 alpha electrons       39 beta electrons
       nuclear repulsion energy       717.7225235776 Hartrees.
 IExCor=  402 DFT=T Ex=B Corr=LYP ExCW=0 ScaHFX=  0.000000
 ScaDFX=  1.000000  1.000000  1.000000  1.000000 ScalE2=  1.000000  1.000000
 IRadAn=      5 IRanWt=     -1 IRanGd=            0 ICorTp=0 IEmpDi=131
 NAtoms=   19 NActive=   19 NUniq=   19 SFac= 1.00D+00 NAtFMM=   60 NAOKFM=F Big=F
 Integral buffers will be    131072 words long.
 Raffenetti 2 integral format.
 Two-electron integral symmetry is turned on.
 R6Disp:  Grimme-D3 Dispersion energy=       -0.0264519624 Hartrees.
 Nuclear repulsion after empirical dispersion term =      717.6960716152 Hartrees.
 Leave Link  301 at Thu May 23 17:03:24 2024, MaxMem= 26843545600 cpu:               0.4 elap:               0.0
 (Enter /gpfs/fs1/soft/improv/software/custom-built/gaussian/g16/l302.exe)
 NPDir=0 NMtPBC=     1 NCelOv=     1 NCel=       1 NClECP=     1 NCelD=      1
         NCelK=      1 NCelE2=     1 NClLst=     1 CellRange=     0.0.
 One-electron integrals computed using PRISM.
 One-electron integral symmetry used in STVInt
 NBasis=   317 RedAO= T EigKep=  3.17D-05  NBF=   317
 NBsUse=   317 1.00D-06 EigRej= -1.00D+00 NBFU=   317
 Precomputing XC quadrature grid using
 IXCGrd= 4 IRadAn=           5 IRanWt=          -1 IRanGd=           0 AccXCQ= 0.00D+00.
 Generated NRdTot=       0 NPtTot=           0 NUsed=           0 NTot=          32
 NSgBfM=   347   347   347   347   347 MxSgAt=    19 MxSgA2=    19.
 Leave Link  302 at Thu May 23 17:03:25 2024, MaxMem= 26843545600 cpu:              21.5 elap:               0.3
 (Enter /gpfs/fs1/soft/improv/software/custom-built/gaussian/g16/l303.exe)
 DipDrv:  MaxL=1.
 Leave Link  303 at Thu May 23 17:03:25 2024, MaxMem= 26843545600 cpu:               1.0 elap:               0.0
 (Enter /gpfs/fs1/soft/improv/software/custom-built/gaussian/g16/l401.exe)
 ExpMin= 1.07D-02 ExpMax= 4.74D+04 ExpMxC= 7.11D+03 IAcc=3 IRadAn=         5 AccDes= 0.00D+00
 Harris functional with IExCor=  402 and IRadAn=       5 diagonalized for initial guess.
 HarFok:  IExCor=  402 AccDes= 0.00D+00 IRadAn=         5 IDoV= 1 UseB2=F ITyADJ=14
 ICtDFT=  3500011 ScaDFX=  1.000000  1.000000  1.000000  1.000000
 FoFCou: FMM=F IPFlag=           0 FMFlag=      100000 FMFlg1=           0
         NFxFlg=           0 DoJE=T BraDBF=F KetDBF=T FulRan=T
         wScrn=  0.000000 ICntrl=       500 IOpCl=  0 I1Cent=   200000004 NGrid=           0
         NMat0=    1 NMatS0=      1 NMatT0=    0 NMatD0=    1 NMtDS0=    0 NMtDT0=    0
 Petite list used in FoFCou.
 Harris En= -1402.18252892788    
 JPrj=0 DoOrth=F DoCkMO=F.
 Initial guess <Sx>= 0.0000 <Sy>= 0.0000 <Sz>= 1.5000 <S**2>= 3.7500 S= 1.5000
 Leave Link  401 at Thu May 23 17:03:25 2024, MaxMem= 26843545600 cpu:              37.6 elap:               0.4
 (Enter /gpfs/fs1/soft/improv/software/custom-built/gaussian/g16/l502.exe)
 Integral symmetry usage will be decided dynamically.
 UHF open shell SCF:
 Using DIIS extrapolation, IDIIS=  1040.
 NGot= 26843545600 LenX= 26843256607 LenY= 26843135757
 Requested convergence on RMS density matrix=1.00D-08 within  50 cycles.
 Requested convergence on MAX density matrix=1.00D-06.
 Requested convergence on             energy=1.00D-06.
 No special actions if energy rises.
 Fock matrices will be formed incrementally for  20 cycles.

 Cycle   1  Pass 1  IDiag  1:
 FoFJK:  IHMeth= 1 ICntrl=     500 DoSepK=F KAlg= 0 I1Cent=           0 FoldK=F
 IRaf= 990000000 NMat=       1 IRICut=       1 DoRegI=T DoRafI=F ISym2E= 0 IDoP0=0 IntGTp=1.
 FoFCou: FMM=F IPFlag=           0 FMFlag=      100000 FMFlg1=           0
         NFxFlg=           0 DoJE=T BraDBF=F KetDBF=F FulRan=T
         wScrn=  0.000000 ICntrl=       500 IOpCl=  0 I1Cent=           0 NGrid=           0
         NMat0=    1 NMatS0=      1 NMatT0=    0 NMatD0=    1 NMtDS0=    0 NMtDT0=    0
 Symmetry not used in FoFCou.
 E= -1401.34724027306    
 DIIS: error= 3.78D-02 at cycle   1 NSaved=   1.
 NSaved= 1 IEnMin= 1 EnMin= -1401.34724027306     IErMin= 1 ErrMin= 3.78D-02
 ErrMax= 3.78D-02  0.00D+00 EMaxC= 1.00D-01 BMatC= 2.67D+00 BMatP= 2.67D+00
 IDIUse=3 WtCom= 6.22D-01 WtEn= 3.78D-01
 Coeff-Com:  0.100D+01
 Coeff-En:   0.100D+01
 Coeff:      0.100D+01
 Gap=    -0.129 Goal=   None    Shift=    0.000
 Gap=     0.251 Goal=   None    Shift=    0.000
 GapD=   -0.129 DampG=0.250 DampE=0.250 DampFc=0.1250 IDamp=-1.
 Damping current iteration by 1.25D-01
 RMSDP=3.38D-02 MaxDP=4.20D+00              OVMax= 9.28D-01

 Cycle   2  Pass 1  IDiag  1:
 RMSU=  4.22D-03    CP:  9.98D-01
 E= -1401.47235981014     Delta-E=       -0.125119537080 Rises=F Damp=T
 DIIS: error= 3.43D-02 at cycle   2 NSaved=   2.
 NSaved= 2 IEnMin= 2 EnMin= -1401.47235981014     IErMin= 2 ErrMin= 3.43D-02
 ErrMax= 3.43D-02  0.00D+00 EMaxC= 1.00D-01 BMatC= 1.10D+00 BMatP= 2.67D+00
 IDIUse=3 WtCom= 6.57D-01 WtEn= 3.43D-01
 Coeff-Com: -0.129D+01 0.229D+01
 Coeff-En:   0.000D+00 0.100D+01
 Coeff:     -0.846D+00 0.185D+01
 Gap=     0.096 Goal=   None    Shift=    0.000
 Gap=     0.218 Goal=   None    Shift=    0.000
 RMSDP=6.93D-03 MaxDP=4.65D-01 DE=-1.25D-01 OVMax= 9.54D-01

 Cycle   3  Pass 1  IDiag  1:
 RMSU=  6.18D-03    CP:  9.53D-01  2.81D-01
 E= -1401.20748481982     Delta-E=        0.264874990324 Rises=F Damp=F
 DIIS: error= 4.64D-02 at cycle   3 NSaved=   3.
 NSaved= 3 IEnMin= 2 EnMin= -1401.47235981014     IErMin= 2 ErrMin= 3.43D-02
 ErrMax= 4.64D-02  0.00D+00 EMaxC= 1.00D-01 BMatC= 3.91D+00 BMatP= 1.10D+00
 IDIUse=2 WtCom= 0.00D+00 WtEn= 1.00D+00
 Coeff-En:   0.000D+00 0.659D+00 0.341D+00
 Coeff:      0.000D+00 0.659D+00 0.341D+00
 Gap=    -0.127 Goal=   None    Shift=    0.000
 Gap=     0.414 Goal=   None    Shift=    0.000
 RMSDP=4.34D-02 MaxDP=7.80D+00 DE= 2.65D-01 OVMax= 9.92D-01

 Cycle   4  Pass 1  IDiag  1:
 RMSU=  3.41D-02    CP:  1.01D+00  3.00D+00 -3.00D-01
 E= -1399.73910550566     Delta-E=        1.468379314160 Rises=F Damp=F
 DIIS: error= 5.95D-02 at cycle   4 NSaved=   4.
 NSaved= 4 IEnMin= 2 EnMin= -1401.47235981014     IErMin= 2 ErrMin= 3.43D-02
 ErrMax= 5.95D-02  0.00D+00 EMaxC= 1.00D-01 BMatC= 6.58D+00 BMatP= 1.10D+00
 IDIUse=2 WtCom= 0.00D+00 WtEn= 1.00D+00
 EnCoef did   100 forward-backward iterations
 Coeff-En:   0.343D+00 0.149D-01 0.429D+00 0.213D+00
 Coeff:      0.343D+00 0.149D-01 0.429D+00 0.213D+00
 Gap=     0.029 Goal=   None    Shift=    0.000
 Gap=     0.251 Goal=   None    Shift=    0.000
 RMSDP=3.84D-02 MaxDP=7.50D+00 DE= 1.47D+00 OVMax= 8.90D-01

 Cycle   5  Pass 1  IDiag  1:
 RMSU=  9.04D-03    CP:  9.78D-01  2.41D+00  2.78D-02 -4.38D-02
 E= -1401.73464222395     Delta-E=       -1.995536718288 Rises=F Damp=F
 DIIS: error= 1.59D-02 at cycle   5 NSaved=   5.
 NSaved= 5 IEnMin= 5 EnMin= -1401.73464222395     IErMin= 5 ErrMin= 1.59D-02
 ErrMax= 1.59D-02  0.00D+00 EMaxC= 1.00D-01 BMatC= 4.14D-01 BMatP= 1.10D+00
 IDIUse=3 WtCom= 8.41D-01 WtEn= 1.59D-01
 EnCoef did     1 forward-backward iterations
 Coeff-Com: -0.303D+00 0.678D+00 0.208D+00-0.207D-01 0.437D+00
 Coeff-En:   0.196D-01 0.000D+00 0.212D+00 0.000D+00 0.769D+00
 Coeff:     -0.251D+00 0.570D+00 0.209D+00-0.174D-01 0.490D+00
 Gap=    -0.005 Goal=   None    Shift=    0.000
 Gap=     0.263 Goal=   None    Shift=    0.000
 RMSDP=1.30D-02 MaxDP=1.67D+00 DE=-2.00D+00 OVMax= 8.28D-01

 Cycle   6  Pass 1  IDiag  1:
 RMSU=  1.64D-03    CP:  9.64D-01  2.47D-01  5.23D-01 -2.25D-03  6.66D-02
 E= -1401.78147364446     Delta-E=       -0.046831420515 Rises=F Damp=F
 DIIS: error= 9.92D-03 at cycle   6 NSaved=   6.
 NSaved= 6 IEnMin= 6 EnMin= -1401.78147364446     IErMin= 6 ErrMin= 9.92D-03
 ErrMax= 9.92D-03  0.00D+00 EMaxC= 1.00D-01 BMatC= 2.46D-01 BMatP= 4.14D-01
 IDIUse=3 WtCom= 9.01D-01 WtEn= 9.92D-02
 Coeff-Com: -0.451D+00 0.594D+00-0.586D-01-0.152D-01 0.212D+00 0.719D+00
 Coeff-En:   0.000D+00 0.000D+00 0.000D+00 0.000D+00 0.411D+00 0.589D+00
 Coeff:     -0.406D+00 0.535D+00-0.527D-01-0.137D-01 0.232D+00 0.706D+00
 Gap=     0.021 Goal=   None    Shift=    0.000
 Gap=     0.259 Goal=   None    Shift=    0.000
 RMSDP=3.14D-03 MaxDP=3.07D-01 DE=-4.68D-02 OVMax= 2.28D-01

 Cycle   7  Pass 1  IDiag  1:
 RMSU=  1.43D-03    CP:  9.72D-01  6.59D-01  3.82D-01 -1.12D-02  2.69D-01
                    CP:  1.46D+00
 E= -1401.82944579519     Delta-E=       -0.047972150728 Rises=F Damp=F
 DIIS: error= 3.31D-03 at cycle   7 NSaved=   7.
 NSaved= 7 IEnMin= 7 EnMin= -1401.82944579519     IErMin= 7 ErrMin= 3.31D-03
 ErrMax= 3.31D-03  0.00D+00 EMaxC= 1.00D-01 BMatC= 2.40D-02 BMatP= 2.46D-01
 IDIUse=3 WtCom= 9.67D-01 WtEn= 3.31D-02
 Coeff-Com: -0.222D+00 0.282D+00-0.438D-01-0.565D-02 0.127D+00 0.254D+00
 Coeff-Com:  0.609D+00
 Coeff-En:   0.000D+00 0.000D+00 0.000D+00 0.000D+00 0.153D+00 0.000D+00
 Coeff-En:   0.847D+00
 Coeff:     -0.215D+00 0.273D+00-0.423D-01-0.547D-02 0.128D+00 0.245D+00
 Coeff:      0.617D+00
 Gap=     0.019 Goal=   None    Shift=    0.000
 Gap=     0.244 Goal=   None    Shift=    0.000
 RMSDP=1.33D-03 MaxDP=1.63D-01 DE=-4.80D-02 OVMax= 8.62D-02

 Cycle   8  Pass 1  IDiag  1:
 RMSU=  2.66D-04    CP:  9.75D-01  8.59D-01  3.33D-01 -1.52D-02  3.68D-01
                    CP:  1.50D+00  1.18D+00
 E= -1401.83425780819     Delta-E=       -0.004812012997 Rises=F Damp=F
 DIIS: error= 1.02D-03 at cycle   8 NSaved=   8.
 NSaved= 8 IEnMin= 8 EnMin= -1401.83425780819     IErMin= 8 ErrMin= 1.02D-03
 ErrMax= 1.02D-03  0.00D+00 EMaxC= 1.00D-01 BMatC= 2.85D-03 BMatP= 2.40D-02
 IDIUse=3 WtCom= 9.90D-01 WtEn= 1.02D-02
 Coeff-Com: -0.755D-01 0.978D-01-0.135D-01-0.217D-02 0.631D-01 0.113D-01
 Coeff-Com:  0.352D+00 0.567D+00
 Coeff-En:   0.000D+00 0.000D+00 0.000D+00 0.000D+00 0.207D-01 0.000D+00
 Coeff-En:   0.000D+00 0.979D+00
 Coeff:     -0.748D-01 0.968D-01-0.134D-01-0.215D-02 0.627D-01 0.112D-01
 Coeff:      0.349D+00 0.571D+00
 Gap=     0.018 Goal=   None    Shift=    0.000
 Gap=     0.243 Goal=   None    Shift=    0.000
 RMSDP=4.00D-04 MaxDP=4.57D-02 DE=-4.81D-03 OVMax= 2.73D-02

 Cycle   9  Pass 1  IDiag  1:
 RMSU=  9.72D-05    CP:  9.75D-01  9.22D-01  3.21D-01 -1.65D-02  3.97D-01
                    CP:  1.49D+00  1.22D+00  1.08D+00
 E= -1401.83482697806     Delta-E=       -0.000569169876 Rises=F Damp=F
 DIIS: error= 2.46D-04 at cycle   9 NSaved=   9.
 NSaved= 9 IEnMin= 9 EnMin= -1401.83482697806     IErMin= 9 ErrMin= 2.46D-04
 ErrMax= 2.46D-04  0.00D+00 EMaxC= 1.00D-01 BMatC= 2.00D-04 BMatP= 2.85D-03
 IDIUse=3 WtCom= 9.98D-01 WtEn= 2.46D-03
 Coeff-Com: -0.489D-02 0.719D-02 0.123D-02-0.567D-03 0.111D-01-0.214D-01
 Coeff-Com: -0.142D-01 0.258D+00 0.764D+00
 Coeff-En:   0.000D+00 0.000D+00 0.000D+00 0.000D+00 0.000D+00 0.000D+00
 Coeff-En:   0.000D+00 0.000D+00 0.100D+01
 Coeff:     -0.488D-02 0.717D-02 0.123D-02-0.566D-03 0.111D-01-0.213D-01
 Coeff:     -0.142D-01 0.257D+00 0.764D+00
 Gap=     0.018 Goal=   None    Shift=    0.000
 Gap=     0.243 Goal=   None    Shift=    0.000
 RMSDP=2.37D-04 MaxDP=2.96D-02 DE=-5.69D-04 OVMax= 1.57D-02

 Cycle  10  Pass 1  IDiag  1:
 RMSU=  4.33D-05    CP:  9.76D-01  9.58D-01  3.13D-01 -1.73D-02  4.15D-01
                    CP:  1.48D+00  1.24D+00  1.11D+00  1.07D+00
 E= -1401.83485931084     Delta-E=       -0.000032332780 Rises=F Damp=F
 DIIS: error= 1.39D-04 at cycle  10 NSaved=  10.
 NSaved=10 IEnMin=10 EnMin= -1401.83485931084     IErMin=10 ErrMin= 1.39D-04
 ErrMax= 1.39D-04  0.00D+00 EMaxC= 1.00D-01 BMatC= 4.69D-05 BMatP= 2.00D-04
 IDIUse=3 WtCom= 9.99D-01 WtEn= 1.39D-03
 Coeff-Com: -0.213D-02 0.271D-02 0.297D-03-0.930D-04-0.104D-02 0.154D-02
 Coeff-Com: -0.234D-01 0.612D-01 0.337D+00 0.624D+00
 Coeff-En:   0.000D+00 0.000D+00 0.000D+00 0.000D+00 0.000D+00 0.000D+00
 Coeff-En:   0.000D+00 0.000D+00 0.264D+00 0.736D+00
 Coeff:     -0.213D-02 0.270D-02 0.297D-03-0.929D-04-0.104D-02 0.153D-02
 Coeff:     -0.234D-01 0.611D-01 0.337D+00 0.624D+00
 Gap=     0.018 Goal=   None    Shift=    0.000
 Gap=     0.243 Goal=   None    Shift=    0.000
 RMSDP=8.74D-05 MaxDP=1.19D-02 DE=-3.23D-05 OVMax= 5.29D-03

 Cycle  11  Pass 1  IDiag  1:
 RMSU=  1.15D-05    CP:  9.75D-01  9.44D-01  3.16D-01 -1.70D-02  4.08D-01
                    CP:  1.48D+00  1.23D+00  1.11D+00  1.08D+00  8.11D-01
 E= -1401.83486952941     Delta-E=       -0.000010218567 Rises=F Damp=F
 DIIS: error= 1.92D-05 at cycle  11 NSaved=  11.
 NSaved=11 IEnMin=11 EnMin= -1401.83486952941     IErMin=11 ErrMin= 1.92D-05
 ErrMax= 1.92D-05  0.00D+00 EMaxC= 1.00D-01 BMatC= 1.25D-06 BMatP= 4.69D-05
 IDIUse=1 WtCom= 1.00D+00 WtEn= 0.00D+00
 Coeff-Com: -0.985D-03 0.108D-02-0.103D-03 0.338D-04-0.140D-02 0.312D-02
 Coeff-Com: -0.814D-02 0.486D-02 0.819D-01 0.256D+00 0.664D+00
 Coeff:     -0.985D-03 0.108D-02-0.103D-03 0.338D-04-0.140D-02 0.312D-02
 Coeff:     -0.814D-02 0.486D-02 0.819D-01 0.256D+00 0.664D+00
 Gap=     0.018 Goal=   None    Shift=    0.000
 Gap=     0.243 Goal=   None    Shift=    0.000
 RMSDP=5.51D-06 MaxDP=2.24D-04 DE=-1.02D-05 OVMax= 2.13D-04

 Cycle  12  Pass 1  IDiag  1:
 RMSU=  4.26D-06    CP:  9.75D-01  9.44D-01  3.16D-01 -1.70D-02  4.08D-01
                    CP:  1.48D+00  1.23D+00  1.11D+00  1.10D+00  8.49D-01
                    CP:  8.87D-01
 E= -1401.83486966775     Delta-E=       -0.000000138341 Rises=F Damp=F
 DIIS: error= 1.55D-05 at cycle  12 NSaved=  12.
 NSaved=12 IEnMin=12 EnMin= -1401.83486966775     IErMin=12 ErrMin= 1.55D-05
 ErrMax= 1.55D-05  0.00D+00 EMaxC= 1.00D-01 BMatC= 6.10D-07 BMatP= 1.25D-06
 IDIUse=1 WtCom= 1.00D+00 WtEn= 0.00D+00
 Coeff-Com: -0.476D-03 0.507D-03-0.143D-03 0.359D-04-0.776D-03 0.199D-02
 Coeff-Com: -0.679D-03-0.101D-01-0.166D-01 0.340D-01 0.442D+00 0.551D+00
 Coeff:     -0.476D-03 0.507D-03-0.143D-03 0.359D-04-0.776D-03 0.199D-02
 Coeff:     -0.679D-03-0.101D-01-0.166D-01 0.340D-01 0.442D+00 0.551D+00
 Gap=     0.018 Goal=   None    Shift=    0.000
 Gap=     0.243 Goal=   None    Shift=    0.000
 RMSDP=2.56D-06 MaxDP=1.22D-04 DE=-1.38D-07 OVMax= 1.00D-04

 Cycle  13  Pass 1  IDiag  1:
 RMSU=  1.83D-06    CP:  9.75D-01  9.45D-01  3.16D-01 -1.70D-02  4.08D-01
                    CP:  1.48D+00  1.23D+00  1.11D+00  1.10D+00  8.61D-01
                    CP:  9.27D-01  7.19D-01
 E= -1401.83486977314     Delta-E=       -0.000000105392 Rises=F Damp=F
 DIIS: error= 2.81D-06 at cycle  13 NSaved=  13.
 NSaved=13 IEnMin=13 EnMin= -1401.83486977314     IErMin=13 ErrMin= 2.81D-06
 ErrMax= 2.81D-06  0.00D+00 EMaxC= 1.00D-01 BMatC= 4.01D-08 BMatP= 6.10D-07
 IDIUse=1 WtCom= 1.00D+00 WtEn= 0.00D+00
 Coeff-Com: -0.171D-03 0.215D-03-0.502D-04 0.185D-05-0.143D-03 0.478D-03
 Coeff-Com:  0.981D-03-0.570D-02-0.217D-01-0.309D-01 0.863D-01 0.250D+00
 Coeff-Com:  0.721D+00
 Coeff:     -0.171D-03 0.215D-03-0.502D-04 0.185D-05-0.143D-03 0.478D-03
 Coeff:      0.981D-03-0.570D-02-0.217D-01-0.309D-01 0.863D-01 0.250D+00
 Coeff:      0.721D+00
 Gap=     0.018 Goal=   None    Shift=    0.000
 Gap=     0.243 Goal=   None    Shift=    0.000
 RMSDP=1.20D-06 MaxDP=1.08D-04 DE=-1.05D-07 OVMax= 5.20D-05

 Cycle  14  Pass 1  IDiag  1:
 RMSU=  4.98D-07    CP:  9.75D-01  9.44D-01  3.16D-01 -1.70D-02  4.08D-01
                    CP:  1.48D+00  1.23D+00  1.11D+00  1.10D+00  8.62D-01
                    CP:  9.53D-01  8.02D-01  7.71D-01
 E= -1401.83486978023     Delta-E=       -0.000000007085 Rises=F Damp=F
 DIIS: error= 1.24D-06 at cycle  14 NSaved=  14.
 NSaved=14 IEnMin=14 EnMin= -1401.83486978023     IErMin=14 ErrMin= 1.24D-06
 ErrMax= 1.24D-06  0.00D+00 EMaxC= 1.00D-01 BMatC= 5.21D-09 BMatP= 4.01D-08
 IDIUse=1 WtCom= 1.00D+00 WtEn= 0.00D+00
 Coeff-Com: -0.416D-04 0.541D-04-0.144D-04-0.350D-06-0.273D-04 0.111D-03
 Coeff-Com:  0.474D-03-0.239D-02-0.981D-02-0.176D-01 0.180D-01 0.948D-01
 Coeff-Com:  0.370D+00 0.546D+00
 Coeff:     -0.416D-04 0.541D-04-0.144D-04-0.350D-06-0.273D-04 0.111D-03
 Coeff:      0.474D-03-0.239D-02-0.981D-02-0.176D-01 0.180D-01 0.948D-01
 Coeff:      0.370D+00 0.546D+00
 Gap=     0.018 Goal=   None    Shift=    0.000
 Gap=     0.243 Goal=   None    Shift=    0.000
 RMSDP=4.61D-07 MaxDP=3.38D-05 DE=-7.08D-09 OVMax= 2.84D-05

 Cycle  15  Pass 1  IDiag  1:
 RMSU=  1.73D-07    CP:  9.75D-01  9.44D-01  3.16D-01 -1.70D-02  4.08D-01
                    CP:  1.48D+00  1.23D+00  1.11D+00  1.10D+00  8.61D-01
                    CP:  9.58D-01  7.78D-01  8.23D-01  7.73D-01
 E= -1401.83486978096     Delta-E=       -0.000000000733 Rises=F Damp=F
 DIIS: error= 6.68D-07 at cycle  15 NSaved=  15.
 NSaved=15 IEnMin=15 EnMin= -1401.83486978096     IErMin=15 ErrMin= 6.68D-07
 ErrMax= 6.68D-07  0.00D+00 EMaxC= 1.00D-01 BMatC= 1.49D-09 BMatP= 5.21D-09
 IDIUse=1 WtCom= 1.00D+00 WtEn= 0.00D+00
 Coeff-Com:  0.228D-04-0.271D-04 0.542D-05-0.427D-06 0.187D-04-0.594D-04
 Coeff-Com:  0.463D-04-0.774D-04-0.577D-03-0.341D-02-0.119D-01-0.447D-02
 Coeff-Com:  0.530D-01 0.374D+00 0.594D+00
 Coeff:      0.228D-04-0.271D-04 0.542D-05-0.427D-06 0.187D-04-0.594D-04
 Coeff:      0.463D-04-0.774D-04-0.577D-03-0.341D-02-0.119D-01-0.447D-02
 Coeff:      0.530D-01 0.374D+00 0.594D+00
 Gap=     0.018 Goal=   None    Shift=    0.000
 Gap=     0.243 Goal=   None    Shift=    0.000
 RMSDP=1.36D-07 MaxDP=1.38D-05 DE=-7.33D-10 OVMax= 7.01D-06

 Cycle  16  Pass 1  IDiag  1:
 RMSU=  7.15D-08    CP:  9.75D-01  9.44D-01  3.16D-01 -1.70D-02  4.08D-01
                    CP:  1.48D+00  1.23D+00  1.11D+00  1.10D+00  8.61D-01
                    CP:  9.56D-01  7.84D-01  8.11D-01  8.37D-01  7.00D-01
 E= -1401.83486978121     Delta-E=       -0.000000000250 Rises=F Damp=F
 DIIS: error= 1.68D-07 at cycle  16 NSaved=  16.
 NSaved=16 IEnMin=16 EnMin= -1401.83486978121     IErMin=16 ErrMin= 1.68D-07
 ErrMax= 1.68D-07  0.00D+00 EMaxC= 1.00D-01 BMatC= 5.02D-11 BMatP= 1.49D-09
 IDIUse=1 WtCom= 1.00D+00 WtEn= 0.00D+00
 Coeff-Com:  0.477D-05-0.546D-05 0.105D-05-0.159D-06 0.437D-05-0.156D-04
 Coeff-Com:  0.128D-04 0.153D-03 0.445D-03 0.396D-03-0.323D-02-0.574D-02
 Coeff-Com: -0.106D-01 0.369D-01 0.109D+00 0.873D+00
 Coeff:      0.477D-05-0.546D-05 0.105D-05-0.159D-06 0.437D-05-0.156D-04
 Coeff:      0.128D-04 0.153D-03 0.445D-03 0.396D-03-0.323D-02-0.574D-02
 Coeff:     -0.106D-01 0.369D-01 0.109D+00 0.873D+00
 Gap=     0.018 Goal=   None    Shift=    0.000
 Gap=     0.243 Goal=   None    Shift=    0.000
 RMSDP=1.02D-07 MaxDP=1.03D-05 DE=-2.50D-10 OVMax= 6.78D-06

 Cycle  17  Pass 1  IDiag  1:
 RMSU=  2.19D-08    CP:  9.75D-01  9.44D-01  3.16D-01 -1.70D-02  4.08D-01
                    CP:  1.48D+00  1.23D+00  1.11D+00  1.10D+00  8.61D-01
                    CP:  9.56D-01  7.83D-01  8.07D-01  8.52D-01  7.19D-01
                    CP:  9.45D-01
 E= -1401.83486978122     Delta-E=       -0.000000000006 Rises=F Damp=F
 DIIS: error= 2.94D-08 at cycle  17 NSaved=  17.
 NSaved=17 IEnMin=17 EnMin= -1401.83486978122     IErMin=17 ErrMin= 2.94D-08
 ErrMax= 2.94D-08  0.00D+00 EMaxC= 1.00D-01 BMatC= 4.41D-12 BMatP= 5.02D-11
 IDIUse=1 WtCom= 1.00D+00 WtEn= 0.00D+00
 Coeff-Com:  0.175D-05-0.200D-05 0.329D-06-0.545D-07 0.140D-05-0.567D-05
 Coeff-Com:  0.367D-05 0.853D-04 0.259D-03 0.408D-03-0.985D-03-0.270D-02
 Coeff-Com: -0.844D-02-0.262D-02 0.218D-01 0.448D+00 0.544D+00
 Coeff:      0.175D-05-0.200D-05 0.329D-06-0.545D-07 0.140D-05-0.567D-05
 Coeff:      0.367D-05 0.853D-04 0.259D-03 0.408D-03-0.985D-03-0.270D-02
 Coeff:     -0.844D-02-0.262D-02 0.218D-01 0.448D+00 0.544D+00
 Gap=     0.018 Goal=   None    Shift=    0.000
 Gap=     0.243 Goal=   None    Shift=    0.000
 RMSDP=1.16D-08 MaxDP=1.17D-06 DE=-5.91D-12 OVMax= 4.98D-07

 Cycle  18  Pass 1  IDiag  1:
 RMSU=  5.87D-09    CP:  9.75D-01  9.44D-01  3.16D-01 -1.70D-02  4.08D-01
                    CP:  1.48D+00  1.23D+00  1.11D+00  1.10D+00  8.61D-01
                    CP:  9.56D-01  7.83D-01  8.09D-01  8.49D-01  7.23D-01
                    CP:  9.71D-01  6.36D-01
 E= -1401.83486978123     Delta-E=       -0.000000000016 Rises=F Damp=F
 DIIS: error= 1.60D-08 at cycle  18 NSaved=  18.
 NSaved=18 IEnMin=18 EnMin= -1401.83486978123     IErMin=18 ErrMin= 1.60D-08
 ErrMax= 1.60D-08  0.00D+00 EMaxC= 1.00D-01 BMatC= 1.01D-12 BMatP= 4.41D-12
 IDIUse=1 WtCom= 1.00D+00 WtEn= 0.00D+00
 Coeff-Com:  0.754D-06-0.925D-06 0.103D-06 0.119D-08 0.222D-06-0.161D-05
 Coeff-Com: -0.421D-06 0.260D-04 0.755D-04 0.170D-03-0.698D-04-0.657D-03
 Coeff-Com: -0.316D-02-0.735D-02-0.446D-02 0.120D+00 0.333D+00 0.563D+00
 Coeff:      0.754D-06-0.925D-06 0.103D-06 0.119D-08 0.222D-06-0.161D-05
 Coeff:     -0.421D-06 0.260D-04 0.755D-04 0.170D-03-0.698D-04-0.657D-03
 Coeff:     -0.316D-02-0.735D-02-0.446D-02 0.120D+00 0.333D+00 0.563D+00
 Gap=     0.018 Goal=   None    Shift=    0.000
 Gap=     0.243 Goal=   None    Shift=    0.000
 RMSDP=7.08D-09 MaxDP=1.08D-06 DE=-1.59D-11 OVMax= 3.93D-07

 Cycle  19  Pass 1  IDiag  1:
 RMSU=  1.77D-09    CP:  9.75D-01  9.44D-01  3.16D-01 -1.70D-02  4.08D-01
                    CP:  1.48D+00  1.23D+00  1.11D+00  1.10D+00  8.61D-01
                    CP:  9.56D-01  7.83D-01  8.09D-01  8.49D-01  7.21D-01
                    CP:  9.82D-01  6.86D-01  8.92D-01
 E= -1401.83486978122     Delta-E=        0.000000000009 Rises=F Damp=F
 DIIS: error= 3.96D-09 at cycle  19 NSaved=  19.
 NSaved=19 IEnMin=18 EnMin= -1401.83486978123     IErMin=19 ErrMin= 3.96D-09
 ErrMax= 3.96D-09  0.00D+00 EMaxC= 1.00D-01 BMatC= 5.22D-14 BMatP= 1.01D-12
 IDIUse=1 WtCom= 1.00D+00 WtEn= 0.00D+00
 Coeff-Com:  0.216D-06-0.279D-06 0.225D-07 0.332D-08 0.709D-09-0.269D-06
 Coeff-Com: -0.400D-06 0.281D-05 0.372D-05 0.260D-04 0.654D-04 0.218D-06
 Coeff-Com: -0.441D-03-0.284D-02-0.400D-02 0.412D-02 0.928D-01 0.260D+00
 Coeff-Com:  0.650D+00
 Coeff:      0.216D-06-0.279D-06 0.225D-07 0.332D-08 0.709D-09-0.269D-06
 Coeff:     -0.400D-06 0.281D-05 0.372D-05 0.260D-04 0.654D-04 0.218D-06
 Coeff:     -0.441D-03-0.284D-02-0.400D-02 0.412D-02 0.928D-01 0.260D+00
 Coeff:      0.650D+00
 Gap=     0.018 Goal=   None    Shift=    0.000
 Gap=     0.243 Goal=   None    Shift=    0.000
 RMSDP=1.63D-09 MaxDP=1.34D-07 DE= 9.09D-12 OVMax= 8.19D-08

 SCF Done:  E(UB-LYP) =  -1401.83486978     A.U. after   19 cycles
            NFock= 19  Conv=0.16D-08     -V/T= 2.0010
 <Sx>= 0.0000 <Sy>= 0.0000 <Sz>= 1.5000 <S**2>= 3.7536 S= 1.5009
 <L.S>=  0.00000000000    
 KE= 1.400454671266D+03 PE=-4.727480109720D+03 EE= 1.207494497057D+03
 Annihilation of the first spin contaminant:
 S**2 before annihilation     3.7536,   after     3.7500
 Leave Link  502 at Thu May 23 17:04:31 2024, MaxMem= 26843545600 cpu:            7899.0 elap:              65.6
 (Enter /gpfs/fs1/soft/improv/software/custom-built/gaussian/g16/l508.exe)
 QCSCF skips out because SCF is already converged.
 Leave Link  508 at Thu May 23 17:04:31 2024, MaxMem= 26843545600 cpu:               0.2 elap:               0.0
 (Enter /gpfs/fs1/soft/improv/software/custom-built/gaussian/g16/l801.exe)
 DoSCS=F DFT=T ScalE2(SS,OS)=  1.000000  1.000000
 Range of M.O.s used for correlation:     1   317
 NBasis=   317 NAE=    42 NBE=    39 NFC=     0 NFV=     0
 NROrb=    317 NOA=    42 NOB=    39 NVA=   275 NVB=   278

 **** Warning!!: The largest alpha MO coefficient is  0.64833775D+02


 **** Warning!!: The smallest alpha delta epsilon is  0.18358541D-01


 **** Warning!!: The largest beta MO coefficient is  0.64823370D+02

 Leave Link  801 at Thu May 23 17:04:31 2024, MaxMem= 26843545600 cpu:               0.4 elap:               0.0
 (Enter /gpfs/fs1/soft/improv/software/custom-built/gaussian/g16/l1101.exe)
 Using compressed storage, NAtomX=    19.
 Will process     20 centers per pass.
 R6Disp: Adding Grimme-D3 dispersion energy 1st derivatives to the gradient.
 Leave Link 1101 at Thu May 23 17:04:32 2024, MaxMem= 26843545600 cpu:              50.7 elap:               0.5
 (Enter /gpfs/fs1/soft/improv/software/custom-built/gaussian/g16/l1102.exe)
 Symmetrizing basis deriv contribution to polar:
 IMax=3 JMax=2 DiffMx= 0.00D+00
 Leave Link 1102 at Thu May 23 17:04:32 2024, MaxMem= 26843545600 cpu:               0.9 elap:               0.0
 (Enter /gpfs/fs1/soft/improv/software/custom-built/gaussian/g16/l1110.exe)
 Forming Gx(P) for the SCF density, NAtomX=    19.
 Integral derivatives from FoFJK, PRISM(SPDF).
 Do as many integral derivatives as possible in FoFJK.
 G2DrvN: MDV=   26843543431.
 G2DrvN: will do    20 centers at a time, making    1 passes.
 Calling FoFCou, ICntrl=  3507 FMM=F I1Cent=   0 AccDes= 0.00D+00.
 FoFJK:  IHMeth= 1 ICntrl=    3507 DoSepK=F KAlg= 0 I1Cent=           0 FoldK=F
 IRaf=         0 NMat=       1 IRICut=       1 DoRegI=T DoRafI=F ISym2E= 0 IDoP0=0 IntGTp=1.
 FoFCou: FMM=F IPFlag=           0 FMFlag=      100000 FMFlg1=           0
         NFxFlg=           0 DoJE=F BraDBF=F KetDBF=F FulRan=T
         wScrn=  0.000000 ICntrl=      3507 IOpCl=  0 I1Cent=           0 NGrid=           0
         NMat0=    1 NMatS0=      1 NMatT0=    0 NMatD0=    1 NMtDS0=    0 NMtDT0=    0
 Symmetry not used in FoFCou.
 End of G2Drv F.D. properties file   721 does not exist.
 End of G2Drv F.D. properties file   722 does not exist.
 End of G2Drv F.D. properties file   788 does not exist.
 Leave Link 1110 at Thu May 23 17:04:46 2024, MaxMem= 26843545600 cpu:            1754.2 elap:              14.0
 (Enter /gpfs/fs1/soft/improv/software/custom-built/gaussian/g16/l1002.exe)
 Minotr:  UHF open shell wavefunction.
          IDoAtm=1111111111111111111
          Direct CPHF calculation.
          Differentiating once with respect to electric field.
                with respect to dipole field.
          Differentiating once with respect to nuclear coordinates.
          Requested convergence is 1.0D-08 RMS, and 1.0D-07 maximum.
          Secondary convergence is 1.0D-12 RMS, and 1.0D-12 maximum.
          NewPWx=T KeepS1=F KeepF1=F KeepIn=T MapXYZ=F SortEE=F KeepMc=T.
         6034 words used for storage of precomputed grid.
 Two-electron integrals replicated using symmetry.
          MDV=   26843545600 using IRadAn=       1.
          Solving linear equations simultaneously, MaxMat=     384.
 FoF2E skips out because all densities are zero.
 CalDSu exits because no D1Ps are significant.
 FoFJK:  IHMeth= 1 ICntrl=     500 DoSepK=F KAlg= 0 I1Cent=           0 FoldK=F
 IRaf= 990000000 NMat=      57 IRICut=       1 DoRegI=T DoRafI=F ISym2E= 2 IDoP0=3 IntGTp=2.
 FoFCou: FMM=F IPFlag=           0 FMFlag=      100000 FMFlg1=           0
         NFxFlg=           0 DoJE=F BraDBF=F KetDBF=F FulRan=T
         wScrn=  0.000000 ICntrl=       500 IOpCl=  0 I1Cent=           0 NGrid=           0
         NMat0=   57 NMatS0=     57 NMatT0=    0 NMatD0=   57 NMtDS0=    0 NMtDT0=    0
 Integrals replicated using symmetry in FoFCou.
          There are    60 degrees of freedom in the 1st order CPHF.  IDoFFX=6 NUNeed=     3.
     57 vectors produced by pass  0 Test12= 3.73D-14 1.67D-09 XBig12= 1.87D+03 2.75D+01.
 AX will form    57 AO Fock derivatives at one time.
     57 vectors produced by pass  1 Test12= 3.73D-14 1.67D-09 XBig12= 1.29D+03 8.94D+00.
     57 vectors produced by pass  2 Test12= 3.73D-14 1.67D-09 XBig12= 2.44D+01 7.05D-01.
     57 vectors produced by pass  3 Test12= 3.73D-14 1.67D-09 XBig12= 9.45D-02 4.30D-02.
     57 vectors produced by pass  4 Test12= 3.73D-14 1.67D-09 XBig12= 3.96D-04 2.07D-03.
     56 vectors produced by pass  5 Test12= 3.73D-14 1.67D-09 XBig12= 1.15D-06 1.07D-04.
     22 vectors produced by pass  6 Test12= 3.73D-14 1.67D-09 XBig12= 1.68D-09 3.56D-06.
      3 vectors produced by pass  7 Test12= 3.73D-14 1.67D-09 XBig12= 2.67D-12 9.57D-08.
      1 vectors produced by pass  8 Test12= 3.73D-14 1.67D-09 XBig12= 4.58D-15 4.23D-09.
 InvSVY:  IOpt=1 It=  1 EMax= 5.68D-14
 Solved reduced A of dimension   367 with    60 vectors.
 FullF1:  Do perturbations      1 to       3.
 Isotropic polarizability for W=    0.000000       85.97 Bohr**3.
 End of Minotr F.D. properties file   721 does not exist.
 End of Minotr F.D. properties file   722 does not exist.
 End of Minotr F.D. properties file   788 does not exist.
 Leave Link 1002 at Thu May 23 17:05:33 2024, MaxMem= 26843545600 cpu:            5680.0 elap:              47.4
 (Enter /gpfs/fs1/soft/improv/software/custom-built/gaussian/g16/l601.exe)
 Copying SCF densities to generalized density rwf, IOpCl= 1 IROHF=0.

 **********************************************************************

            Population analysis using the SCF Density.

 **********************************************************************

 Orbital symmetries:
 Alpha Orbitals:
       Occupied  (A) (A) (A) (A) (A) (A) (A) (A) (A) (A) (A) (A)
                 (A) (A) (A) (A) (A) (A) (A) (A) (A) (A) (A) (A)
                 (A) (A) (A) (A) (A) (A) (A) (A) (A) (A) (A) (A)
                 (A) (A) (A) (A) (A) (A)
       Virtual   (A) (A) (A) (A) (A) (A) (A) (A) (A) (A) (A) (A)
                 (A) (A) (A) (A) (A) (A) (A) (A) (A) (A) (A) (A)
                 (A) (A) (A) (A) (A) (A) (A) (A) (A) (A) (A) (A)
                 (A) (A) (A) (A) (A) (A) (A) (A) (A) (A) (A) (A)
                 (A) (A) (A) (A) (A) (A) (A) (A) (A) (A) (A) (A)
                 (A) (A) (A) (A) (A) (A) (A) (A) (A) (A) (A) (A)
                 (A) (A) (A) (A) (A) (A) (A) (A) (A) (A) (A) (A)
                 (A) (A) (A) (A) (A) (A) (A) (A) (A) (A) (A) (A)
                 (A) (A) (A) (A) (A) (A) (A) (A) (A) (A) (A) (A)
                 (A) (A) (A) (A) (A) (A) (A) (A) (A) (A) (A) (A)
                 (A) (A) (A) (A) (A) (A) (A) (A) (A) (A) (A) (A)
                 (A) (A) (A) (A) (A) (A) (A) (A) (A) (A) (A) (A)
                 (A) (A) (A) (A) (A) (A) (A) (A) (A) (A) (A) (A)
                 (A) (A) (A) (A) (A) (A) (A) (A) (A) (A) (A) (A)
                 (A) (A) (A) (A) (A) (A) (A) (A) (A) (A) (A) (A)
                 (A) (A) (A) (A) (A) (A) (A) (A) (A) (A) (A) (A)
                 (A) (A) (A) (A) (A) (A) (A) (A) (A) (A) (A) (A)
                 (A) (A) (A) (A) (A) (A) (A) (A) (A) (A) (A) (A)
                 (A) (A) (A) (A) (A) (A) (A) (A) (A) (A) (A) (A)
                 (A) (A) (A) (A) (A) (A) (A) (A) (A) (A) (A) (A)
                 (A) (A) (A) (A) (A) (A) (A) (A) (A) (A) (A) (A)
                 (A) (A) (A) (A) (A) (A) (A) (A) (A) (A) (A) (A)
                 (A) (A) (A) (A) (A) (A) (A) (A) (A) (A) (A)
 Beta  Orbitals:
       Occupied  (A) (A) (A) (A) (A) (A) (A) (A) (A) (A) (A) (A)
                 (A) (A) (A) (A) (A) (A) (A) (A) (A) (A) (A) (A)
                 (A) (A) (A) (A) (A) (A) (A) (A) (A) (A) (A) (A)
                 (A) (A) (A)
       Virtual   (A) (A) (A) (A) (A) (A) (A) (A) (A) (A) (A) (A)
                 (A) (A) (A) (A) (A) (A) (A) (A) (A) (A) (A) (A)
                 (A) (A) (A) (A) (A) (A) (A) (A) (A) (A) (A) (A)
                 (A) (A) (A) (A) (A) (A) (A) (A) (A) (A) (A) (A)
                 (A) (A) (A) (A) (A) (A) (A) (A) (A) (A) (A) (A)
                 (A) (A) (A) (A) (A) (A) (A) (A) (A) (A) (A) (A)
                 (A) (A) (A) (A) (A) (A) (A) (A) (A) (A) (A) (A)
                 (A) (A) (A) (A) (A) (A) (A) (A) (A) (A) (A) (A)
                 (A) (A) (A) (A) (A) (A) (A) (A) (A) (A) (A) (A)
                 (A) (A) (A) (A) (A) (A) (A) (A) (A) (A) (A) (A)
                 (A) (A) (A) (A) (A) (A) (A) (A) (A) (A) (A) (A)
                 (A) (A) (A) (A) (A) (A) (A) (A) (A) (A) (A) (A)
                 (A) (A) (A) (A) (A) (A) (A) (A) (A) (A) (A) (A)
                 (A) (A) (A) (A) (A) (A) (A) (A) (A) (A) (A) (A)
                 (A) (A) (A) (A) (A) (A) (A) (A) (A) (A) (A) (A)
                 (A) (A) (A) (A) (A) (A) (A) (A) (A) (A) (A) (A)
                 (A) (A) (A) (A) (A) (A) (A) (A) (A) (A) (A) (A)
                 (A) (A) (A) (A) (A) (A) (A) (A) (A) (A) (A) (A)
                 (A) (A) (A) (A) (A) (A) (A) (A) (A) (A) (A) (A)
                 (A) (A) (A) (A) (A) (A) (A) (A) (A) (A) (A) (A)
                 (A) (A) (A) (A) (A) (A) (A) (A) (A) (A) (A) (A)
                 (A) (A) (A) (A) (A) (A) (A) (A) (A) (A) (A) (A)
                 (A) (A) (A) (A) (A) (A) (A) (A) (A) (A) (A) (A)
                 (A) (A)
 The electronic state is 4-A.
 Alpha  occ. eigenvalues -- -195.95469 -22.05989 -19.20614 -19.20603 -19.20427
 Alpha  occ. eigenvalues --  -19.20095 -19.18603 -19.17850 -18.64411 -18.64301
 Alpha  occ. eigenvalues --  -18.64193  -2.76538  -1.85444  -1.85246  -1.85195
 Alpha  occ. eigenvalues --   -1.35816  -1.33659  -1.33576  -1.32886  -1.31792
 Alpha  occ. eigenvalues --   -1.31061  -0.92559  -0.91262  -0.89687  -0.89100
 Alpha  occ. eigenvalues --   -0.87896  -0.86618  -0.79802  -0.78760  -0.78285
 Alpha  occ. eigenvalues --   -0.76125  -0.75327  -0.73060  -0.71730  -0.69063
 Alpha  occ. eigenvalues --   -0.68481  -0.67409  -0.65796  -0.64481  -0.43844
 Alpha  occ. eigenvalues --   -0.43141  -0.41758
 Alpha virt. eigenvalues --   -0.39922  -0.35265  -0.33092  -0.31731  -0.29355
 Alpha virt. eigenvalues --   -0.29132  -0.26634  -0.26105  -0.24630  -0.23685
 Alpha virt. eigenvalues --   -0.22558  -0.21681  -0.21402  -0.19786  -0.19170
 Alpha virt. eigenvalues --   -0.18286  -0.17694  -0.16855  -0.15508  -0.14504
 Alpha virt. eigenvalues --   -0.14440  -0.13559  -0.12372  -0.12046  -0.10210
 Alpha virt. eigenvalues --   -0.10044  -0.09860  -0.08946  -0.07647  -0.05935
 Alpha virt. eigenvalues --   -0.05414  -0.04496  -0.04086  -0.03320  -0.03171
 Alpha virt. eigenvalues --   -0.02922  -0.00914  -0.00215   0.01560   0.02017
 Alpha virt. eigenvalues --    0.02808   0.03389   0.05561   0.06249   0.06689
 Alpha virt. eigenvalues --    0.07343   0.08166   0.10608   0.12739   0.15927
 Alpha virt. eigenvalues --    0.16747   0.18912   0.19321   0.22150   0.23718
 Alpha virt. eigenvalues --    0.37655   0.38020   0.39247   0.42023   0.42519
 Alpha virt. eigenvalues --    0.43154   0.43386   0.44466   0.46387   0.47529
 Alpha virt. eigenvalues --    0.48361   0.48702   0.51169   0.52252   0.52358
 Alpha virt. eigenvalues --    0.53563   0.54118   0.55150   0.56395   0.57809
 Alpha virt. eigenvalues --    0.60589   0.63345   0.64590   0.65668   0.66638
 Alpha virt. eigenvalues --    0.67177   0.68762   0.68959   0.70229   0.71467
 Alpha virt. eigenvalues --    0.72109   0.73949   0.76122   0.76788   0.81544
 Alpha virt. eigenvalues --    0.81761   0.82566   0.84665   0.87147   0.89286
 Alpha virt. eigenvalues --    0.91087   0.92216   0.94548   0.96024   0.97173
 Alpha virt. eigenvalues --    0.97702   1.00640   1.01561   1.02609   1.08371
 Alpha virt. eigenvalues --    1.08533   1.10191   1.17811   1.19194   1.22267
 Alpha virt. eigenvalues --    1.30115   1.30291   1.32014   1.33177   1.36661
 Alpha virt. eigenvalues --    1.37326   1.39978   1.42867   1.44810   1.48149
 Alpha virt. eigenvalues --    1.51150   1.53558   1.55497   1.61331   1.64519
 Alpha virt. eigenvalues --    1.81653   1.82234   1.83877   1.85280   1.87602
 Alpha virt. eigenvalues --    1.87882   1.89213   1.90607   1.94373   1.97314
 Alpha virt. eigenvalues --    2.00272   2.02732   2.06498   2.11518   2.12211
 Alpha virt. eigenvalues --    2.15737   2.17907   2.22322   2.27921   2.32277
 Alpha virt. eigenvalues --    2.33932   2.34955   2.40534   2.41968   2.45023
 Alpha virt. eigenvalues --    2.45166   2.47288   2.49117   2.51196   2.53164
 Alpha virt. eigenvalues --    2.54580   2.57139   2.57932   2.59543   2.62223
 Alpha virt. eigenvalues --    2.62700   2.63944   2.67860   2.71888   2.73171
 Alpha virt. eigenvalues --    2.74032   2.74650   2.78872   2.80713   2.81536
 Alpha virt. eigenvalues --    2.93633   2.99920   3.01759   3.03431   3.06521
 Alpha virt. eigenvalues --    3.07284   3.09926   3.10737   3.11745   3.18189
 Alpha virt. eigenvalues --    3.33522   3.39809   3.61217   3.64114   3.65537
 Alpha virt. eigenvalues --    3.71417   3.72432   3.75233   3.76365   3.78441
 Alpha virt. eigenvalues --    3.78892   3.79416   3.82887   3.84916   3.89787
 Alpha virt. eigenvalues --    3.91859   3.97416   3.97874   4.00501   4.02605
 Alpha virt. eigenvalues --    4.07192   4.09839   4.13608   4.16343   4.20184
 Alpha virt. eigenvalues --    4.20604   4.25213   4.28950   4.30151   4.31276
 Alpha virt. eigenvalues --    4.34089   4.34619   4.44183   4.46174   4.47448
 Alpha virt. eigenvalues --    4.50037   4.51047   4.52137   4.61728   4.67689
 Alpha virt. eigenvalues --    4.72218   4.77874   4.79624   4.83485   4.85134
 Alpha virt. eigenvalues --    4.90446   4.95876   4.97501   4.99825   5.00230
 Alpha virt. eigenvalues --    5.00918   5.01725   5.03970   5.07311   5.08394
 Alpha virt. eigenvalues --    5.13592   5.16488   5.16903   5.19286   5.20735
 Alpha virt. eigenvalues --    5.23482   5.26097   5.29076   5.32249   5.34613
 Alpha virt. eigenvalues --    5.36124   5.37531   5.38030   5.39856   5.40631
 Alpha virt. eigenvalues --    5.43667   5.43803   5.44286   5.46670   5.49470
 Alpha virt. eigenvalues --    5.49863   5.50271   5.51475   5.52034   5.84965
 Alpha virt. eigenvalues --    5.87017   6.34335   6.97870   7.00836   7.01873
 Alpha virt. eigenvalues --    7.10353   7.15513   7.23705  13.22720  13.24037
 Alpha virt. eigenvalues --   13.25071  13.69134  13.74402  13.82201  36.49472
  Beta  occ. eigenvalues -- -195.95452 -22.03319 -19.20601 -19.20589 -19.20420
  Beta  occ. eigenvalues --  -19.20087 -19.18579 -19.17829 -18.62405 -18.62269
  Beta  occ. eigenvalues --  -18.62057  -2.68224  -1.77576  -1.77523  -1.77032
  Beta  occ. eigenvalues --   -1.35593  -1.33480  -1.33387  -1.32622  -1.31527
  Beta  occ. eigenvalues --   -1.30816  -0.92140  -0.90897  -0.89406  -0.88829
  Beta  occ. eigenvalues --   -0.87681  -0.86424  -0.79283  -0.78269  -0.77807
  Beta  occ. eigenvalues --   -0.75675  -0.75010  -0.72752  -0.71270  -0.68724
  Beta  occ. eigenvalues --   -0.68179  -0.67074  -0.65457  -0.64251
  Beta virt. eigenvalues --   -0.39949  -0.35816  -0.35671  -0.34031  -0.33968
  Beta virt. eigenvalues --   -0.32100  -0.31441  -0.28422  -0.28145  -0.25919
  Beta virt. eigenvalues --   -0.25500  -0.23284  -0.21741  -0.21192  -0.20943
  Beta virt. eigenvalues --   -0.20228  -0.19621  -0.18783  -0.17890  -0.17523
  Beta virt. eigenvalues --   -0.16685  -0.15281  -0.14381  -0.14313  -0.13305
  Beta virt. eigenvalues --   -0.12237  -0.11962  -0.09897  -0.09751  -0.09718
  Beta virt. eigenvalues --   -0.08654  -0.07439  -0.05808  -0.04813  -0.04363
  Beta virt. eigenvalues --   -0.03677  -0.03083  -0.02867  -0.02712  -0.00659
  Beta virt. eigenvalues --    0.00072   0.01941   0.02346   0.03064   0.03655
  Beta virt. eigenvalues --    0.05912   0.06726   0.07132   0.07739   0.08551
  Beta virt. eigenvalues --    0.11445   0.13072   0.17472   0.18225   0.19479
  Beta virt. eigenvalues --    0.19576   0.23353   0.24889   0.38231   0.38849
  Beta virt. eigenvalues --    0.40015   0.42954   0.43513   0.43955   0.44289
  Beta virt. eigenvalues --    0.45584   0.46910   0.47966   0.49088   0.49495
  Beta virt. eigenvalues --    0.51563   0.52757   0.52904   0.53910   0.54449
  Beta virt. eigenvalues --    0.55588   0.56926   0.58140   0.60849   0.64022
  Beta virt. eigenvalues --    0.65135   0.65968   0.66922   0.67630   0.69188
  Beta virt. eigenvalues --    0.69236   0.70879   0.71909   0.72556   0.74475
  Beta virt. eigenvalues --    0.76693   0.77422   0.81758   0.82014   0.83529
  Beta virt. eigenvalues --    0.84998   0.87440   0.89826   0.92047   0.92543
  Beta virt. eigenvalues --    0.94807   0.96815   0.97977   0.99721   1.01401
  Beta virt. eigenvalues --    1.02207   1.03331   1.08605   1.09821   1.11425
  Beta virt. eigenvalues --    1.19084   1.20404   1.23751   1.32934   1.33555
  Beta virt. eigenvalues --    1.35054   1.36037   1.39024   1.40212   1.41801
  Beta virt. eigenvalues --    1.45133   1.46054   1.49641   1.52975   1.54823
  Beta virt. eigenvalues --    1.56840   1.63140   1.66046   1.82504   1.83059
  Beta virt. eigenvalues --    1.84507   1.86087   1.88224   1.88790   1.90025
  Beta virt. eigenvalues --    1.91542   1.95265   1.97934   2.00919   2.03612
  Beta virt. eigenvalues --    2.07381   2.12312   2.13371   2.16949   2.19054
  Beta virt. eigenvalues --    2.23464   2.29169   2.34242   2.35537   2.36248
  Beta virt. eigenvalues --    2.41745   2.43249   2.45700   2.46392   2.48314
  Beta virt. eigenvalues --    2.50225   2.52316   2.54668   2.55744   2.57999
  Beta virt. eigenvalues --    2.59666   2.60757   2.63109   2.63854   2.65216
  Beta virt. eigenvalues --    2.69204   2.72848   2.73916   2.75148   2.75598
  Beta virt. eigenvalues --    2.79890   2.81524   2.82310   2.95172   3.03382
  Beta virt. eigenvalues --    3.04321   3.07023   3.10586   3.10794   3.14007
  Beta virt. eigenvalues --    3.15000   3.16522   3.21720   3.37149   3.43178
  Beta virt. eigenvalues --    3.61335   3.64249   3.65671   3.71776   3.72605
  Beta virt. eigenvalues --    3.75464   3.76953   3.78792   3.79382   3.79916
  Beta virt. eigenvalues --    3.83665   3.85337   3.90116   3.92096   3.98098
  Beta virt. eigenvalues --    3.98346   4.00818   4.03093   4.07807   4.10652
  Beta virt. eigenvalues --    4.15052   4.21630   4.23117   4.25235   4.26475
  Beta virt. eigenvalues --    4.31709   4.32094   4.34347   4.35243   4.38043
  Beta virt. eigenvalues --    4.45697   4.47149   4.48301   4.51310   4.52385
  Beta virt. eigenvalues --    4.53856   4.64378   4.70156   4.72618   4.78662
  Beta virt. eigenvalues --    4.80381   4.84119   4.86113   4.92231   4.96142
  Beta virt. eigenvalues --    4.97686   5.00037   5.00483   5.01269   5.02155
  Beta virt. eigenvalues --    5.04715   5.07980   5.09080   5.14982   5.17553
  Beta virt. eigenvalues --    5.17807   5.20423   5.21508   5.24326   5.26811
  Beta virt. eigenvalues --    5.30281   5.32952   5.35173   5.36594   5.38545
  Beta virt. eigenvalues --    5.38764   5.40740   5.41333   5.44145   5.44774
  Beta virt. eigenvalues --    5.45063   5.47503   5.50279   5.50463   5.51142
  Beta virt. eigenvalues --    5.51850   5.52577   5.85242   5.87292   6.36287
  Beta virt. eigenvalues --    6.98329   7.01311   7.02384   7.10640   7.15828
  Beta virt. eigenvalues --    7.24146  13.22979  13.24275  13.25320  13.69277
  Beta virt. eigenvalues --   13.74522  13.82320  36.52343
          Condensed to atoms (all electrons):
               1          2          3          4          5          6
     1  V   23.693813  -0.216925  -0.044239  -0.171006  -0.044585  -0.276344
     2  O   -0.216925   8.341006   0.338372  -0.100394  -0.003765  -0.002198
     3  H   -0.044239   0.338372   0.309814  -0.000818   0.000036  -0.001771
     4  O   -0.171006  -0.100394  -0.000818   8.553086   0.328208  -0.154451
     5  H   -0.044585  -0.003765   0.000036   0.328208   0.343832   0.000444
     6  O   -0.276344  -0.002198  -0.001771  -0.154451   0.000444   8.539099
     7  H    0.006906  -0.012716   0.000085   0.000959   0.000474   0.265357
     8  O   -0.244027   0.050550  -0.000043  -0.086981  -0.000463  -0.098337
     9  H   -0.010577  -0.001338  -0.000066  -0.007183  -0.000328   0.000017
    10  O   -0.196016  -0.070930   0.003995   0.065875  -0.001135  -0.082375
    11  H   -0.014587   0.000587  -0.000119  -0.000059   0.000032  -0.007753
    12  O   -0.296303   0.062844   0.001496  -0.087062  -0.005998   0.065259
    13  H   -0.048863  -0.004943  -0.000018   0.004468  -0.000279   0.000703
    14  H   -0.024743  -0.001872  -0.000102   0.001139   0.000008  -0.001058
    15  H   -0.028770   0.001948  -0.000203   0.321748  -0.028286  -0.010137
    16  H   -0.046387   0.339356  -0.020801  -0.000322  -0.000149  -0.005325
    17  H   -0.043680  -0.006364  -0.000121  -0.000988  -0.000048  -0.003094
    18  H   -0.005967   0.002839   0.000117   0.001350   0.004250   0.276017
    19  H    0.012977  -0.003050   0.000041   0.001306   0.005097  -0.019105
               7          8          9         10         11         12
     1  V    0.006906  -0.244027  -0.010577  -0.196016  -0.014587  -0.296303
     2  O   -0.012716   0.050550  -0.001338  -0.070930   0.000587   0.062844
     3  H    0.000085  -0.000043  -0.000066   0.003995  -0.000119   0.001496
     4  O    0.000959  -0.086981  -0.007183   0.065875  -0.000059  -0.087062
     5  H    0.000474  -0.000463  -0.000328  -0.001135   0.000032  -0.005998
     6  O    0.265357  -0.098337   0.000017  -0.082375  -0.007753   0.065259
     7  H    0.388537  -0.016997   0.001551   0.000686   0.000334  -0.003894
     8  O   -0.016997   8.455895   0.291863  -0.086733  -0.007542   0.039895
     9  H    0.001551   0.291863   0.353072  -0.003990   0.004741  -0.005217
    10  O    0.000686  -0.086733  -0.003990   8.528153   0.307562  -0.137142
    11  H    0.000334  -0.007542   0.004741   0.307562   0.353951  -0.011463
    12  O   -0.003894   0.039895  -0.005217  -0.137142  -0.011463   8.408133
    13  H    0.000037  -0.005527   0.000102   0.000709  -0.000291   0.350535
    14  H   -0.000070  -0.007554   0.002509   0.000418   0.006020   0.310794
    15  H    0.000538  -0.004672   0.000075  -0.000296   0.000026  -0.002588
    16  H   -0.000485   0.000135   0.000023   0.002570   0.000043  -0.003418
    17  H    0.005568   0.001168   0.002100   0.330483  -0.027131  -0.003992
    18  H   -0.015562   0.001960   0.000244  -0.007423   0.000093  -0.003023
    19  H    0.023571   0.258773  -0.014781   0.000115   0.000682  -0.014973
              13         14         15         16         17         18
     1  V   -0.048863  -0.024743  -0.028770  -0.046387  -0.043680  -0.005967
     2  O   -0.004943  -0.001872   0.001948   0.339356  -0.006364   0.002839
     3  H   -0.000018  -0.000102  -0.000203  -0.020801  -0.000121   0.000117
     4  O    0.004468   0.001139   0.321748  -0.000322  -0.000988   0.001350
     5  H   -0.000279   0.000008  -0.028286  -0.000149  -0.000048   0.004250
     6  O    0.000703  -0.001058  -0.010137  -0.005325  -0.003094   0.276017
     7  H    0.000037  -0.000070   0.000538  -0.000485   0.005568  -0.015562
     8  O   -0.005527  -0.007554  -0.004672   0.000135   0.001168   0.001960
     9  H    0.000102   0.002509   0.000075   0.000023   0.002100   0.000244
    10  O    0.000709   0.000418  -0.000296   0.002570   0.330483  -0.007423
    11  H   -0.000291   0.006020   0.000026   0.000043  -0.027131   0.000093
    12  O    0.350535   0.310794  -0.002588  -0.003418  -0.003992  -0.003023
    13  H    0.300670  -0.022175  -0.000060  -0.000056   0.000015  -0.000061
    14  H   -0.022175   0.349754   0.000069  -0.000003  -0.000282   0.000039
    15  H   -0.000060   0.000069   0.334206   0.001660   0.000028   0.003602
    16  H   -0.000056  -0.000003   0.001660   0.329304  -0.000090   0.000444
    17  H    0.000015  -0.000282   0.000028  -0.000090   0.339350  -0.000300
    18  H   -0.000061   0.000039   0.003602   0.000444  -0.000300   0.352348
    19  H    0.000087  -0.000249   0.000310  -0.000092   0.000765   0.002886
              19
     1  V    0.012977
     2  O   -0.003050
     3  H    0.000041
     4  O    0.001306
     5  H    0.005097
     6  O   -0.019105
     7  H    0.023571
     8  O    0.258773
     9  H   -0.014781
    10  O    0.000115
    11  H    0.000682
    12  O   -0.014973
    13  H    0.000087
    14  H   -0.000249
    15  H    0.000310
    16  H   -0.000092
    17  H    0.000765
    18  H    0.002886
    19  H    0.392002
          Atomic-Atomic Spin Densities.
               1          2          3          4          5          6
     1  V    3.829289  -0.142092  -0.020215  -0.113007  -0.018153  -0.234662
     2  O   -0.142092   0.060724   0.006901   0.003621  -0.002308   0.039076
     3  H   -0.020215   0.006901   0.025021   0.000229   0.000067  -0.003451
     4  O   -0.113007   0.003621   0.000229   0.069763   0.004256  -0.011790
     5  H   -0.018153  -0.002308   0.000067   0.004256   0.038474   0.001884
     6  O   -0.234662   0.039076  -0.003451  -0.011790   0.001884   0.233588
     7  H    0.024916  -0.009568   0.000098  -0.003475   0.000689  -0.058377
     8  O   -0.184542   0.000990  -0.000235   0.017559   0.002385  -0.000356
     9  H    0.006280  -0.001192  -0.000055  -0.004371  -0.000416  -0.006392
    10  O   -0.129695   0.016402   0.010578  -0.001880  -0.001086   0.026991
    11  H    0.004310  -0.001886   0.000017  -0.000178   0.000024  -0.005972
    12  O   -0.218485   0.011546   0.002301   0.026877  -0.006365   0.010388
    13  H   -0.019098   0.000254  -0.000023   0.007853  -0.000290   0.000091
    14  H   -0.019648  -0.000077  -0.000136  -0.004213  -0.000012  -0.000936
    15  H   -0.006933   0.006998  -0.000268  -0.003991  -0.004625  -0.003018
    16  H   -0.029022   0.019123  -0.005508   0.000579  -0.000196   0.006533
    17  H   -0.015997  -0.006175  -0.000278  -0.001069  -0.000037   0.001070
    18  H    0.012711  -0.001180   0.000097   0.017018   0.004896  -0.047133
    19  H    0.030150  -0.002661   0.000037  -0.001571   0.004957  -0.002718
               7          8          9         10         11         12
     1  V    0.024916  -0.184542   0.006280  -0.129695   0.004310  -0.218485
     2  O   -0.009568   0.000990  -0.001192   0.016402  -0.001886   0.011546
     3  H    0.000098  -0.000235  -0.000055   0.010578   0.000017   0.002301
     4  O   -0.003475   0.017559  -0.004371  -0.001880  -0.000178   0.026877
     5  H    0.000689   0.002385  -0.000416  -0.001086   0.000024  -0.006365
     6  O   -0.058377  -0.000356  -0.006392   0.026991  -0.005972   0.010388
     7  H    0.085119   0.000048   0.001536  -0.002558   0.000226  -0.003533
     8  O    0.000048   0.173079  -0.028091  -0.003941  -0.000535   0.051960
     9  H    0.001536  -0.028091   0.058855   0.012410   0.004328  -0.008745
    10  O   -0.002558  -0.003941   0.012410   0.079614  -0.015205   0.007006
    11  H    0.000226  -0.000535   0.004328  -0.015205   0.053835  -0.005359
    12  O   -0.003533   0.051960  -0.008745   0.007006  -0.005359   0.120308
    13  H    0.000032  -0.003644   0.000054  -0.000027  -0.000309   0.013197
    14  H   -0.000054   0.004518   0.002210   0.001593   0.004331   0.003088
    15  H    0.000348  -0.003256   0.000120  -0.000267   0.000033  -0.004980
    16  H   -0.000537  -0.000241   0.000020  -0.003315   0.000077  -0.000973
    17  H    0.004986   0.003662   0.002641   0.004185  -0.004171  -0.003005
    18  H    0.001073  -0.003602   0.000226  -0.003838   0.000130  -0.003007
    19  H    0.021016  -0.063155   0.001154  -0.004150   0.000503  -0.012616
              13         14         15         16         17         18
     1  V   -0.019098  -0.019648  -0.006933  -0.029022  -0.015997   0.012711
     2  O    0.000254  -0.000077   0.006998   0.019123  -0.006175  -0.001180
     3  H   -0.000023  -0.000136  -0.000268  -0.005508  -0.000278   0.000097
     4  O    0.007853  -0.004213  -0.003991   0.000579  -0.001069   0.017018
     5  H   -0.000290  -0.000012  -0.004625  -0.000196  -0.000037   0.004896
     6  O    0.000091  -0.000936  -0.003018   0.006533   0.001070  -0.047133
     7  H    0.000032  -0.000054   0.000348  -0.000537   0.004986   0.001073
     8  O   -0.003644   0.004518  -0.003256  -0.000241   0.003662  -0.003602
     9  H    0.000054   0.002210   0.000120   0.000020   0.002641   0.000226
    10  O   -0.000027   0.001593  -0.000267  -0.003315   0.004185  -0.003838
    11  H   -0.000309   0.004331   0.000033   0.000077  -0.004171   0.000130
    12  O    0.013197   0.003088  -0.004980  -0.000973  -0.003005  -0.003007
    13  H    0.018541  -0.006294   0.000017  -0.000082   0.000061  -0.000047
    14  H   -0.006294   0.026250   0.000102   0.000049  -0.000317   0.000038
    15  H    0.000017   0.000102   0.039329   0.001277   0.000019   0.003380
    16  H   -0.000082   0.000049   0.001277   0.017188  -0.000100   0.000574
    17  H    0.000061  -0.000317   0.000019  -0.000100   0.032546  -0.000339
    18  H   -0.000047   0.000038   0.003380   0.000574  -0.000339   0.065053
    19  H    0.000097  -0.000278   0.000202  -0.000069   0.000957   0.002834
              19
     1  V    0.030150
     2  O   -0.002661
     3  H    0.000037
     4  O   -0.001571
     5  H    0.004957
     6  O   -0.002718
     7  H    0.021016
     8  O   -0.063155
     9  H    0.001154
    10  O   -0.004150
    11  H    0.000503
    12  O   -0.012616
    13  H    0.000097
    14  H   -0.000278
    15  H    0.000202
    16  H   -0.000069
    17  H    0.000957
    18  H    0.002834
    19  H    0.094596
 Mulliken charges and spin densities:
               1          2
     1  V    0.999323   2.756107
     2  O   -0.713007  -0.001503
     3  H    0.414342   0.015177
     4  O   -0.668874   0.002212
     5  H    0.402656   0.024145
     6  O   -0.484949  -0.055184
     7  H    0.355122   0.061985
     8  O   -0.541365  -0.037396
     9  H    0.387186   0.040571
    10  O   -0.654527  -0.007185
    11  H    0.394874   0.034202
    12  O   -0.663882  -0.020398
    13  H    0.424948   0.010383
    14  H    0.387359   0.010213
    15  H    0.410803   0.024488
    16  H    0.403591   0.005377
    17  H    0.406614   0.018640
    18  H    0.386147   0.048883
    19  H    0.353639   0.069283
 Sum of Mulliken charges =   2.00000   3.00000
 Mulliken charges and spin densities with hydrogens summed into heavy atoms:
               1          2
     1  V    0.999323   2.756107
     2  O    0.104927   0.019051
     4  O    0.144585   0.050845
     6  O    0.256319   0.055684
     8  O    0.199460   0.072458
    10  O    0.146961   0.045658
    12  O    0.148425   0.000198
 APT charges:
               1
     1  V    0.788596
     2  O   -0.507336
     3  H    0.325131
     4  O   -0.147882
     5  H    0.199450
     6  O    0.076571
     7  H    0.062190
     8  O    0.082027
     9  H    0.084950
    10  O   -0.100228
    11  H    0.152921
    12  O   -0.491265
    13  H    0.340212
    14  H    0.279037
    15  H    0.217176
    16  H    0.310683
    17  H    0.181256
    18  H    0.087779
    19  H    0.058733
 Sum of APT charges =   2.00000
 APT charges with hydrogens summed into heavy atoms:
               1
     1  V    0.788596
     2  O    0.128478
     4  O    0.268744
     6  O    0.226540
     8  O    0.225709
    10  O    0.233949
    12  O    0.127984
 Electronic spatial extent (au):  <R**2>=            864.2154
 Charge=              2.0000 electrons
 Dipole moment (field-independent basis, Debye):
    X=              1.3119    Y=              2.3441    Z=             -0.6164  Tot=              2.7561
 Quadrupole moment (field-independent basis, Debye-Ang):
   XX=            -24.9101   YY=            -28.1049   ZZ=            -35.0294
   XY=             -4.5941   XZ=             -1.3134   YZ=             -0.1497
 Traceless Quadrupole moment (field-independent basis, Debye-Ang):
   XX=              4.4381   YY=              1.2432   ZZ=             -5.6813
   XY=             -4.5941   XZ=             -1.3134   YZ=             -0.1497
 Octapole moment (field-independent basis, Debye-Ang**2):
  XXX=             10.5429  YYY=              7.7936  ZZZ=              5.7181  XYY=              1.7153
  XXY=              5.3178  XXZ=              3.9309  XZZ=             -8.4162  YZZ=             -4.4943
  YYZ=            -11.8876  XYZ=             -2.3856
 Hexadecapole moment (field-independent basis, Debye-Ang**3):
 XXXX=           -246.3802 YYYY=           -252.9671 ZZZZ=           -252.0028 XXXY=            -21.2148
 XXXZ=              4.1402 YYYX=            -13.2527 YYYZ=             11.0067 ZZZX=            -14.3834
 ZZZY=            -10.5866 XXYY=            -73.2064 XXZZ=            -76.5084 YYZZ=            -69.9507
 XXYZ=              4.1213 YYXZ=              2.4541 ZZXY=              1.1164
 N-N= 7.176960716152D+02 E-N=-4.727480110398D+03  KE= 1.400454671266D+03
  Exact polarizability:      99.420      -3.203      94.536      -1.398      -7.131      63.946
 Approx polarizability:     196.321      36.798     227.220     -15.332     -31.190     107.170
                          Isotropic Fermi Contact Couplings
        Atom                 a.u.       MegaHertz       Gauss      10(-4) cm-1
     1  V(51)             -0.13533     -53.13215     -18.95887     -17.72298
     2  O(17)             -0.01321       2.66864       0.95224       0.89016
     3  H(1)               0.00812      12.10001       4.31758       4.03613
     4  O(17)              0.04733      -9.56313      -3.41236      -3.18992
     5  H(1)               0.00887      13.22321       4.71837       4.41079
     6  O(17)              0.12572     -25.40452      -9.06496      -8.47403
     7  H(1)               0.01330      19.82306       7.07336       6.61226
     8  O(17)              0.11692     -23.62596      -8.43033      -7.88077
     9  H(1)               0.01230      18.32852       6.54007       6.11374
    10  O(17)              0.04654      -9.40397      -3.35557      -3.13683
    11  H(1)               0.01199      17.86104       6.37326       5.95780
    12  O(17)             -0.01981       4.00264       1.42824       1.33514
    13  H(1)               0.00654       9.74779       3.47825       3.25151
    14  H(1)               0.00625       9.31905       3.32527       3.10850
    15  H(1)               0.01025      15.26839       5.44814       5.09299
    16  H(1)               0.00543       8.08834       2.88612       2.69798
    17  H(1)               0.00785      11.69235       4.17212       3.90015
    18  H(1)               0.01421      21.17544       7.55592       7.06336
    19  H(1)               0.01435      21.38792       7.63174       7.13424
 --------------------------------------------------------
       Center         ----  Spin Dipole Couplings  ----
                      3XX-RR        3YY-RR        3ZZ-RR
 --------------------------------------------------------
     1   Atom        0.034090      0.086407     -0.120497
     2   Atom       -0.067921      0.058890      0.009030
     3   Atom       -0.006209      0.012908     -0.006699
     4   Atom       -0.009802     -0.037186      0.046988
     5   Atom        0.030964     -0.027183     -0.003780
     6   Atom        0.006568     -0.058941      0.052373
     7   Atom        0.001756     -0.000751     -0.001005
     8   Atom       -0.056177      0.062892     -0.006715
     9   Atom       -0.022798      0.047513     -0.024714
    10   Atom        0.002158     -0.022920      0.020763
    11   Atom        0.034224     -0.012619     -0.021605
    12   Atom        0.022017     -0.002760     -0.019257
    13   Atom       -0.014618     -0.017400      0.032018
    14   Atom        0.016905     -0.021961      0.005055
    15   Atom        0.014146      0.003403     -0.017548
    16   Atom       -0.022400      0.026770     -0.004370
    17   Atom       -0.014057      0.001203      0.012854
    18   Atom        0.039824     -0.025742     -0.014083
    19   Atom       -0.009729      0.030693     -0.020965
 --------------------------------------------------------
                        XY            XZ            YZ
 --------------------------------------------------------
     1   Atom       -0.110595      0.048344     -0.085019
     2   Atom        0.029013     -0.017952     -0.041227
     3   Atom        0.028948      0.021612      0.029763
     4   Atom       -0.023707      0.042064     -0.032873
     5   Atom        0.001531      0.035530     -0.001338
     6   Atom        0.014283     -0.090235     -0.025413
     7   Atom        0.026763     -0.027701     -0.020074
     8   Atom        0.027700      0.024550      0.078701
     9   Atom       -0.012455     -0.001591      0.014075
    10   Atom       -0.003912      0.065926     -0.004847
    11   Atom       -0.028862      0.020632     -0.008354
    12   Atom        0.077761     -0.003183      0.030395
[...]
    15  H   -0.000052   0.000001   0.330785  -0.000053   0.000000  -0.000052
    16  H    0.000001   0.000001  -0.000053   0.330766   0.000001  -0.000052
    17  H    0.000001  -0.000052   0.000000   0.000001   0.330786   0.000001
    18  H   -0.000000   0.000000  -0.000052  -0.000052   0.000001   0.330751
    19  H    0.000001   0.000001   0.000001  -0.000000  -0.000053  -0.000053
              19
     1  V   -0.010000
     2  O   -0.000341
     3  H    0.000000
     4  O    0.001596
     5  H   -0.000052
     6  O    0.004810
     7  H   -0.000053
     8  O    0.289480
     9  H   -0.018424
    10  O    0.001605
    11  H    0.000001
    12  O    0.000688
    13  H    0.000001
    14  H    0.000001
    15  H    0.000001
    16  H   -0.000000
    17  H   -0.000053
    18  H   -0.000053
    19  H    0.330789
          Atomic-Atomic Spin Densities.
               1          2          3          4          5          6
     1  V    3.231646  -0.022334  -0.005351  -0.022407  -0.005329  -0.022313
     2  O   -0.022334  -0.006027   0.003439   0.002770  -0.000294   0.002744
     3  H   -0.005351   0.003439   0.004983  -0.000022   0.000000  -0.000292
     4  O   -0.022407   0.002770  -0.000022  -0.005850   0.003429   0.002736
     5  H   -0.005329  -0.000294   0.000000   0.003429   0.004967  -0.000025
     6  O   -0.022313   0.002744  -0.000292   0.002736  -0.000025  -0.006009
     7  H   -0.005347  -0.000027   0.000000  -0.000293   0.000000   0.003441
     8  O   -0.022334  -0.001189  -0.000019   0.002754   0.001292   0.002754
     9  H   -0.005340  -0.000018  -0.000000  -0.000028  -0.000001  -0.000294
    10  O   -0.022408   0.002754  -0.000024  -0.001175  -0.000019   0.002734
    11  H   -0.005329   0.001292  -0.000001  -0.000019   0.000000  -0.000027
    12  O   -0.022314   0.002753   0.001305   0.002735  -0.000026  -0.001184
    13  H   -0.005347  -0.000025  -0.000001   0.001298  -0.000001  -0.000019
    14  H   -0.005345  -0.000024  -0.000001  -0.000293   0.000000  -0.000019
    15  H   -0.005348   0.001304  -0.000001   0.003433  -0.001908  -0.000023
    16  H   -0.005340   0.003445  -0.001909  -0.000028   0.000000   0.001292
    17  H   -0.005348  -0.000293   0.000000  -0.000019  -0.000000  -0.000022
    18  H   -0.005346  -0.000023   0.000000   0.001298  -0.000001   0.003435
    19  H   -0.005351  -0.000019   0.000000  -0.000023  -0.000001   0.001305
               7          8          9         10         11         12
     1  V   -0.005347  -0.022334  -0.005340  -0.022408  -0.005329  -0.022314
     2  O   -0.000027  -0.001189  -0.000018   0.002754   0.001292   0.002753
     3  H    0.000000  -0.000019  -0.000000  -0.000024  -0.000001   0.001305
     4  O   -0.000293   0.002754  -0.000028  -0.001175  -0.000019   0.002735
     5  H    0.000000   0.001292  -0.000001  -0.000019   0.000000  -0.000026
     6  O    0.003441   0.002754  -0.000294   0.002734  -0.000027  -0.001184
     7  H    0.004972  -0.000026   0.000000   0.001298  -0.000001  -0.000019
     8  O   -0.000026  -0.006027   0.003445   0.002770  -0.000294   0.002743
     9  H    0.000000   0.003445   0.004964  -0.000027   0.000000   0.001292
    10  O    0.001298   0.002770  -0.000027  -0.005846   0.003429   0.002735
    11  H   -0.000001  -0.000294   0.000000   0.003429   0.004967  -0.000025
    12  O   -0.000019   0.002743   0.001292   0.002735  -0.000025  -0.006006
    13  H    0.000000  -0.000027  -0.000001  -0.000293   0.000000   0.003442
    14  H   -0.000000  -0.000023  -0.000001   0.001298  -0.000001   0.003435
    15  H    0.000000  -0.000293   0.000000  -0.000019  -0.000000  -0.000023
    16  H   -0.000001  -0.000019   0.000000  -0.000027  -0.000001  -0.000294
    17  H   -0.000001   0.001304  -0.000001   0.003433  -0.001908  -0.000024
    18  H   -0.001908  -0.000023   0.000000  -0.000293   0.000000  -0.000019
    19  H   -0.000001   0.003439  -0.001909  -0.000023   0.000000  -0.000292
              13         14         15         16         17         18
     1  V   -0.005347  -0.005345  -0.005348  -0.005340  -0.005348  -0.005346
     2  O   -0.000025  -0.000024   0.001304   0.003445  -0.000293  -0.000023
     3  H   -0.000001  -0.000001  -0.000001  -0.001909   0.000000   0.000000
     4  O    0.001298  -0.000293   0.003433  -0.000028  -0.000019   0.001298
     5  H   -0.000001   0.000000  -0.001908   0.000000  -0.000000  -0.000001
     6  O   -0.000019  -0.000019  -0.000023   0.001292  -0.000022   0.003435
     7  H    0.000000  -0.000000   0.000000  -0.000001  -0.000001  -0.001908
     8  O   -0.000027  -0.000023  -0.000293  -0.000019   0.001304  -0.000023
     9  H   -0.000001  -0.000001   0.000000   0.000000  -0.000001   0.000000
    10  O   -0.000293   0.001298  -0.000019  -0.000027   0.003433  -0.000293
    11  H    0.000000  -0.000001  -0.000000  -0.000001  -0.001908   0.000000
    12  O    0.003442   0.003435  -0.000023  -0.000294  -0.000024  -0.000019
    13  H    0.004971  -0.001908  -0.000001   0.000000   0.000000  -0.000000
    14  H   -0.001908   0.004977   0.000000   0.000000  -0.000001   0.000000
    15  H   -0.000001   0.000000   0.004985  -0.000001   0.000000  -0.000001
    16  H    0.000000   0.000000  -0.000001   0.004963   0.000000  -0.000001
    17  H    0.000000  -0.000001   0.000000   0.000000   0.004984   0.000000
    18  H   -0.000000   0.000000  -0.000001  -0.000001   0.000000   0.004976
    19  H    0.000000   0.000000   0.000000  -0.000000  -0.000001  -0.000001
              19
     1  V   -0.005351
     2  O   -0.000019
     3  H    0.000000
     4  O   -0.000023
     5  H   -0.000001
     6  O    0.001305
     7  H   -0.000001
     8  O    0.003439
     9  H   -0.001909
    10  O   -0.000023
    11  H    0.000000
    12  O   -0.000292
    13  H    0.000000
    14  H    0.000000
    15  H    0.000000
    16  H   -0.000000
    17  H   -0.000001
    18  H   -0.000001
    19  H    0.004983
 Mulliken charges and spin densities:
               1          2
     1  V    1.291653   3.033415
     2  O   -0.681991  -0.009771
     3  H    0.400006   0.002105
     4  O   -0.682067  -0.009703
     5  H    0.400098   0.002082
     6  O   -0.682024  -0.009786
     7  H    0.400013   0.002089
     8  O   -0.681993  -0.009771
     9  H    0.400064   0.002080
    10  O   -0.682051  -0.009703
    11  H    0.400097   0.002082
    12  O   -0.682006  -0.009786
    13  H    0.400009   0.002088
    14  H    0.400051   0.002094
    15  H    0.400014   0.002104
    16  H    0.400062   0.002079
    17  H    0.400012   0.002104
    18  H    0.400050   0.002094
    19  H    0.400004   0.002105
 Sum of Mulliken charges =   2.00000   3.00000
 Mulliken charges and spin densities with hydrogens summed into heavy atoms:
               1          2
     1  V    1.291653   3.033415
     2  O    0.118077  -0.005587
     4  O    0.118045  -0.005517
     6  O    0.118039  -0.005604
     8  O    0.118075  -0.005587
    10  O    0.118058  -0.005517
    12  O    0.118054  -0.005603
 Electronic spatial extent (au):  <R**2>=           1188.7723
 Charge=              2.0000 electrons
 Dipole moment (field-independent basis, Debye):
    X=              0.0000    Y=              0.0002    Z=             -0.0000  Tot=              0.0002
 Quadrupole moment (field-independent basis, Debye-Ang):
   XX=            -16.5093   YY=            -16.5055   ZZ=            -16.5390
   XY=             -0.0047   XZ=             -0.0084   YZ=              0.0073
 Traceless Quadrupole moment (field-independent basis, Debye-Ang):
   XX=              0.0086   YY=              0.0124   ZZ=             -0.0211
   XY=             -0.0047   XZ=             -0.0084   YZ=              0.0073
 Octapole moment (field-independent basis, Debye-Ang**2):
  XXX=              0.0011  YYY=             -0.0004  ZZZ=              0.0023  XYY=              0.0016
  XXY=              0.0002  XXZ=             -0.0030  XZZ=             -0.0027  YZZ=              0.0005
  YYZ=              0.0007  XYZ=              0.0013
 Hexadecapole moment (field-independent basis, Debye-Ang**3):
 XXXX=           -262.2033 YYYY=           -237.7768 ZZZZ=           -265.7861 XXXY=              0.2788
 XXXZ=            -29.8779 YYYX=             -0.9301 YYYZ=             -0.5923 ZZZX=            -22.8910
 ZZZY=              0.5239 XXYY=            -64.0753 XXZZ=            -35.4898 YYZZ=            -59.3449
 XXYZ=              0.1363 YYXZ=             52.7037 ZZXY=              0.6145
 N-N= 6.067462502940D+02 E-N=-4.507554496492D+03  KE= 1.397515188647D+03
                          Isotropic Fermi Contact Couplings
        Atom                 a.u.       MegaHertz       Gauss      10(-4) cm-1
     1  V(51)              0.00287       1.12749       0.40232       0.37609
     2  O(17)             -0.01347       2.72092       0.97089       0.90760
     3  H(1)               0.00155       2.30694       0.82317       0.76951
     4  O(17)             -0.01340       2.70851       0.96646       0.90346
     5  H(1)               0.00154       2.29622       0.81935       0.76594
     6  O(17)             -0.01344       2.71655       0.96933       0.90614
     7  H(1)               0.00154       2.29892       0.82031       0.76684
     8  O(17)             -0.01347       2.72093       0.97090       0.90761
     9  H(1)               0.00154       2.29411       0.81859       0.76523
    10  O(17)             -0.01340       2.70847       0.96645       0.90345
    11  H(1)               0.00154       2.29611       0.81931       0.76590
    12  O(17)             -0.01344       2.71653       0.96932       0.90614
    13  H(1)               0.00154       2.29847       0.82015       0.76669
    14  H(1)               0.00155       2.30275       0.82168       0.76811
    15  H(1)               0.00155       2.30728       0.82330       0.76963
    16  H(1)               0.00154       2.29381       0.81849       0.76513
    17  H(1)               0.00155       2.30706       0.82322       0.76955
    18  H(1)               0.00155       2.30261       0.82163       0.76807
    19  H(1)               0.00155       2.30666       0.82308       0.76942
 --------------------------------------------------------
       Center         ----  Spin Dipole Couplings  ----
                      3XX-RR        3YY-RR        3ZZ-RR
 --------------------------------------------------------
     1   Atom       -0.001010     -0.000164      0.001174
     2   Atom        0.003668     -0.006185      0.002517
     3   Atom        0.020296     -0.015674     -0.004622
     4   Atom       -0.016942      0.030026     -0.013084
     5   Atom       -0.015188      0.007091      0.008097
     6   Atom        0.013324     -0.023727      0.010403
     7   Atom        0.002698     -0.007362      0.004665
     8   Atom        0.003700     -0.006262      0.002562
     9   Atom       -0.002452     -0.015770      0.018222
    10   Atom       -0.017046      0.030018     -0.012972
    11   Atom       -0.015196      0.007117      0.008079
    12   Atom        0.013270     -0.023734      0.010464
    13   Atom        0.002711     -0.007366      0.004655
    14   Atom       -0.012656      0.024736     -0.012080
    15   Atom        0.007424      0.007004     -0.014428
    16   Atom       -0.002463     -0.015773      0.018236
    17   Atom        0.007438      0.006982     -0.014420
    18   Atom       -0.012651      0.024741     -0.012089
    19   Atom        0.020290     -0.015671     -0.004620
 --------------------------------------------------------
                        XY            XZ            YZ
 --------------------------------------------------------
     1   Atom       -0.000012      0.000009      0.000015
     2   Atom       -0.036994     -0.010478     -0.038737
     3   Atom        0.009720     -0.022980     -0.006341
     4   Atom        0.011345      0.045315      0.012039
     5   Atom       -0.008845      0.009623     -0.025622
     6   Atom        0.025652     -0.034843      0.026634
     7   Atom        0.015431      0.021457      0.016155
     8   Atom       -0.036989     -0.010440     -0.038742
     9   Atom       -0.006643     -0.024050      0.009215
    10   Atom        0.011271      0.045318      0.012118
    11   Atom       -0.008842      0.009610     -0.025625
    12   Atom        0.025695     -0.034851      0.026594
    13   Atom        0.015435      0.021460      0.016149
    14   Atom        0.015601      0.005428      0.016425
    15   Atom       -0.025290      0.010506     -0.009806
    16   Atom       -0.006637     -0.024048      0.009212
    17   Atom       -0.025288      0.010517     -0.009809
    18   Atom        0.015608      0.005427      0.016416
    19   Atom        0.009729     -0.022980     -0.006347
 --------------------------------------------------------


 ---------------------------------------------------------------------------------
              Anisotropic Spin Dipole Couplings in Principal Axis System
 ---------------------------------------------------------------------------------

       Atom             a.u.   MegaHertz   Gauss  10(-4) cm-1        Axes

              Baa    -0.0010    -0.142    -0.051    -0.047  0.9999  0.0141 -0.0044
     1 V(51)  Bbb    -0.0002    -0.023    -0.008    -0.008 -0.0141  0.9998 -0.0113
              Bcc     0.0012     0.165     0.059     0.055  0.0043  0.0114  0.9999
 
              Baa    -0.0604     4.368     1.558     1.457  0.4905  0.7031  0.5149
     2 O(17)  Bbb     0.0136    -0.983    -0.351    -0.328  0.7227  0.0020 -0.6912
              Bcc     0.0468    -3.385    -1.208    -1.129 -0.4870  0.7111 -0.5071
 
              Baa    -0.0187   -10.000    -3.568    -3.336  0.2457  0.6698  0.7007
     3 H(1)   Bbb    -0.0178    -9.503    -3.391    -3.170 -0.4875  0.7102 -0.5079
              Bcc     0.0366    19.502     6.959     6.505  0.8379  0.2168 -0.5010
 
              Baa    -0.0604     4.368     1.559     1.457  0.7218  0.0016 -0.6921
     4 O(17)  Bbb     0.0136    -0.987    -0.352    -0.329 -0.4879  0.7105 -0.5071
              Bcc     0.0467    -3.381    -1.206    -1.128  0.4909  0.7037  0.5136
 
              Baa    -0.0187    -9.993    -3.566    -3.333  0.8360 -0.2147 -0.5050
     5 H(1)   Bbb    -0.0178    -9.493    -3.387    -3.167  0.4910  0.7035  0.5138
              Bcc     0.0365    19.486     6.953     6.500  0.2449 -0.6775  0.6936
 
              Baa    -0.0603     4.367     1.558     1.457 -0.4874  0.7105 -0.5075
     6 O(17)  Bbb     0.0136    -0.985    -0.351    -0.329  0.4905  0.7037  0.5140
              Bcc     0.0467    -3.382    -1.207    -1.128  0.7223  0.0016 -0.6915
 
              Baa    -0.0187    -9.995    -3.567    -3.334 -0.3132  0.8912 -0.3281
     7 H(1)   Bbb    -0.0178    -9.496    -3.389    -3.168  0.7232 -0.0002 -0.6907
              Bcc     0.0365    19.492     6.955     6.502  0.6156  0.4536  0.6444
 
              Baa    -0.0604     4.368     1.558     1.457  0.4901  0.7036  0.5145
     8 O(17)  Bbb     0.0136    -0.983    -0.351    -0.328  0.7228  0.0019 -0.6910
              Bcc     0.0468    -3.385    -1.208    -1.129 -0.4872  0.7106 -0.5077
 
              Baa    -0.0187    -9.994    -3.566    -3.334  0.6880  0.6691  0.2809
     9 H(1)   Bbb    -0.0178    -9.494    -3.388    -3.167 -0.4858  0.7122 -0.5067
              Bcc     0.0365    19.489     6.954     6.501 -0.5391  0.2121  0.8151
 
              Baa    -0.0604     4.369     1.559     1.457  0.7225  0.0026 -0.6914
    10 O(17)  Bbb     0.0136    -0.987    -0.352    -0.329 -0.4877  0.7107 -0.5070
              Bcc     0.0467    -3.382    -1.207    -1.128  0.4900  0.7035  0.5147
 
              Baa    -0.0187    -9.993    -3.566    -3.333  0.8368 -0.2135 -0.5041
    11 H(1)   Bbb    -0.0178    -9.493    -3.387    -3.167  0.4897  0.7036  0.5150
              Bcc     0.0365    19.486     6.953     6.500  0.2447 -0.6778  0.6933
 
              Baa    -0.0604     4.367     1.558     1.457 -0.4880  0.7105 -0.5070
    12 O(17)  Bbb     0.0136    -0.985    -0.351    -0.328  0.4906  0.7036  0.5140
              Bcc     0.0467    -3.383    -1.207    -1.128  0.7220  0.0021 -0.6919
 
              Baa    -0.0187    -9.996    -3.567    -3.334 -0.3139  0.8912 -0.3274
    13 H(1)   Bbb    -0.0178    -9.497    -3.389    -3.168  0.7227  0.0006 -0.6912
              Bcc     0.0365    19.492     6.955     6.502  0.6158  0.4535  0.6443
 
              Baa    -0.0187    -9.997    -3.567    -3.335  0.6165 -0.4621  0.6375
    14 H(1)   Bbb    -0.0178    -9.499    -3.390    -3.169  0.7202  0.0037 -0.6937
              Bcc     0.0365    19.496     6.957     6.503  0.3182  0.8868  0.3351
 
              Baa    -0.0187    -9.999    -3.568    -3.335 -0.5382 -0.2187  0.8139
    15 H(1)   Bbb    -0.0178    -9.504    -3.391    -3.170  0.4911  0.7035  0.5138
              Bcc     0.0366    19.503     6.959     6.505  0.6849 -0.6762  0.2712
 
              Baa    -0.0187    -9.995    -3.566    -3.334  0.6884  0.6686  0.2812
    16 H(1)   Bbb    -0.0178    -9.495    -3.388    -3.167 -0.4855  0.7128 -0.5062
              Bcc     0.0365    19.489     6.954     6.501 -0.5389  0.2120  0.8153
 
              Baa    -0.0187    -9.999    -3.568    -3.335 -0.5392 -0.2201  0.8129
    17 H(1)   Bbb    -0.0178    -9.504    -3.391    -3.170  0.4897  0.7033  0.5153
              Bcc     0.0366    19.503     6.959     6.505  0.6851 -0.6759  0.2714
 
              Baa    -0.0187    -9.997    -3.567    -3.335  0.6157 -0.4620  0.6383
    18 H(1)   Bbb    -0.0178    -9.500    -3.390    -3.169  0.7208  0.0030 -0.6931
              Bcc     0.0365    19.497     6.957     6.503  0.3183  0.8869  0.3349
 
              Baa    -0.0187   -10.000    -3.568    -3.336  0.2452  0.6705  0.7003
    19 H(1)   Bbb    -0.0178    -9.503    -3.391    -3.170 -0.4879  0.7095 -0.5085
              Bcc     0.0366    19.503     6.959     6.506  0.8378  0.2170 -0.5010
 

 ---------------------------------------------------------------------------------

 No NMR shielding tensors so no spin-rotation constants.
 Leave Link  601 at Thu May 23 18:34:21 2024, MaxMem= 26843545600 cpu:              29.1 elap:               0.3
 (Enter /gpfs/fs1/soft/improv/software/custom-built/gaussian/g16/l9999.exe)
 Unable to Open any file for archive entry.
 1\1\GINC-I182\SP\UBLYP\Gen\H12O6V1(2+,4)\HHARB\23-May-2024\0\\#p BLYP 
 empiricaldispersion=gd3 scf=(maxcycles=500,xqc,maxconventional=50) scr
 f=(cpcm,solvent=water) geom=allcheck guess=read chkbasis\\Title\\2,4\V
 ,-0.7848284709,0.7129476975,0.0317770514\O,-1.3674120693,2.7686900067,
 -0.3094653186\H,-1.4816989854,3.203550824,-1.176849581\O,1.2952081581,
 1.3089359009,0.0557461987\H,2.066891412,0.7238339211,0.1847760368\O,-0
 .9004756496,1.0322190283,2.1688225504\H,-1.6868223558,0.904066238,2.73
 42809323\O,-0.2023355631,-1.3427975962,0.3731584381\H,-0.0023723466,-2
 .0121328334,-0.3098470584\O,-2.8648503636,0.1169354832,0.0077254134\H,
 -3.6364740418,0.7018484633,-0.1225217194\O,-0.669056043,0.3937190221,-
 2.1052609649\H,0.1171801387,0.5225294161,-2.6707237328\H,-1.3925562432
 ,0.0904764072,-2.6875804024\H,1.6408123295,2.215359033,-0.0603458387\H
 ,-1.567963086,3.4377615864,0.3736266603\H,-3.2105061433,-0.789318361,0
 .1249676952\H,-0.176722743,1.3348455597,2.7511490551\H,-0.0875355036,-
 1.777390027,1.2406099946\\Version=ES64L-G16RevC.02\State=4-A\HF=-1402.
 3896817\S2=3.752765\S2-1=0.\S2A=3.750003\RMSD=4.033e-09\Dipole=0.00004
 17,0.0000154,0.0000511\Quadrupole=-0.0094669,0.0078579,0.001609,0.0105
 187,0.0088155,-0.0008035\PG=C01 [X(H12O6V1)]\\@
 The archive entry for this job was punched.


 What some people mistake for the high cost
 of living is really the cost of living high.
                              -- Doug Larson
 Job cpu time:       0 days  1 hours  1 minutes 39.0 seconds.
 Elapsed time:       0 days  0 hours  0 minutes 31.7 seconds.
 File lengths (MBytes):  RWF=    123 Int=      0 D2E=      0 Chk=     32 Scr=      1
 Normal termination of Gaussian 16 at Thu May 23 18:34:21 2024.
