 Entering Gaussian System, Link 0=g16
 Input=V_3_BLYP.com
 Output=V_3_BLYP.log
 Initial command:
 /gpfs/fs1/soft/improv/software/custom-built/gaussian/g16/l1.exe "/scratch/Gau-289209.inp" -scrdir="/scratch/"
 Default CPUs for threads: 0-127
 Default linda workers: i225.lcrc.anl.gov
 Default is to use 128 SMP processors on each worker.
 Entering Link 1 = /gpfs/fs1/soft/improv/software/custom-built/gaussian/g16/l1.exe PID=    289210.
  
 Copyright (c) 1988-2021, Gaussian, Inc.  All Rights Reserved.
  
 This is part of the Gaussian(R) 16 program.  It is based on
 the Gaussian(R) 09 system (copyright 2009, Gaussian, Inc.),
 the Gaussian(R) 03 system (copyright 2003, Gaussian, Inc.),
 the Gaussian(R) 98 system (copyright 1998, Gaussian, Inc.),
 the Gaussian(R) 94 system (copyright 1995, Gaussian, Inc.),
 the Gaussian 92(TM) system (copyright 1992, Gaussian, Inc.),
 the Gaussian 90(TM) system (copyright 1990, Gaussian, Inc.),
 the Gaussian 88(TM) system (copyright 1988, Gaussian, Inc.),
 the Gaussian 86(TM) system (copyright 1986, Carnegie Mellon
 University), and the Gaussian 82(TM) system (copyright 1983,
 Carnegie Mellon University). Gaussian is a federally registered
 trademark of Gaussian, Inc.
  
 This software contains proprietary and confidential information,
 including trade secrets, belonging to Gaussian, Inc.
  
 This software is provided under written license and may be
 used, copied, transmitted, or stored only in accord with that
 written license.
  
 The following legend is applicable only to US Government
 contracts under FAR:
  
                    RESTRICTED RIGHTS LEGEND
  
 Use, reproduction and disclosure by the US Government is
 subject to restrictions as set forth in subparagraphs (a)
 and (c) of the Commercial Computer Software - Restricted
 Rights clause in FAR 52.227-19.
  
 Gaussian, Inc.
 340 Quinnipiac St., Bldg. 40, Wallingford CT 06492
  
  
 ---------------------------------------------------------------
 Warning -- This program may not be used in any manner that
 competes with the business of Gaussian, Inc. or will provide
 assistance to any competitor of Gaussian, Inc.  The licensee
 of this program is prohibited from giving any competitor of
 Gaussian, Inc. access to this program.  By using this program,
 the user acknowledges that Gaussian, Inc. is engaged in the
 business of creating and licensing software in the field of
 computational chemistry and represents and warrants to the
 licensee that it is not a competitor of Gaussian, Inc. and that
 it will not use this program in any manner prohibited above.
 ---------------------------------------------------------------
  

 Cite this work as:
 Gaussian 16, Revision C.02,
 M. J. Frisch, G. W. Trucks, H. B. Schlegel, G. E. Scuseria, 
 M. A. Robb, J. R. Cheeseman, G. Scalmani, V. Barone, 
 G. A. Petersson, H. Nakatsuji, X. Li, M. Caricato, A. V. Marenich, 
 J. Bloino, B. G. Janesko, R. Gomperts, B. Mennucci, H. P. Hratchian, 
 J. V. Ortiz, A. F. Izmaylov, J. L. Sonnenberg, D. Williams-Young, 
 F. Ding, F. Lipparini, F. Egidi, J. Goings, B. Peng, A. Petrone, 
 T. Henderson, D. Ranasinghe, V. G. Zakrzewski, J. Gao, N. Rega, 
 G. Zheng, W. Liang, M. Hada, M. Ehara, K. Toyota, R. Fukuda, 
 J. Hasegawa, M. Ishida, T. Nakajima, Y. Honda, O. Kitao, H. Nakai, 
 T. Vreven, K. Throssell, J. A. Montgomery, Jr., J. E. Peralta, 
 F. Ogliaro, M. J. Bearpark, J. J. Heyd, E. N. Brothers, K. N. Kudin, 
 V. N. Staroverov, T. A. Keith, R. Kobayashi, J. Normand, 
 K. Raghavachari, A. P. Rendell, J. C. Burant, S. S. Iyengar, 
 J. Tomasi, M. Cossi, J. M. Millam, M. Klene, C. Adamo, R. Cammi, 
 J. W. Ochterski, R. L. Martin, K. Morokuma, O. Farkas, 
 J. B. Foresman, and D. J. Fox, Gaussian, Inc., Wallingford CT, 2019.
 
 ******************************************
 Gaussian 16:  ES64L-G16RevC.02  7-Dec-2021
                23-May-2024 
 ******************************************
 %chk=V_3_BLYP.chk
 SetSPE:  set environment variable "OMP_PROC_BIND" = "true"
 SetSPE:  set environment variable "OMP_PLACES" = "{0},{1},{2},{3},{4},{5},{6},{7},{8},{9},{10},{11},{12},{13},{14},{15},{16},{17},{18},{19},{20},{21},{22},{23},{24},{25},{26},{27},{28},{29},{30},{31},{32},{33},{34},{35},{36},{37},{38},{39},{40},{41},{42},{43},{44},{45},{46},{47},{48},{49},{50},{51},{52},{53},{54},{55},{56},{57},{58},{59},{60},{61},{62},{63},{64},{65},{66},{67},{68},{69},{70},{71},{72},{73},{74},{75},{76},{77},{78},{79},{80},{81},{82},{83},{84},{85},{86},{87},{88},{89},{90},{91},{92},{93},{94},{95},{96},{97},{98},{99},{100},{101},{102},{103},{104},{105},{106},{107},{108},{109},{110},{111},{112},{113},{114},{115},{116},{117},{118},{119},{120},{121},{122},{123},{124},{125},{126},{127}"
 SetLPE:    new flags="-opt 'Tsnet.Node.lindarsharg: ssh'  -nodelist 'i225.lcrc.anl.gov' -env GAUSS_MDEF=26843545600 -env GAUSS_EXEDIR="/gpfs/fs1/soft/improv/software/custom-built/gaussian/g16/bsd:/gpfs/fs1/soft/improv/software/custom-built/gaussian/g16" -env "OMP_PROC_BIND=true" -env "OMP_PLACES={0},{1},{2},{3},{4},{5},{6},{7},{8},{9},{10},{11},{12},{13},{14},{15},{16},{17},{18},{19},{20},{21},{22},{23},{24},{25},{26},{27},{28},{29},{30},{31},{32},{33},{34},{35},{36},{37},{38},{39},{40},{41},{42},{43},{44},{45},{46},{47},{48},{49},{50},{51},{52},{53},{54},{55},{56},{57},{58},{59},{60},{61},{62},{63},{64},{65},{66},{67},{68},{69},{70},{71},{72},{73},{74},{75},{76},{77},{78},{79},{80},{81},{82},{83},{84},{85},{86},{87},{88},{89},{90},{91},{92},{93},{94},{95},{96},{97},{98},{99},{100},{101},{102},{103},{104},{105},{106},{107},{108},{109},{110},{111},{112},{113},{114},{115},{116},{117},{118},{119},{120},{121},{122},{123},{124},{125},{126},{127}" -env GAUSS_ADEF="0,1,2,3,4,5,6,7,8,9,10,11,12,13,14,15,16,17,18,19,20,21,22,23,24,25,26,27,28,29,30,31,32,33,34,35,36,37,38,39,40,41,42,43,44,45,46,47,48,49,50,51,52,53,54,55,56,57,58,59,60,61,62,63,64,65,66,67,68,69,70,71,72,73,74,75,76,77,78,79,80,81,82,83,84,85,86,87,88,89,90,91,92,93,94,95,96,97,98,99,100,101,102,103,104,105,106,107,108,109,110,111,112,113,114,115,116,117,118,119,120,121,122,123,124,125,126,127""
 Will use up to    1 processors via Linda.
 ----------------------------------------------------------------------
 #p BLYP empiricaldispersion=gd3 6-31+G(2df,p) opt=(cartesian,calcall,m
 axcycles=500) freq scf=(maxcycles=500,xqc,maxconventional=50)
 ----------------------------------------------------------------------
 1/6=500,10=4,18=10,26=3,38=1/1,3;
 2/12=2,17=6,18=5,29=2,40=1/2;
 3/5=1,6=6,7=114,11=2,25=1,30=1,71=2,74=402,124=31,140=1/1,2,3;
 4//1;
 5/5=2,7=500,8=3,13=1,38=5,85=50/2,8;
 8/6=4,10=90,11=11/1;
 11/6=1,8=1,9=11,15=111,16=1/1,2,10;
 10/6=1/2;
 6/7=2,8=2,9=2,10=2,18=1,28=1/1;
 7/7=1,10=1,25=1/1,2,3,16;
 1/6=500,10=4,18=10,26=3/3(3);
 2/29=1/2;
 7/7=1,8=1,9=1,25=1,44=-1/16;
 99/12=1/99;
 2/29=1/2;
 3/5=1,6=6,7=114,11=2,25=1,30=1,71=2,74=402,124=31,140=1/1,2,3;
 4/5=5,16=3,69=1/1;
 5/5=2,7=500,8=3,13=1,38=5,85=50/2,8;
 8/6=4,10=90,11=11/1;
 11/6=1,8=1,9=11,15=111,16=1/1,2,10;
 10/6=1/2;
 7/7=1,10=1,25=1/1,2,3,16;
 1/6=500,10=4,18=10,26=3/3(-8);
 2/29=1/2;
 6/7=2,8=2,9=2,10=2,18=1,19=2,28=1/1;
 7/7=1,8=1,9=1,25=1,44=-1/16;
 99/12=1/99;
 Leave Link    1 at Thu May 23 17:35:41 2024, MaxMem=           0 cpu:               2.7 elap:               0.1
 (Enter /gpfs/fs1/soft/improv/software/custom-built/gaussian/g16/l101.exe)
 -----
 Title
 -----
 Symbolic Z-matrix:
 Charge =  3 Multiplicity = 3
 V                    -0.79304   0.81881  -0.09491 
 O                    -1.20497   2.57394  -0.35687 
 H                    -2.12106   2.64974  -0.63312 
 O                     0.99012   1.19063  -0.05794 
 H                     1.42696   0.5998    0.55971 
 O                    -0.81752   1.03069   1.71365 
 H                    -1.02108   0.1906    2.13133 
 O                    -0.38507  -0.93351   0.17118 
 H                    -1.15682  -1.47369  -0.01433 
 O                    -2.57341   0.45178  -0.12186 
 H                    -2.77756  -0.08744  -0.88929 
 O                    -0.76966   0.60461  -1.90111 
 H                     0.09872   0.83457  -2.23949 
 H                    -0.96534  -0.30999  -2.11742 
 H                     1.12208   2.09943   0.22124 
 H                    -1.07671   3.0584    0.46184 
 H                    -2.81407  -0.02398   0.6765 
 H                     0.0422    1.33615   2.01181 
 H                    -0.11532  -1.06446   1.08312 
 
 ITRead=  0  0  0  0  0  0  0  0  0  0  0  0  0  0  0  0  0  0  0
 MicOpt= -1 -1 -1 -1 -1 -1 -1 -1 -1 -1 -1 -1 -1 -1 -1 -1 -1 -1 -1
 NAtoms=     19 NQM=       19 NQMF=       0 NMMI=      0 NMMIF=      0
                NMic=       0 NMicF=      0.
                    Isotopes and Nuclear Properties:
 (Nuclear quadrupole moments (NQMom) in fm**2, nuclear magnetic moments (NMagM)
  in nuclear magnetons)

  Atom         1           2           3           4           5           6           7           8           9          10
 IAtWgt=          51          16           1          16           1          16           1          16           1          16
 AtmWgt=  50.9439625  15.9949146   1.0078250  15.9949146   1.0078250  15.9949146   1.0078250  15.9949146   1.0078250  15.9949146
 NucSpn=           7           0           1           0           1           0           1           0           1           0
 AtZEff=  -0.0000000  -0.0000000  -0.0000000  -0.0000000  -0.0000000  -0.0000000  -0.0000000  -0.0000000  -0.0000000  -0.0000000
 NQMom=   -5.2000000   0.0000000   0.0000000   0.0000000   0.0000000   0.0000000   0.0000000   0.0000000   0.0000000   0.0000000
 NMagM=    5.1514000   0.0000000   2.7928460   0.0000000   2.7928460   0.0000000   2.7928460   0.0000000   2.7928460   0.0000000
 AtZNuc=  23.0000000   8.0000000   1.0000000   8.0000000   1.0000000   8.0000000   1.0000000   8.0000000   1.0000000   8.0000000

  Atom        11          12          13          14          15          16          17          18          19
 IAtWgt=           1          16           1           1           1           1           1           1           1
 AtmWgt=   1.0078250  15.9949146   1.0078250   1.0078250   1.0078250   1.0078250   1.0078250   1.0078250   1.0078250
 NucSpn=           1           0           1           1           1           1           1           1           1
 AtZEff=  -0.0000000  -0.0000000  -0.0000000  -0.0000000  -0.0000000  -0.0000000  -0.0000000  -0.0000000  -0.0000000
 NQMom=    0.0000000   0.0000000   0.0000000   0.0000000   0.0000000   0.0000000   0.0000000   0.0000000   0.0000000
 NMagM=    2.7928460   0.0000000   2.7928460   2.7928460   2.7928460   2.7928460   2.7928460   2.7928460   2.7928460
 AtZNuc=   1.0000000   8.0000000   1.0000000   1.0000000   1.0000000   1.0000000   1.0000000   1.0000000   1.0000000
 Leave Link  101 at Thu May 23 17:35:41 2024, MaxMem= 26843545600 cpu:               0.4 elap:               0.1
 (Enter /gpfs/fs1/soft/improv/software/custom-built/gaussian/g16/l103.exe)

 GradGradGradGradGradGradGradGradGradGradGradGradGradGradGradGradGradGrad
 Berny optimization.
 Initialization pass.
 No Z-matrix variables, so optimization will use Cartesian coordinates.
 Trust Radius=3.00D-01 FncErr=1.00D-07 GrdErr=1.00D-06 EigMax=2.50D+02 EigMin=1.00D-04
 Number of steps in this run=    114 maximum allowed number of steps=    114.
 GradGradGradGradGradGradGradGradGradGradGradGradGradGradGradGradGradGrad

 Leave Link  103 at Thu May 23 17:35:41 2024, MaxMem= 26843545600 cpu:               0.4 elap:               0.1
 (Enter /gpfs/fs1/soft/improv/software/custom-built/gaussian/g16/l202.exe)
 ---------------------------------------------------------------------------------------------------
                            Z-MATRIX (ANGSTROMS AND DEGREES)
   CD    Cent   Atom    N1       Length/X        N2       Alpha/Y        N3        Beta/Z          J
 ---------------------------------------------------------------------------------------------------
      1      1  V        0  -0.793037          0.818805         -0.094905
      2      2  O        0  -1.204971          2.573941         -0.356874
      3      3  H        0  -2.121063          2.649743         -0.633122
      4      4  O        0   0.990122          1.190635         -0.057941
      5      5  H        0   1.426962          0.599798          0.559707
      6      6  O        0  -0.817519          1.030691          1.713650
      7      7  H        0  -1.021079          0.190602          2.131326
      8      8  O        0  -0.385068         -0.933506          0.171177
      9      9  H        0  -1.156817         -1.473692         -0.014327
     10     10  O        0  -2.573405          0.451778         -0.121857
     11     11  H        0  -2.777557         -0.087440         -0.889285
     12     12  O        0  -0.769659          0.604612         -1.901109
     13     13  H        0   0.098725          0.834573         -2.239490
     14     14  H        0  -0.965336         -0.309994         -2.117418
     15     15  H        0   1.122081          2.099426          0.221242
     16     16  H        0  -1.076711          3.058396          0.461841
     17     17  H        0  -2.814074         -0.023981          0.676500
     18     18  H        0   0.042204          1.336153          2.011809
     19     19  H        0  -0.115315         -1.064459          1.083123
 ---------------------------------------------------------------------------------------------------
                         Z-Matrix orientation:                         
 ---------------------------------------------------------------------
 Center     Atomic      Atomic             Coordinates (Angstroms)
 Number     Number       Type             X           Y           Z
 ---------------------------------------------------------------------
      1         23           0       -0.793037    0.818805   -0.094905
      2          8           0       -1.204971    2.573941   -0.356874
      3          1           0       -2.121063    2.649743   -0.633122
      4          8           0        0.990122    1.190635   -0.057941
      5          1           0        1.426962    0.599798    0.559707
      6          8           0       -0.817519    1.030691    1.713650
      7          1           0       -1.021079    0.190602    2.131326
      8          8           0       -0.385068   -0.933506    0.171177
      9          1           0       -1.156817   -1.473692   -0.014327
     10          8           0       -2.573405    0.451778   -0.121857
     11          1           0       -2.777557   -0.087440   -0.889285
     12          8           0       -0.769659    0.604612   -1.901109
     13          1           0        0.098725    0.834573   -2.239490
     14          1           0       -0.965336   -0.309994   -2.117418
     15          1           0        1.122081    2.099426    0.221242
     16          1           0       -1.076711    3.058396    0.461841
     17          1           0       -2.814074   -0.023981    0.676500
     18          1           0        0.042204    1.336153    2.011809
     19          1           0       -0.115315   -1.064459    1.083123
 ---------------------------------------------------------------------
                    Distance matrix (angstroms):
                    1          2          3          4          5
     1  V    0.000000
     2  O    1.821762   0.000000
     3  H    2.325008   0.959835   0.000000
     4  O    1.821889   2.611767   3.484150   0.000000
     5  H    2.324839   3.415322   4.267739   0.959899   0.000000
     6  O    1.821090   2.611285   3.134947   2.536076   2.560263
     7  H    2.324381   3.450400   3.859988   3.136540   2.937743
     8  O    1.818745   3.640503   4.062050   2.540791   2.405292
     9  H    2.322579   4.062387   4.279649   3.421971   3.362259
    10  O    1.818006   2.536025   2.301533   3.639880   4.060711
    11  H    2.321775   3.136788   2.826442   4.064482   4.499984
    12  O    1.819010   2.540161   2.759827   2.614866   3.298603
    13  H    2.322657   2.875634   3.286750   2.383386   3.107223
    14  H    2.322591   3.387332   3.506977   3.212032   3.703756
    15  H    2.325429   2.444290   3.398642   0.959822   1.567289
    16  H    2.325125   0.959918   1.567358   2.833814   3.510364
    17  H    2.321626   3.225876   3.056824   4.060370   4.288255
    18  H    2.324547   2.949275   3.660724   2.281137   2.137375
    19  H    2.322443   4.061883   4.556733   2.758526   2.328591
                    6          7          8          9         10
     6  O    0.000000
     7  H    0.960021   0.000000
     8  O    2.534622   2.347406   0.000000
     9  H    3.061530   2.718847   0.960108   0.000000
    10  O    2.605257   2.748593   2.606473   2.392848   0.000000
    11  H    3.444886   3.505227   2.750347   2.305222   0.959885
    12  O    3.640099   4.061422   2.609231   2.833582   2.538227
    13  H    4.062670   4.557707   3.028445   3.443229   3.430916
    14  H    4.061572   4.278496   2.441955   2.411193   2.673658
    15  H    2.670492   3.447487   3.387136   4.244531   4.060675
    16  H    2.397039   3.318813   4.061790   4.557738   3.061904
    17  H    2.484803   2.318921   2.642472   2.307685   0.960023
    18  H    0.959858   1.567527   2.953276   3.665802   3.489421
    19  H    2.297892   1.869309   0.959980   1.567353   3.129403
                   11         12         13         14         15
    11  H    0.000000
    12  O    2.352526   0.000000
    13  H    3.308498   0.959935   0.000000
    14  H    2.200452   0.959991   1.567533   0.000000
    15  H    4.606825   3.212091   2.949969   3.953725   0.000000
    16  H    3.822919   3.420362   3.691102   4.243941   2.410850
    17  H    1.567497   3.349453   4.210050   3.362383   4.495491
    18  H    4.288824   4.062660   4.281159   4.558009   2.225950
    19  H    3.454344   3.481323   3.833001   3.396353   3.504877
                   16         17         18         19
    16  H    0.000000
    17  H    3.544793   0.000000
    18  H    2.573032   3.433851   0.000000
    19  H    4.278809   2.920828   2.578800   0.000000
 Stoichiometry    H12O6V(3+,3)
 Framework group  C1[X(H12O6V)]
 Deg. of freedom    51
 Full point group                 C1      NOp   1
 Largest Abelian subgroup         C1      NOp   1
 Largest concise Abelian subgroup C1      NOp   1
                         Standard orientation:                         
 ---------------------------------------------------------------------
 Center     Atomic      Atomic             Coordinates (Angstroms)
 Number     Number       Type             X           Y           Z
 ---------------------------------------------------------------------
      1         23           0       -0.020930   -0.030851    0.010117
      2          8           0       -0.320881   -1.688468   -0.683537
      3          1           0       -1.137136   -1.681045   -1.188468
      4          8           0        1.254385   -0.678558    1.138536
      5          1           0        1.942922   -0.019835    1.254320
      6          8           0        1.297591    0.293740   -1.203355
      7          1           0        1.381168    1.240413   -1.339237
      8          8           0        0.279591    1.625972    0.697472
      9          1           0       -0.432419    2.214852    0.436571
     10          8           0       -1.286602    0.614727   -1.124100
     11          1           0       -2.035606    0.937335   -0.617843
     12          8           0       -1.338715   -0.352402    1.222076
     13          1           0       -0.971940   -0.816344    1.978190
     14          1           0       -1.717839    0.480834    1.511152
     15          1           0        1.635326   -1.477232    0.766701
     16          1           0        0.408485   -1.931629   -1.258289
     17          1           0       -0.916150    1.334035   -1.640826
     18          1           0        2.128491   -0.056823   -0.874663
     19          1           0        1.113128    1.964930    0.362980
 ---------------------------------------------------------------------
 Rotational constants (GHZ):           2.0397021           1.9739483           1.9252864
 Leave Link  202 at Thu May 23 17:35:42 2024, MaxMem= 26843545600 cpu:               0.5 elap:               0.1
 (Enter /gpfs/fs1/soft/improv/software/custom-built/gaussian/g16/l301.exe)
 Standard basis: 6-31+G(2df,p) (6D, 7F)
 Ernie: Thresh=  0.10000D-02 Tol=  0.10000D-05 Strict=F.
 There are   347 symmetry adapted cartesian basis functions of A   symmetry.
 There are   317 symmetry adapted basis functions of A   symmetry.
   317 basis functions,   514 primitive gaussians,   347 cartesian basis functions
    41 alpha electrons       39 beta electrons
       nuclear repulsion energy       717.7225235776 Hartrees.
 IExCor=  402 DFT=T Ex=B Corr=LYP ExCW=0 ScaHFX=  0.000000
 ScaDFX=  1.000000  1.000000  1.000000  1.000000 ScalE2=  1.000000  1.000000
 IRadAn=      5 IRanWt=     -1 IRanGd=            0 ICorTp=0 IEmpDi=131
 NAtoms=   19 NActive=   19 NUniq=   19 SFac= 1.00D+00 NAtFMM=   60 NAOKFM=F Big=F
 Integral buffers will be    131072 words long.
 Raffenetti 2 integral format.
 Two-electron integral symmetry is turned on.
 R6Disp:  Grimme-D3 Dispersion energy=       -0.0264519624 Hartrees.
 Nuclear repulsion after empirical dispersion term =      717.6960716152 Hartrees.
 Leave Link  301 at Thu May 23 17:35:42 2024, MaxMem= 26843545600 cpu:               0.4 elap:               0.1
 (Enter /gpfs/fs1/soft/improv/software/custom-built/gaussian/g16/l302.exe)
 NPDir=0 NMtPBC=     1 NCelOv=     1 NCel=       1 NClECP=     1 NCelD=      1
         NCelK=      1 NCelE2=     1 NClLst=     1 CellRange=     0.0.
 One-electron integrals computed using PRISM.
 One-electron integral symmetry used in STVInt
 NBasis=   317 RedAO= T EigKep=  3.17D-05  NBF=   317
 NBsUse=   317 1.00D-06 EigRej= -1.00D+00 NBFU=   317
 Precomputing XC quadrature grid using
 IXCGrd= 4 IRadAn=           5 IRanWt=          -1 IRanGd=           0 AccXCQ= 0.00D+00.
 Generated NRdTot=       0 NPtTot=           0 NUsed=           0 NTot=          32
 NSgBfM=   347   347   347   347   347 MxSgAt=    19 MxSgA2=    19.
 Leave Link  302 at Thu May 23 17:35:42 2024, MaxMem= 26843545600 cpu:              22.1 elap:               0.3
 (Enter /gpfs/fs1/soft/improv/software/custom-built/gaussian/g16/l303.exe)
 DipDrv:  MaxL=1.
 Leave Link  303 at Thu May 23 17:35:43 2024, MaxMem= 26843545600 cpu:               1.0 elap:               0.0
 (Enter /gpfs/fs1/soft/improv/software/custom-built/gaussian/g16/l401.exe)
 ExpMin= 1.07D-02 ExpMax= 4.74D+04 ExpMxC= 7.11D+03 IAcc=3 IRadAn=         5 AccDes= 0.00D+00
 Harris functional with IExCor=  402 and IRadAn=       5 diagonalized for initial guess.
 HarFok:  IExCor=  402 AccDes= 0.00D+00 IRadAn=         5 IDoV= 1 UseB2=F ITyADJ=14
 ICtDFT=  3500011 ScaDFX=  1.000000  1.000000  1.000000  1.000000
 FoFCou: FMM=F IPFlag=           0 FMFlag=      100000 FMFlg1=           0
         NFxFlg=           0 DoJE=T BraDBF=F KetDBF=T FulRan=T
         wScrn=  0.000000 ICntrl=       500 IOpCl=  0 I1Cent=   200000004 NGrid=           0
         NMat0=    1 NMatS0=      1 NMatT0=    0 NMatD0=    1 NMtDS0=    0 NMtDT0=    0
 Petite list used in FoFCou.
 Harris En= -1402.00672213279    
 JPrj=0 DoOrth=F DoCkMO=F.
 Initial guess <Sx>= 0.0000 <Sy>= 0.0000 <Sz>= 1.0000 <S**2>= 2.0000 S= 1.0000
 Leave Link  401 at Thu May 23 17:35:43 2024, MaxMem= 26843545600 cpu:              38.2 elap:               0.5
 (Enter /gpfs/fs1/soft/improv/software/custom-built/gaussian/g16/l502.exe)
 Integral symmetry usage will be decided dynamically.
 UHF open shell SCF:
 Using DIIS extrapolation, IDIIS=  1040.
 NGot= 26843545600 LenX= 26843256607 LenY= 26843135757
 Requested convergence on RMS density matrix=1.00D-08 within  50 cycles.
 Requested convergence on MAX density matrix=1.00D-06.
 Requested convergence on             energy=1.00D-06.
 No special actions if energy rises.
 Fock matrices will be formed incrementally for  20 cycles.

 Cycle   1  Pass 1  IDiag  1:
 FoFJK:  IHMeth= 1 ICntrl=     500 DoSepK=F KAlg= 0 I1Cent=           0 FoldK=F
 IRaf= 990000000 NMat=       1 IRICut=       1 DoRegI=T DoRafI=F ISym2E= 0 IDoP0=0 IntGTp=1.
 FoFCou: FMM=F IPFlag=           0 FMFlag=      100000 FMFlg1=           0
         NFxFlg=           0 DoJE=T BraDBF=F KetDBF=F FulRan=T
         wScrn=  0.000000 ICntrl=       500 IOpCl=  0 I1Cent=           0 NGrid=           0
         NMat0=    1 NMatS0=      1 NMatT0=    0 NMatD0=    1 NMtDS0=    0 NMtDT0=    0
 Symmetry not used in FoFCou.
 E= -1400.84652243341    
 DIIS: error= 4.30D-02 at cycle   1 NSaved=   1.
 NSaved= 1 IEnMin= 1 EnMin= -1400.84652243341     IErMin= 1 ErrMin= 4.30D-02
 ErrMax= 4.30D-02  0.00D+00 EMaxC= 1.00D-01 BMatC= 2.75D+00 BMatP= 2.75D+00
 IDIUse=3 WtCom= 5.70D-01 WtEn= 4.30D-01
 Coeff-Com:  0.100D+01
 Coeff-En:   0.100D+01
 Coeff:      0.100D+01
 Gap=     0.025 Goal=   None    Shift=    0.000
 Gap=    -0.044 Goal=   None    Shift=    0.000
 GapD=   -0.044 DampG=0.250 DampE=0.250 DampFc=0.1250 IDamp=-1.
 Damping current iteration by 1.25D-01
 RMSDP=1.22D-02 MaxDP=4.95D-01              OVMax= 7.39D-01

 Cycle   2  Pass 1  IDiag  1:
 RMSU=  1.51D-03    CP:  9.92D-01
 E= -1400.90616054634     Delta-E=       -0.059638112930 Rises=F Damp=T
 DIIS: error= 3.11D-02 at cycle   2 NSaved=   2.
 NSaved= 2 IEnMin= 2 EnMin= -1400.90616054634     IErMin= 2 ErrMin= 3.11D-02
 ErrMax= 3.11D-02  0.00D+00 EMaxC= 1.00D-01 BMatC= 8.28D-01 BMatP= 2.75D+00
 IDIUse=3 WtCom= 6.89D-01 WtEn= 3.11D-01
 Coeff-Com: -0.591D+00 0.159D+01
 Coeff-En:   0.302D+00 0.698D+00
 Coeff:     -0.314D+00 0.131D+01
 Gap=     0.000 Goal=   None    Shift=    0.000
 Gap=    -0.067 Goal=   None    Shift=    0.000
 RMSDP=1.63D-02 MaxDP=1.68D+00 DE=-5.96D-02 OVMax= 9.76D-01

 Cycle   3  Pass 1  IDiag  1:
 RMSU=  1.62D-02    CP:  9.60D-01  1.75D+00
 E= -1400.27329981905     Delta-E=        0.632860727291 Rises=F Damp=F
 DIIS: error= 4.40D-02 at cycle   3 NSaved=   3.
 NSaved= 3 IEnMin= 2 EnMin= -1400.90616054634     IErMin= 2 ErrMin= 3.11D-02
 ErrMax= 4.40D-02  0.00D+00 EMaxC= 1.00D-01 BMatC= 4.11D+00 BMatP= 8.28D-01
 IDIUse=2 WtCom= 0.00D+00 WtEn= 1.00D+00
 EnCoef did     3 forward-backward iterations
 Coeff-En:   0.108D+00 0.671D+00 0.222D+00
 Coeff:      0.108D+00 0.671D+00 0.222D+00
 Gap=     0.033 Goal=   None    Shift=    0.000
 Gap=     0.250 Goal=   None    Shift=    0.000
 RMSDP=1.69D-02 MaxDP=1.60D+00 DE= 6.33D-01 OVMax= 8.92D-01

 Cycle   4  Pass 1  IDiag  1:
 RMSU=  3.67D-03    CP:  9.60D-01  3.00D+00  2.19D-03
 E= -1400.61074672869     Delta-E=       -0.337446909639 Rises=F Damp=F
 DIIS: error= 4.75D-02 at cycle   4 NSaved=   4.
 NSaved= 4 IEnMin= 2 EnMin= -1400.90616054634     IErMin= 2 ErrMin= 3.11D-02
 ErrMax= 4.75D-02  0.00D+00 EMaxC= 1.00D-01 BMatC= 4.41D+00 BMatP= 8.28D-01
 IDIUse=2 WtCom= 0.00D+00 WtEn= 1.00D+00
 EnCoef did   100 forward-backward iterations
 Coeff-En:   0.459D+00 0.985D-02 0.141D+00 0.390D+00
 Coeff:      0.459D+00 0.985D-02 0.141D+00 0.390D+00
 Gap=     0.031 Goal=   None    Shift=    0.000
 Gap=     0.224 Goal=   None    Shift=    0.000
 RMSDP=3.96D-03 MaxDP=1.74D-01 DE=-3.37D-01 OVMax= 1.81D-01

 Cycle   5  Pass 1  IDiag  1:
 RMSU=  2.11D-03    CP:  9.64D-01  2.03D+00  3.03D-02  4.33D-01
 E= -1401.28276454951     Delta-E=       -0.672017820822 Rises=F Damp=F
 DIIS: error= 4.74D-03 at cycle   5 NSaved=   5.
 NSaved= 5 IEnMin= 5 EnMin= -1401.28276454951     IErMin= 5 ErrMin= 4.74D-03
 ErrMax= 4.74D-03  0.00D+00 EMaxC= 1.00D-01 BMatC= 8.25D-02 BMatP= 8.28D-01
 IDIUse=3 WtCom= 9.53D-01 WtEn= 4.74D-02
 Coeff-Com:  0.460D-01 0.152D+00-0.341D-02 0.839D-01 0.722D+00
 Coeff-En:   0.000D+00 0.000D+00 0.000D+00 0.000D+00 0.100D+01
 Coeff:      0.438D-01 0.145D+00-0.325D-02 0.799D-01 0.735D+00
 Gap=     0.026 Goal=   None    Shift=    0.000
 Gap=     0.229 Goal=   None    Shift=    0.000
 RMSDP=9.69D-04 MaxDP=2.84D-02 DE=-6.72D-01 OVMax= 5.70D-02

 Cycle   6  Pass 1  IDiag  1:
 RMSU=  6.88D-04    CP:  9.66D-01  2.15D+00  1.97D-02  5.06D-01  7.29D-01
 E= -1401.29058482213     Delta-E=       -0.007820272619 Rises=F Damp=F
 DIIS: error= 3.70D-03 at cycle   6 NSaved=   6.
 NSaved= 6 IEnMin= 6 EnMin= -1401.29058482213     IErMin= 6 ErrMin= 3.70D-03
 ErrMax= 3.70D-03  0.00D+00 EMaxC= 1.00D-01 BMatC= 4.39D-02 BMatP= 8.25D-02
 IDIUse=3 WtCom= 9.63D-01 WtEn= 3.70D-02
 Coeff-Com: -0.974D-01 0.204D+00-0.234D-01-0.447D-02 0.493D+00 0.427D+00
 Coeff-En:   0.000D+00 0.000D+00 0.000D+00 0.000D+00 0.322D+00 0.678D+00
 Coeff:     -0.938D-01 0.197D+00-0.226D-01-0.430D-02 0.487D+00 0.437D+00
 Gap=     0.027 Goal=   None    Shift=    0.000
 Gap=     0.227 Goal=   None    Shift=    0.000
 RMSDP=4.54D-04 MaxDP=1.51D-02 DE=-7.82D-03 OVMax= 2.79D-02

 Cycle   7  Pass 1  IDiag  1:
 RMSU=  1.50D-04    CP:  9.65D-01  2.04D+00  2.26D-02  4.68D-01  8.31D-01
                    CP:  5.67D-01
 E= -1401.29626919473     Delta-E=       -0.005684372602 Rises=F Damp=F
 DIIS: error= 2.27D-03 at cycle   7 NSaved=   7.
 NSaved= 7 IEnMin= 7 EnMin= -1401.29626919473     IErMin= 7 ErrMin= 2.27D-03
 ErrMax= 2.27D-03  0.00D+00 EMaxC= 1.00D-01 BMatC= 1.15D-02 BMatP= 4.39D-02
 IDIUse=3 WtCom= 9.77D-01 WtEn= 2.27D-02
 Coeff-Com: -0.981D-01 0.128D+00-0.546D-02 0.711D-02-0.264D-01 0.693D-01
 Coeff-Com:  0.926D+00
 Coeff-En:   0.000D+00 0.000D+00 0.000D+00 0.000D+00 0.000D+00 0.391D-01
 Coeff-En:   0.961D+00
 Coeff:     -0.958D-01 0.125D+00-0.533D-02 0.695D-02-0.258D-01 0.686D-01
 Coeff:      0.927D+00
 Gap=     0.028 Goal=   None    Shift=    0.000
 Gap=     0.219 Goal=   None    Shift=    0.000
 RMSDP=1.61D-04 MaxDP=8.20D-03 DE=-5.68D-03 OVMax= 7.47D-03

 Cycle   8  Pass 1  IDiag  1:
 RMSU=  7.53D-05    CP:  9.65D-01  2.11D+00  2.13D-02  4.84D-01  8.05D-01
                    CP:  6.28D-01  1.03D+00
 E= -1401.29781957324     Delta-E=       -0.001550378511 Rises=F Damp=F
 DIIS: error= 1.13D-03 at cycle   8 NSaved=   8.
 NSaved= 8 IEnMin= 8 EnMin= -1401.29781957324     IErMin= 8 ErrMin= 1.13D-03
 ErrMax= 1.13D-03  0.00D+00 EMaxC= 1.00D-01 BMatC= 3.21D-03 BMatP= 1.15D-02
 IDIUse=3 WtCom= 9.89D-01 WtEn= 1.13D-02
 Coeff-Com: -0.569D-01 0.641D-01-0.136D-02 0.761D-02-0.976D-01-0.573D-01
 Coeff-Com:  0.289D+00 0.852D+00
 Coeff-En:   0.000D+00 0.000D+00 0.000D+00 0.000D+00 0.000D+00 0.000D+00
 Coeff-En:   0.000D+00 0.100D+01
 Coeff:     -0.563D-01 0.633D-01-0.135D-02 0.753D-02-0.965D-01-0.567D-01
 Coeff:      0.286D+00 0.854D+00
 Gap=     0.028 Goal=   None    Shift=    0.000
 Gap=     0.216 Goal=   None    Shift=    0.000
 RMSDP=8.12D-05 MaxDP=4.04D-03 DE=-1.55D-03 OVMax= 3.19D-03

 Cycle   9  Pass 1  IDiag  1:
 RMSU=  2.87D-05    CP:  9.65D-01  2.15D+00  2.06D-02  4.92D-01  7.93D-01
                    CP:  6.50D-01  1.16D+00  1.28D+00
 E= -1401.29826603172     Delta-E=       -0.000446458476 Rises=F Damp=F
 DIIS: error= 5.72D-04 at cycle   9 NSaved=   9.
 NSaved= 9 IEnMin= 9 EnMin= -1401.29826603172     IErMin= 9 ErrMin= 5.72D-04
 ErrMax= 5.72D-04  0.00D+00 EMaxC= 1.00D-01 BMatC= 8.46D-04 BMatP= 3.21D-03
 IDIUse=3 WtCom= 9.94D-01 WtEn= 5.72D-03
 Coeff-Com: -0.243D-01 0.255D-01-0.667D-04 0.376D-02-0.638D-01-0.641D-01
 Coeff-Com: -0.890D-01 0.501D+00 0.711D+00
 Coeff-En:   0.000D+00 0.000D+00 0.000D+00 0.000D+00 0.000D+00 0.000D+00
 Coeff-En:   0.000D+00 0.000D+00 0.100D+01
 Coeff:     -0.241D-01 0.253D-01-0.663D-04 0.374D-02-0.634D-01-0.637D-01
 Coeff:     -0.885D-01 0.498D+00 0.713D+00
 Gap=     0.028 Goal=   None    Shift=    0.000
 Gap=     0.214 Goal=   None    Shift=    0.000
 RMSDP=5.04D-05 MaxDP=2.39D-03 DE=-4.46D-04 OVMax= 2.34D-03

 Cycle  10  Pass 1  IDiag  1:
 RMSU=  1.70D-05    CP:  9.66D-01  2.17D+00  2.03D-02  4.97D-01  7.86D-01
                    CP:  6.59D-01  1.23D+00  1.51D+00  1.06D+00
 E= -1401.29839908261     Delta-E=       -0.000133050889 Rises=F Damp=F
 DIIS: error= 2.41D-04 at cycle  10 NSaved=  10.
 NSaved=10 IEnMin=10 EnMin= -1401.29839908261     IErMin=10 ErrMin= 2.41D-04
 ErrMax= 2.41D-04  0.00D+00 EMaxC= 1.00D-01 BMatC= 1.37D-04 BMatP= 8.46D-04
 IDIUse=3 WtCom= 9.98D-01 WtEn= 2.41D-03
 Coeff-Com: -0.374D-02 0.322D-02 0.435D-04 0.113D-02-0.202D-01-0.316D-01
 Coeff-Com: -0.143D+00 0.669D-01 0.485D+00 0.643D+00
 Coeff-En:   0.000D+00 0.000D+00 0.000D+00 0.000D+00 0.000D+00 0.000D+00
 Coeff-En:   0.000D+00 0.000D+00 0.000D+00 0.100D+01
 Coeff:     -0.373D-02 0.321D-02 0.434D-04 0.113D-02-0.201D-01-0.315D-01
 Coeff:     -0.143D+00 0.668D-01 0.484D+00 0.643D+00
 Gap=     0.028 Goal=   None    Shift=    0.000
 Gap=     0.213 Goal=   None    Shift=    0.000
 RMSDP=3.20D-05 MaxDP=1.53D-03 DE=-1.33D-04 OVMax= 1.26D-03

 Cycle  11  Pass 1  IDiag  1:
 RMSU=  6.96D-06    CP:  9.66D-01  2.19D+00  2.00D-02  5.00D-01  7.82D-01
                    CP:  6.66D-01  1.26D+00  1.69D+00  1.25D+00  8.28D-01
 E= -1401.29842401545     Delta-E=       -0.000024932843 Rises=F Damp=F
 DIIS: error= 3.05D-05 at cycle  11 NSaved=  11.
 NSaved=11 IEnMin=11 EnMin= -1401.29842401545     IErMin=11 ErrMin= 3.05D-05
 ErrMax= 3.05D-05  0.00D+00 EMaxC= 1.00D-01 BMatC= 3.03D-06 BMatP= 1.37D-04
 IDIUse=1 WtCom= 1.00D+00 WtEn= 0.00D+00
 Coeff-Com:  0.149D-03-0.220D-03-0.250D-04 0.159D-03-0.216D-02-0.595D-02
 Coeff-Com: -0.416D-01-0.315D-01 0.106D+00 0.262D+00 0.713D+00
 Coeff:      0.149D-03-0.220D-03-0.250D-04 0.159D-03-0.216D-02-0.595D-02
 Coeff:     -0.416D-01-0.315D-01 0.106D+00 0.262D+00 0.713D+00
 Gap=     0.028 Goal=   None    Shift=    0.000
 Gap=     0.213 Goal=   None    Shift=    0.000
 RMSDP=5.26D-06 MaxDP=2.48D-04 DE=-2.49D-05 OVMax= 5.26D-04

 Cycle  12  Pass 1  IDiag  1:
 RMSU=  2.66D-06    CP:  9.66D-01  2.19D+00  2.00D-02  5.00D-01  7.81D-01
                    CP:  6.68D-01  1.27D+00  1.70D+00  1.29D+00  8.86D-01
                    CP:  8.93D-01
 E= -1401.29842456475     Delta-E=       -0.000000549297 Rises=F Damp=F
 DIIS: error= 5.03D-06 at cycle  12 NSaved=  12.
 NSaved=12 IEnMin=12 EnMin= -1401.29842456475     IErMin=12 ErrMin= 5.03D-06
 ErrMax= 5.03D-06  0.00D+00 EMaxC= 1.00D-01 BMatC= 1.48D-07 BMatP= 3.03D-06
 IDIUse=1 WtCom= 1.00D+00 WtEn= 0.00D+00
 Coeff-Com:  0.110D-03-0.755D-04-0.231D-04 0.235D-04 0.611D-04-0.742D-03
 Coeff-Com: -0.765D-02-0.181D-01 0.160D-01 0.791D-01 0.349D+00 0.583D+00
 Coeff:      0.110D-03-0.755D-04-0.231D-04 0.235D-04 0.611D-04-0.742D-03
 Coeff:     -0.765D-02-0.181D-01 0.160D-01 0.791D-01 0.349D+00 0.583D+00
 Gap=     0.028 Goal=   None    Shift=    0.000
 Gap=     0.213 Goal=   None    Shift=    0.000
 RMSDP=1.31D-06 MaxDP=8.54D-05 DE=-5.49D-07 OVMax= 2.75D-04

 Cycle  13  Pass 1  IDiag  1:
 RMSU=  1.19D-06    CP:  9.66D-01  2.19D+00  2.00D-02  5.00D-01  7.81D-01
                    CP:  6.68D-01  1.27D+00  1.70D+00  1.29D+00  8.94D-01
                    CP:  9.37D-01  1.03D+00
 E= -1401.29842458714     Delta-E=       -0.000000022396 Rises=F Damp=F
 DIIS: error= 3.72D-06 at cycle  13 NSaved=  13.
 NSaved=13 IEnMin=13 EnMin= -1401.29842458714     IErMin=13 ErrMin= 3.72D-06
 ErrMax= 3.72D-06  0.00D+00 EMaxC= 1.00D-01 BMatC= 5.87D-08 BMatP= 1.48D-07
 IDIUse=1 WtCom= 1.00D+00 WtEn= 0.00D+00
 Coeff-Com: -0.101D-03 0.180D-03-0.512D-05-0.268D-04 0.649D-03 0.150D-02
 Coeff-Com:  0.101D-01-0.112D-02-0.257D-01-0.355D-01 0.569D-02 0.401D+00
 Coeff-Com:  0.643D+00
 Coeff:     -0.101D-03 0.180D-03-0.512D-05-0.268D-04 0.649D-03 0.150D-02
 Coeff:      0.101D-01-0.112D-02-0.257D-01-0.355D-01 0.569D-02 0.401D+00
 Coeff:      0.643D+00
 Gap=     0.028 Goal=   None    Shift=    0.000
 Gap=     0.213 Goal=   None    Shift=    0.000
 RMSDP=8.81D-07 MaxDP=6.96D-05 DE=-2.24D-08 OVMax= 1.88D-04

 Cycle  14  Pass 1  IDiag  1:
 RMSU=  6.00D-07    CP:  9.66D-01  2.19D+00  2.00D-02  5.00D-01  7.81D-01
                    CP:  6.67D-01  1.26D+00  1.70D+00  1.29D+00  9.05D-01
                    CP:  9.72D-01  1.19D+00  1.14D+00
 E= -1401.29842459902     Delta-E=       -0.000000011879 Rises=F Damp=F
 DIIS: error= 1.73D-06 at cycle  14 NSaved=  14.
 NSaved=14 IEnMin=14 EnMin= -1401.29842459902     IErMin=14 ErrMin= 1.73D-06
 ErrMax= 1.73D-06  0.00D+00 EMaxC= 1.00D-01 BMatC= 8.55D-09 BMatP= 5.87D-08
 IDIUse=1 WtCom= 1.00D+00 WtEn= 0.00D+00
 Coeff-Com: -0.783D-04 0.952D-04 0.577D-05-0.208D-04 0.240D-03 0.804D-03
 Coeff-Com:  0.662D-02 0.368D-02-0.165D-01-0.379D-01-0.887D-01-0.300D-02
 Coeff-Com:  0.206D+00 0.929D+00
 Coeff:     -0.783D-04 0.952D-04 0.577D-05-0.208D-04 0.240D-03 0.804D-03
 Coeff:      0.662D-02 0.368D-02-0.165D-01-0.379D-01-0.887D-01-0.300D-02
 Coeff:      0.206D+00 0.929D+00
 Gap=     0.028 Goal=   None    Shift=    0.000
 Gap=     0.213 Goal=   None    Shift=    0.000
 RMSDP=5.98D-07 MaxDP=5.68D-05 DE=-1.19D-08 OVMax= 1.54D-04

 Cycle  15  Pass 1  IDiag  1:
 RMSU=  1.66D-07    CP:  9.66D-01  2.19D+00  2.00D-02  5.00D-01  7.81D-01
                    CP:  6.67D-01  1.26D+00  1.70D+00  1.29D+00  9.13D-01
                    CP:  1.00D+00  1.33D+00  1.36D+00  1.09D+00
 E= -1401.29842460108     Delta-E=       -0.000000002060 Rises=F Damp=F
 DIIS: error= 7.05D-07 at cycle  15 NSaved=  15.
 NSaved=15 IEnMin=15 EnMin= -1401.29842460108     IErMin=15 ErrMin= 7.05D-07
 ErrMax= 7.05D-07  0.00D+00 EMaxC= 1.00D-01 BMatC= 1.96D-09 BMatP= 8.55D-09
 IDIUse=1 WtCom= 1.00D+00 WtEn= 0.00D+00
 Coeff-Com: -0.332D-04 0.342D-04 0.301D-05-0.690D-05 0.476D-04 0.246D-03
 Coeff-Com:  0.232D-02 0.163D-02-0.591D-02-0.150D-01-0.406D-01-0.318D-01
 Coeff-Com:  0.414D-01 0.425D+00 0.622D+00
 Coeff:     -0.332D-04 0.342D-04 0.301D-05-0.690D-05 0.476D-04 0.246D-03
 Coeff:      0.232D-02 0.163D-02-0.591D-02-0.150D-01-0.406D-01-0.318D-01
 Coeff:      0.414D-01 0.425D+00 0.622D+00
 Gap=     0.028 Goal=   None    Shift=    0.000
 Gap=     0.213 Goal=   None    Shift=    0.000
 RMSDP=1.28D-07 MaxDP=9.67D-06 DE=-2.06D-09 OVMax= 2.68D-05

 Cycle  16  Pass 1  IDiag  1:
 RMSU=  6.29D-08    CP:  9.66D-01  2.19D+00  2.00D-02  5.00D-01  7.81D-01
                    CP:  6.67D-01  1.26D+00  1.70D+00  1.29D+00  9.14D-01
                    CP:  1.01D+00  1.36D+00  1.39D+00  1.15D+00  8.94D-01
 E= -1401.29842460137     Delta-E=       -0.000000000288 Rises=F Damp=F
 DIIS: error= 3.93D-07 at cycle  16 NSaved=  16.
 NSaved=16 IEnMin=16 EnMin= -1401.29842460137     IErMin=16 ErrMin= 3.93D-07
 ErrMax= 3.93D-07  0.00D+00 EMaxC= 1.00D-01 BMatC= 5.52D-10 BMatP= 1.96D-09
 IDIUse=1 WtCom= 1.00D+00 WtEn= 0.00D+00
 Coeff-Com: -0.561D-05 0.224D-05 0.888D-06 0.154D-05-0.440D-04-0.584D-04
 Coeff-Com: -0.201D-03 0.144D-03 0.371D-03-0.165D-03-0.399D-02-0.223D-01
 Coeff-Com: -0.304D-01 0.369D-01 0.451D+00 0.568D+00
 Coeff:     -0.561D-05 0.224D-05 0.888D-06 0.154D-05-0.440D-04-0.584D-04
 Coeff:     -0.201D-03 0.144D-03 0.371D-03-0.165D-03-0.399D-02-0.223D-01
 Coeff:     -0.304D-01 0.369D-01 0.451D+00 0.568D+00
 Gap=     0.028 Goal=   None    Shift=    0.000
 Gap=     0.213 Goal=   None    Shift=    0.000
 RMSDP=5.95D-08 MaxDP=4.26D-06 DE=-2.88D-10 OVMax= 9.98D-06

 Cycle  17  Pass 1  IDiag  1:
 RMSU=  2.08D-08    CP:  9.66D-01  2.19D+00  2.00D-02  5.00D-01  7.81D-01
                    CP:  6.67D-01  1.26D+00  1.70D+00  1.29D+00  9.14D-01
                    CP:  1.01D+00  1.36D+00  1.41D+00  1.17D+00  9.81D-01
                    CP:  6.42D-01
 E= -1401.29842460149     Delta-E=       -0.000000000117 Rises=F Damp=F
 DIIS: error= 4.83D-08 at cycle  17 NSaved=  17.
 NSaved=17 IEnMin=17 EnMin= -1401.29842460149     IErMin=17 ErrMin= 4.83D-08
 ErrMax= 4.83D-08  0.00D+00 EMaxC= 1.00D-01 BMatC= 1.02D-11 BMatP= 5.52D-10
 IDIUse=1 WtCom= 1.00D+00 WtEn= 0.00D+00
 Coeff-Com:  0.131D-05-0.290D-05 0.646D-07 0.112D-05-0.207D-04-0.423D-04
 Coeff-Com: -0.253D-03-0.627D-04 0.559D-03 0.107D-02 0.168D-02-0.515D-02
 Coeff-Com: -0.131D-01-0.187D-01 0.112D+00 0.212D+00 0.710D+00
 Coeff:      0.131D-05-0.290D-05 0.646D-07 0.112D-05-0.207D-04-0.423D-04
 Coeff:     -0.253D-03-0.627D-04 0.559D-03 0.107D-02 0.168D-02-0.515D-02
 Coeff:     -0.131D-01-0.187D-01 0.112D+00 0.212D+00 0.710D+00
 Gap=     0.028 Goal=   None    Shift=    0.000
 Gap=     0.213 Goal=   None    Shift=    0.000
 RMSDP=1.04D-08 MaxDP=3.29D-07 DE=-1.17D-10 OVMax= 8.70D-07

 Cycle  18  Pass 1  IDiag  1:
 RMSU=  6.35D-09    CP:  9.66D-01  2.19D+00  2.00D-02  5.00D-01  7.81D-01
                    CP:  6.67D-01  1.26D+00  1.70D+00  1.29D+00  9.14D-01
                    CP:  1.01D+00  1.36D+00  1.41D+00  1.18D+00  9.95D-01
                    CP:  6.66D-01  8.21D-01
 E= -1401.29842460148     Delta-E=        0.000000000008 Rises=F Damp=F
 DIIS: error= 2.62D-08 at cycle  18 NSaved=  18.
 NSaved=18 IEnMin=17 EnMin= -1401.29842460149     IErMin=18 ErrMin= 2.62D-08
 ErrMax= 2.62D-08  0.00D+00 EMaxC= 1.00D-01 BMatC= 2.71D-12 BMatP= 1.02D-11
 IDIUse=1 WtCom= 1.00D+00 WtEn= 0.00D+00
 Coeff-Com:  0.867D-06-0.120D-05-0.244D-07 0.236D-06-0.442D-05-0.115D-04
 Coeff-Com: -0.743D-04-0.223D-04 0.176D-03 0.377D-03 0.782D-03-0.369D-03
 Coeff-Com: -0.228D-02-0.741D-02 0.111D-01 0.408D-01 0.283D+00 0.674D+00
 Coeff:      0.867D-06-0.120D-05-0.244D-07 0.236D-06-0.442D-05-0.115D-04
 Coeff:     -0.743D-04-0.223D-04 0.176D-03 0.377D-03 0.782D-03-0.369D-03
 Coeff:     -0.228D-02-0.741D-02 0.111D-01 0.408D-01 0.283D+00 0.674D+00
 Gap=     0.028 Goal=   None    Shift=    0.000
 Gap=     0.213 Goal=   None    Shift=    0.000
 RMSDP=4.30D-09 MaxDP=2.63D-07 DE= 7.73D-12 OVMax= 6.17D-07

 SCF Done:  E(UB-LYP) =  -1401.29842460     A.U. after   18 cycles
            NFock= 18  Conv=0.43D-08     -V/T= 2.0012
 <Sx>= 0.0000 <Sy>= 0.0000 <Sz>= 1.0000 <S**2>= 2.0034 S= 1.0011
 <L.S>=  0.00000000000    
 KE= 1.399684416777D+03 PE=-4.707525996501D+03 EE= 1.188847083507D+03
 Annihilation of the first spin contaminant:
 S**2 before annihilation     2.0034,   after     2.0000
 Leave Link  502 at Thu May 23 17:36:45 2024, MaxMem= 26843545600 cpu:            7443.0 elap:              61.9
 (Enter /gpfs/fs1/soft/improv/software/custom-built/gaussian/g16/l508.exe)
 QCSCF skips out because SCF is already converged.
 Leave Link  508 at Thu May 23 17:36:46 2024, MaxMem= 26843545600 cpu:               0.2 elap:               0.0
 (Enter /gpfs/fs1/soft/improv/software/custom-built/gaussian/g16/l801.exe)
 DoSCS=F DFT=T ScalE2(SS,OS)=  1.000000  1.000000
 Range of M.O.s used for correlation:     1   317
 NBasis=   317 NAE=    41 NBE=    39 NFC=     0 NFV=     0
 NROrb=    317 NOA=    41 NOB=    39 NVA=   276 NVB=   278

 **** Warning!!: The largest alpha MO coefficient is  0.64842535D+02


 **** Warning!!: The smallest alpha delta epsilon is  0.28354973D-01


 **** Warning!!: The largest beta MO coefficient is  0.64833968D+02

 Leave Link  801 at Thu May 23 17:36:46 2024, MaxMem= 26843545600 cpu:               0.4 elap:               0.0
 (Enter /gpfs/fs1/soft/improv/software/custom-built/gaussian/g16/l1101.exe)
 Using compressed storage, NAtomX=    19.
 Will process     20 centers per pass.
 R6Disp: Adding Grimme-D3 dispersion energy 1st derivatives to the gradient.
 Leave Link 1101 at Thu May 23 17:36:47 2024, MaxMem= 26843545600 cpu:              51.6 elap:               0.5
 (Enter /gpfs/fs1/soft/improv/software/custom-built/gaussian/g16/l1102.exe)
 Symmetrizing basis deriv contribution to polar:
 IMax=3 JMax=2 DiffMx= 0.00D+00
 Leave Link 1102 at Thu May 23 17:36:47 2024, MaxMem= 26843545600 cpu:               0.9 elap:               0.0
 (Enter /gpfs/fs1/soft/improv/software/custom-built/gaussian/g16/l1110.exe)
 Forming Gx(P) for the SCF density, NAtomX=    19.
 Integral derivatives from FoFJK, PRISM(SPDF).
 Do as many integral derivatives as possible in FoFJK.
 G2DrvN: MDV=   26843543431.
 G2DrvN: will do    20 centers at a time, making    1 passes.
 Calling FoFCou, ICntrl=  3507 FMM=F I1Cent=   0 AccDes= 0.00D+00.
 FoFJK:  IHMeth= 1 ICntrl=    3507 DoSepK=F KAlg= 0 I1Cent=           0 FoldK=F
 IRaf=         0 NMat=       1 IRICut=       1 DoRegI=T DoRafI=F ISym2E= 0 IDoP0=0 IntGTp=1.
 FoFCou: FMM=F IPFlag=           0 FMFlag=      100000 FMFlg1=           0
         NFxFlg=           0 DoJE=F BraDBF=F KetDBF=F FulRan=T
         wScrn=  0.000000 ICntrl=      3507 IOpCl=  0 I1Cent=           0 NGrid=           0
         NMat0=    1 NMatS0=      1 NMatT0=    0 NMatD0=    1 NMtDS0=    0 NMtDT0=    0
 Symmetry not used in FoFCou.
 End of G2Drv F.D. properties file   721 does not exist.
 End of G2Drv F.D. properties file   722 does not exist.
 End of G2Drv F.D. properties file   788 does not exist.
 Leave Link 1110 at Thu May 23 17:37:01 2024, MaxMem= 26843545600 cpu:            1759.8 elap:              14.2
 (Enter /gpfs/fs1/soft/improv/software/custom-built/gaussian/g16/l1002.exe)
 Minotr:  UHF open shell wavefunction.
          IDoAtm=1111111111111111111
          Direct CPHF calculation.
          Differentiating once with respect to electric field.
                with respect to dipole field.
          Differentiating once with respect to nuclear coordinates.
          Requested convergence is 1.0D-08 RMS, and 1.0D-07 maximum.
          Secondary convergence is 1.0D-12 RMS, and 1.0D-12 maximum.
          NewPWx=T KeepS1=F KeepF1=F KeepIn=T MapXYZ=F SortEE=F KeepMc=T.
         6034 words used for storage of precomputed grid.
 Two-electron integrals replicated using symmetry.
          MDV=   26843545600 using IRadAn=       1.
          Solving linear equations simultaneously, MaxMat=     384.
 FoF2E skips out because all densities are zero.
 CalDSu exits because no D1Ps are significant.
 FoFJK:  IHMeth= 1 ICntrl=     500 DoSepK=F KAlg= 0 I1Cent=           0 FoldK=F
 IRaf= 990000000 NMat=      57 IRICut=       1 DoRegI=T DoRafI=F ISym2E= 2 IDoP0=3 IntGTp=2.
 FoFCou: FMM=F IPFlag=           0 FMFlag=      100000 FMFlg1=           0
         NFxFlg=           0 DoJE=F BraDBF=F KetDBF=F FulRan=T
         wScrn=  0.000000 ICntrl=       500 IOpCl=  0 I1Cent=           0 NGrid=           0
         NMat0=   57 NMatS0=     57 NMatT0=    0 NMatD0=   57 NMtDS0=    0 NMtDT0=    0
 Integrals replicated using symmetry in FoFCou.
          There are    60 degrees of freedom in the 1st order CPHF.  IDoFFX=6 NUNeed=     3.
     57 vectors produced by pass  0 Test12= 3.69D-14 1.67D-09 XBig12= 9.77D+01 2.19D+00.
 AX will form    57 AO Fock derivatives at one time.
     57 vectors produced by pass  1 Test12= 3.69D-14 1.67D-09 XBig12= 1.30D+01 3.75D-01.
     57 vectors produced by pass  2 Test12= 3.69D-14 1.67D-09 XBig12= 1.25D-01 3.95D-02.
     57 vectors produced by pass  3 Test12= 3.69D-14 1.67D-09 XBig12= 4.73D-04 2.15D-03.
     57 vectors produced by pass  4 Test12= 3.69D-14 1.67D-09 XBig12= 1.62D-06 1.67D-04.
     55 vectors produced by pass  5 Test12= 3.69D-14 1.67D-09 XBig12= 4.06D-09 5.31D-06.
     21 vectors produced by pass  6 Test12= 3.69D-14 1.67D-09 XBig12= 4.78D-12 2.17D-07.
      3 vectors produced by pass  7 Test12= 3.69D-14 1.67D-09 XBig12= 9.55D-15 1.04D-08.
 InvSVY:  IOpt=1 It=  1 EMax= 5.33D-15
 Solved reduced A of dimension   364 with    60 vectors.
 FullF1:  Do perturbations      1 to       3.
 Isotropic polarizability for W=    0.000000       53.70 Bohr**3.
 End of Minotr F.D. properties file   721 does not exist.
 End of Minotr F.D. properties file   722 does not exist.
 End of Minotr F.D. properties file   788 does not exist.
 Leave Link 1002 at Thu May 23 17:37:45 2024, MaxMem= 26843545600 cpu:            5228.9 elap:              43.8
 (Enter /gpfs/fs1/soft/improv/software/custom-built/gaussian/g16/l601.exe)
 Copying SCF densities to generalized density rwf, IOpCl= 1 IROHF=0.

 **********************************************************************

            Population analysis using the SCF Density.

 **********************************************************************

 Orbital symmetries:
 Alpha Orbitals:
       Occupied  (A) (A) (A) (A) (A) (A) (A) (A) (A) (A) (A) (A)
                 (A) (A) (A) (A) (A) (A) (A) (A) (A) (A) (A) (A)
                 (A) (A) (A) (A) (A) (A) (A) (A) (A) (A) (A) (A)
                 (A) (A) (A) (A) (A)
       Virtual   (A) (A) (A) (A) (A) (A) (A) (A) (A) (A) (A) (A)
                 (A) (A) (A) (A) (A) (A) (A) (A) (A) (A) (A) (A)
                 (A) (A) (A) (A) (A) (A) (A) (A) (A) (A) (A) (A)
                 (A) (A) (A) (A) (A) (A) (A) (A) (A) (A) (A) (A)
                 (A) (A) (A) (A) (A) (A) (A) (A) (A) (A) (A) (A)
                 (A) (A) (A) (A) (A) (A) (A) (A) (A) (A) (A) (A)
                 (A) (A) (A) (A) (A) (A) (A) (A) (A) (A) (A) (A)
                 (A) (A) (A) (A) (A) (A) (A) (A) (A) (A) (A) (A)
                 (A) (A) (A) (A) (A) (A) (A) (A) (A) (A) (A) (A)
                 (A) (A) (A) (A) (A) (A) (A) (A) (A) (A) (A) (A)
                 (A) (A) (A) (A) (A) (A) (A) (A) (A) (A) (A) (A)
                 (A) (A) (A) (A) (A) (A) (A) (A) (A) (A) (A) (A)
                 (A) (A) (A) (A) (A) (A) (A) (A) (A) (A) (A) (A)
                 (A) (A) (A) (A) (A) (A) (A) (A) (A) (A) (A) (A)
                 (A) (A) (A) (A) (A) (A) (A) (A) (A) (A) (A) (A)
                 (A) (A) (A) (A) (A) (A) (A) (A) (A) (A) (A) (A)
                 (A) (A) (A) (A) (A) (A) (A) (A) (A) (A) (A) (A)
                 (A) (A) (A) (A) (A) (A) (A) (A) (A) (A) (A) (A)
                 (A) (A) (A) (A) (A) (A) (A) (A) (A) (A) (A) (A)
                 (A) (A) (A) (A) (A) (A) (A) (A) (A) (A) (A) (A)
                 (A) (A) (A) (A) (A) (A) (A) (A) (A) (A) (A) (A)
                 (A) (A) (A) (A) (A) (A) (A) (A) (A) (A) (A) (A)
                 (A) (A) (A) (A) (A) (A) (A) (A) (A) (A) (A) (A)
 Beta  Orbitals:
       Occupied  (A) (A) (A) (A) (A) (A) (A) (A) (A) (A) (A) (A)
                 (A) (A) (A) (A) (A) (A) (A) (A) (A) (A) (A) (A)
                 (A) (A) (A) (A) (A) (A) (A) (A) (A) (A) (A) (A)
                 (A) (A) (A)
       Virtual   (A) (A) (A) (A) (A) (A) (A) (A) (A) (A) (A) (A)
                 (A) (A) (A) (A) (A) (A) (A) (A) (A) (A) (A) (A)
                 (A) (A) (A) (A) (A) (A) (A) (A) (A) (A) (A) (A)
                 (A) (A) (A) (A) (A) (A) (A) (A) (A) (A) (A) (A)
                 (A) (A) (A) (A) (A) (A) (A) (A) (A) (A) (A) (A)
                 (A) (A) (A) (A) (A) (A) (A) (A) (A) (A) (A) (A)
                 (A) (A) (A) (A) (A) (A) (A) (A) (A) (A) (A) (A)
                 (A) (A) (A) (A) (A) (A) (A) (A) (A) (A) (A) (A)
                 (A) (A) (A) (A) (A) (A) (A) (A) (A) (A) (A) (A)
                 (A) (A) (A) (A) (A) (A) (A) (A) (A) (A) (A) (A)
                 (A) (A) (A) (A) (A) (A) (A) (A) (A) (A) (A) (A)
                 (A) (A) (A) (A) (A) (A) (A) (A) (A) (A) (A) (A)
                 (A) (A) (A) (A) (A) (A) (A) (A) (A) (A) (A) (A)
                 (A) (A) (A) (A) (A) (A) (A) (A) (A) (A) (A) (A)
                 (A) (A) (A) (A) (A) (A) (A) (A) (A) (A) (A) (A)
                 (A) (A) (A) (A) (A) (A) (A) (A) (A) (A) (A) (A)
                 (A) (A) (A) (A) (A) (A) (A) (A) (A) (A) (A) (A)
                 (A) (A) (A) (A) (A) (A) (A) (A) (A) (A) (A) (A)
                 (A) (A) (A) (A) (A) (A) (A) (A) (A) (A) (A) (A)
                 (A) (A) (A) (A) (A) (A) (A) (A) (A) (A) (A) (A)
                 (A) (A) (A) (A) (A) (A) (A) (A) (A) (A) (A) (A)
                 (A) (A) (A) (A) (A) (A) (A) (A) (A) (A) (A) (A)
                 (A) (A) (A) (A) (A) (A) (A) (A) (A) (A) (A) (A)
                 (A) (A)
 The electronic state is 3-A.
 Alpha  occ. eigenvalues -- -196.27272 -22.38202 -19.42568 -19.42371 -19.40982
 Alpha  occ. eigenvalues --  -19.40579 -19.39432 -19.38931 -18.97157 -18.96464
 Alpha  occ. eigenvalues --  -18.95976  -3.05821  -2.14580  -2.14039  -2.13619
 Alpha  occ. eigenvalues --   -1.57239  -1.55251  -1.54429  -1.53425  -1.52346
 Alpha  occ. eigenvalues --   -1.51788  -1.13659  -1.12052  -1.10321  -1.09457
 Alpha  occ. eigenvalues --   -1.08103  -1.06781  -1.01314  -1.01209  -1.00274
 Alpha  occ. eigenvalues --   -0.97277  -0.96226  -0.94463  -0.93068  -0.90210
 Alpha  occ. eigenvalues --   -0.89399  -0.88172  -0.86616  -0.85307  -0.70666
 Alpha  occ. eigenvalues --   -0.69830
 Alpha virt. eigenvalues --   -0.66994  -0.58211  -0.53179  -0.52583  -0.52373
 Alpha virt. eigenvalues --   -0.50447  -0.49261  -0.45987  -0.44962  -0.43414
 Alpha virt. eigenvalues --   -0.43049  -0.40394  -0.38887  -0.38567  -0.37121
 Alpha virt. eigenvalues --   -0.34359  -0.33594  -0.32522  -0.30840  -0.30149
 Alpha virt. eigenvalues --   -0.29872  -0.29301  -0.29058  -0.27215  -0.26867
 Alpha virt. eigenvalues --   -0.26538  -0.25748  -0.24136  -0.23617  -0.23176
 Alpha virt. eigenvalues --   -0.21494  -0.21276  -0.20677  -0.19372  -0.18076
 Alpha virt. eigenvalues --   -0.17497  -0.17157  -0.16846  -0.15887  -0.14650
 Alpha virt. eigenvalues --   -0.14093  -0.13626  -0.11591  -0.11200  -0.09720
 Alpha virt. eigenvalues --   -0.09115  -0.08227  -0.07845  -0.06295  -0.03054
 Alpha virt. eigenvalues --   -0.02210  -0.01060   0.01987   0.02862   0.04300
 Alpha virt. eigenvalues --    0.06441   0.17502   0.18277   0.19612   0.22792
 Alpha virt. eigenvalues --    0.23589   0.24178   0.24421   0.25136   0.27780
 Alpha virt. eigenvalues --    0.28772   0.29394   0.30000   0.32926   0.33722
 Alpha virt. eigenvalues --    0.34197   0.35448   0.35775   0.37550   0.37811
 Alpha virt. eigenvalues --    0.39294   0.42024   0.43974   0.46032   0.46231
 Alpha virt. eigenvalues --    0.47766   0.48132   0.49173   0.50152   0.51479
 Alpha virt. eigenvalues --    0.52723   0.53414   0.54714   0.56646   0.57682
 Alpha virt. eigenvalues --    0.62708   0.63393   0.63686   0.66707   0.67718
 Alpha virt. eigenvalues --    0.69648   0.70775   0.71967   0.73799   0.76563
 Alpha virt. eigenvalues --    0.77032   0.77927   0.80534   0.81763   0.83169
 Alpha virt. eigenvalues --    0.86297   0.88001   0.89499   0.95741   0.97603
 Alpha virt. eigenvalues --    1.00844   1.08070   1.08561   1.10096   1.11562
 Alpha virt. eigenvalues --    1.14808   1.15330   1.19169   1.21685   1.23947
 Alpha virt. eigenvalues --    1.27028   1.30250   1.32503   1.35511   1.40050
 Alpha virt. eigenvalues --    1.43707   1.61235   1.61760   1.64121   1.65537
 Alpha virt. eigenvalues --    1.68100   1.68415   1.69655   1.70830   1.74244
 Alpha virt. eigenvalues --    1.77446   1.80175   1.82739   1.86086   1.90963
 Alpha virt. eigenvalues --    1.91652   1.95125   1.97156   2.01819   2.07758
 Alpha virt. eigenvalues --    2.10933   2.13237   2.14500   2.20247   2.21713
 Alpha virt. eigenvalues --    2.24860   2.25151   2.27133   2.29158   2.31074
 Alpha virt. eigenvalues --    2.32829   2.34318   2.36839   2.37235   2.39509
 Alpha virt. eigenvalues --    2.42132   2.42660   2.43437   2.47462   2.51679
 Alpha virt. eigenvalues --    2.53249   2.53928   2.54503   2.57502   2.61129
 Alpha virt. eigenvalues --    2.61938   2.71409   2.77390   2.79468   2.80975
 Alpha virt. eigenvalues --    2.83307   2.84126   2.87090   2.87907   2.89042
 Alpha virt. eigenvalues --    2.95115   3.10322   3.16115   3.40095   3.43143
 Alpha virt. eigenvalues --    3.44527   3.50224   3.51233   3.53992   3.55132
 Alpha virt. eigenvalues --    3.57117   3.57608   3.58263   3.61028   3.63874
 Alpha virt. eigenvalues --    3.68841   3.70843   3.75795   3.76865   3.79393
 Alpha virt. eigenvalues --    3.80937   3.85677   3.87165   3.90221   3.94180
 Alpha virt. eigenvalues --    3.95696   3.97849   4.03374   4.06252   4.06954
 Alpha virt. eigenvalues --    4.08878   4.11477   4.13683   4.21484   4.23899
 Alpha virt. eigenvalues --    4.25855   4.27922   4.29479   4.30444   4.38171
 Alpha virt. eigenvalues --    4.44953   4.50921   4.56498   4.58322   4.62062
 Alpha virt. eigenvalues --    4.64016   4.68503   4.74637   4.76306   4.79495
 Alpha virt. eigenvalues --    4.79590   4.80057   4.81119   4.82706   4.85922
 Alpha virt. eigenvalues --    4.87243   4.91209   4.94459   4.95780   4.97220
 Alpha virt. eigenvalues --    4.99559   5.02365   5.04809   5.07371   5.10985
 Alpha virt. eigenvalues --    5.13685   5.15361   5.15771   5.16875   5.18542
 Alpha virt. eigenvalues --    5.19375   5.22329   5.22526   5.23147   5.25325
 Alpha virt. eigenvalues --    5.28031   5.28596   5.29147   5.30652   5.31130
 Alpha virt. eigenvalues --    5.63319   5.65810   6.12374   6.77150   6.79834
 Alpha virt. eigenvalues --    6.80612   6.89913   6.94716   7.02941  13.02171
 Alpha virt. eigenvalues --   13.03731  13.04398  13.48608  13.54282  13.61914
 Alpha virt. eigenvalues --   36.24426
  Beta  occ. eigenvalues -- -196.27257 -22.36068 -19.42594 -19.42390 -19.40964
  Beta  occ. eigenvalues --  -19.40553 -19.39438 -19.38951 -18.95935 -18.94771
  Beta  occ. eigenvalues --  -18.93952  -2.99328  -2.10009  -2.07616  -2.05941
  Beta  occ. eigenvalues --   -1.57125  -1.55180  -1.54314  -1.53213  -1.52220
  Beta  occ. eigenvalues --   -1.51701  -1.13385  -1.11782  -1.10141  -1.09294
  Beta  occ. eigenvalues --   -1.07926  -1.06649  -1.01008  -1.00805  -0.99858
  Beta  occ. eigenvalues --   -0.97031  -0.95949  -0.94270  -0.92800  -0.89999
  Beta  occ. eigenvalues --   -0.89149  -0.87877  -0.86398  -0.85218
  Beta virt. eigenvalues --   -0.63911  -0.62324  -0.61597  -0.58064  -0.52473
  Beta virt. eigenvalues --   -0.50687  -0.50567  -0.49772  -0.49104  -0.45580
  Beta virt. eigenvalues --   -0.44558  -0.43235  -0.42913  -0.40207  -0.38730
  Beta virt. eigenvalues --   -0.38414  -0.36864  -0.34302  -0.33538  -0.32474
  Beta virt. eigenvalues --   -0.30738  -0.30080  -0.29833  -0.29187  -0.28908
  Beta virt. eigenvalues --   -0.27174  -0.26678  -0.26485  -0.25536  -0.23967
  Beta virt. eigenvalues --   -0.23444  -0.22989  -0.21438  -0.21069  -0.20316
  Beta virt. eigenvalues --   -0.19178  -0.17895  -0.17400  -0.16967  -0.16604
  Beta virt. eigenvalues --   -0.15668  -0.14369  -0.13920  -0.13332  -0.11095
  Beta virt. eigenvalues --   -0.11044  -0.09504  -0.08859  -0.07878  -0.07608
  Beta virt. eigenvalues --   -0.06025  -0.02795  -0.01419  -0.00352   0.02274
  Beta virt. eigenvalues --    0.02971   0.04997   0.07076   0.18291   0.18678
  Beta virt. eigenvalues --    0.20058   0.23434   0.24057   0.24879   0.25004
  Beta virt. eigenvalues --    0.25760   0.28009   0.29089   0.29695   0.30254
  Beta virt. eigenvalues --    0.33200   0.33890   0.34400   0.35661   0.35994
  Beta virt. eigenvalues --    0.37812   0.38201   0.39538   0.42299   0.44389
  Beta virt. eigenvalues --    0.46319   0.46437   0.47989   0.48371   0.49401
  Beta virt. eigenvalues --    0.50305   0.51921   0.52990   0.53705   0.54973
  Beta virt. eigenvalues --    0.56968   0.58071   0.63211   0.63514   0.63995
  Beta virt. eigenvalues --    0.66937   0.67999   0.69938   0.71543   0.72245
  Beta virt. eigenvalues --    0.73889   0.77041   0.77612   0.78761   0.81074
  Beta virt. eigenvalues --    0.82023   0.83502   0.87150   0.88913   0.89683
  Beta virt. eigenvalues --    0.96837   0.98584   1.01847   1.10042   1.10948
  Beta virt. eigenvalues --    1.12363   1.13711   1.16752   1.17419   1.20109
  Beta virt. eigenvalues --    1.22638   1.24802   1.27980   1.31303   1.33863
  Beta virt. eigenvalues --    1.36087   1.41259   1.44560   1.61635   1.62183
  Beta virt. eigenvalues --    1.64505   1.65907   1.68591   1.68873   1.70073
  Beta virt. eigenvalues --    1.71421   1.74712   1.77774   1.80482   1.83363
  Beta virt. eigenvalues --    1.86627   1.91562   1.92220   1.95947   1.98050
  Beta virt. eigenvalues --    2.02476   2.08633   2.12575   2.14287   2.15237
  Beta virt. eigenvalues --    2.21056   2.22575   2.25511   2.25780   2.27767
  Beta virt. eigenvalues --    2.29775   2.32080   2.33764   2.34955   2.37579
  Beta virt. eigenvalues --    2.38209   2.40153   2.42728   2.43424   2.44141
  Beta virt. eigenvalues --    2.48235   2.52256   2.53759   2.54609   2.55162
  Beta virt. eigenvalues --    2.58347   2.61571   2.62350   2.72379   2.79850
  Beta virt. eigenvalues --    2.80923   2.83933   2.86355   2.86628   2.89550
  Beta virt. eigenvalues --    2.90699   2.91961   2.97583   3.13120   3.19308
  Beta virt. eigenvalues --    3.40140   3.43216   3.44596   3.50537   3.51384
  Beta virt. eigenvalues --    3.54418   3.55430   3.57659   3.58055   3.58390
  Beta virt. eigenvalues --    3.61439   3.64201   3.69091   3.70994   3.76351
  Beta virt. eigenvalues --    3.77140   3.79634   3.81141   3.86093   3.88800
  Beta virt. eigenvalues --    3.93622   3.97406   3.98877   3.99383   4.04440
  Beta virt. eigenvalues --    4.07840   4.08718   4.10585   4.13794   4.13976
  Beta virt. eigenvalues --    4.22360   4.25140   4.26511   4.29127   4.30206
  Beta virt. eigenvalues --    4.31365   4.40354   4.46944   4.51141   4.57085
  Beta virt. eigenvalues --    4.58816   4.62440   4.64649   4.69522   4.74760
  Beta virt. eigenvalues --    4.76394   4.79688   4.79757   4.80216   4.81393
  Beta virt. eigenvalues --    4.83095   4.86341   4.87667   4.91797   4.95359
  Beta virt. eigenvalues --    4.96241   4.98172   5.00048   5.02712   5.05324
  Beta virt. eigenvalues --    5.08194   5.11460   5.14038   5.15659   5.16530
  Beta virt. eigenvalues --    5.17199   5.19040   5.19783   5.22652   5.23278
  Beta virt. eigenvalues --    5.23655   5.25952   5.28642   5.29250   5.29396
  Beta virt. eigenvalues --    5.30855   5.31380   5.63447   5.65990   6.13730
  Beta virt. eigenvalues --    6.77428   6.80099   6.80870   6.90097   6.94875
  Beta virt. eigenvalues --    7.03196  13.02313  13.03886  13.04509  13.48659
  Beta virt. eigenvalues --   13.54346  13.61961  36.26547
          Condensed to atoms (all electrons):
               1          2          3          4          5          6
     1  V   22.548990  -0.080955  -0.028662  -0.094561  -0.034318  -0.076635
     2  O   -0.080955   8.204430   0.328257  -0.104964  -0.001424  -0.040797
     3  H   -0.028662   0.328257   0.270882  -0.001056  -0.000005   0.000089
     4  O   -0.094561  -0.104964  -0.001056   8.460064   0.323745  -0.145527
     5  H   -0.034318  -0.001424  -0.000005   0.323745   0.303037  -0.000374
     6  O   -0.076635  -0.040797   0.000089  -0.145527  -0.000374   8.264564
     7  H   -0.025224  -0.005254   0.000034   0.004271  -0.000231   0.324585
     8  O   -0.086918   0.064194  -0.000264  -0.113144   0.001231  -0.091646
     9  H   -0.024759  -0.000680  -0.000036  -0.004706  -0.000134   0.005129
    10  O   -0.102801  -0.078842  -0.001050   0.084743  -0.000877  -0.122660
    11  H   -0.021060   0.002958  -0.000245  -0.000228   0.000015  -0.002854
    12  O   -0.077178   0.056683   0.000257  -0.112991  -0.001819   0.070226
    13  H   -0.033954  -0.005033   0.000030   0.000858  -0.000124   0.000307
    14  H   -0.010252  -0.001889  -0.000016   0.003158   0.000039  -0.000899
    15  H   -0.023383  -0.002246  -0.000077   0.320810  -0.025033  -0.006598
    16  H   -0.021125   0.319952  -0.016534  -0.000385  -0.000036  -0.008563
    17  H   -0.035026  -0.002864   0.000016  -0.000846  -0.000029   0.000126
    18  H   -0.023581   0.006821   0.000034  -0.007697   0.000741   0.315942
    19  H   -0.022774  -0.001289   0.000017   0.006579   0.000968  -0.012745
               7          8          9         10         11         12
     1  V   -0.025224  -0.086918  -0.024759  -0.102801  -0.021060  -0.077178
     2  O   -0.005254   0.064194  -0.000680  -0.078842   0.002958   0.056683
     3  H    0.000034  -0.000264  -0.000036  -0.001050  -0.000245   0.000257
     4  O    0.004271  -0.113144  -0.004706   0.084743  -0.000228  -0.112991
     5  H   -0.000231   0.001231  -0.000134  -0.000877   0.000015  -0.001819
     6  O    0.324585  -0.091646   0.005129  -0.122660  -0.002854   0.070226
     7  H    0.310156  -0.016554  -0.000496   0.006485  -0.000048  -0.001008
     8  O   -0.016554   8.223903   0.320248  -0.083207  -0.005689  -0.008754
     9  H   -0.000496   0.320248   0.291210  -0.010794   0.000626   0.006158
    10  O    0.006485  -0.083207  -0.010794   8.418780   0.318132  -0.146401
    11  H   -0.000048  -0.005689   0.000626   0.318132   0.295098  -0.004241
    12  O   -0.001008  -0.008754   0.006158  -0.146401  -0.004241   8.220314
    13  H    0.000016  -0.003424   0.000045   0.000387  -0.000169   0.335410
    14  H   -0.000043  -0.007992   0.000796  -0.000461   0.003126   0.305122
    15  H    0.000074  -0.002053  -0.000012  -0.000428  -0.000002   0.002248
    16  H   -0.000130  -0.000118   0.000015   0.003094   0.000008  -0.003010
    17  H    0.001270  -0.001611   0.000123   0.327219  -0.025022  -0.000814
    18  H   -0.020390   0.005658  -0.000011  -0.004864  -0.000003  -0.000859
    19  H    0.005629   0.317571  -0.020104   0.004213   0.000066  -0.004170
              13         14         15         16         17         18
     1  V   -0.033954  -0.010252  -0.023383  -0.021125  -0.035026  -0.023581
     2  O   -0.005033  -0.001889  -0.002246   0.319952  -0.002864   0.006821
     3  H    0.000030  -0.000016  -0.000077  -0.016534   0.000016   0.000034
     4  O    0.000858   0.003158   0.320810  -0.000385  -0.000846  -0.007697
     5  H   -0.000124   0.000039  -0.025033  -0.000036  -0.000029   0.000741
     6  O    0.000307  -0.000899  -0.006598  -0.008563   0.000126   0.315942
     7  H    0.000016  -0.000043   0.000074  -0.000130   0.001270  -0.020390
     8  O   -0.003424  -0.007992  -0.002053  -0.000118  -0.001611   0.005658
     9  H    0.000045   0.000796  -0.000012   0.000015   0.000123  -0.000011
    10  O    0.000387  -0.000461  -0.000428   0.003094   0.327219  -0.004864
    11  H   -0.000169   0.003126  -0.000002   0.000008  -0.025022  -0.000003
    12  O    0.335410   0.305122   0.002248  -0.003010  -0.000814  -0.000859
    13  H    0.266213  -0.017268  -0.000168   0.000006  -0.000016  -0.000038
    14  H   -0.017268   0.308674   0.000003  -0.000025  -0.000089   0.000015
    15  H   -0.000168   0.000003   0.285433   0.001137   0.000014   0.000394
    16  H    0.000006  -0.000025   0.001137   0.292730   0.000045   0.000072
    17  H   -0.000016  -0.000089   0.000014   0.000045   0.301277  -0.000172
    18  H   -0.000038   0.000015   0.000394   0.000072  -0.000172   0.290166
    19  H    0.000035  -0.000156  -0.000042  -0.000047  -0.000234  -0.000407
              19
     1  V   -0.022774
     2  O   -0.001289
     3  H    0.000017
     4  O    0.006579
     5  H    0.000968
     6  O   -0.012745
     7  H    0.005629
     8  O    0.317571
     9  H   -0.020104
    10  O    0.004213
    11  H    0.000066
    12  O   -0.004170
    13  H    0.000035
    14  H   -0.000156
    15  H   -0.000042
    16  H   -0.000047
    17  H   -0.000234
    18  H   -0.000407
    19  H    0.306372
          Atomic-Atomic Spin Densities.
               1          2          3          4          5          6
     1  V    2.222551  -0.017748  -0.010488  -0.037355  -0.014754  -0.027744
     2  O   -0.017748  -0.010003   0.005679   0.002466  -0.000034  -0.004281
     3  H   -0.010488   0.005679   0.013543   0.000255   0.000022  -0.001462
     4  O   -0.037355   0.002466   0.000255   0.019743   0.008056  -0.001886
     5  H   -0.014754  -0.000034   0.000022   0.008056   0.016079   0.000166
     6  O   -0.027744  -0.004281  -0.001462  -0.001886   0.000166   0.005380
     7  H   -0.012992  -0.001542   0.000034  -0.001114   0.000018   0.008872
     8  O   -0.020842   0.002866  -0.000021   0.001086   0.003610   0.000247
     9  H   -0.010861  -0.000266  -0.000026  -0.001418  -0.000226  -0.000821
    10  O   -0.038307   0.001840   0.005272  -0.000528  -0.000393   0.002133
    11  H   -0.007928   0.001215  -0.000087  -0.000103   0.000005  -0.001261
    12  O   -0.016336   0.001092   0.000536   0.004089  -0.001961   0.001547
    13  H   -0.011130  -0.000839   0.000012   0.004469  -0.000146   0.000184
    14  H   -0.011191   0.000300  -0.000064  -0.001831   0.000001  -0.000383
    15  H   -0.007048   0.002041  -0.000151   0.001418  -0.002924   0.000655
    16  H   -0.010110   0.007117  -0.003192   0.000036  -0.000090   0.002179
    17  H   -0.014379  -0.002259  -0.000145  -0.000477  -0.000020   0.003758
    18  H   -0.008611   0.002790   0.000015   0.006934   0.001506  -0.004048
    19  H   -0.011055  -0.000315   0.000012   0.001697   0.000996   0.002929
               7          8          9         10         11         12
     1  V   -0.012992  -0.020842  -0.010861  -0.038307  -0.007928  -0.016336
     2  O   -0.001542   0.002866  -0.000266   0.001840   0.001215   0.001092
     3  H    0.000034  -0.000021  -0.000026   0.005272  -0.000087   0.000536
     4  O   -0.001114   0.001086  -0.001418  -0.000528  -0.000103   0.004089
     5  H    0.000018   0.003610  -0.000226  -0.000393   0.000005  -0.001961
     6  O    0.008872   0.000247  -0.000821   0.002133  -0.001261   0.001547
     7  H    0.015698   0.000062  -0.000419   0.001306  -0.000152  -0.000083
     8  O    0.000062  -0.004382   0.002553   0.000542   0.001382  -0.002283
     9  H   -0.000419   0.002553   0.018983   0.004777   0.000268   0.002278
    10  O    0.001306   0.000542   0.004777   0.012719   0.001348   0.003890
    11  H   -0.000152   0.001382   0.000268   0.001348   0.014211   0.000889
    12  O   -0.000083  -0.002283   0.002278   0.003890   0.000889  -0.012819
    13  H    0.000010  -0.002057   0.000001   0.000024  -0.000204   0.009005
    14  H   -0.000027   0.002928   0.000656   0.000255   0.001669   0.004128
    15  H   -0.000109  -0.000662   0.000027  -0.000154   0.000004   0.000279
    16  H   -0.000163  -0.000096   0.000012  -0.001954   0.000035  -0.000288
    17  H    0.000874  -0.000163   0.000797   0.008931  -0.003492   0.000016
    18  H   -0.004335   0.000465  -0.000021  -0.001173   0.000030  -0.000533
    19  H    0.002809   0.003553  -0.004763  -0.001143  -0.000107  -0.001060
              13         14         15         16         17         18
     1  V   -0.011130  -0.011191  -0.007048  -0.010110  -0.014379  -0.008611
     2  O   -0.000839   0.000300   0.002041   0.007117  -0.002259   0.002790
     3  H    0.000012  -0.000064  -0.000151  -0.003192  -0.000145   0.000015
     4  O    0.004469  -0.001831   0.001418   0.000036  -0.000477   0.006934
     5  H   -0.000146   0.000001  -0.002924  -0.000090  -0.000020   0.001506
     6  O    0.000184  -0.000383   0.000655   0.002179   0.003758  -0.004048
     7  H    0.000010  -0.000027  -0.000109  -0.000163   0.000874  -0.004335
     8  O   -0.002057   0.002928  -0.000662  -0.000096  -0.000163   0.000465
     9  H    0.000001   0.000656   0.000027   0.000012   0.000797  -0.000021
    10  O    0.000024   0.000255  -0.000154  -0.001954   0.008931  -0.001173
    11  H   -0.000204   0.001669   0.000004   0.000035  -0.003492   0.000030
    12  O    0.009005   0.004128   0.000279  -0.000288   0.000016  -0.000533
    13  H    0.012418  -0.003448  -0.000087  -0.000030   0.000024  -0.000027
    14  H   -0.003448   0.013405   0.000033   0.000019  -0.000129   0.000013
    15  H   -0.000087   0.000033   0.010881   0.000916   0.000003   0.000214
    16  H   -0.000030   0.000019   0.000916   0.009913   0.000006   0.000260
    17  H    0.000024  -0.000129   0.000003   0.000006   0.015019  -0.000212
    18  H   -0.000027   0.000013   0.000214   0.000260  -0.000212   0.021841
    19  H    0.000033  -0.000174  -0.000149  -0.000025  -0.000003  -0.000370
              19
     1  V   -0.011055
     2  O   -0.000315
     3  H    0.000012
     4  O    0.001697
     5  H    0.000996
     6  O    0.002929
     7  H    0.002809
     8  O    0.003553
     9  H   -0.004763
    10  O   -0.001143
    11  H   -0.000107
    12  O   -0.001060
    13  H    0.000033
    14  H   -0.000174
    15  H   -0.000149
    16  H   -0.000025
    17  H   -0.000003
    18  H   -0.000370
    19  H    0.016438
 Mulliken charges and spin densities:
               1          2
     1  V    1.274177   1.933672
     2  O   -0.657057  -0.009880
     3  H    0.448330   0.009742
     4  O   -0.618122   0.005536
     5  H    0.434629   0.009910
     6  O   -0.471670  -0.013836
     7  H    0.416858   0.008748
     8  O   -0.511432  -0.011213
     9  H    0.437380   0.011531
    10  O   -0.610667  -0.000615
    11  H    0.439532   0.007724
    12  O   -0.635175  -0.007616
    13  H    0.456885   0.008212
    14  H    0.418156   0.006159
    15  H    0.449929   0.005187
    16  H    0.432914   0.004547
    17  H    0.436635   0.008150
    18  H    0.438179   0.014739
    19  H    0.420519   0.009304
 Sum of Mulliken charges =   3.00000   2.00000
 Mulliken charges and spin densities with hydrogens summed into heavy atoms:
               1          2
     1  V    1.274177   1.933672
     2  O    0.224187   0.004409
     4  O    0.266435   0.020633
     6  O    0.383368   0.009651
     8  O    0.346467   0.009622
    10  O    0.265499   0.015259
    12  O    0.239866   0.006755
 APT charges:
               1
     1  V    2.000097
     2  O   -0.581137
     3  H    0.387632
     4  O   -0.524658
     5  H    0.333236
     6  O   -0.500570
     7  H    0.325797
     8  O   -0.512994
     9  H    0.339668
    10  O   -0.523214
    11  H    0.351679
    12  O   -0.564049
    13  H    0.391488
    14  H    0.349753
    15  H    0.360916
    16  H    0.365252
    17  H    0.338599
    18  H    0.334970
    19  H    0.327535
 Sum of APT charges =   3.00000
 APT charges with hydrogens summed into heavy atoms:
               1
     1  V    2.000097
     2  O    0.171748
     4  O    0.169494
     6  O    0.160197
     8  O    0.154209
    10  O    0.167063
    12  O    0.177192
 Electronic spatial extent (au):  <R**2>=            839.9476
 Charge=              3.0000 electrons
 Dipole moment (field-independent basis, Debye):
    X=              2.1721    Y=              3.5342    Z=             -0.9641  Tot=              4.2589
 Quadrupole moment (field-independent basis, Debye-Ang):
   XX=            -12.7943   YY=            -15.9354   ZZ=            -26.6736
   XY=             -3.9340   XZ=             -1.8681   YZ=             -0.6530
 Traceless Quadrupole moment (field-independent basis, Debye-Ang):
   XX=              5.6734   YY=              2.5323   ZZ=             -8.2058
   XY=             -3.9340   XZ=             -1.8681   YZ=             -0.6530
 Octapole moment (field-independent basis, Debye-Ang**2):
  XXX=             17.5244  YYY=             16.5287  ZZZ=              5.0141  XYY=              4.0640
  XXY=              8.8452  XXZ=              3.2999  XZZ=             -8.1100  YZZ=             -3.3514
  YYZ=            -14.4130  XYZ=             -3.1262
 Hexadecapole moment (field-independent basis, Debye-Ang**3):
 XXXX=           -173.9205 YYYY=           -178.1723 ZZZZ=           -217.1927 XXXY=            -20.8255
 XXXZ=              1.2955 YYYX=             -7.9276 YYYZ=             12.1461 ZZZX=            -17.0770
 ZZZY=            -14.5682 XXYY=            -49.1679 XXZZ=            -55.1600 YYZZ=            -52.5333
 XXYZ=             -0.6927 YYXZ=              3.3097 ZZXY=              2.2007
 N-N= 7.176960716152D+02 E-N=-4.707525988090D+03  KE= 1.399684416777D+03
  Exact polarizability:      55.681      -0.096      54.953      -1.092       0.183      50.459
 Approx polarizability:      90.116       0.570      90.173      -2.919       0.578      80.592
                          Isotropic Fermi Contact Couplings
        Atom                 a.u.       MegaHertz       Gauss      10(-4) cm-1
     1  V(51)             -0.08298     -48.86885     -17.43762     -16.30089
     2  O(17)             -0.01341       4.06355       1.44998       1.35546
     3  H(1)               0.00617      13.77884       4.91663       4.59612
     4  O(17)              0.00449      -1.36214      -0.48605      -0.45436
     5  H(1)               0.00640      14.30657       5.10494       4.77216
     6  O(17)              0.00024      -0.07193      -0.02567      -0.02399
     7  H(1)               0.00564      12.60358       4.49727       4.20410
     8  O(17)             -0.00693       2.10094       0.74967       0.70080
     9  H(1)               0.00691      15.44432       5.51092       5.15167
    10  O(17)             -0.00186       0.56422       0.20133       0.18820
    11  H(1)               0.00526      11.74901       4.19234       3.91905
    12  O(17)             -0.01379       4.17931       1.49128       1.39407
    13  H(1)               0.00568      12.69170       4.52871       4.23349
    14  H(1)               0.00451      10.07688       3.59568       3.36129
    15  H(1)               0.00422       9.42813       3.36419       3.14488
    16  H(1)               0.00360       8.04707       2.87139       2.68421
    17  H(1)               0.00637      14.24408       5.08264       4.75132
    18  H(1)               0.00768      17.17304       6.12777       5.72831
    19  H(1)               0.00515      11.51387       4.10843       3.84061
 --------------------------------------------------------
       Center         ----  Spin Dipole Couplings  ----
                      3XX-RR        3YY-RR        3ZZ-RR
 --------------------------------------------------------
     1   Atom        0.728683      0.167361     -0.896044
     2   Atom       -0.005811      0.024427     -0.018615
     3   Atom       -0.006843      0.010516     -0.003672
     4   Atom       -0.020076     -0.031325      0.051400
     5   Atom        0.023459     -0.020967     -0.002493
     6   Atom        0.002094     -0.020788      0.018694
     7   Atom        0.002606     -0.003053      0.000447
     8   Atom       -0.016880      0.025537     -0.008657
     9   Atom       -0.019394      0.038536     -0.019142
    10   Atom       -0.006372      0.003350      0.003022
    11   Atom        0.027901     -0.011443     -0.016457
    12   Atom        0.014536     -0.008176     -0.006360
    13   Atom       -0.010607     -0.014279      0.024885
    14   Atom        0.010572     -0.017294      0.006722
    15   Atom        0.009361      0.004953     -0.014314
    16   Atom       -0.019138      0.019555     -0.000418
    17   Atom       -0.013075      0.000561      0.012514
    18   Atom        0.032052     -0.021246     -0.010805
    19   Atom       -0.007562      0.026365     -0.018803
 --------------------------------------------------------
                        XY            XZ            YZ
 --------------------------------------------------------
     1   Atom       -0.342769      0.091224     -0.392857
     2   Atom        0.000827      0.007566      0.011969
     3   Atom        0.020377      0.015478      0.022972
     4   Atom       -0.007355     -0.017027     -0.030811
     5   Atom        0.002986      0.029271      0.001441
     6   Atom        0.008268     -0.021699     -0.001299
     7   Atom        0.020652     -0.022185     -0.019649
     8   Atom        0.006605      0.008198      0.012146
     9   Atom       -0.009179     -0.002226      0.012611
    10   Atom        0.011440      0.032573      0.028361
    11   Atom       -0.024004      0.013984     -0.006061
    12   Atom        0.017931     -0.008844     -0.004370
    13   Atom        0.007523     -0.020493     -0.018263
    14   Atom       -0.010386     -0.030302      0.009432
    15   Atom       -0.029813      0.013836     -0.011759
    16   Atom       -0.008004     -0.006129      0.028472
    17   Atom       -0.012769      0.016214     -0.028611
    18   Atom        0.000342     -0.023504     -0.000168
    19   Atom        0.025435      0.005199      0.008602
 --------------------------------------------------------


 ---------------------------------------------------------------------------------
              Anisotropic Spin Dipole Couplings in Principal Axis System
 ---------------------------------------------------------------------------------

       Atom             a.u.   MegaHertz   Gauss  10(-4) cm-1        Axes

              Baa    -1.0257  -144.203   -51.455   -48.101  0.0124  0.3160  0.9487
     1 V(51)  Bbb     0.0980    13.784     4.918     4.598  0.4894  0.8255 -0.2813
              Bcc     0.9276   130.419    46.537    43.503  0.8720 -0.4677  0.1444
 
              Baa    -0.0245     1.770     0.631     0.590 -0.3589 -0.2162  0.9080
     2 O(17)  Bbb    -0.0033     0.239     0.085     0.080  0.9297 -0.1690  0.3272
              Bcc     0.0278    -2.008    -0.717    -0.670  0.0827  0.9616  0.2617
 
              Baa    -0.0209   -11.140    -3.975    -3.716 -0.5599 -0.2209  0.7986
[...]
    14  H   -0.015662   0.298369  -0.000000   0.000003  -0.000039   0.000000
    15  H   -0.000061  -0.000000   0.298436  -0.000036   0.000000  -0.000041
    16  H   -0.000001   0.000003  -0.000036   0.298205   0.000003  -0.000062
    17  H    0.000003  -0.000039   0.000000   0.000003   0.298403  -0.000000
    18  H    0.000000   0.000000  -0.000041  -0.000062  -0.000000   0.298375
    19  H    0.000003  -0.000000  -0.000000   0.000000  -0.000039  -0.000040
              19
     1  V   -0.012082
     2  O   -0.000504
     3  H    0.000000
     4  O    0.001851
     5  H   -0.000062
     6  O    0.002534
     7  H   -0.000036
     8  O    0.293064
     9  H   -0.015656
    10  O    0.001570
    11  H    0.000003
    12  O    0.000822
    13  H    0.000003
    14  H   -0.000000
    15  H   -0.000000
    16  H    0.000000
    17  H   -0.000039
    18  H   -0.000040
    19  H    0.298403
          Atomic-Atomic Spin Densities.
               1          2          3          4          5          6
     1  V    2.147019  -0.016988  -0.002476  -0.017056  -0.002538  -0.017091
     2  O   -0.016988  -0.002529   0.002081   0.002878  -0.000060   0.002202
     3  H   -0.002476   0.002081   0.003280   0.000051   0.000001  -0.000233
     4  O   -0.017056   0.002878   0.000051  -0.002394   0.001943   0.002849
     5  H   -0.002538  -0.000060   0.000001   0.001943   0.002433  -0.000027
     6  O   -0.017091   0.002202  -0.000233   0.002849  -0.000027  -0.002302
     7  H   -0.002544  -0.000276   0.000002  -0.000060  -0.000002   0.001950
     8  O   -0.016940  -0.000985  -0.000015   0.002204   0.000688   0.002859
     9  H   -0.002562  -0.000018  -0.000000  -0.000276  -0.000014  -0.000060
    10  O   -0.016843   0.002156   0.000098  -0.000978  -0.000018   0.002147
    11  H   -0.002574   0.000699   0.000026  -0.000018   0.000000  -0.000275
    12  O   -0.016954   0.002875   0.000415   0.002157  -0.000275  -0.000982
    13  H   -0.002564  -0.000028   0.000033   0.000699  -0.000014  -0.000018
    14  H   -0.002490   0.000049  -0.000017  -0.000233   0.000002  -0.000016
    15  H   -0.002466   0.000416  -0.000017   0.002069  -0.001043   0.000052
    16  H   -0.002553   0.001952  -0.001050  -0.000029  -0.000002   0.000696
    17  H   -0.002499  -0.000233  -0.000002  -0.000015  -0.000000   0.000102
    18  H   -0.002475   0.000098  -0.000002   0.000417   0.000032   0.002077
    19  H   -0.002486  -0.000016   0.000000   0.000100   0.000026   0.000417
               7          8          9         10         11         12
     1  V   -0.002544  -0.016940  -0.002562  -0.016843  -0.002574  -0.016954
     2  O   -0.000276  -0.000985  -0.000018   0.002156   0.000699   0.002875
     3  H    0.000002  -0.000015  -0.000000   0.000098   0.000026   0.000415
     4  O   -0.000060   0.002204  -0.000276  -0.000978  -0.000018   0.002157
     5  H   -0.000002   0.000688  -0.000014  -0.000018   0.000000  -0.000275
     6  O    0.001950   0.002859  -0.000060   0.002147  -0.000275  -0.000982
     7  H    0.002449  -0.000027  -0.000002   0.000683  -0.000014  -0.000018
     8  O   -0.000027  -0.002707   0.001956   0.002872  -0.000060   0.002161
     9  H   -0.000002   0.001956   0.002492  -0.000025  -0.000002   0.000691
    10  O    0.000683   0.002872  -0.000025  -0.002997   0.001952   0.002859
    11  H   -0.000014  -0.000060  -0.000002   0.001952   0.002536  -0.000025
    12  O   -0.000018   0.002161   0.000691   0.002859  -0.000025  -0.002650
    13  H    0.000000  -0.000277  -0.000014  -0.000058  -0.000002   0.001950
    14  H   -0.000000   0.000100   0.000026   0.000406   0.000033   0.002103
    15  H    0.000001  -0.000230   0.000002  -0.000016  -0.000000   0.000098
    16  H   -0.000014  -0.000018   0.000000  -0.000277  -0.000014  -0.000059
    17  H    0.000027   0.000410   0.000032   0.002110  -0.001065   0.000047
    18  H   -0.001044   0.000051   0.000001  -0.000228   0.000002  -0.000016
    19  H    0.000032   0.002090  -0.001056   0.000048   0.000001  -0.000231
              13         14         15         16         17         18
     1  V   -0.002564  -0.002490  -0.002466  -0.002553  -0.002499  -0.002475
     2  O   -0.000028   0.000049   0.000416   0.001952  -0.000233   0.000098
     3  H    0.000033  -0.000017  -0.000017  -0.001050  -0.000002  -0.000002
     4  O    0.000699  -0.000233   0.002069  -0.000029  -0.000015   0.000417
     5  H   -0.000014   0.000002  -0.001043  -0.000002  -0.000000   0.000032
     6  O   -0.000018  -0.000016   0.000052   0.000696   0.000102   0.002077
     7  H    0.000000  -0.000000   0.000001  -0.000014   0.000027  -0.001044
     8  O   -0.000277   0.000100  -0.000230  -0.000018   0.000410   0.000051
     9  H   -0.000014   0.000026   0.000002   0.000000   0.000032   0.000001
    10  O   -0.000058   0.000406  -0.000016  -0.000277   0.002110  -0.000228
    11  H   -0.000002   0.000033  -0.000000  -0.000014  -0.001065   0.000002
    12  O    0.001950   0.002103   0.000098  -0.000059   0.000047  -0.000016
    13  H    0.002489  -0.001057   0.000026  -0.000002   0.000001  -0.000000
    14  H   -0.001057   0.003285  -0.000002   0.000001  -0.000017   0.000000
    15  H    0.000026  -0.000002   0.003257   0.000033   0.000000  -0.000017
    16  H   -0.000002   0.000001   0.000033   0.002448   0.000002   0.000026
    17  H    0.000001  -0.000017   0.000000   0.000002   0.003301  -0.000002
    18  H   -0.000000   0.000000  -0.000017   0.000026  -0.000002   0.003255
    19  H    0.000002  -0.000002  -0.000002  -0.000000  -0.000017  -0.000017
              19
     1  V   -0.002486
     2  O   -0.000016
     3  H    0.000000
     4  O    0.000100
     5  H    0.000026
     6  O    0.000417
     7  H    0.000032
     8  O    0.002090
     9  H   -0.001056
    10  O    0.000048
    11  H    0.000001
    12  O   -0.000231
    13  H    0.000002
    14  H   -0.000002
    15  H   -0.000002
    16  H   -0.000000
    17  H   -0.000017
    18  H   -0.000017
    19  H    0.003286
 Mulliken charges and spin densities:
               1          2
     1  V    1.638768   2.014921
     2  O   -0.635783  -0.005725
     3  H    0.430162   0.002174
     4  O   -0.635705  -0.005694
     5  H    0.432055   0.001133
     6  O   -0.635670  -0.005653
     7  H    0.432113   0.001143
     8  O   -0.635114  -0.005868
     9  H    0.431975   0.001171
    10  O   -0.634392  -0.006107
    11  H    0.431978   0.001199
    12  O   -0.635294  -0.005852
    13  H    0.431925   0.001167
    14  H    0.430259   0.002173
    15  H    0.430244   0.002161
    16  H    0.431902   0.001140
    17  H    0.430110   0.002182
    18  H    0.430299   0.002159
    19  H    0.430169   0.002176
 Sum of Mulliken charges =   3.00000   2.00000
 Mulliken charges and spin densities with hydrogens summed into heavy atoms:
               1          2
     1  V    1.638768   2.014921
     2  O    0.226280  -0.002411
     4  O    0.226594  -0.002399
     6  O    0.226742  -0.002351
     8  O    0.227030  -0.002521
    10  O    0.227696  -0.002726
    12  O    0.226890  -0.002512
 Electronic spatial extent (au):  <R**2>=           1074.4127
 Charge=              3.0000 electrons
 Dipole moment (field-independent basis, Debye):
    X=             -0.0088    Y=             -0.0000    Z=             -0.0006  Tot=              0.0088
 Quadrupole moment (field-independent basis, Debye-Ang):
   XX=             -5.9791   YY=             -5.9895   ZZ=             -9.9441
   XY=              0.0117   XZ=              0.0152   YZ=             -0.0042
 Traceless Quadrupole moment (field-independent basis, Debye-Ang):
   XX=              1.3252   YY=              1.3147   ZZ=             -2.6399
   XY=              0.0117   XZ=              0.0152   YZ=             -0.0042
 Octapole moment (field-independent basis, Debye-Ang**2):
  XXX=             -0.0668  YYY=             -0.0026  ZZZ=              0.0305  XYY=             -0.0416
  XXY=             -0.0256  XXZ=             -0.0291  XZZ=              0.0015  YZZ=              0.0336
  YYZ=             -0.0108  XYZ=              0.0109
 Hexadecapole moment (field-independent basis, Debye-Ang**3):
 XXXX=           -169.3501 YYYY=           -169.1428 ZZZZ=           -238.6091 XXXY=              0.2627
 XXXZ=             35.0778 YYYX=             -0.1330 YYYZ=             27.4365 ZZZX=              0.1962
 ZZZY=             -0.0973 XXYY=            -56.3811 XXZZ=             -6.8774 YYZZ=             -7.0605
 XXYZ=            -27.3703 YYXZ=            -35.1314 ZZXY=             -0.0289
 N-N= 6.314820561623D+02 E-N=-4.536349747985D+03  KE= 1.396696180030D+03
                          Isotropic Fermi Contact Couplings
        Atom                 a.u.       MegaHertz       Gauss      10(-4) cm-1
     1  V(51)             -0.01967     -11.58234      -4.13287      -3.86345
     2  O(17)             -0.01312       3.97548       1.41855       1.32608
     3  H(1)               0.00146       3.25787       1.16249       1.08671
     4  O(17)             -0.01302       3.94754       1.40858       1.31676
     5  H(1)               0.00086       1.92747       0.68777       0.64293
     6  O(17)             -0.01303       3.94802       1.40875       1.31692
     7  H(1)               0.00087       1.94508       0.69405       0.64881
     8  O(17)             -0.01314       3.98208       1.42090       1.32828
     9  H(1)               0.00089       1.98388       0.70790       0.66175
    10  O(17)             -0.01315       3.98487       1.42190       1.32921
    11  H(1)               0.00090       2.02227       0.72160       0.67456
    12  O(17)             -0.01311       3.97459       1.41823       1.32578
    13  H(1)               0.00088       1.97473       0.70463       0.65870
    14  H(1)               0.00146       3.26445       1.16484       1.08890
    15  H(1)               0.00145       3.23491       1.15430       1.07905
    16  H(1)               0.00087       1.93626       0.69091       0.64587
    17  H(1)               0.00147       3.27604       1.16897       1.09277
    18  H(1)               0.00145       3.23188       1.15322       1.07804
    19  H(1)               0.00146       3.25902       1.16290       1.08709
 --------------------------------------------------------
       Center         ----  Spin Dipole Couplings  ----
                      3XX-RR        3YY-RR        3ZZ-RR
 --------------------------------------------------------
     1   Atom        0.479813      0.484260     -0.964073
     2   Atom        0.015506     -0.007973     -0.007533
     3   Atom       -0.014037      0.020720     -0.006683
     4   Atom        0.021593     -0.013823     -0.007770
     5   Atom        0.006773     -0.013997      0.007224
     6   Atom       -0.026007      0.033688     -0.007681
     7   Atom       -0.011444      0.004301      0.007143
     8   Atom        0.015011     -0.007555     -0.007456
     9   Atom       -0.006050     -0.000981      0.007031
    10   Atom        0.021949     -0.014526     -0.007423
    11   Atom        0.006974     -0.013989      0.007015
    12   Atom       -0.025642      0.033092     -0.007450
    13   Atom       -0.011475      0.004383      0.007092
    14   Atom        0.010960     -0.004316     -0.006644
    15   Atom        0.013118     -0.006454     -0.006664
    16   Atom       -0.006068     -0.001062      0.007130
    17   Atom        0.012952     -0.006418     -0.006535
    18   Atom        0.011047     -0.004309     -0.006738
    19   Atom       -0.014047      0.020707     -0.006659
 --------------------------------------------------------
                        XY            XZ            YZ
 --------------------------------------------------------
     1   Atom        0.001250      0.000329     -0.000547
     2   Atom       -0.027251      0.030713      0.003489
     3   Atom       -0.001295     -0.000136      0.014992
     4   Atom        0.024031     -0.012269     -0.028321
     5   Atom        0.003099      0.019785      0.003039
     6   Atom        0.003478     -0.018273      0.025189
     7   Atom        0.007502     -0.007298     -0.018637
     8   Atom       -0.027371      0.030373      0.003264
     9   Atom       -0.010636     -0.012543      0.015610
    10   Atom        0.022952     -0.012015     -0.027458
    11   Atom        0.003134      0.019784      0.003088
    12   Atom        0.003810     -0.018162      0.024779
    13   Atom        0.007499     -0.007257     -0.018680
    14   Atom        0.015647     -0.012966     -0.007603
    15   Atom       -0.014405      0.013061     -0.007396
    16   Atom       -0.010605     -0.012553      0.015621
    17   Atom       -0.014408      0.013144     -0.007474
    18   Atom        0.015683     -0.012913     -0.007559
    19   Atom       -0.001226     -0.000111      0.015021
 --------------------------------------------------------


 ---------------------------------------------------------------------------------
              Anisotropic Spin Dipole Couplings in Principal Axis System
 ---------------------------------------------------------------------------------

       Atom             a.u.   MegaHertz   Gauss  10(-4) cm-1        Axes

              Baa    -0.9641  -135.540   -48.364   -45.211 -0.0002  0.0004  1.0000
     1 V(51)  Bbb     0.4795    67.411    24.054    22.486  0.9674 -0.2533  0.0003
              Bcc     0.4846    68.129    24.310    22.725  0.2533  0.9674 -0.0003
 
              Baa    -0.0410     2.969     1.059     0.990 -0.5876 -0.5474  0.5959
     2 O(17)  Bbb    -0.0043     0.312     0.111     0.104 -0.0143  0.7433  0.6688
              Bcc     0.0453    -3.280    -1.171    -1.094  0.8090 -0.3845  0.4446
 
              Baa    -0.0142    -7.598    -2.711    -2.534  0.9219  0.1810 -0.3425
     3 H(1)   Bbb    -0.0131    -7.003    -2.499    -2.336  0.3862 -0.3612  0.8487
              Bcc     0.0274    14.601     5.210     4.870 -0.0299  0.9148  0.4029
 
              Baa    -0.0411     2.973     1.061     0.992 -0.1827  0.7812  0.5969
     4 O(17)  Bbb    -0.0044     0.320     0.114     0.107  0.6489 -0.3603  0.6702
              Bcc     0.0455    -3.293    -1.175    -1.098  0.7386  0.5098 -0.4411
 
              Baa    -0.0145    -7.713    -2.752    -2.573 -0.1020  0.9937 -0.0462
     5 H(1)   Bbb    -0.0128    -6.821    -2.434    -2.275  0.7075  0.0399 -0.7056
              Bcc     0.0272    14.535     5.186     4.848  0.6993  0.1047  0.7071
 
              Baa    -0.0412     2.984     1.065     0.995  0.7681 -0.2358  0.5953
     6 O(17)  Bbb    -0.0047     0.339     0.121     0.113 -0.6365 -0.3821  0.6700
              Bcc     0.0459    -3.323    -1.186    -1.108 -0.0695  0.8935  0.4436
 
              Baa    -0.0145    -7.711    -2.752    -2.572  0.9107 -0.4105 -0.0465
     7 H(1)   Bbb    -0.0128    -6.821    -2.434    -2.275  0.3203  0.6305  0.7070
              Bcc     0.0272    14.533     5.186     4.848 -0.2609 -0.6587  0.7057
 
              Baa    -0.0407     2.948     1.052     0.983 -0.5914 -0.5462  0.5933
     8 O(17)  Bbb    -0.0043     0.308     0.110     0.103 -0.0088  0.7400  0.6725
              Bcc     0.0450    -3.256    -1.162    -1.086  0.8063 -0.3925  0.4425
 
              Baa    -0.0145    -7.714    -2.753    -2.573  0.8130  0.5798  0.0533
     9 H(1)   Bbb    -0.0128    -6.825    -2.435    -2.277  0.3784 -0.5957  0.7085
              Bcc     0.0273    14.539     5.188     4.850 -0.4426  0.5558  0.7037
 
              Baa    -0.0403     2.918     1.041     0.973 -0.1756  0.7864  0.5922
    10 O(17)  Bbb    -0.0039     0.283     0.101     0.094  0.6393 -0.3663  0.6761
              Bcc     0.0442    -3.201    -1.142    -1.068  0.7486  0.4973 -0.4385
 
              Baa    -0.0145    -7.714    -2.753    -2.573 -0.0895  0.9941 -0.0606
    11 H(1)   Bbb    -0.0128    -6.824    -2.435    -2.276 -0.7057 -0.0204  0.7082
              Bcc     0.0272    14.538     5.188     4.849  0.7028  0.1061  0.7034
 
              Baa    -0.0409     2.958     1.055     0.987  0.7681 -0.2386  0.5942
    12 O(17)  Bbb    -0.0042     0.307     0.110     0.102 -0.6370 -0.3801  0.6707
              Bcc     0.0451    -3.265    -1.165    -1.089 -0.0658  0.8936  0.4439
 
              Baa    -0.0145    -7.720    -2.755    -2.575  0.9091 -0.4132 -0.0520
    13 H(1)   Bbb    -0.0128    -6.830    -2.437    -2.278  0.3256  0.6271  0.7076
              Bcc     0.0273    14.550     5.192     4.853 -0.2598 -0.6603  0.7047
 
              Baa    -0.0142    -7.600    -2.712    -2.535 -0.6161  0.7101 -0.3408
    14 H(1)   Bbb    -0.0131    -7.004    -2.499    -2.336  0.1230  0.5141  0.8489
              Bcc     0.0274    14.604     5.211     4.871  0.7780  0.4811 -0.4041
 
              Baa    -0.0142    -7.598    -2.711    -2.534  0.3035  0.8885  0.3442
    15 H(1)   Bbb    -0.0131    -7.002    -2.498    -2.336 -0.5071 -0.1551  0.8478
              Bcc     0.0274    14.600     5.210     4.870  0.8067 -0.4319  0.4035
 
              Baa    -0.0145    -7.720    -2.755    -2.575  0.8093  0.5855  0.0469
    16 H(1)   Bbb    -0.0128    -6.831    -2.437    -2.278  0.3870 -0.5915  0.7073
              Bcc     0.0273    14.550     5.192     4.853 -0.4419  0.5543  0.7053
 
              Baa    -0.0142    -7.599    -2.712    -2.535  0.3096  0.8899  0.3350
    17 H(1)   Bbb    -0.0131    -7.003    -2.499    -2.336 -0.5075 -0.1433  0.8497
              Bcc     0.0274    14.602     5.210     4.871  0.8041 -0.4330  0.4072
 
              Baa    -0.0142    -7.603    -2.713    -2.536 -0.6154  0.7089 -0.3446
    18 H(1)   Bbb    -0.0131    -7.010    -2.501    -2.338  0.1188  0.5156  0.8486
              Bcc     0.0274    14.612     5.214     4.874  0.7792  0.4813 -0.4015
 
              Baa    -0.0142    -7.600    -2.712    -2.535  0.9233  0.1785 -0.3400
    19 H(1)   Bbb    -0.0131    -7.006    -2.500    -2.337  0.3830 -0.3632  0.8494
              Bcc     0.0274    14.606     5.212     4.872 -0.0281  0.9145  0.4037
 

 ---------------------------------------------------------------------------------

 No NMR shielding tensors so no spin-rotation constants.
 Leave Link  601 at Thu May 23 18:59:19 2024, MaxMem= 26843545600 cpu:              29.1 elap:               0.3
 (Enter /gpfs/fs1/soft/improv/software/custom-built/gaussian/g16/l9999.exe)
 Unable to Open any file for archive entry.
 1\1\GINC-I225\SP\UBLYP\Gen\H12O6V1(3+,3)\HHARB\23-May-2024\0\\#p BLYP 
 empiricaldispersion=gd3 scf=(maxcycles=500,xqc,maxconventional=50) scr
 f=(cpcm,solvent=water) geom=allcheck guess=read chkbasis\\Title\\3,3\V
 ,-0.7855119525,0.7125417991,0.0314301237\O,-1.2965551072,2.6835523495,
 -0.3048540143\H,-1.5835564147,3.0806396112,-1.1600519121\O,1.20343464,
 1.2612117542,0.0884961666\H,1.958407251,0.6988354485,0.3815722165\O,-0
 .9021744883,1.0093853275,2.0705522625\H,-1.6451775909,0.7413572379,2.6
 611167768\O,-0.2727113317,-1.2576974404,0.3689254596\H,-0.2340568148,-
 1.9771180785,-0.3040680341\O,-2.7739587699,0.16403144,-0.0248167714\H,
 -3.5275257212,0.7219912017,-0.3304289641\O,-0.6668386039,0.4171959225,
 -2.0073768689\H,0.0751904094,0.6899465139,-2.5964754619\H,-1.319718258
 7,-0.0575849247,-2.5732587013\H,1.5863065363,2.1196323744,-0.209064665
 6\H,-1.3408786095,3.4001731046,0.3702363514\H,-3.1582811215,-0.6901693
 45,0.2825188893\H,-0.244947378,1.4805867308,2.6349079382\H,0.017035756
 ,-1.6524312574,1.2246846191\\Version=ES64L-G16RevC.02\State=3-A\HF=-14
 02.1950905\S2=2.007032\S2-1=0.\S2A=2.000023\RMSD=4.205e-09\Dipole=-0.0
 024912,-0.0016998,-0.0016783\Quadrupole=-0.6220174,0.2746156,0.3474018
 ,1.0569013,1.018678,-0.6656434\PG=C01 [X(H12O6V1)]\\@
 The archive entry for this job was punched.


 CURIOUSER AND CURIOUSER

                  -- ALICE, IN WONDERLAND
 Job cpu time:       0 days  1 hours 32 minutes 14.4 seconds.
 Elapsed time:       0 days  0 hours  0 minutes 46.8 seconds.
 File lengths (MBytes):  RWF=    121 Int=      0 D2E=      0 Chk=     32 Scr=      1
 Normal termination of Gaussian 16 at Thu May 23 18:59:19 2024.
