 Entering Gaussian System, Link 0=g16
 Input=V_3_PBE0.com
 Output=V_3_PBE0.log
 Initial command:
 /gpfs/fs1/soft/improv/software/custom-built/gaussian/g16/l1.exe "/scratch/Gau-555473.inp" -scrdir="/scratch/"
 Default CPUs for threads: 0-127
 Default linda workers: i018.lcrc.anl.gov
 Default is to use 128 SMP processors on each worker.
 Entering Link 1 = /gpfs/fs1/soft/improv/software/custom-built/gaussian/g16/l1.exe PID=    555474.
  
 Copyright (c) 1988-2021, Gaussian, Inc.  All Rights Reserved.
  
 This is part of the Gaussian(R) 16 program.  It is based on
 the Gaussian(R) 09 system (copyright 2009, Gaussian, Inc.),
 the Gaussian(R) 03 system (copyright 2003, Gaussian, Inc.),
 the Gaussian(R) 98 system (copyright 1998, Gaussian, Inc.),
 the Gaussian(R) 94 system (copyright 1995, Gaussian, Inc.),
 the Gaussian 92(TM) system (copyright 1992, Gaussian, Inc.),
 the Gaussian 90(TM) system (copyright 1990, Gaussian, Inc.),
 the Gaussian 88(TM) system (copyright 1988, Gaussian, Inc.),
 the Gaussian 86(TM) system (copyright 1986, Carnegie Mellon
 University), and the Gaussian 82(TM) system (copyright 1983,
 Carnegie Mellon University). Gaussian is a federally registered
 trademark of Gaussian, Inc.
  
 This software contains proprietary and confidential information,
 including trade secrets, belonging to Gaussian, Inc.
  
 This software is provided under written license and may be
 used, copied, transmitted, or stored only in accord with that
 written license.
  
 The following legend is applicable only to US Government
 contracts under FAR:
  
                    RESTRICTED RIGHTS LEGEND
  
 Use, reproduction and disclosure by the US Government is
 subject to restrictions as set forth in subparagraphs (a)
 and (c) of the Commercial Computer Software - Restricted
 Rights clause in FAR 52.227-19.
  
 Gaussian, Inc.
 340 Quinnipiac St., Bldg. 40, Wallingford CT 06492
  
  
 ---------------------------------------------------------------
 Warning -- This program may not be used in any manner that
 competes with the business of Gaussian, Inc. or will provide
 assistance to any competitor of Gaussian, Inc.  The licensee
 of this program is prohibited from giving any competitor of
 Gaussian, Inc. access to this program.  By using this program,
 the user acknowledges that Gaussian, Inc. is engaged in the
 business of creating and licensing software in the field of
 computational chemistry and represents and warrants to the
 licensee that it is not a competitor of Gaussian, Inc. and that
 it will not use this program in any manner prohibited above.
 ---------------------------------------------------------------
  

 Cite this work as:
 Gaussian 16, Revision C.02,
 M. J. Frisch, G. W. Trucks, H. B. Schlegel, G. E. Scuseria, 
 M. A. Robb, J. R. Cheeseman, G. Scalmani, V. Barone, 
 G. A. Petersson, H. Nakatsuji, X. Li, M. Caricato, A. V. Marenich, 
 J. Bloino, B. G. Janesko, R. Gomperts, B. Mennucci, H. P. Hratchian, 
 J. V. Ortiz, A. F. Izmaylov, J. L. Sonnenberg, D. Williams-Young, 
 F. Ding, F. Lipparini, F. Egidi, J. Goings, B. Peng, A. Petrone, 
 T. Henderson, D. Ranasinghe, V. G. Zakrzewski, J. Gao, N. Rega, 
 G. Zheng, W. Liang, M. Hada, M. Ehara, K. Toyota, R. Fukuda, 
 J. Hasegawa, M. Ishida, T. Nakajima, Y. Honda, O. Kitao, H. Nakai, 
 T. Vreven, K. Throssell, J. A. Montgomery, Jr., J. E. Peralta, 
 F. Ogliaro, M. J. Bearpark, J. J. Heyd, E. N. Brothers, K. N. Kudin, 
 V. N. Staroverov, T. A. Keith, R. Kobayashi, J. Normand, 
 K. Raghavachari, A. P. Rendell, J. C. Burant, S. S. Iyengar, 
 J. Tomasi, M. Cossi, J. M. Millam, M. Klene, C. Adamo, R. Cammi, 
 J. W. Ochterski, R. L. Martin, K. Morokuma, O. Farkas, 
 J. B. Foresman, and D. J. Fox, Gaussian, Inc., Wallingford CT, 2019.
 
 ******************************************
 Gaussian 16:  ES64L-G16RevC.02  7-Dec-2021
                23-May-2024 
 ******************************************
 %chk=V_3_PBE0.chk
 SetSPE:  set environment variable "OMP_PROC_BIND" = "true"
 SetSPE:  set environment variable "OMP_PLACES" = "{0},{1},{2},{3},{4},{5},{6},{7},{8},{9},{10},{11},{12},{13},{14},{15},{16},{17},{18},{19},{20},{21},{22},{23},{24},{25},{26},{27},{28},{29},{30},{31},{32},{33},{34},{35},{36},{37},{38},{39},{40},{41},{42},{43},{44},{45},{46},{47},{48},{49},{50},{51},{52},{53},{54},{55},{56},{57},{58},{59},{60},{61},{62},{63},{64},{65},{66},{67},{68},{69},{70},{71},{72},{73},{74},{75},{76},{77},{78},{79},{80},{81},{82},{83},{84},{85},{86},{87},{88},{89},{90},{91},{92},{93},{94},{95},{96},{97},{98},{99},{100},{101},{102},{103},{104},{105},{106},{107},{108},{109},{110},{111},{112},{113},{114},{115},{116},{117},{118},{119},{120},{121},{122},{123},{124},{125},{126},{127}"
 SetLPE:    new flags="-opt 'Tsnet.Node.lindarsharg: ssh'  -nodelist 'i018.lcrc.anl.gov' -env GAUSS_MDEF=26843545600 -env GAUSS_EXEDIR="/gpfs/fs1/soft/improv/software/custom-built/gaussian/g16/bsd:/gpfs/fs1/soft/improv/software/custom-built/gaussian/g16" -env "OMP_PROC_BIND=true" -env "OMP_PLACES={0},{1},{2},{3},{4},{5},{6},{7},{8},{9},{10},{11},{12},{13},{14},{15},{16},{17},{18},{19},{20},{21},{22},{23},{24},{25},{26},{27},{28},{29},{30},{31},{32},{33},{34},{35},{36},{37},{38},{39},{40},{41},{42},{43},{44},{45},{46},{47},{48},{49},{50},{51},{52},{53},{54},{55},{56},{57},{58},{59},{60},{61},{62},{63},{64},{65},{66},{67},{68},{69},{70},{71},{72},{73},{74},{75},{76},{77},{78},{79},{80},{81},{82},{83},{84},{85},{86},{87},{88},{89},{90},{91},{92},{93},{94},{95},{96},{97},{98},{99},{100},{101},{102},{103},{104},{105},{106},{107},{108},{109},{110},{111},{112},{113},{114},{115},{116},{117},{118},{119},{120},{121},{122},{123},{124},{125},{126},{127}" -env GAUSS_ADEF="0,1,2,3,4,5,6,7,8,9,10,11,12,13,14,15,16,17,18,19,20,21,22,23,24,25,26,27,28,29,30,31,32,33,34,35,36,37,38,39,40,41,42,43,44,45,46,47,48,49,50,51,52,53,54,55,56,57,58,59,60,61,62,63,64,65,66,67,68,69,70,71,72,73,74,75,76,77,78,79,80,81,82,83,84,85,86,87,88,89,90,91,92,93,94,95,96,97,98,99,100,101,102,103,104,105,106,107,108,109,110,111,112,113,114,115,116,117,118,119,120,121,122,123,124,125,126,127""
 Will use up to    1 processors via Linda.
 ----------------------------------------------------------------------
 #p PBE1PBE empiricaldispersion=gd3 6-31+G(2df,p) opt=(cartesian,calcal
 l,maxcycles=500) freq scf=(maxcycles=500,xqc,maxconventional=50)
 ----------------------------------------------------------------------
 1/6=500,10=4,18=10,26=3,38=1/1,3;
 2/12=2,17=6,18=5,29=2,40=1/2;
 3/5=1,6=6,7=114,11=2,25=1,30=1,71=2,74=-13,124=31,140=1/1,2,3;
 4//1;
 5/5=2,7=500,8=3,13=1,38=5,85=50/2,8;
 8/6=4,10=90,11=11/1;
 11/6=1,8=1,9=11,15=111,16=1/1,2,10;
 10/6=1/2;
 6/7=2,8=2,9=2,10=2,18=1,28=1/1;
 7/7=1,10=1,25=1/1,2,3,16;
 1/6=500,10=4,18=10,26=3/3(3);
 2/29=1/2;
 7/7=1,8=1,9=1,25=1,44=-1/16;
 99/12=1/99;
 2/29=1/2;
 3/5=1,6=6,7=114,11=2,25=1,30=1,71=2,74=-13,124=31,140=1/1,2,3;
 4/5=5,16=3,69=1/1;
 5/5=2,7=500,8=3,13=1,38=5,85=50/2,8;
 8/6=4,10=90,11=11/1;
 11/6=1,8=1,9=11,15=111,16=1/1,2,10;
 10/6=1/2;
 7/7=1,10=1,25=1/1,2,3,16;
 1/6=500,10=4,18=10,26=3/3(-8);
 2/29=1/2;
 6/7=2,8=2,9=2,10=2,18=1,19=2,28=1/1;
 7/7=1,8=1,9=1,25=1,44=-1/16;
 99/12=1/99;
 Leave Link    1 at Thu May 23 18:12:25 2024, MaxMem=           0 cpu:               1.7 elap:               0.0
 (Enter /gpfs/fs1/soft/improv/software/custom-built/gaussian/g16/l101.exe)
 -----
 Title
 -----
 Symbolic Z-matrix:
 Charge =  3 Multiplicity = 3
 V                    -0.79304   0.81881  -0.09491 
 O                    -1.20497   2.57394  -0.35687 
 H                    -2.12106   2.64974  -0.63312 
 O                     0.99012   1.19063  -0.05794 
 H                     1.42696   0.5998    0.55971 
 O                    -0.81752   1.03069   1.71365 
 H                    -1.02108   0.1906    2.13133 
 O                    -0.38507  -0.93351   0.17118 
 H                    -1.15682  -1.47369  -0.01433 
 O                    -2.57341   0.45178  -0.12186 
 H                    -2.77756  -0.08744  -0.88929 
 O                    -0.76966   0.60461  -1.90111 
 H                     0.09872   0.83457  -2.23949 
 H                    -0.96534  -0.30999  -2.11742 
 H                     1.12208   2.09943   0.22124 
 H                    -1.07671   3.0584    0.46184 
 H                    -2.81407  -0.02398   0.6765 
 H                     0.0422    1.33615   2.01181 
 H                    -0.11532  -1.06446   1.08312 
 
 ITRead=  0  0  0  0  0  0  0  0  0  0  0  0  0  0  0  0  0  0  0
 MicOpt= -1 -1 -1 -1 -1 -1 -1 -1 -1 -1 -1 -1 -1 -1 -1 -1 -1 -1 -1
 NAtoms=     19 NQM=       19 NQMF=       0 NMMI=      0 NMMIF=      0
                NMic=       0 NMicF=      0.
                    Isotopes and Nuclear Properties:
 (Nuclear quadrupole moments (NQMom) in fm**2, nuclear magnetic moments (NMagM)
  in nuclear magnetons)

  Atom         1           2           3           4           5           6           7           8           9          10
 IAtWgt=          51          16           1          16           1          16           1          16           1          16
 AtmWgt=  50.9439625  15.9949146   1.0078250  15.9949146   1.0078250  15.9949146   1.0078250  15.9949146   1.0078250  15.9949146
 NucSpn=           7           0           1           0           1           0           1           0           1           0
 AtZEff=  -0.0000000  -0.0000000  -0.0000000  -0.0000000  -0.0000000  -0.0000000  -0.0000000  -0.0000000  -0.0000000  -0.0000000
 NQMom=   -5.2000000   0.0000000   0.0000000   0.0000000   0.0000000   0.0000000   0.0000000   0.0000000   0.0000000   0.0000000
 NMagM=    5.1514000   0.0000000   2.7928460   0.0000000   2.7928460   0.0000000   2.7928460   0.0000000   2.7928460   0.0000000
 AtZNuc=  23.0000000   8.0000000   1.0000000   8.0000000   1.0000000   8.0000000   1.0000000   8.0000000   1.0000000   8.0000000

  Atom        11          12          13          14          15          16          17          18          19
 IAtWgt=           1          16           1           1           1           1           1           1           1
 AtmWgt=   1.0078250  15.9949146   1.0078250   1.0078250   1.0078250   1.0078250   1.0078250   1.0078250   1.0078250
 NucSpn=           1           0           1           1           1           1           1           1           1
 AtZEff=  -0.0000000  -0.0000000  -0.0000000  -0.0000000  -0.0000000  -0.0000000  -0.0000000  -0.0000000  -0.0000000
 NQMom=    0.0000000   0.0000000   0.0000000   0.0000000   0.0000000   0.0000000   0.0000000   0.0000000   0.0000000
 NMagM=    2.7928460   0.0000000   2.7928460   2.7928460   2.7928460   2.7928460   2.7928460   2.7928460   2.7928460
 AtZNuc=   1.0000000   8.0000000   1.0000000   1.0000000   1.0000000   1.0000000   1.0000000   1.0000000   1.0000000
 Leave Link  101 at Thu May 23 18:12:25 2024, MaxMem= 26843545600 cpu:               0.4 elap:               0.1
 (Enter /gpfs/fs1/soft/improv/software/custom-built/gaussian/g16/l103.exe)

 GradGradGradGradGradGradGradGradGradGradGradGradGradGradGradGradGradGrad
 Berny optimization.
 Initialization pass.
 No Z-matrix variables, so optimization will use Cartesian coordinates.
 Trust Radius=3.00D-01 FncErr=1.00D-07 GrdErr=1.00D-06 EigMax=2.50D+02 EigMin=1.00D-04
 Number of steps in this run=    114 maximum allowed number of steps=    114.
 GradGradGradGradGradGradGradGradGradGradGradGradGradGradGradGradGradGrad

 Leave Link  103 at Thu May 23 18:12:25 2024, MaxMem= 26843545600 cpu:               0.4 elap:               0.0
 (Enter /gpfs/fs1/soft/improv/software/custom-built/gaussian/g16/l202.exe)
 ---------------------------------------------------------------------------------------------------
                            Z-MATRIX (ANGSTROMS AND DEGREES)
   CD    Cent   Atom    N1       Length/X        N2       Alpha/Y        N3        Beta/Z          J
 ---------------------------------------------------------------------------------------------------
      1      1  V        0  -0.793037          0.818805         -0.094905
      2      2  O        0  -1.204971          2.573941         -0.356874
      3      3  H        0  -2.121063          2.649743         -0.633122
      4      4  O        0   0.990122          1.190635         -0.057941
      5      5  H        0   1.426962          0.599798          0.559707
      6      6  O        0  -0.817519          1.030691          1.713650
      7      7  H        0  -1.021079          0.190602          2.131326
      8      8  O        0  -0.385068         -0.933506          0.171177
      9      9  H        0  -1.156817         -1.473692         -0.014327
     10     10  O        0  -2.573405          0.451778         -0.121857
     11     11  H        0  -2.777557         -0.087440         -0.889285
     12     12  O        0  -0.769659          0.604612         -1.901109
     13     13  H        0   0.098725          0.834573         -2.239490
     14     14  H        0  -0.965336         -0.309994         -2.117418
     15     15  H        0   1.122081          2.099426          0.221242
     16     16  H        0  -1.076711          3.058396          0.461841
     17     17  H        0  -2.814074         -0.023981          0.676500
     18     18  H        0   0.042204          1.336153          2.011809
     19     19  H        0  -0.115315         -1.064459          1.083123
 ---------------------------------------------------------------------------------------------------
                         Z-Matrix orientation:                         
 ---------------------------------------------------------------------
 Center     Atomic      Atomic             Coordinates (Angstroms)
 Number     Number       Type             X           Y           Z
 ---------------------------------------------------------------------
      1         23           0       -0.793037    0.818805   -0.094905
      2          8           0       -1.204971    2.573941   -0.356874
      3          1           0       -2.121063    2.649743   -0.633122
      4          8           0        0.990122    1.190635   -0.057941
      5          1           0        1.426962    0.599798    0.559707
      6          8           0       -0.817519    1.030691    1.713650
      7          1           0       -1.021079    0.190602    2.131326
      8          8           0       -0.385068   -0.933506    0.171177
      9          1           0       -1.156817   -1.473692   -0.014327
     10          8           0       -2.573405    0.451778   -0.121857
     11          1           0       -2.777557   -0.087440   -0.889285
     12          8           0       -0.769659    0.604612   -1.901109
     13          1           0        0.098725    0.834573   -2.239490
     14          1           0       -0.965336   -0.309994   -2.117418
     15          1           0        1.122081    2.099426    0.221242
     16          1           0       -1.076711    3.058396    0.461841
     17          1           0       -2.814074   -0.023981    0.676500
     18          1           0        0.042204    1.336153    2.011809
     19          1           0       -0.115315   -1.064459    1.083123
 ---------------------------------------------------------------------
                    Distance matrix (angstroms):
                    1          2          3          4          5
     1  V    0.000000
     2  O    1.821762   0.000000
     3  H    2.325008   0.959835   0.000000
     4  O    1.821889   2.611767   3.484150   0.000000
     5  H    2.324839   3.415322   4.267739   0.959899   0.000000
     6  O    1.821090   2.611285   3.134947   2.536076   2.560263
     7  H    2.324381   3.450400   3.859988   3.136540   2.937743
     8  O    1.818745   3.640503   4.062050   2.540791   2.405292
     9  H    2.322579   4.062387   4.279649   3.421971   3.362259
    10  O    1.818006   2.536025   2.301533   3.639880   4.060711
    11  H    2.321775   3.136788   2.826442   4.064482   4.499984
    12  O    1.819010   2.540161   2.759827   2.614866   3.298603
    13  H    2.322657   2.875634   3.286750   2.383386   3.107223
    14  H    2.322591   3.387332   3.506977   3.212032   3.703756
    15  H    2.325429   2.444290   3.398642   0.959822   1.567289
    16  H    2.325125   0.959918   1.567358   2.833814   3.510364
    17  H    2.321626   3.225876   3.056824   4.060370   4.288255
    18  H    2.324547   2.949275   3.660724   2.281137   2.137375
    19  H    2.322443   4.061883   4.556733   2.758526   2.328591
                    6          7          8          9         10
     6  O    0.000000
     7  H    0.960021   0.000000
     8  O    2.534622   2.347406   0.000000
     9  H    3.061530   2.718847   0.960108   0.000000
    10  O    2.605257   2.748593   2.606473   2.392848   0.000000
    11  H    3.444886   3.505227   2.750347   2.305222   0.959885
    12  O    3.640099   4.061422   2.609231   2.833582   2.538227
    13  H    4.062670   4.557707   3.028445   3.443229   3.430916
    14  H    4.061572   4.278496   2.441955   2.411193   2.673658
    15  H    2.670492   3.447487   3.387136   4.244531   4.060675
    16  H    2.397039   3.318813   4.061790   4.557738   3.061904
    17  H    2.484803   2.318921   2.642472   2.307685   0.960023
    18  H    0.959858   1.567527   2.953276   3.665802   3.489421
    19  H    2.297892   1.869309   0.959980   1.567353   3.129403
                   11         12         13         14         15
    11  H    0.000000
    12  O    2.352526   0.000000
    13  H    3.308498   0.959935   0.000000
    14  H    2.200452   0.959991   1.567533   0.000000
    15  H    4.606825   3.212091   2.949969   3.953725   0.000000
    16  H    3.822919   3.420362   3.691102   4.243941   2.410850
    17  H    1.567497   3.349453   4.210050   3.362383   4.495491
    18  H    4.288824   4.062660   4.281159   4.558009   2.225950
    19  H    3.454344   3.481323   3.833001   3.396353   3.504877
                   16         17         18         19
    16  H    0.000000
    17  H    3.544793   0.000000
    18  H    2.573032   3.433851   0.000000
    19  H    4.278809   2.920828   2.578800   0.000000
 Stoichiometry    H12O6V(3+,3)
 Framework group  C1[X(H12O6V)]
 Deg. of freedom    51
 Full point group                 C1      NOp   1
 Largest Abelian subgroup         C1      NOp   1
 Largest concise Abelian subgroup C1      NOp   1
                         Standard orientation:                         
 ---------------------------------------------------------------------
 Center     Atomic      Atomic             Coordinates (Angstroms)
 Number     Number       Type             X           Y           Z
 ---------------------------------------------------------------------
      1         23           0       -0.020930   -0.030851    0.010117
      2          8           0       -0.320881   -1.688468   -0.683537
      3          1           0       -1.137136   -1.681045   -1.188468
      4          8           0        1.254385   -0.678558    1.138536
      5          1           0        1.942922   -0.019835    1.254320
      6          8           0        1.297591    0.293740   -1.203355
      7          1           0        1.381168    1.240413   -1.339237
      8          8           0        0.279591    1.625972    0.697472
      9          1           0       -0.432419    2.214852    0.436571
     10          8           0       -1.286602    0.614727   -1.124100
     11          1           0       -2.035606    0.937335   -0.617843
     12          8           0       -1.338715   -0.352402    1.222076
     13          1           0       -0.971940   -0.816344    1.978190
     14          1           0       -1.717839    0.480834    1.511152
     15          1           0        1.635326   -1.477232    0.766701
     16          1           0        0.408485   -1.931629   -1.258289
     17          1           0       -0.916150    1.334035   -1.640826
     18          1           0        2.128491   -0.056823   -0.874663
     19          1           0        1.113128    1.964930    0.362980
 ---------------------------------------------------------------------
 Rotational constants (GHZ):           2.0397021           1.9739483           1.9252864
 Leave Link  202 at Thu May 23 18:12:25 2024, MaxMem= 26843545600 cpu:               0.4 elap:               0.0
 (Enter /gpfs/fs1/soft/improv/software/custom-built/gaussian/g16/l301.exe)
 Standard basis: 6-31+G(2df,p) (6D, 7F)
 Ernie: Thresh=  0.10000D-02 Tol=  0.10000D-05 Strict=F.
 There are   347 symmetry adapted cartesian basis functions of A   symmetry.
 There are   317 symmetry adapted basis functions of A   symmetry.
   317 basis functions,   514 primitive gaussians,   347 cartesian basis functions
    41 alpha electrons       39 beta electrons
       nuclear repulsion energy       717.7225235776 Hartrees.
 IExCor= 1009 DFT=T Ex+Corr=PBE1PBE ExCW=0 ScaHFX=  0.250000
 ScaDFX=  0.750000  0.750000  1.000000  1.000000 ScalE2=  1.000000  1.000000
 IRadAn=      5 IRanWt=     -1 IRanGd=            0 ICorTp=0 IEmpDi=131
 NAtoms=   19 NActive=   19 NUniq=   19 SFac= 1.00D+00 NAtFMM=   60 NAOKFM=F Big=F
 Integral buffers will be    131072 words long.
 Raffenetti 2 integral format.
 Two-electron integral symmetry is turned on.
 R6Disp:  Grimme-D3 Dispersion energy=       -0.0131874161 Hartrees.
 Nuclear repulsion after empirical dispersion term =      717.7093361615 Hartrees.
 Leave Link  301 at Thu May 23 18:12:25 2024, MaxMem= 26843545600 cpu:               0.4 elap:               0.0
 (Enter /gpfs/fs1/soft/improv/software/custom-built/gaussian/g16/l302.exe)
 NPDir=0 NMtPBC=     1 NCelOv=     1 NCel=       1 NClECP=     1 NCelD=      1
         NCelK=      1 NCelE2=     1 NClLst=     1 CellRange=     0.0.
 One-electron integrals computed using PRISM.
 One-electron integral symmetry used in STVInt
 NBasis=   317 RedAO= T EigKep=  3.17D-05  NBF=   317
 NBsUse=   317 1.00D-06 EigRej= -1.00D+00 NBFU=   317
 Precomputing XC quadrature grid using
 IXCGrd= 4 IRadAn=           5 IRanWt=          -1 IRanGd=           0 AccXCQ= 0.00D+00.
 Generated NRdTot=       0 NPtTot=           0 NUsed=           0 NTot=          32
 NSgBfM=   347   347   347   347   347 MxSgAt=    19 MxSgA2=    19.
 Leave Link  302 at Thu May 23 18:12:25 2024, MaxMem= 26843545600 cpu:              21.4 elap:               0.3
 (Enter /gpfs/fs1/soft/improv/software/custom-built/gaussian/g16/l303.exe)
 DipDrv:  MaxL=1.
 Leave Link  303 at Thu May 23 18:12:25 2024, MaxMem= 26843545600 cpu:               1.0 elap:               0.0
 (Enter /gpfs/fs1/soft/improv/software/custom-built/gaussian/g16/l401.exe)
 ExpMin= 1.07D-02 ExpMax= 4.74D+04 ExpMxC= 7.11D+03 IAcc=3 IRadAn=         5 AccDes= 0.00D+00
 Harris functional with IExCor= 1009 and IRadAn=       5 diagonalized for initial guess.
 HarFok:  IExCor= 1009 AccDes= 0.00D+00 IRadAn=         5 IDoV= 1 UseB2=F ITyADJ=14
 ICtDFT=  3500011 ScaDFX=  1.000000  1.000000  1.000000  1.000000
 FoFCou: FMM=F IPFlag=           0 FMFlag=      100000 FMFlg1=           0
         NFxFlg=           0 DoJE=T BraDBF=F KetDBF=T FulRan=T
         wScrn=  0.000000 ICntrl=       500 IOpCl=  0 I1Cent=   200000004 NGrid=           0
         NMat0=    1 NMatS0=      1 NMatT0=    0 NMatD0=    1 NMtDS0=    0 NMtDT0=    0
 Petite list used in FoFCou.
 Harris En= -1401.24538451743    
 JPrj=0 DoOrth=F DoCkMO=F.
 Initial guess <Sx>= 0.0000 <Sy>= 0.0000 <Sz>= 1.0000 <S**2>= 2.0000 S= 1.0000
 Leave Link  401 at Thu May 23 18:12:26 2024, MaxMem= 26843545600 cpu:              37.8 elap:               0.4
 (Enter /gpfs/fs1/soft/improv/software/custom-built/gaussian/g16/l502.exe)
 Integral symmetry usage will be decided dynamically.
 UHF open shell SCF:
 Using DIIS extrapolation, IDIIS=  1040.
 NGot= 26843545600 LenX= 26843256607 LenY= 26843135757
 Requested convergence on RMS density matrix=1.00D-08 within  50 cycles.
 Requested convergence on MAX density matrix=1.00D-06.
 Requested convergence on             energy=1.00D-06.
 No special actions if energy rises.
 Fock matrices will be formed incrementally for  20 cycles.

 Cycle   1  Pass 1  IDiag  1:
 FoFJK:  IHMeth= 1 ICntrl=       0 DoSepK=F KAlg= 0 I1Cent=           0 FoldK=F
 IRaf= 990000000 NMat=       1 IRICut=       1 DoRegI=T DoRafI=F ISym2E= 0 IDoP0=0 IntGTp=1.
 FoFCou: FMM=F IPFlag=           0 FMFlag=      100000 FMFlg1=           0
         NFxFlg=           0 DoJE=F BraDBF=F KetDBF=F FulRan=T
         wScrn=  0.000000 ICntrl=         0 IOpCl=  1 I1Cent=           0 NGrid=           0
         NMat0=    1 NMatS0=      1 NMatT0=    0 NMatD0=    1 NMtDS0=    0 NMtDT0=    0
 Symmetry not used in FoFCou.
 E= -1400.30662746724    
 DIIS: error= 5.05D-02 at cycle   1 NSaved=   1.
 NSaved= 1 IEnMin= 1 EnMin= -1400.30662746724     IErMin= 1 ErrMin= 5.05D-02
 ErrMax= 5.05D-02  0.00D+00 EMaxC= 1.00D-01 BMatC= 2.55D+00 BMatP= 2.55D+00
 IDIUse=3 WtCom= 4.95D-01 WtEn= 5.05D-01
 Coeff-Com:  0.100D+01
 Coeff-En:   0.100D+01
 Coeff:      0.100D+01
 Gap=     0.156 Goal=   None    Shift=    0.000
 Gap=     0.129 Goal=   None    Shift=    0.000
 GapD=    0.129 DampG=1.000 DampE=0.250 DampFc=0.2500 IDamp=-1.
 Damping current iteration by 2.50D-01
 RMSDP=9.39D-03 MaxDP=5.13D-01              OVMax= 3.10D-01

 Cycle   2  Pass 1  IDiag  1:
 RMSU=  2.33D-03    CP:  9.85D-01
 E= -1400.42481384928     Delta-E=       -0.118186382038 Rises=F Damp=T
 DIIS: error= 3.22D-02 at cycle   2 NSaved=   2.
 NSaved= 2 IEnMin= 2 EnMin= -1400.42481384928     IErMin= 2 ErrMin= 3.22D-02
 ErrMax= 3.22D-02  0.00D+00 EMaxC= 1.00D-01 BMatC= 4.47D-01 BMatP= 2.55D+00
 IDIUse=3 WtCom= 6.78D-01 WtEn= 3.22D-01
 Coeff-Com: -0.464D+00 0.146D+01
 Coeff-En:   0.635D-02 0.994D+00
 Coeff:     -0.313D+00 0.131D+01
 Gap=     0.298 Goal=   None    Shift=    0.000
 Gap=     0.376 Goal=   None    Shift=    0.000
 RMSDP=2.79D-03 MaxDP=1.07D-01 DE=-1.18D-01 OVMax= 2.75D-01

 Cycle   3  Pass 1  IDiag  1:
 RMSU=  2.60D-03    CP:  9.55D-01  1.36D+00
 E= -1400.63784579440     Delta-E=       -0.213031945126 Rises=F Damp=F
 DIIS: error= 1.10D-02 at cycle   3 NSaved=   3.
 NSaved= 3 IEnMin= 3 EnMin= -1400.63784579440     IErMin= 3 ErrMin= 1.10D-02
 ErrMax= 1.10D-02  0.00D+00 EMaxC= 1.00D-01 BMatC= 2.68D-01 BMatP= 4.47D-01
 IDIUse=3 WtCom= 8.90D-01 WtEn= 1.10D-01
 Coeff-Com: -0.280D+00 0.814D+00 0.466D+00
 Coeff-En:   0.000D+00 0.000D+00 0.100D+01
 Coeff:     -0.249D+00 0.724D+00 0.525D+00
 Gap=     0.186 Goal=   None    Shift=    0.000
 Gap=     0.387 Goal=   None    Shift=    0.000
 RMSDP=1.95D-03 MaxDP=8.49D-02 DE=-2.13D-01 OVMax= 6.75D-02

 Cycle   4  Pass 1  IDiag  1:
 RMSU=  1.30D-03    CP:  9.56D-01  1.78D+00  5.84D-01
 E= -1400.68580114613     Delta-E=       -0.047955351727 Rises=F Damp=F
 DIIS: error= 2.97D-03 at cycle   4 NSaved=   4.
 NSaved= 4 IEnMin= 4 EnMin= -1400.68580114613     IErMin= 4 ErrMin= 2.97D-03
 ErrMax= 2.97D-03  0.00D+00 EMaxC= 1.00D-01 BMatC= 1.97D-02 BMatP= 2.68D-01
 IDIUse=3 WtCom= 9.70D-01 WtEn= 2.97D-02
 Coeff-Com: -0.900D-01 0.116D+00 0.179D+00 0.796D+00
 Coeff-En:   0.000D+00 0.000D+00 0.000D+00 0.100D+01
 Coeff:     -0.874D-01 0.112D+00 0.173D+00 0.802D+00
 Gap=     0.166 Goal=   None    Shift=    0.000
 Gap=     0.340 Goal=   None    Shift=    0.000
 RMSDP=3.89D-04 MaxDP=1.57D-02 DE=-4.80D-02 OVMax= 9.31D-03

 Cycle   5  Pass 1  IDiag  1:
 RMSU=  2.29D-04    CP:  9.54D-01  1.75D+00  6.62D-01  8.26D-01
 E= -1400.68928058360     Delta-E=       -0.003479437473 Rises=F Damp=F
 DIIS: error= 3.84D-04 at cycle   5 NSaved=   5.
 NSaved= 5 IEnMin= 5 EnMin= -1400.68928058360     IErMin= 5 ErrMin= 3.84D-04
 ErrMax= 3.84D-04  0.00D+00 EMaxC= 1.00D-01 BMatC= 4.73D-04 BMatP= 1.97D-02
 IDIUse=3 WtCom= 9.96D-01 WtEn= 3.84D-03
 Coeff-Com: -0.244D-01 0.270D-01 0.172D-01 0.180D+00 0.800D+00
 Coeff-En:   0.000D+00 0.000D+00 0.000D+00 0.000D+00 0.100D+01
 Coeff:     -0.243D-01 0.269D-01 0.171D-01 0.180D+00 0.800D+00
 Gap=     0.168 Goal=   None    Shift=    0.000
 Gap=     0.340 Goal=   None    Shift=    0.000
 RMSDP=5.66D-05 MaxDP=2.94D-03 DE=-3.48D-03 OVMax= 4.85D-03

 Cycle   6  Pass 1  IDiag  1:
 RMSU=  4.26D-05    CP:  9.54D-01  1.76D+00  6.56D-01  8.39D-01  1.07D+00
 E= -1400.68936232356     Delta-E=       -0.000081739958 Rises=F Damp=F
 DIIS: error= 1.95D-04 at cycle   6 NSaved=   6.
 NSaved= 6 IEnMin= 6 EnMin= -1400.68936232356     IErMin= 6 ErrMin= 1.95D-04
 ErrMax= 1.95D-04  0.00D+00 EMaxC= 1.00D-01 BMatC= 1.53D-04 BMatP= 4.73D-04
 IDIUse=3 WtCom= 9.98D-01 WtEn= 1.95D-03
 Coeff-Com:  0.969D-03-0.259D-02-0.271D-01-0.542D-01 0.456D+00 0.627D+00
 Coeff-En:   0.000D+00 0.000D+00 0.000D+00 0.000D+00 0.000D+00 0.100D+01
 Coeff:      0.967D-03-0.258D-02-0.270D-01-0.541D-01 0.455D+00 0.627D+00
 Gap=     0.169 Goal=   None    Shift=    0.000
 Gap=     0.339 Goal=   None    Shift=    0.000
 RMSDP=3.27D-05 MaxDP=2.12D-03 DE=-8.17D-05 OVMax= 3.20D-03

 Cycle   7  Pass 1  IDiag  1:
 RMSU=  2.04D-05    CP:  9.54D-01  1.76D+00  6.53D-01  8.50D-01  1.12D+00
                    CP:  8.42D-01
 E= -1400.68939628873     Delta-E=       -0.000033965175 Rises=F Damp=F
 DIIS: error= 5.75D-05 at cycle   7 NSaved=   7.
 NSaved= 7 IEnMin= 7 EnMin= -1400.68939628873     IErMin= 7 ErrMin= 5.75D-05
 ErrMax= 5.75D-05  0.00D+00 EMaxC= 1.00D-01 BMatC= 5.68D-06 BMatP= 1.53D-04
 IDIUse=1 WtCom= 1.00D+00 WtEn= 0.00D+00
 Coeff-Com:  0.209D-02-0.219D-02-0.810D-02-0.298D-01 0.399D-01 0.168D+00
 Coeff-Com:  0.830D+00
 Coeff:      0.209D-02-0.219D-02-0.810D-02-0.298D-01 0.399D-01 0.168D+00
 Coeff:      0.830D+00
 Gap=     0.169 Goal=   None    Shift=    0.000
 Gap=     0.339 Goal=   None    Shift=    0.000
 RMSDP=1.42D-05 MaxDP=1.11D-03 DE=-3.40D-05 OVMax= 1.86D-03

 Cycle   8  Pass 1  IDiag  1:
 RMSU=  9.93D-06    CP:  9.54D-01  1.76D+00  6.54D-01  8.48D-01  1.15D+00
                    CP:  9.25D-01  1.12D+00
 E= -1400.68939974690     Delta-E=       -0.000003458164 Rises=F Damp=F
 DIIS: error= 2.45D-05 at cycle   8 NSaved=   8.
 NSaved= 8 IEnMin= 8 EnMin= -1400.68939974690     IErMin= 8 ErrMin= 2.45D-05
 ErrMax= 2.45D-05  0.00D+00 EMaxC= 1.00D-01 BMatC= 1.25D-06 BMatP= 5.68D-06
 IDIUse=1 WtCom= 1.00D+00 WtEn= 0.00D+00
 Coeff-Com:  0.271D-03-0.315D-04 0.452D-02 0.660D-02-0.833D-01-0.877D-01
 Coeff-Com:  0.112D+00 0.105D+01
 Coeff:      0.271D-03-0.315D-04 0.452D-02 0.660D-02-0.833D-01-0.877D-01
 Coeff:      0.112D+00 0.105D+01
 Gap=     0.169 Goal=   None    Shift=    0.000
 Gap=     0.339 Goal=   None    Shift=    0.000
 RMSDP=8.57D-06 MaxDP=1.04D-03 DE=-3.46D-06 OVMax= 1.70D-03

 Cycle   9  Pass 1  IDiag  1:
 RMSU=  4.73D-06    CP:  9.54D-01  1.76D+00  6.55D-01  8.48D-01  1.15D+00
                    CP:  9.85D-01  1.37D+00  1.40D+00
 E= -1400.68940144886     Delta-E=       -0.000001701964 Rises=F Damp=F
 DIIS: error= 1.48D-05 at cycle   9 NSaved=   9.
 NSaved= 9 IEnMin= 9 EnMin= -1400.68940144886     IErMin= 9 ErrMin= 1.48D-05
 ErrMax= 1.48D-05  0.00D+00 EMaxC= 1.00D-01 BMatC= 5.34D-07 BMatP= 1.25D-06
 IDIUse=1 WtCom= 1.00D+00 WtEn= 0.00D+00
 Coeff-Com: -0.260D-03 0.388D-03 0.363D-02 0.873D-02-0.453D-01-0.682D-01
 Coeff-Com: -0.846D-01 0.473D+00 0.712D+00
 Coeff:     -0.260D-03 0.388D-03 0.363D-02 0.873D-02-0.453D-01-0.682D-01
 Coeff:     -0.846D-01 0.473D+00 0.712D+00
 Gap=     0.169 Goal=   None    Shift=    0.000
 Gap=     0.339 Goal=   None    Shift=    0.000
 RMSDP=4.81D-06 MaxDP=5.24D-04 DE=-1.70D-06 OVMax= 9.76D-04

 Cycle  10  Pass 1  IDiag  1:
 RMSU=  2.29D-06    CP:  9.54D-01  1.76D+00  6.55D-01  8.48D-01  1.15D+00
                    CP:  1.01D+00  1.46D+00  1.64D+00  1.57D+00
 E= -1400.68940216729     Delta-E=       -0.000000718426 Rises=F Damp=F
 DIIS: error= 1.29D-05 at cycle  10 NSaved=  10.
 NSaved=10 IEnMin=10 EnMin= -1400.68940216729     IErMin=10 ErrMin= 1.29D-05
 ErrMax= 1.29D-05  0.00D+00 EMaxC= 1.00D-01 BMatC= 2.49D-07 BMatP= 5.34D-07
 IDIUse=1 WtCom= 1.00D+00 WtEn= 0.00D+00
 Coeff-Com: -0.186D-03 0.201D-03-0.292D-04 0.109D-02 0.571D-02 0.142D-02
 Coeff-Com: -0.413D-01-0.136D+00 0.255D+00 0.915D+00
 Coeff:     -0.186D-03 0.201D-03-0.292D-04 0.109D-02 0.571D-02 0.142D-02
 Coeff:     -0.413D-01-0.136D+00 0.255D+00 0.915D+00
 Gap=     0.169 Goal=   None    Shift=    0.000
 Gap=     0.339 Goal=   None    Shift=    0.000
 RMSDP=5.00D-06 MaxDP=5.59D-04 DE=-7.18D-07 OVMax= 1.06D-03

 Cycle  11  Pass 1  IDiag  1:
 RMSU=  1.52D-06    CP:  9.54D-01  1.76D+00  6.55D-01  8.48D-01  1.15D+00
                    CP:  1.02D+00  1.54D+00  1.85D+00  2.31D+00  1.78D+00
 E= -1400.68940280758     Delta-E=       -0.000000640292 Rises=F Damp=F
 DIIS: error= 1.18D-05 at cycle  11 NSaved=  11.
 NSaved=11 IEnMin=11 EnMin= -1400.68940280758     IErMin=11 ErrMin= 1.18D-05
 ErrMax= 1.18D-05  0.00D+00 EMaxC= 1.00D-01 BMatC= 1.59D-07 BMatP= 2.49D-07
 IDIUse=1 WtCom= 1.00D+00 WtEn= 0.00D+00
 Coeff-Com:  0.427D-04-0.459D-04-0.159D-02-0.369D-02 0.174D-01 0.313D-01
 Coeff-Com:  0.457D-01-0.223D+00-0.347D+00-0.803D-01 0.156D+01
 Coeff:      0.427D-04-0.459D-04-0.159D-02-0.369D-02 0.174D-01 0.313D-01
 Coeff:      0.457D-01-0.223D+00-0.347D+00-0.803D-01 0.156D+01
 Gap=     0.169 Goal=   None    Shift=    0.000
 Gap=     0.339 Goal=   None    Shift=    0.000
 RMSDP=8.24D-06 MaxDP=9.45D-04 DE=-6.40D-07 OVMax= 1.74D-03

 Cycle  12  Pass 1  IDiag  1:
 RMSU=  2.72D-06    CP:  9.54D-01  1.76D+00  6.55D-01  8.49D-01  1.15D+00
                    CP:  1.04D+00  1.64D+00  2.17D+00  3.00D+00  3.00D+00
                    CP:  2.73D+00
 E= -1400.68940367060     Delta-E=       -0.000000863022 Rises=F Damp=F
 DIIS: error= 9.65D-06 at cycle  12 NSaved=  12.
 NSaved=12 IEnMin=12 EnMin= -1400.68940367060     IErMin=12 ErrMin= 9.65D-06
 ErrMax= 9.65D-06  0.00D+00 EMaxC= 1.00D-01 BMatC= 9.51D-08 BMatP= 1.59D-07
 IDIUse=1 WtCom= 1.00D+00 WtEn= 0.00D+00
 Coeff-Com:  0.199D-03-0.234D-03 0.615D-03-0.607D-04-0.149D-01-0.561D-02
 Coeff-Com:  0.445D-01 0.264D+00-0.278D+00-0.145D+01-0.377D+00 0.282D+01
 Coeff:      0.199D-03-0.234D-03 0.615D-03-0.607D-04-0.149D-01-0.561D-02
 Coeff:      0.445D-01 0.264D+00-0.278D+00-0.145D+01-0.377D+00 0.282D+01
 Gap=     0.169 Goal=   None    Shift=    0.000
 Gap=     0.339 Goal=   None    Shift=    0.000
 RMSDP=2.11D-05 MaxDP=2.41D-03 DE=-8.63D-07 OVMax= 4.34D-03

 Cycle  13  Pass 1  IDiag  1:
 RMSU=  1.43D-05    CP:  9.54D-01  1.76D+00  6.55D-01  8.49D-01  1.15D+00
                    CP:  1.08D+00  1.88D+00  2.94D+00  3.00D+00  3.00D+00
                    CP:  3.00D+00  3.00D+00
 E= -1400.68940485954     Delta-E=       -0.000001188933 Rises=F Damp=F
 DIIS: error= 2.94D-06 at cycle  13 NSaved=  13.
 NSaved=13 IEnMin=13 EnMin= -1400.68940485954     IErMin=13 ErrMin= 2.94D-06
 ErrMax= 2.94D-06  0.00D+00 EMaxC= 1.00D-01 BMatC= 1.49D-08 BMatP= 9.51D-08
 IDIUse=1 WtCom= 1.00D+00 WtEn= 0.00D+00
 Coeff-Com:  0.630D-04-0.728D-04 0.519D-03 0.692D-03-0.677D-02-0.710D-02
 Coeff-Com:  0.251D-02 0.106D+00 0.228D-01-0.322D+00-0.430D+00 0.677D+00
 Coeff-Com:  0.956D+00
 Coeff:      0.630D-04-0.728D-04 0.519D-03 0.692D-03-0.677D-02-0.710D-02
 Coeff:      0.251D-02 0.106D+00 0.228D-01-0.322D+00-0.430D+00 0.677D+00
 Coeff:      0.956D+00
 Gap=     0.169 Goal=   None    Shift=    0.000
 Gap=     0.339 Goal=   None    Shift=    0.000
 RMSDP=4.63D-06 MaxDP=5.23D-04 DE=-1.19D-06 OVMax= 1.00D-03

 Cycle  14  Pass 1  IDiag  1:
 RMSU=  1.36D-06    CP:  9.54D-01  1.76D+00  6.55D-01  8.49D-01  1.15D+00
                    CP:  1.09D+00  1.93D+00  3.00D+00  3.00D+00  3.00D+00
                    CP:  3.00D+00  3.00D+00  1.29D+00
 E= -1400.68940493429     Delta-E=       -0.000000074757 Rises=F Damp=F
 DIIS: error= 1.76D-06 at cycle  14 NSaved=  14.
 NSaved=14 IEnMin=14 EnMin= -1400.68940493429     IErMin=14 ErrMin= 1.76D-06
 ErrMax= 1.76D-06  0.00D+00 EMaxC= 1.00D-01 BMatC= 6.95D-09 BMatP= 1.49D-08
 IDIUse=1 WtCom= 1.00D+00 WtEn= 0.00D+00
 Coeff-Com: -0.610D-06 0.396D-06 0.143D-03 0.349D-03-0.169D-03-0.226D-02
 Coeff-Com: -0.723D-02 0.240D-03 0.674D-01 0.124D+00-0.154D+00-0.205D+00
 Coeff-Com:  0.495D+00 0.681D+00
 Coeff:     -0.610D-06 0.396D-06 0.143D-03 0.349D-03-0.169D-03-0.226D-02
 Coeff:     -0.723D-02 0.240D-03 0.674D-01 0.124D+00-0.154D+00-0.205D+00
 Coeff:      0.495D+00 0.681D+00
 Gap=     0.169 Goal=   None    Shift=    0.000
 Gap=     0.339 Goal=   None    Shift=    0.000
 RMSDP=1.21D-06 MaxDP=1.36D-04 DE=-7.48D-08 OVMax= 3.05D-04

 Cycle  15  Pass 1  IDiag  1:
 RMSU=  3.06D-07    CP:  9.54D-01  1.76D+00  6.55D-01  8.49D-01  1.15D+00
                    CP:  1.09D+00  1.94D+00  3.00D+00  3.00D+00  3.00D+00
                    CP:  3.00D+00  3.00D+00  1.36D+00  1.36D+00
 E= -1400.68940494722     Delta-E=       -0.000000012925 Rises=F Damp=F
 DIIS: error= 1.64D-06 at cycle  15 NSaved=  15.
 NSaved=15 IEnMin=15 EnMin= -1400.68940494722     IErMin=15 ErrMin= 1.64D-06
 ErrMax= 1.64D-06  0.00D+00 EMaxC= 1.00D-01 BMatC= 2.84D-09 BMatP= 6.95D-09
 IDIUse=1 WtCom= 1.00D+00 WtEn= 0.00D+00
 Coeff-Com: -0.252D-04 0.274D-04-0.188D-03-0.196D-03 0.305D-02 0.241D-02
 Coeff-Com: -0.311D-02-0.455D-01 0.365D-02 0.170D+00 0.141D+00-0.337D+00
 Coeff-Com: -0.246D+00 0.187D+00 0.113D+01
 Coeff:     -0.252D-04 0.274D-04-0.188D-03-0.196D-03 0.305D-02 0.241D-02
 Coeff:     -0.311D-02-0.455D-01 0.365D-02 0.170D+00 0.141D+00-0.337D+00
 Coeff:     -0.246D+00 0.187D+00 0.113D+01
 Gap=     0.169 Goal=   None    Shift=    0.000
 Gap=     0.339 Goal=   None    Shift=    0.000
 RMSDP=8.79D-07 MaxDP=8.48D-05 DE=-1.29D-08 OVMax= 2.52D-04

 Cycle  16  Pass 1  IDiag  1:
 RMSU=  3.08D-07    CP:  9.54D-01  1.76D+00  6.55D-01  8.49D-01  1.15D+00
                    CP:  1.09D+00  1.95D+00  3.00D+00  3.00D+00  3.00D+00
                    CP:  3.00D+00  3.00D+00  1.40D+00  1.63D+00  2.38D+00
 E= -1400.68940495768     Delta-E=       -0.000000010467 Rises=F Damp=F
 DIIS: error= 1.48D-06 at cycle  16 NSaved=  16.
 NSaved=16 IEnMin=16 EnMin= -1400.68940495768     IErMin=16 ErrMin= 1.48D-06
 ErrMax= 1.48D-06  0.00D+00 EMaxC= 1.00D-01 BMatC= 1.71D-09 BMatP= 2.84D-09
 IDIUse=1 WtCom= 1.00D+00 WtEn= 0.00D+00
 Coeff-Com:  0.117D-04-0.118D-04 0.285D-04-0.685D-04-0.199D-02-0.975D-03
 Coeff-Com:  0.429D-02 0.304D-01-0.437D-01-0.161D+00 0.751D-02 0.295D+00
 Coeff-Com: -0.937D-01-0.569D+00-0.721D+00 0.225D+01
 Coeff:      0.117D-04-0.118D-04 0.285D-04-0.685D-04-0.199D-02-0.975D-03
 Coeff:      0.429D-02 0.304D-01-0.437D-01-0.161D+00 0.751D-02 0.295D+00
 Coeff:     -0.937D-01-0.569D+00-0.721D+00 0.225D+01
 Gap=     0.169 Goal=   None    Shift=    0.000
 Gap=     0.339 Goal=   None    Shift=    0.000
 RMSDP=1.31D-06 MaxDP=1.18D-04 DE=-1.05D-08 OVMax= 3.68D-04

 Cycle  17  Pass 1  IDiag  1:
 RMSU=  6.67D-07    CP:  9.54D-01  1.76D+00  6.55D-01  8.49D-01  1.15D+00
                    CP:  1.09D+00  1.95D+00  3.00D+00  3.00D+00  3.00D+00
                    CP:  3.00D+00  3.00D+00  1.44D+00  2.02D+00  3.00D+00
                    CP:  2.86D+00
 E= -1400.68940497078     Delta-E=       -0.000000013092 Rises=F Damp=F
 DIIS: error= 8.77D-07 at cycle  17 NSaved=  17.
 NSaved=17 IEnMin=17 EnMin= -1400.68940497078     IErMin=17 ErrMin= 8.77D-07
 ErrMax= 8.77D-07  0.00D+00 EMaxC= 1.00D-01 BMatC= 8.19D-10 BMatP= 1.71D-09
 IDIUse=1 WtCom= 1.00D+00 WtEn= 0.00D+00
 Coeff-Com:  0.172D-04-0.199D-04 0.101D-03 0.768D-04-0.151D-02-0.124D-02
 Coeff-Com:  0.182D-02 0.248D-01-0.352D-02-0.977D-01-0.846D-01 0.203D+00
 Coeff-Com:  0.143D+00-0.189D+00-0.709D+00 0.216D+00 0.150D+01
 Coeff:      0.172D-04-0.199D-04 0.101D-03 0.768D-04-0.151D-02-0.124D-02
 Coeff:      0.182D-02 0.248D-01-0.352D-02-0.977D-01-0.846D-01 0.203D+00
 Coeff:      0.143D+00-0.189D+00-0.709D+00 0.216D+00 0.150D+01
 Gap=     0.169 Goal=   None    Shift=    0.000
 Gap=     0.339 Goal=   None    Shift=    0.000
 RMSDP=1.16D-06 MaxDP=1.06D-04 DE=-1.31D-08 OVMax= 3.26D-04

 Cycle  18  Pass 1  IDiag  1:
 RMSU=  4.87D-07    CP:  9.54D-01  1.76D+00  6.55D-01  8.49D-01  1.15D+00
                    CP:  1.09D+00  1.95D+00  3.00D+00  3.00D+00  3.00D+00
                    CP:  3.00D+00  3.00D+00  1.48D+00  2.36D+00  3.00D+00
                    CP:  3.00D+00  2.13D+00
 E= -1400.68940497767     Delta-E=       -0.000000006890 Rises=F Damp=F
 DIIS: error= 4.86D-07 at cycle  18 NSaved=  18.
 NSaved=18 IEnMin=18 EnMin= -1400.68940497767     IErMin=18 ErrMin= 4.86D-07
 ErrMax= 4.86D-07  0.00D+00 EMaxC= 1.00D-01 BMatC= 4.26D-10 BMatP= 8.19D-10
 IDIUse=1 WtCom= 1.00D+00 WtEn= 0.00D+00
 Coeff-Com:  0.679D-05-0.953D-05 0.511D-04 0.835D-04 0.207D-03-0.180D-03
 Coeff-Com: -0.113D-02-0.242D-03 0.211D-01 0.222D-01-0.626D-01-0.177D-01
 Coeff-Com:  0.148D+00 0.174D+00-0.779D-01-0.108D+01 0.973D+00 0.901D+00
 Coeff:      0.679D-05-0.953D-05 0.511D-04 0.835D-04 0.207D-03-0.180D-03
 Coeff:     -0.113D-02-0.242D-03 0.211D-01 0.222D-01-0.626D-01-0.177D-01
 Coeff:      0.148D+00 0.174D+00-0.779D-01-0.108D+01 0.973D+00 0.901D+00
 Gap=     0.169 Goal=   None    Shift=    0.000
 Gap=     0.339 Goal=   None    Shift=    0.000
 RMSDP=7.16D-07 MaxDP=7.30D-05 DE=-6.89D-09 OVMax= 1.91D-04

 Cycle  19  Pass 1  IDiag  1:
 RMSU=  5.51D-08    CP:  9.54D-01  1.76D+00  6.55D-01  8.49D-01  1.15D+00
                    CP:  1.09D+00  1.96D+00  3.00D+00  3.00D+00  3.00D+00
                    CP:  3.00D+00  3.00D+00  1.49D+00  2.55D+00  3.00D+00
                    CP:  3.00D+00  2.90D+00  1.74D+00
 E= -1400.68940497988     Delta-E=       -0.000000002211 Rises=F Damp=F
 DIIS: error= 2.09D-07 at cycle  19 NSaved=  19.
 NSaved=19 IEnMin=19 EnMin= -1400.68940497988     IErMin=19 ErrMin= 2.09D-07
 ErrMax= 2.09D-07  0.00D+00 EMaxC= 1.00D-01 BMatC= 7.71D-11 BMatP= 4.26D-10
 IDIUse=1 WtCom= 1.00D+00 WtEn= 0.00D+00
 Coeff-Com: -0.259D-05 0.241D-05-0.149D-04 0.423D-05 0.472D-03 0.290D-03
 Coeff-Com: -0.917D-03-0.662D-02 0.526D-02 0.328D-01 0.928D-02-0.590D-01
 Coeff-Com: -0.835D-02 0.983D-01 0.197D+00-0.346D+00-0.264D+00 0.262D+00
 Coeff-Com:  0.108D+01
 Coeff:     -0.259D-05 0.241D-05-0.149D-04 0.423D-05 0.472D-03 0.290D-03
 Coeff:     -0.917D-03-0.662D-02 0.526D-02 0.328D-01 0.928D-02-0.590D-01
 Coeff:     -0.835D-02 0.983D-01 0.197D+00-0.346D+00-0.264D+00 0.262D+00
 Coeff:      0.108D+01
 Gap=     0.169 Goal=   None    Shift=    0.000
 Gap=     0.339 Goal=   None    Shift=    0.000
 RMSDP=3.38D-07 MaxDP=3.63D-05 DE=-2.21D-09 OVMax= 8.52D-05

 Cycle  20  Pass 1  IDiag  1:
 RMSU=  1.83D-07    CP:  9.54D-01  1.76D+00  6.55D-01  8.49D-01  1.15D+00
                    CP:  1.09D+00  1.96D+00  3.00D+00  3.00D+00  3.00D+00
                    CP:  3.00D+00  3.00D+00  1.50D+00  2.63D+00  3.00D+00
                    CP:  3.00D+00  3.00D+00  2.12D+00  1.46D+00
 E= -1400.68940498019     Delta-E=       -0.000000000313 Rises=F Damp=F
 DIIS: error= 6.11D-08 at cycle  20 NSaved=  20.
 NSaved=20 IEnMin=20 EnMin= -1400.68940498019     IErMin=20 ErrMin= 6.11D-08
 ErrMax= 6.11D-08  0.00D+00 EMaxC= 1.00D-01 BMatC= 9.34D-12 BMatP= 7.71D-11
 IDIUse=1 WtCom= 1.00D+00 WtEn= 0.00D+00
 Coeff-Com: -0.189D-05 0.273D-05-0.104D-04-0.109D-04-0.109D-04 0.118D-04
 Coeff-Com:  0.308D-04-0.833D-03-0.298D-02 0.160D-02 0.125D-01-0.706D-02
 Coeff-Com: -0.276D-01-0.125D-01 0.537D-01 0.137D+00-0.248D+00-0.113D+00
 Coeff-Com:  0.233D+00 0.974D+00
 Coeff:     -0.189D-05 0.273D-05-0.104D-04-0.109D-04-0.109D-04 0.118D-04
 Coeff:      0.308D-04-0.833D-03-0.298D-02 0.160D-02 0.125D-01-0.706D-02
 Coeff:     -0.276D-01-0.125D-01 0.537D-01 0.137D+00-0.248D+00-0.113D+00
 Coeff:      0.233D+00 0.974D+00
 Gap=     0.169 Goal=   None    Shift=    0.000
 Gap=     0.339 Goal=   None    Shift=    0.000
 RMSDP=7.39D-08 MaxDP=7.28D-06 DE=-3.13D-10 OVMax= 1.95D-05

 Cycle  21  Pass 1  IDiag  1:
 Restarting incremental Fock formation.
 E= -1400.68940498022     Delta-E=       -0.000000000032 Rises=F Damp=F
 DIIS: error= 2.04D-08 at cycle  21 NSaved=  20.
 NSaved=20 IEnMin=20 EnMin= -1400.68940498022     IErMin=20 ErrMin= 2.04D-08
 ErrMax= 2.04D-08  0.00D+00 EMaxC= 1.00D-01 BMatC= 1.23D-12 BMatP= 9.34D-12
 IDIUse=1 WtCom= 1.00D+00 WtEn= 0.00D+00
 Coeff-Com:  0.123D-06-0.186D-05-0.633D-05-0.604D-04-0.264D-04 0.171D-03
 Coeff-Com:  0.491D-03-0.143D-02-0.342D-02 0.233D-02 0.471D-02-0.595D-02
 Coeff-Com: -0.143D-01-0.672D-02 0.752D-01-0.416D-01-0.575D-01-0.476D-01
 Coeff-Com:  0.275D+00 0.821D+00
 Coeff:      0.123D-06-0.186D-05-0.633D-05-0.604D-04-0.264D-04 0.171D-03
 Coeff:      0.491D-03-0.143D-02-0.342D-02 0.233D-02 0.471D-02-0.595D-02
 Coeff:     -0.143D-01-0.672D-02 0.752D-01-0.416D-01-0.575D-01-0.476D-01
 Coeff:      0.275D+00 0.821D+00
 Gap=     0.169 Goal=   None    Shift=    0.000
 Gap=     0.339 Goal=   None    Shift=    0.000
 RMSDP=1.03D-08 MaxDP=8.21D-07 DE=-3.18D-11 OVMax= 2.70D-06

 Cycle  22  Pass 1  IDiag  1:
 RMSU=  1.03D-08    CP:  1.00D+00
 E= -1400.68940498023     Delta-E=       -0.000000000004 Rises=F Damp=F
 DIIS: error= 1.30D-08 at cycle  22 NSaved=  20.
 NSaved=20 IEnMin=20 EnMin= -1400.68940498023     IErMin=20 ErrMin= 1.30D-08
 ErrMax= 1.30D-08  0.00D+00 EMaxC= 1.00D-01 BMatC= 4.90D-13 BMatP= 1.23D-12
 IDIUse=1 WtCom= 1.00D+00 WtEn= 0.00D+00
 Coeff-Com:  0.919D-06 0.478D-06-0.204D-04-0.126D-04 0.609D-04 0.262D-03
 Coeff-Com: -0.154D-03-0.150D-02-0.579D-03 0.256D-02 0.116D-02-0.522D-02
 Coeff-Com: -0.113D-01 0.158D-01 0.196D-01-0.112D-01-0.668D-01-0.285D-01
 Coeff-Com:  0.451D+00 0.635D+00
 Coeff:      0.919D-06 0.478D-06-0.204D-04-0.126D-04 0.609D-04 0.262D-03
 Coeff:     -0.154D-03-0.150D-02-0.579D-03 0.256D-02 0.116D-02-0.522D-02
 Coeff:     -0.113D-01 0.158D-01 0.196D-01-0.112D-01-0.668D-01-0.285D-01
 Coeff:      0.451D+00 0.635D+00
 Gap=     0.169 Goal=   None    Shift=    0.000
 Gap=     0.339 Goal=   None    Shift=    0.000
 RMSDP=3.80D-09 MaxDP=2.88D-07 DE=-3.64D-12 OVMax= 9.32D-07

 SCF Done:  E(UPBE1PBE) =  -1400.68940498     A.U. after   22 cycles
            NFock= 22  Conv=0.38D-08     -V/T= 2.0009
 <Sx>= 0.0000 <Sy>= 0.0000 <Sz>= 1.0000 <S**2>= 2.0041 S= 1.0014
 <L.S>=  0.00000000000    
 KE= 1.399382328418D+03 PE=-4.706951128709D+03 EE= 1.189170059150D+03
 Annihilation of the first spin contaminant:
 S**2 before annihilation     2.0041,   after     2.0000
 Leave Link  502 at Thu May 23 18:13:02 2024, MaxMem= 26843545600 cpu:            4072.3 elap:              35.8
 (Enter /gpfs/fs1/soft/improv/software/custom-built/gaussian/g16/l508.exe)
 QCSCF skips out because SCF is already converged.
 Leave Link  508 at Thu May 23 18:13:02 2024, MaxMem= 26843545600 cpu:               0.2 elap:               0.0
 (Enter /gpfs/fs1/soft/improv/software/custom-built/gaussian/g16/l801.exe)
 DoSCS=F DFT=T ScalE2(SS,OS)=  1.000000  1.000000
 Range of M.O.s used for correlation:     1   317
 NBasis=   317 NAE=    41 NBE=    39 NFC=     0 NFV=     0
 NROrb=    317 NOA=    41 NOB=    39 NVA=   276 NVB=   278

 **** Warning!!: The largest alpha MO coefficient is  0.64842386D+02


 **** Warning!!: The largest beta MO coefficient is  0.64834537D+02

 Leave Link  801 at Thu May 23 18:13:02 2024, MaxMem= 26843545600 cpu:               0.4 elap:               0.0
 (Enter /gpfs/fs1/soft/improv/software/custom-built/gaussian/g16/l1101.exe)
 Using compressed storage, NAtomX=    19.
 Will process     20 centers per pass.
 R6Disp: Adding Grimme-D3 dispersion energy 1st derivatives to the gradient.
 Leave Link 1101 at Thu May 23 18:13:02 2024, MaxMem= 26843545600 cpu:              51.3 elap:               0.5
 (Enter /gpfs/fs1/soft/improv/software/custom-built/gaussian/g16/l1102.exe)
 Symmetrizing basis deriv contribution to polar:
 IMax=3 JMax=2 DiffMx= 0.00D+00
 Leave Link 1102 at Thu May 23 18:13:02 2024, MaxMem= 26843545600 cpu:               0.9 elap:               0.0
 (Enter /gpfs/fs1/soft/improv/software/custom-built/gaussian/g16/l1110.exe)
 Forming Gx(P) for the SCF density, NAtomX=    19.
 Integral derivatives from FoFJK, PRISM(SPDF).
 Do as many integral derivatives as possible in FoFJK.
 G2DrvN: MDV=   26843543431.
 G2DrvN: will do    20 centers at a time, making    1 passes.
 Calling FoFCou, ICntrl=  3107 FMM=F I1Cent=   0 AccDes= 0.00D+00.
 FoFJK:  IHMeth= 1 ICntrl=    3107 DoSepK=F KAlg= 0 I1Cent=           0 FoldK=F
 IRaf=         0 NMat=       1 IRICut=       1 DoRegI=T DoRafI=F ISym2E= 0 IDoP0=0 IntGTp=1.
 FoFCou: FMM=F IPFlag=           0 FMFlag=      100000 FMFlg1=           0
         NFxFlg=           0 DoJE=F BraDBF=F KetDBF=F FulRan=T
         wScrn=  0.000000 ICntrl=      3107 IOpCl=  1 I1Cent=           0 NGrid=           0
         NMat0=    1 NMatS0=      1 NMatT0=    0 NMatD0=    1 NMtDS0=    0 NMtDT0=    0
 Symmetry not used in FoFCou.
 End of G2Drv F.D. properties file   721 does not exist.
 End of G2Drv F.D. properties file   722 does not exist.
 End of G2Drv F.D. properties file   788 does not exist.
 Leave Link 1110 at Thu May 23 18:13:17 2024, MaxMem= 26843545600 cpu:            1881.0 elap:              15.0
 (Enter /gpfs/fs1/soft/improv/software/custom-built/gaussian/g16/l1002.exe)
 Minotr:  UHF open shell wavefunction.
          IDoAtm=1111111111111111111
          Direct CPHF calculation.
          Differentiating once with respect to electric field.
                with respect to dipole field.
          Differentiating once with respect to nuclear coordinates.
          Requested convergence is 1.0D-08 RMS, and 1.0D-07 maximum.
          Secondary convergence is 1.0D-12 RMS, and 1.0D-12 maximum.
          NewPWx=T KeepS1=F KeepF1=F KeepIn=T MapXYZ=F SortEE=F KeepMc=T.
         6034 words used for storage of precomputed grid.
 Two-electron integrals replicated using symmetry.
          MDV=   26843545600 using IRadAn=       1.
          Solving linear equations simultaneously, MaxMat=     384.
 FoF2E skips out because all densities are zero.
 CalDSu exits because no D1Ps are significant.
 FoFJK:  IHMeth= 1 ICntrl=       0 DoSepK=F KAlg= 0 I1Cent=           0 FoldK=F
 IRaf= 990000000 NMat=      57 IRICut=     142 DoRegI=T DoRafI=T ISym2E= 2 IDoP0=3 IntGTp=2.
 FoFCou: FMM=F IPFlag=           0 FMFlag=      100000 FMFlg1=           0
         NFxFlg=           0 DoJE=F BraDBF=F KetDBF=F FulRan=T
         wScrn=  0.000000 ICntrl=         0 IOpCl=  1 I1Cent=           0 NGrid=           0
         NMat0=   57 NMatS0=     57 NMatT0=    0 NMatD0=   57 NMtDS0=    0 NMtDT0=    0
 Integrals replicated using symmetry in FoFCou.
 Raff kept on since  98.06% of shell-pairs survive, threshold=   0.20 IRatSp=98.
          There are    60 degrees of freedom in the 1st order CPHF.  IDoFFX=6 NUNeed=     3.
     57 vectors produced by pass  0 Test12= 3.69D-14 1.67D-09 XBig12= 5.06D+01 1.28D+00.
 AX will form    57 AO Fock derivatives at one time.
     57 vectors produced by pass  1 Test12= 3.69D-14 1.67D-09 XBig12= 4.68D+00 2.04D-01.
     57 vectors produced by pass  2 Test12= 3.69D-14 1.67D-09 XBig12= 6.78D-02 3.51D-02.
     57 vectors produced by pass  3 Test12= 3.69D-14 1.67D-09 XBig12= 3.37D-04 2.35D-03.
     57 vectors produced by pass  4 Test12= 3.69D-14 1.67D-09 XBig12= 2.54D-06 2.12D-04.
     57 vectors produced by pass  5 Test12= 3.69D-14 1.67D-09 XBig12= 2.07D-08 2.41D-05.
     52 vectors produced by pass  6 Test12= 3.69D-14 1.67D-09 XBig12= 1.09D-10 1.32D-06.
     13 vectors produced by pass  7 Test12= 3.69D-14 1.67D-09 XBig12= 3.91D-13 5.29D-08.
      3 vectors produced by pass  8 Test12= 3.69D-14 1.67D-09 XBig12= 1.43D-15 3.43D-09.
 InvSVY:  IOpt=1 It=  1 EMax= 1.14D-15
 Solved reduced A of dimension   410 with    60 vectors.
 FullF1:  Do perturbations      1 to       3.
 Isotropic polarizability for W=    0.000000       49.22 Bohr**3.
 End of Minotr F.D. properties file   721 does not exist.
 End of Minotr F.D. properties file   722 does not exist.
 End of Minotr F.D. properties file   788 does not exist.
 Leave Link 1002 at Thu May 23 18:14:24 2024, MaxMem= 26843545600 cpu:            8029.9 elap:              66.2
 (Enter /gpfs/fs1/soft/improv/software/custom-built/gaussian/g16/l601.exe)
 Copying SCF densities to generalized density rwf, IOpCl= 1 IROHF=0.

 **********************************************************************

            Population analysis using the SCF Density.

 **********************************************************************

 Orbital symmetries:
 Alpha Orbitals:
       Occupied  (A) (A) (A) (A) (A) (A) (A) (A) (A) (A) (A) (A)
                 (A) (A) (A) (A) (A) (A) (A) (A) (A) (A) (A) (A)
                 (A) (A) (A) (A) (A) (A) (A) (A) (A) (A) (A) (A)
                 (A) (A) (A) (A) (A)
       Virtual   (A) (A) (A) (A) (A) (A) (A) (A) (A) (A) (A) (A)
                 (A) (A) (A) (A) (A) (A) (A) (A) (A) (A) (A) (A)
                 (A) (A) (A) (A) (A) (A) (A) (A) (A) (A) (A) (A)
                 (A) (A) (A) (A) (A) (A) (A) (A) (A) (A) (A) (A)
                 (A) (A) (A) (A) (A) (A) (A) (A) (A) (A) (A) (A)
                 (A) (A) (A) (A) (A) (A) (A) (A) (A) (A) (A) (A)
                 (A) (A) (A) (A) (A) (A) (A) (A) (A) (A) (A) (A)
                 (A) (A) (A) (A) (A) (A) (A) (A) (A) (A) (A) (A)
                 (A) (A) (A) (A) (A) (A) (A) (A) (A) (A) (A) (A)
                 (A) (A) (A) (A) (A) (A) (A) (A) (A) (A) (A) (A)
                 (A) (A) (A) (A) (A) (A) (A) (A) (A) (A) (A) (A)
                 (A) (A) (A) (A) (A) (A) (A) (A) (A) (A) (A) (A)
                 (A) (A) (A) (A) (A) (A) (A) (A) (A) (A) (A) (A)
                 (A) (A) (A) (A) (A) (A) (A) (A) (A) (A) (A) (A)
                 (A) (A) (A) (A) (A) (A) (A) (A) (A) (A) (A) (A)
                 (A) (A) (A) (A) (A) (A) (A) (A) (A) (A) (A) (A)
                 (A) (A) (A) (A) (A) (A) (A) (A) (A) (A) (A) (A)
                 (A) (A) (A) (A) (A) (A) (A) (A) (A) (A) (A) (A)
                 (A) (A) (A) (A) (A) (A) (A) (A) (A) (A) (A) (A)
                 (A) (A) (A) (A) (A) (A) (A) (A) (A) (A) (A) (A)
                 (A) (A) (A) (A) (A) (A) (A) (A) (A) (A) (A) (A)
                 (A) (A) (A) (A) (A) (A) (A) (A) (A) (A) (A) (A)
                 (A) (A) (A) (A) (A) (A) (A) (A) (A) (A) (A) (A)
 Beta  Orbitals:
       Occupied  (A) (A) (A) (A) (A) (A) (A) (A) (A) (A) (A) (A)
                 (A) (A) (A) (A) (A) (A) (A) (A) (A) (A) (A) (A)
                 (A) (A) (A) (A) (A) (A) (A) (A) (A) (A) (A) (A)
                 (A) (A) (A)
       Virtual   (A) (A) (A) (A) (A) (A) (A) (A) (A) (A) (A) (A)
                 (A) (A) (A) (A) (A) (A) (A) (A) (A) (A) (A) (A)
                 (A) (A) (A) (A) (A) (A) (A) (A) (A) (A) (A) (A)
                 (A) (A) (A) (A) (A) (A) (A) (A) (A) (A) (A) (A)
                 (A) (A) (A) (A) (A) (A) (A) (A) (A) (A) (A) (A)
                 (A) (A) (A) (A) (A) (A) (A) (A) (A) (A) (A) (A)
                 (A) (A) (A) (A) (A) (A) (A) (A) (A) (A) (A) (A)
                 (A) (A) (A) (A) (A) (A) (A) (A) (A) (A) (A) (A)
                 (A) (A) (A) (A) (A) (A) (A) (A) (A) (A) (A) (A)
                 (A) (A) (A) (A) (A) (A) (A) (A) (A) (A) (A) (A)
                 (A) (A) (A) (A) (A) (A) (A) (A) (A) (A) (A) (A)
                 (A) (A) (A) (A) (A) (A) (A) (A) (A) (A) (A) (A)
                 (A) (A) (A) (A) (A) (A) (A) (A) (A) (A) (A) (A)
                 (A) (A) (A) (A) (A) (A) (A) (A) (A) (A) (A) (A)
                 (A) (A) (A) (A) (A) (A) (A) (A) (A) (A) (A) (A)
                 (A) (A) (A) (A) (A) (A) (A) (A) (A) (A) (A) (A)
                 (A) (A) (A) (A) (A) (A) (A) (A) (A) (A) (A) (A)
                 (A) (A) (A) (A) (A) (A) (A) (A) (A) (A) (A) (A)
                 (A) (A) (A) (A) (A) (A) (A) (A) (A) (A) (A) (A)
                 (A) (A) (A) (A) (A) (A) (A) (A) (A) (A) (A) (A)
                 (A) (A) (A) (A) (A) (A) (A) (A) (A) (A) (A) (A)
                 (A) (A) (A) (A) (A) (A) (A) (A) (A) (A) (A) (A)
                 (A) (A) (A) (A) (A) (A) (A) (A) (A) (A) (A) (A)
                 (A) (A)
 The electronic state is 3-A.
 Alpha  occ. eigenvalues -- -197.66371 -22.92862 -19.85346 -19.85175 -19.83664
 Alpha  occ. eigenvalues --  -19.83244 -19.81857 -19.81298 -19.40087 -19.39508
 Alpha  occ. eigenvalues --  -19.39109  -3.27794  -2.30489  -2.30409  -2.30264
 Alpha  occ. eigenvalues --   -1.69951  -1.67813  -1.66952  -1.65852  -1.64616
 Alpha  occ. eigenvalues --   -1.64003  -1.21671  -1.19981  -1.17953  -1.17035
 Alpha  occ. eigenvalues --   -1.15594  -1.14129  -1.09370  -1.09019  -1.08006
 Alpha  occ. eigenvalues --   -1.04917  -1.03891  -1.01826  -1.00859  -0.97815
 Alpha  occ. eigenvalues --   -0.96951  -0.95533  -0.93807  -0.92475  -0.79917
 Alpha  occ. eigenvalues --   -0.79020
 Alpha virt. eigenvalues --   -0.62107  -0.54380  -0.48656  -0.48119  -0.47425
 Alpha virt. eigenvalues --   -0.46283  -0.45226  -0.41505  -0.40400  -0.39105
 Alpha virt. eigenvalues --   -0.38840  -0.35664  -0.34327  -0.33858  -0.32329
 Alpha virt. eigenvalues --   -0.31222  -0.30614  -0.29867  -0.27976  -0.27063
 Alpha virt. eigenvalues --   -0.26531  -0.26516  -0.25936  -0.23862  -0.23820
 Alpha virt. eigenvalues --   -0.23222  -0.22545  -0.20933  -0.20298  -0.19817
 Alpha virt. eigenvalues --   -0.18588  -0.17997  -0.17524  -0.16083  -0.15614
 Alpha virt. eigenvalues --   -0.14458  -0.14169  -0.13558  -0.12739  -0.11346
 Alpha virt. eigenvalues --   -0.10479  -0.09836  -0.08369  -0.07634  -0.06459
 Alpha virt. eigenvalues --   -0.05988  -0.04992  -0.04433  -0.02725   0.00206
 Alpha virt. eigenvalues --    0.01461   0.02676   0.05767   0.06242   0.08002
 Alpha virt. eigenvalues --    0.09991   0.21802   0.22650   0.23946   0.26827
 Alpha virt. eigenvalues --    0.28165   0.28693   0.29381   0.30466   0.32977
 Alpha virt. eigenvalues --    0.34255   0.34645   0.35836   0.38472   0.39179
 Alpha virt. eigenvalues --    0.39800   0.40681   0.40903   0.42837   0.43418
 Alpha virt. eigenvalues --    0.44833   0.48053   0.50142   0.51912   0.52303
 Alpha virt. eigenvalues --    0.53807   0.54149   0.54952   0.56290   0.57978
 Alpha virt. eigenvalues --    0.59069   0.59808   0.61398   0.63212   0.64670
 Alpha virt. eigenvalues --    0.69006   0.70277   0.70418   0.73732   0.74432
 Alpha virt. eigenvalues --    0.76773   0.77318   0.79123   0.81058   0.83161
 Alpha virt. eigenvalues --    0.83767   0.84918   0.87558   0.88799   0.89507
 Alpha virt. eigenvalues --    0.94526   0.96092   0.96330   1.02562   1.04355
 Alpha virt. eigenvalues --    1.07543   1.14704   1.15261   1.16751   1.18581
 Alpha virt. eigenvalues --    1.20999   1.21571   1.26946   1.29667   1.31945
 Alpha virt. eigenvalues --    1.34966   1.37993   1.39841   1.43132   1.47820
 Alpha virt. eigenvalues --    1.51557   1.68962   1.70415   1.71880   1.73247
 Alpha virt. eigenvalues --    1.76019   1.76501   1.77433   1.79228   1.82902
 Alpha virt. eigenvalues --    1.86225   1.89177   1.91276   1.94367   1.98738
 Alpha virt. eigenvalues --    1.99764   2.03457   2.05232   2.09729   2.15575
 Alpha virt. eigenvalues --    2.19327   2.21347   2.22560   2.28681   2.30225
 Alpha virt. eigenvalues --    2.33801   2.34278   2.36300   2.38331   2.39569
 Alpha virt. eigenvalues --    2.42230   2.43399   2.45041   2.46301   2.48574
 Alpha virt. eigenvalues --    2.50703   2.51749   2.52435   2.56282   2.61196
 Alpha virt. eigenvalues --    2.62580   2.63411   2.63956   2.66062   2.70760
 Alpha virt. eigenvalues --    2.71478   2.80268   2.85662   2.87821   2.89101
 Alpha virt. eigenvalues --    2.91503   2.92440   2.95397   2.96158   2.97452
 Alpha virt. eigenvalues --    3.03079   3.18510   3.24429   3.51766   3.54885
 Alpha virt. eigenvalues --    3.56276   3.61921   3.62953   3.65759   3.66979
 Alpha virt. eigenvalues --    3.68829   3.69459   3.70068   3.72883   3.75625
 Alpha virt. eigenvalues --    3.80671   3.82710   3.87580   3.88628   3.91225
 Alpha virt. eigenvalues --    3.92732   3.97636   3.97907   4.01761   4.05883
 Alpha virt. eigenvalues --    4.06742   4.09424   4.15053   4.17806   4.18854
 Alpha virt. eigenvalues --    4.19933   4.23622   4.26040   4.33054   4.35426
 Alpha virt. eigenvalues --    4.37956   4.39838   4.41788   4.42640   4.49999
 Alpha virt. eigenvalues --    4.55953   4.62336   4.67924   4.69742   4.73471
 Alpha virt. eigenvalues --    4.75604   4.79735   4.86351   4.88006   4.91219
 Alpha virt. eigenvalues --    4.91349   4.91782   4.92856   4.94516   4.97569
 Alpha virt. eigenvalues --    4.98961   5.02876   5.06272   5.07570   5.09037
 Alpha virt. eigenvalues --    5.11277   5.14019   5.16690   5.19132   5.22747
 Alpha virt. eigenvalues --    5.25767   5.27539   5.27783   5.28823   5.30445
 Alpha virt. eigenvalues --    5.31332   5.34355   5.34741   5.34869   5.37586
 Alpha virt. eigenvalues --    5.40096   5.40820   5.41535   5.43043   5.43494
 Alpha virt. eigenvalues --    5.75949   5.78465   6.23751   6.92125   6.94807
 Alpha virt. eigenvalues --    6.95605   7.05343   7.10204   7.18302  13.23942
 Alpha virt. eigenvalues --   13.25435  13.26106  13.70553  13.76287  13.83743
 Alpha virt. eigenvalues --   36.52585
  Beta  occ. eigenvalues -- -197.66359 -22.90234 -19.85389 -19.85210 -19.83661
  Beta  occ. eigenvalues --  -19.83232 -19.81881 -19.81337 -19.38453 -19.37198
  Beta  occ. eigenvalues --  -19.36334  -3.19545  -2.24017  -2.21291  -2.19430
  Beta  occ. eigenvalues --   -1.69819  -1.67740  -1.66825  -1.65588  -1.64471
  Beta  occ. eigenvalues --   -1.63908  -1.21140  -1.19461  -1.17687  -1.16797
  Beta  occ. eigenvalues --   -1.15291  -1.13925  -1.08997  -1.08558  -1.07523
  Beta  occ. eigenvalues --   -1.04615  -1.03499  -1.01605  -1.00556  -0.97513
  Beta  occ. eigenvalues --   -0.96568  -0.95104  -0.93503  -0.92360
  Beta virt. eigenvalues --   -0.58430  -0.56142  -0.55483  -0.54090  -0.48383
  Beta virt. eigenvalues --   -0.46319  -0.45325  -0.44935  -0.44482  -0.40801
  Beta virt. eigenvalues --   -0.39763  -0.38851  -0.38620  -0.35420  -0.34130
  Beta virt. eigenvalues --   -0.33649  -0.32020  -0.31090  -0.30447  -0.29661
  Beta virt. eigenvalues --   -0.27765  -0.26820  -0.26421  -0.26296  -0.25697
  Beta virt. eigenvalues --   -0.23707  -0.23656  -0.22767  -0.22074  -0.20556
  Beta virt. eigenvalues --   -0.20007  -0.19668  -0.18254  -0.17734  -0.16913
  Beta virt. eigenvalues --   -0.15777  -0.15326  -0.14246  -0.14036  -0.13199
  Beta virt. eigenvalues --   -0.12492  -0.10842  -0.10180  -0.09400  -0.08138
  Beta virt. eigenvalues --   -0.06959  -0.05991  -0.05605  -0.04545  -0.04006
  Beta virt. eigenvalues --   -0.02179   0.00600   0.02553   0.03677   0.06257
  Beta virt. eigenvalues --    0.06488   0.08923   0.10859   0.23087   0.23368
  Beta virt. eigenvalues --    0.24716   0.27794   0.29002   0.29593   0.30592
  Beta virt. eigenvalues --    0.31394   0.33276   0.34697   0.35086   0.36159
  Beta virt. eigenvalues --    0.38847   0.39538   0.40063   0.40985   0.41154
  Beta virt. eigenvalues --    0.43179   0.43977   0.45230   0.48499   0.50691
  Beta virt. eigenvalues --    0.52190   0.52666   0.54128   0.54500   0.55224
  Beta virt. eigenvalues --    0.56523   0.58569   0.59429   0.60225   0.61779
  Beta virt. eigenvalues --    0.63667   0.65226   0.69928   0.70513   0.70612
  Beta virt. eigenvalues --    0.74048   0.74773   0.77159   0.78514   0.79428
  Beta virt. eigenvalues --    0.81300   0.84301   0.84565   0.85332   0.88241
  Beta virt. eigenvalues --    0.89121   0.89893   0.95579   0.96499   0.97364
  Beta virt. eigenvalues --    1.04019   1.05609   1.08819   1.17218   1.18521
  Beta virt. eigenvalues --    1.19238   1.21264   1.23609   1.24155   1.27923
  Beta virt. eigenvalues --    1.30647   1.32908   1.36057   1.39203   1.41401
  Beta virt. eigenvalues --    1.43754   1.49147   1.52592   1.69345   1.70855
  Beta virt. eigenvalues --    1.72233   1.73597   1.76532   1.76926   1.77845
  Beta virt. eigenvalues --    1.79882   1.83383   1.86558   1.89455   1.91974
  Beta virt. eigenvalues --    1.94914   1.99310   2.00414   2.04276   2.06205
  Beta virt. eigenvalues --    2.10433   2.16498   2.21092   2.22520   2.23361
  Beta virt. eigenvalues --    2.29596   2.31196   2.34696   2.34841   2.36821
  Beta virt. eigenvalues --    2.39032   2.40891   2.42972   2.44067   2.46386
  Beta virt. eigenvalues --    2.46944   2.49043   2.51171   2.52609   2.53252
  Beta virt. eigenvalues --    2.57105   2.61776   2.63075   2.64112   2.64660
  Beta virt. eigenvalues --    2.67026   2.71124   2.71824   2.81275   2.88236
  Beta virt. eigenvalues --    2.89347   2.92342   2.94905   2.95125   2.97858
  Beta virt. eigenvalues --    2.99117   3.00330   3.05826   3.21615   3.27861
  Beta virt. eigenvalues --    3.51805   3.54951   3.56339   3.62271   3.63123
  Beta virt. eigenvalues --    3.66272   3.67262   3.69548   3.69820   3.70204
  Beta virt. eigenvalues --    3.73316   3.75971   3.80953   3.82870   3.88186
  Beta virt. eigenvalues --    3.88913   3.91501   3.92935   3.98101   4.00802
  Beta virt. eigenvalues --    4.05420   4.08850   4.10363   4.11139   4.16277
  Beta virt. eigenvalues --    4.19694   4.20290   4.22634   4.25609   4.26242
  Beta virt. eigenvalues --    4.33997   4.36948   4.38683   4.41196   4.42457
  Beta virt. eigenvalues --    4.43470   4.52173   4.58004   4.62561   4.68540
  Beta virt. eigenvalues --    4.70243   4.73845   4.76265   4.80704   4.86459
  Beta virt. eigenvalues --    4.88072   4.91386   4.91488   4.91930   4.93091
  Beta virt. eigenvalues --    4.94893   4.97996   4.99375   5.03501   5.07182
  Beta virt. eigenvalues --    5.08052   5.10014   5.11794   5.14368   5.17203
  Beta virt. eigenvalues --    5.19986   5.23222   5.26094   5.27953   5.28410
  Beta virt. eigenvalues --    5.29124   5.30938   5.31716   5.34665   5.35299
  Beta virt. eigenvalues --    5.35517   5.38181   5.40724   5.41446   5.41747
  Beta virt. eigenvalues --    5.43228   5.43719   5.76083   5.78641   6.25055
  Beta virt. eigenvalues --    6.92373   6.95044   6.95835   7.05494   7.10331
  Beta virt. eigenvalues --    7.18520  13.24085  13.25583  13.26219  13.70598
  Beta virt. eigenvalues --   13.76342  13.83783  36.54566
          Condensed to atoms (all electrons):
               1          2          3          4          5          6
     1  V   22.040287  -0.046115  -0.015818  -0.062492  -0.020831  -0.037012
     2  O   -0.046115   8.317140   0.314815  -0.120616  -0.000997  -0.055962
     3  H   -0.015818   0.314815   0.241518  -0.001197  -0.000010   0.002107
     4  O   -0.062492  -0.120616  -0.001197   8.575387   0.312328  -0.164941
     5  H   -0.020831  -0.000997  -0.000010   0.312328   0.271108   0.001674
     6  O   -0.037012  -0.055962   0.002107  -0.164941   0.001674   8.364037
     7  H   -0.011442  -0.004193   0.000011   0.004895  -0.000225   0.311454
     8  O   -0.050625   0.073190  -0.000584  -0.120926   0.001794  -0.105397
     9  H   -0.014552  -0.000432  -0.000022  -0.004236  -0.000041   0.005264
    10  O   -0.065409  -0.090647  -0.003063   0.097760  -0.000744  -0.142459
    11  H   -0.011984   0.002319  -0.000150  -0.000015   0.000011  -0.002174
    12  O   -0.051398   0.038092   0.002949  -0.140593  -0.000858   0.084663
    13  H   -0.020148  -0.001260  -0.000006  -0.002336  -0.000035  -0.000119
    14  H    0.001006  -0.002426  -0.000009   0.004601   0.000033  -0.000841
    15  H   -0.013991  -0.001084  -0.000032   0.313377  -0.021619  -0.006245
    16  H   -0.011201   0.312623  -0.013250   0.001640  -0.000016  -0.009777
    17  H   -0.021901  -0.002280   0.000093  -0.000656  -0.000020   0.001357
    18  H   -0.015288   0.005906   0.000023  -0.009055  -0.000258   0.313178
    19  H   -0.010990  -0.001270   0.000011   0.006452   0.000687  -0.010286
               7          8          9         10         11         12
     1  V   -0.011442  -0.050625  -0.014552  -0.065409  -0.011984  -0.051398
     2  O   -0.004193   0.073190  -0.000432  -0.090647   0.002319   0.038092
     3  H    0.000011  -0.000584  -0.000022  -0.003063  -0.000150   0.002949
     4  O    0.004895  -0.120926  -0.004236   0.097760  -0.000015  -0.140593
     5  H   -0.000225   0.001794  -0.000041  -0.000744   0.000011  -0.000858
     6  O    0.311454  -0.105397   0.005264  -0.142459  -0.002174   0.084663
     7  H    0.276254  -0.013270  -0.000268   0.007352  -0.000010  -0.001093
     8  O   -0.013270   8.317418   0.314331  -0.101623  -0.005855  -0.024075
     9  H   -0.000268   0.314331   0.257186  -0.011816   0.000595   0.005826
    10  O    0.007352  -0.101623  -0.011816   8.535862   0.312511  -0.172681
    11  H   -0.000010  -0.005855   0.000595   0.312511   0.262565  -0.002496
    12  O   -0.001093  -0.024075   0.005826  -0.172681  -0.002496   8.367702
    13  H    0.000012  -0.000023   0.000021  -0.000307  -0.000090   0.319934
    14  H   -0.000029  -0.008787   0.000649   0.002478   0.002292   0.297568
    15  H    0.000104  -0.001613  -0.000016  -0.000224  -0.000003   0.002126
    16  H   -0.000066  -0.000103   0.000010   0.004670  -0.000002  -0.003539
    17  H    0.000997  -0.000512  -0.000465   0.316357  -0.021405  -0.000213
    18  H   -0.016243   0.005209   0.000004  -0.004166  -0.000011  -0.000512
    19  H    0.003046   0.307953  -0.015679   0.004360   0.000096  -0.002953
              13         14         15         16         17         18
     1  V   -0.020148   0.001006  -0.013991  -0.011201  -0.021901  -0.015288
     2  O   -0.001260  -0.002426  -0.001084   0.312623  -0.002280   0.005906
     3  H   -0.000006  -0.000009  -0.000032  -0.013250   0.000093   0.000023
     4  O   -0.002336   0.004601   0.313377   0.001640  -0.000656  -0.009055
     5  H   -0.000035   0.000033  -0.021619  -0.000016  -0.000020  -0.000258
     6  O   -0.000119  -0.000841  -0.006245  -0.009777   0.001357   0.313178
     7  H    0.000012  -0.000029   0.000104  -0.000066   0.000997  -0.016243
     8  O   -0.000023  -0.008787  -0.001613  -0.000103  -0.000512   0.005209
     9  H    0.000021   0.000649  -0.000016   0.000010  -0.000465   0.000004
    10  O   -0.000307   0.002478  -0.000224   0.004670   0.316357  -0.004166
    11  H   -0.000090   0.002292  -0.000003  -0.000002  -0.021405  -0.000011
    12  O    0.319934   0.297568   0.002126  -0.003539  -0.000213  -0.000512
    13  H    0.236971  -0.013856  -0.000089   0.000005  -0.000017  -0.000023
    14  H   -0.013856   0.276204  -0.000002  -0.000022  -0.000069   0.000009
    15  H   -0.000089  -0.000002   0.254526   0.000814   0.000011   0.000293
    16  H    0.000005  -0.000022   0.000814   0.261255   0.000042   0.000083
    17  H   -0.000017  -0.000069   0.000011   0.000042   0.269504  -0.000083
    18  H   -0.000023   0.000009   0.000293   0.000083  -0.000083   0.254201
    19  H    0.000009  -0.000100  -0.000007  -0.000033  -0.000172  -0.000207
              19
     1  V   -0.010990
     2  O   -0.001270
     3  H    0.000011
     4  O    0.006452
     5  H    0.000687
     6  O   -0.010286
     7  H    0.003046
     8  O    0.307953
     9  H   -0.015679
    10  O    0.004360
    11  H    0.000096
    12  O   -0.002953
    13  H    0.000009
    14  H   -0.000100
    15  H   -0.000007
    16  H   -0.000033
    17  H   -0.000172
    18  H   -0.000207
    19  H    0.271484
          Atomic-Atomic Spin Densities.
               1          2          3          4          5          6
     1  V    2.181586  -0.005899  -0.007577  -0.025983  -0.011569  -0.017184
     2  O   -0.005899  -0.033809   0.005890   0.005183  -0.000081  -0.000746
     3  H   -0.007577   0.005890   0.009227   0.000105   0.000012  -0.000809
     4  O   -0.025983   0.005183   0.000105  -0.009124   0.008598   0.001912
     5  H   -0.011569  -0.000081   0.000012   0.008598   0.010321   0.000633
     6  O   -0.017184  -0.000746  -0.000809   0.001912   0.000633  -0.022298
     7  H   -0.009763  -0.001030   0.000015  -0.000936   0.000003   0.008427
     8  O   -0.012231   0.000245  -0.000012   0.005219   0.002129   0.002467
     9  H   -0.007812  -0.000174  -0.000013  -0.000988  -0.000116  -0.000797
    10  O   -0.025431   0.004180   0.003188  -0.002167  -0.000280   0.005353
    11  H   -0.005870   0.000729  -0.000045   0.000018   0.000002  -0.000933
    12  O   -0.004392   0.004175   0.000137   0.004381  -0.001277  -0.000462
    13  H   -0.007874  -0.000637   0.000010   0.002593  -0.000069   0.000129
    14  H   -0.008710   0.000101  -0.000036  -0.001036  -0.000004  -0.000275
    15  H   -0.005029   0.001231  -0.000087   0.002459  -0.002007   0.000099
    16  H   -0.007487   0.006198  -0.002099   0.000118  -0.000056   0.001119
    17  H   -0.010917  -0.001499  -0.000071  -0.000367  -0.000009   0.002252
    18  H   -0.006744   0.001707   0.000005   0.005066   0.000694   0.000619
    19  H   -0.008408  -0.000171   0.000006   0.000935   0.000592   0.002334
               7          8          9         10         11         12
     1  V   -0.009763  -0.012231  -0.007812  -0.025431  -0.005870  -0.004392
     2  O   -0.001030   0.000245  -0.000174   0.004180   0.000729   0.004175
     3  H    0.000015  -0.000012  -0.000013   0.003188  -0.000045   0.000137
     4  O   -0.000936   0.005219  -0.000988  -0.002167   0.000018   0.004381
     5  H    0.000003   0.002129  -0.000116  -0.000280   0.000002  -0.001277
     6  O    0.008427   0.002467  -0.000797   0.005353  -0.000933  -0.000462
     7  H    0.009908   0.000370  -0.000196   0.000704  -0.000080  -0.000053
     8  O    0.000370  -0.029056   0.004005   0.003992   0.000515   0.001832
     9  H   -0.000196   0.004005   0.012125   0.003377   0.000170   0.001457
    10  O    0.000704   0.003992   0.003377  -0.017009   0.002950   0.005911
    11  H   -0.000080   0.000515   0.000170   0.002950   0.009429   0.000651
    12  O   -0.000053   0.001832   0.001457   0.005911   0.000651  -0.037300
    13  H    0.000006  -0.001223  -0.000005  -0.000104  -0.000117   0.007725
    14  H   -0.000015   0.001541   0.000416   0.000300   0.001018   0.004979
    15  H   -0.000050  -0.000586   0.000015  -0.000038   0.000002   0.000254
    16  H   -0.000082  -0.000083   0.000007  -0.001188   0.000019  -0.000219
    17  H    0.000589   0.000268   0.000374   0.008503  -0.002280  -0.000062
    18  H   -0.002589  -0.000018  -0.000004  -0.000795   0.000015  -0.000312
    19  H    0.001454   0.004846  -0.002720  -0.000824  -0.000052  -0.000787
              13         14         15         16         17         18
     1  V   -0.007874  -0.008710  -0.005029  -0.007487  -0.010917  -0.006744
     2  O   -0.000637   0.000101   0.001231   0.006198  -0.001499   0.001707
     3  H    0.000010  -0.000036  -0.000087  -0.002099  -0.000071   0.000005
     4  O    0.002593  -0.001036   0.002459   0.000118  -0.000367   0.005066
     5  H   -0.000069  -0.000004  -0.002007  -0.000056  -0.000009   0.000694
     6  O    0.000129  -0.000275   0.000099   0.001119   0.002252   0.000619
     7  H    0.000006  -0.000015  -0.000050  -0.000082   0.000589  -0.002589
     8  O   -0.001223   0.001541  -0.000586  -0.000083   0.000268  -0.000018
     9  H   -0.000005   0.000416   0.000015   0.000007   0.000374  -0.000004
    10  O   -0.000104   0.000300  -0.000038  -0.001188   0.008503  -0.000795
    11  H   -0.000117   0.001018   0.000002   0.000019  -0.002280   0.000015
    12  O    0.007725   0.004979   0.000254  -0.000219  -0.000062  -0.000312
    13  H    0.008744  -0.002268  -0.000047  -0.000017   0.000014  -0.000014
    14  H   -0.002268   0.009323   0.000019   0.000011  -0.000079   0.000007
    15  H   -0.000047   0.000019   0.007552   0.000581   0.000002   0.000111
    16  H   -0.000017   0.000011   0.000581   0.007083   0.000002   0.000160
    17  H    0.000014  -0.000079   0.000002   0.000002   0.010178  -0.000107
    18  H   -0.000014   0.000007   0.000111   0.000160  -0.000107   0.013248
    19  H    0.000018  -0.000093  -0.000079  -0.000013   0.000011  -0.000200
              19
     1  V   -0.008408
     2  O   -0.000171
     3  H    0.000006
     4  O    0.000935
     5  H    0.000592
     6  O    0.002334
     7  H    0.001454
     8  O    0.004846
     9  H   -0.002720
    10  O   -0.000824
    11  H   -0.000052
    12  O   -0.000787
    13  H    0.000018
    14  H   -0.000093
    15  H   -0.000079
    16  H   -0.000013
    17  H    0.000011
    18  H   -0.000200
    19  H    0.010077
 Mulliken charges and spin densities:
               1          2
     1  V    1.439905   1.992705
     2  O   -0.736804  -0.014407
     3  H    0.472614   0.007845
     4  O   -0.689378  -0.004015
     5  H    0.458021   0.007517
     6  O   -0.548522  -0.018160
     7  H    0.442715   0.006684
     8  O   -0.586504  -0.015781
     9  H    0.463641   0.009120
    10  O   -0.688212  -0.009378
    11  H    0.463806   0.006140
    12  O   -0.718448  -0.013363
    13  H    0.481358   0.006861
    14  H    0.441301   0.005198
    15  H    0.473675   0.004403
    16  H    0.456867   0.004052
    17  H    0.459429   0.006802
    18  H    0.466938   0.010848
    19  H    0.447599   0.006928
 Sum of Mulliken charges =   3.00000   2.00000
 Mulliken charges and spin densities with hydrogens summed into heavy atoms:
               1          2
     1  V    1.439905   1.992705
     2  O    0.192677  -0.002510
     4  O    0.242319   0.007905
     6  O    0.361130  -0.000628
     8  O    0.324736   0.000267
    10  O    0.235023   0.003564
    12  O    0.204211  -0.001304
 APT charges:
               1
     1  V    2.074296
     2  O   -0.635085
     3  H    0.407332
     4  O   -0.582857
     5  H    0.360628
     6  O   -0.573771
     7  H    0.354801
     8  O   -0.582009
     9  H    0.368469
    10  O   -0.579145
    11  H    0.374748
    12  O   -0.619565
    13  H    0.411024
    14  H    0.368974
    15  H    0.382112
    16  H    0.382246
    17  H    0.362934
    18  H    0.367390
    19  H    0.357478
 Sum of APT charges =   3.00000
 APT charges with hydrogens summed into heavy atoms:
               1
     1  V    2.074296
     2  O    0.154493
     4  O    0.159883
     6  O    0.148420
     8  O    0.143938
    10  O    0.158537
    12  O    0.160433
 Electronic spatial extent (au):  <R**2>=            838.6391
 Charge=              3.0000 electrons
 Dipole moment (field-independent basis, Debye):
    X=              2.3064    Y=              3.7188    Z=             -1.0124  Tot=              4.4916
 Quadrupole moment (field-independent basis, Debye-Ang):
   XX=            -12.0091   YY=            -15.3122   ZZ=            -26.3220
   XY=             -4.0540   XZ=             -1.8891   YZ=             -0.7230
 Traceless Quadrupole moment (field-independent basis, Debye-Ang):
   XX=              5.8720   YY=              2.5689   ZZ=             -8.4409
   XY=             -4.0540   XZ=             -1.8891   YZ=             -0.7230
 Octapole moment (field-independent basis, Debye-Ang**2):
  XXX=             18.4113  YYY=             17.5958  ZZZ=              4.9813  XYY=              4.3109
  XXY=              9.2622  XXZ=              3.2141  XZZ=             -8.1009  YZZ=             -3.2602
  YYZ=            -14.7072  XYZ=             -3.2233
 Hexadecapole moment (field-independent basis, Debye-Ang**3):
 XXXX=           -165.6752 YYYY=           -172.0191 ZZZZ=           -212.5448 XXXY=            -21.2823
 XXXZ=              1.4784 YYYX=             -8.4208 YYYZ=             11.6443 ZZZX=            -17.2153
 ZZZY=            -14.9745 XXYY=            -46.2654 XXZZ=            -53.4123 YYZZ=            -50.4032
 XXYZ=             -0.2917 YYXZ=              3.1090 ZZXY=              2.2454
 N-N= 7.177093361615D+02 E-N=-4.706951127371D+03  KE= 1.399382328418D+03
  Exact polarizability:      50.877      -0.334      50.276      -0.860       0.078      46.510
 Approx polarizability:      67.616      -0.377      67.251      -1.631       0.077      61.150
                          Isotropic Fermi Contact Couplings
        Atom                 a.u.       MegaHertz       Gauss      10(-4) cm-1
     1  V(51)             -0.16086     -94.73416     -33.80351     -31.59992
     2  O(17)             -0.02042       6.18809       2.20806       2.06412
     3  H(1)               0.00518      11.57418       4.12996       3.86073
     4  O(17)             -0.00506       1.53297       0.54700       0.51134
     5  H(1)               0.00535      11.96599       4.26976       3.99142
     6  O(17)             -0.00980       2.97039       1.05991       0.99082
     7  H(1)               0.00467      10.44496       3.72702       3.48406
     8  O(17)             -0.01343       4.07192       1.45296       1.35824
     9  H(1)               0.00583      13.02322       4.64701       4.34408
[...]
    15  H   -0.000045  -0.000001   0.265977  -0.000022   0.000000  -0.000029
    16  H   -0.000003   0.000002  -0.000022   0.265477   0.000001  -0.000045
    17  H    0.000002  -0.000029   0.000000   0.000001   0.265972  -0.000001
    18  H    0.000000   0.000000  -0.000029  -0.000045  -0.000001   0.266054
    19  H    0.000001  -0.000001  -0.000001   0.000000  -0.000029  -0.000029
              19
     1  V   -0.005977
     2  O   -0.000545
     3  H    0.000000
     4  O    0.001726
     5  H   -0.000045
     6  O    0.002534
     7  H   -0.000022
     8  O    0.293483
     9  H   -0.012221
    10  O    0.001534
    11  H    0.000002
    12  O    0.000957
    13  H    0.000001
    14  H   -0.000001
    15  H   -0.000001
    16  H    0.000000
    17  H   -0.000029
    18  H   -0.000029
    19  H    0.266046
          Atomic-Atomic Spin Densities.
               1          2          3          4          5          6
     1  V    2.134269  -0.009646  -0.002222  -0.009596  -0.002266  -0.009574
     2  O   -0.009646  -0.017697   0.002469   0.003568  -0.000035   0.003160
     3  H   -0.002222   0.002469   0.002189   0.000035   0.000001  -0.000176
     4  O   -0.009596   0.003568   0.000035  -0.017753   0.002153   0.003561
     5  H   -0.002266  -0.000035   0.000001   0.002153   0.001578  -0.000050
     6  O   -0.009574   0.003160  -0.000176   0.003561  -0.000050  -0.017844
     7  H   -0.002265  -0.000221   0.000001  -0.000034  -0.000001   0.002150
     8  O   -0.009641  -0.001778  -0.000007   0.003133   0.000446   0.003581
     9  H   -0.002268  -0.000014  -0.000000  -0.000220  -0.000009  -0.000035
    10  O   -0.009599   0.003138   0.000026  -0.001777  -0.000014   0.003127
    11  H   -0.002269   0.000448   0.000016  -0.000014   0.000000  -0.000221
    12  O   -0.009541   0.003581   0.000178   0.003131  -0.000220  -0.001775
    13  H   -0.002268  -0.000051   0.000020   0.000450  -0.000009  -0.000014
    14  H   -0.002231   0.000035  -0.000011  -0.000177   0.000001  -0.000007
    15  H   -0.002234   0.000182  -0.000010   0.002477  -0.000742   0.000036
    16  H   -0.002266   0.002151  -0.000740  -0.000049  -0.000001   0.000447
    17  H   -0.002234  -0.000176  -0.000001  -0.000008  -0.000000   0.000025
    18  H   -0.002224   0.000026  -0.000001   0.000182   0.000020   0.002467
    19  H   -0.002225  -0.000007   0.000000   0.000026   0.000016   0.000178
               7          8          9         10         11         12
     1  V   -0.002265  -0.009641  -0.002268  -0.009599  -0.002269  -0.009541
     2  O   -0.000221  -0.001778  -0.000014   0.003138   0.000448   0.003581
     3  H    0.000001  -0.000007  -0.000000   0.000026   0.000016   0.000178
     4  O   -0.000034   0.003133  -0.000220  -0.001777  -0.000014   0.003131
     5  H   -0.000001   0.000446  -0.000009  -0.000014   0.000000  -0.000220
     6  O    0.002150   0.003581  -0.000035   0.003127  -0.000221  -0.001775
     7  H    0.001584  -0.000050  -0.000001   0.000449  -0.000009  -0.000014
     8  O   -0.000050  -0.017734   0.002154   0.003577  -0.000034   0.003147
     9  H   -0.000001   0.002154   0.001578  -0.000049  -0.000001   0.000445
    10  O    0.000449   0.003577  -0.000049  -0.017747   0.002153   0.003557
    11  H   -0.000009  -0.000034  -0.000001   0.002153   0.001579  -0.000050
    12  O   -0.000014   0.003147   0.000445   0.003557  -0.000050  -0.017935
    13  H    0.000000  -0.000220  -0.000009  -0.000034  -0.000001   0.002152
    14  H   -0.000000   0.000026   0.000016   0.000182   0.000020   0.002475
    15  H    0.000001  -0.000176   0.000001  -0.000007  -0.000000   0.000026
    16  H   -0.000009  -0.000014   0.000000  -0.000220  -0.000010  -0.000034
    17  H    0.000016   0.000182   0.000020   0.002478  -0.000742   0.000035
    18  H   -0.000742   0.000035   0.000001  -0.000176   0.000001  -0.000008
    19  H    0.000020   0.002473  -0.000742   0.000035   0.000001  -0.000176
              13         14         15         16         17         18
     1  V   -0.002268  -0.002231  -0.002234  -0.002266  -0.002234  -0.002224
     2  O   -0.000051   0.000035   0.000182   0.002151  -0.000176   0.000026
     3  H    0.000020  -0.000011  -0.000010  -0.000740  -0.000001  -0.000001
     4  O    0.000450  -0.000177   0.002477  -0.000049  -0.000008   0.000182
     5  H   -0.000009   0.000001  -0.000742  -0.000001  -0.000000   0.000020
     6  O   -0.000014  -0.000007   0.000036   0.000447   0.000025   0.002467
     7  H    0.000000  -0.000000   0.000001  -0.000009   0.000016  -0.000742
     8  O   -0.000220   0.000026  -0.000176  -0.000014   0.000182   0.000035
     9  H   -0.000009   0.000016   0.000001   0.000000   0.000020   0.000001
    10  O   -0.000034   0.000182  -0.000007  -0.000220   0.002478  -0.000176
    11  H   -0.000001   0.000020  -0.000000  -0.000010  -0.000742   0.000001
    12  O    0.002152   0.002475   0.000026  -0.000034   0.000035  -0.000008
    13  H    0.001592  -0.000744   0.000016  -0.000001   0.000001  -0.000000
    14  H   -0.000744   0.002212  -0.000001   0.000001  -0.000010   0.000000
    15  H    0.000016  -0.000001   0.002201   0.000020   0.000000  -0.000011
    16  H   -0.000001   0.000001   0.000020   0.001573   0.000001   0.000016
    17  H    0.000001  -0.000010   0.000000   0.000001   0.002200  -0.000001
    18  H   -0.000000   0.000000  -0.000011   0.000016  -0.000001   0.002200
    19  H    0.000001  -0.000001  -0.000001  -0.000000  -0.000011  -0.000010
              19
     1  V   -0.002225
     2  O   -0.000007
     3  H    0.000000
     4  O    0.000026
     5  H    0.000016
     6  O    0.000178
     7  H    0.000020
     8  O    0.002473
     9  H   -0.000742
    10  O    0.000035
    11  H    0.000001
    12  O   -0.000176
    13  H    0.000001
    14  H   -0.000001
    15  H   -0.000001
    16  H   -0.000000
    17  H   -0.000011
    18  H   -0.000010
    19  H    0.002193
 Mulliken charges and spin densities:
               1          2
     1  V    1.882026   2.049700
     2  O   -0.721122  -0.010868
     3  H    0.452648   0.001767
     4  O   -0.721307  -0.010910
     5  H    0.454752   0.000867
     6  O   -0.720988  -0.010963
     7  H    0.454737   0.000873
     8  O   -0.721068  -0.010902
     9  H    0.454673   0.000867
    10  O   -0.721181  -0.010901
    11  H    0.454911   0.000868
    12  O   -0.720789  -0.011026
    13  H    0.454713   0.000879
    14  H    0.452598   0.001786
    15  H    0.452718   0.001777
    16  H    0.454682   0.000864
    17  H    0.452795   0.001775
    18  H    0.452616   0.001776
    19  H    0.452586   0.001771
 Sum of Mulliken charges =   3.00000   2.00000
 Mulliken charges and spin densities with hydrogens summed into heavy atoms:
               1          2
     1  V    1.882026   2.049700
     2  O    0.186208  -0.008237
     4  O    0.186163  -0.008265
     6  O    0.186365  -0.008315
     8  O    0.186191  -0.008264
    10  O    0.186525  -0.008257
    12  O    0.186522  -0.008361
 Electronic spatial extent (au):  <R**2>=           1042.4638
 Charge=              3.0000 electrons
 Dipole moment (field-independent basis, Debye):
    X=              0.0005    Y=              0.0002    Z=             -0.0009  Tot=              0.0011
 Quadrupole moment (field-independent basis, Debye-Ang):
   XX=             -6.3672   YY=             -6.3653   ZZ=            -10.0124
   XY=             -0.0050   XZ=              0.0057   YZ=             -0.0019
 Traceless Quadrupole moment (field-independent basis, Debye-Ang):
   XX=              1.2145   YY=              1.2163   ZZ=             -2.4308
   XY=             -0.0050   XZ=              0.0057   YZ=             -0.0019
 Octapole moment (field-independent basis, Debye-Ang**2):
  XXX=             -0.0279  YYY=              0.0287  ZZZ=             -0.0593  XYY=              0.0235
  XXY=             -0.0166  XXZ=              0.0293  XZZ=              0.0031  YZZ=             -0.0142
  YYZ=              0.0230  XYZ=             -0.0021
 Hexadecapole moment (field-independent basis, Debye-Ang**3):
 XXXX=           -158.0875 YYYY=           -158.0869 ZZZZ=           -222.0238 XXXY=             -0.2793
 XXXZ=              8.8378 YYYX=              0.0089 YYYZ=            -41.7263 ZZZX=              0.5577
 ZZZY=             -0.0699 XXYY=            -52.5858 XXZZ=             -6.3751 YYZZ=             -6.2893
 XXYZ=             41.7865 YYXZ=             -9.3531 ZZXY=              0.2339
 N-N= 6.413631719724D+02 E-N=-4.555242145519D+03  KE= 1.396819860125D+03
                          Isotropic Fermi Contact Couplings
        Atom                 a.u.       MegaHertz       Gauss      10(-4) cm-1
     1  V(51)             -0.10892     -64.14371     -22.88807     -21.39604
     2  O(17)             -0.02001       6.06461       2.16400       2.02294
     3  H(1)               0.00124       2.76674       0.98724       0.92289
     4  O(17)             -0.02002       6.06937       2.16570       2.02452
     5  H(1)               0.00069       1.53482       0.54766       0.51196
     6  O(17)             -0.02004       6.07349       2.16717       2.02590
     7  H(1)               0.00069       1.54019       0.54958       0.51375
     8  O(17)             -0.02003       6.06961       2.16579       2.02460
     9  H(1)               0.00069       1.53335       0.54714       0.51147
    10  O(17)             -0.02003       6.07051       2.16611       2.02490
    11  H(1)               0.00069       1.53439       0.54751       0.51182
    12  O(17)             -0.02006       6.07881       2.16907       2.02767
    13  H(1)               0.00069       1.54981       0.55301       0.51696
    14  H(1)               0.00125       2.79234       0.99638       0.93143
    15  H(1)               0.00124       2.78107       0.99235       0.92766
    16  H(1)               0.00068       1.52693       0.54485       0.50933
    17  H(1)               0.00124       2.77761       0.99112       0.92651
    18  H(1)               0.00124       2.77694       0.99088       0.92629
    19  H(1)               0.00124       2.77303       0.98949       0.92498
 --------------------------------------------------------
       Center         ----  Spin Dipole Couplings  ----
                      3XX-RR        3YY-RR        3ZZ-RR
 --------------------------------------------------------
     1   Atom        0.502322      0.495452     -0.997774
     2   Atom        0.031036     -0.021015     -0.010021
     3   Atom        0.001139      0.005875     -0.007013
     4   Atom       -0.012827      0.022788     -0.009961
     5   Atom       -0.004389     -0.003302      0.007691
     6   Atom       -0.003001      0.013339     -0.010338
     7   Atom       -0.013557      0.005873      0.007684
     8   Atom        0.030999     -0.021046     -0.009953
     9   Atom        0.006510     -0.014007      0.007497
    10   Atom       -0.012870      0.022836     -0.009966
    11   Atom       -0.004401     -0.003302      0.007704
    12   Atom       -0.003146      0.013408     -0.010262
    13   Atom       -0.013551      0.005895      0.007656
    14   Atom       -0.010997      0.017927     -0.006930
    15   Atom        0.020294     -0.013405     -0.006889
    16   Atom        0.006478     -0.014015      0.007537
    17   Atom        0.020291     -0.013403     -0.006888
    18   Atom       -0.010995      0.017958     -0.006963
    19   Atom        0.001119      0.005897     -0.007016
 --------------------------------------------------------
                        XY            XZ            YZ
 --------------------------------------------------------
     1   Atom        0.001677      0.005203      0.000790
     2   Atom        0.005501      0.017888      0.019479
     3   Atom       -0.018147     -0.009928      0.012287
     4   Atom        0.019884      0.007910     -0.025053
     5   Atom        0.011459      0.014530      0.015124
     6   Atom       -0.025213     -0.025428      0.005343
     7   Atom       -0.006105      0.005718     -0.020169
     8   Atom        0.005403      0.017899      0.019413
     9   Atom       -0.005348     -0.020346      0.005064
    10   Atom        0.019886      0.007890     -0.025103
    11   Atom        0.011449      0.014524      0.015126
    12   Atom       -0.025062     -0.025333      0.005309
    13   Atom       -0.006125      0.005739     -0.020169
    14   Atom        0.011148     -0.005728     -0.014808
    15   Atom        0.006994      0.015732      0.002477
    16   Atom       -0.005333     -0.020350      0.005060
    17   Atom        0.006991      0.015730      0.002475
    18   Atom        0.011151     -0.005720     -0.014785
    19   Atom       -0.018152     -0.009925      0.012293
 --------------------------------------------------------


 ---------------------------------------------------------------------------------
              Anisotropic Spin Dipole Couplings in Principal Axis System
 ---------------------------------------------------------------------------------

       Atom             a.u.   MegaHertz   Gauss  10(-4) cm-1        Axes

              Baa    -0.9978  -140.281   -50.056   -46.793 -0.0035 -0.0005  1.0000
     1 V(51)  Bbb     0.4951    69.602    24.836    23.217 -0.2250  0.9744 -0.0003
              Bcc     0.5027    70.679    25.220    23.576  0.9744  0.2250  0.0035
 
              Baa    -0.0364     2.637     0.941     0.880  0.1062  0.7647 -0.6356
     2 O(17)  Bbb    -0.0038     0.277     0.099     0.092 -0.4357  0.6104  0.6615
              Bcc     0.0403    -2.914    -1.040    -0.972  0.8938  0.2067  0.3980
 
              Baa    -0.0151    -8.059    -2.876    -2.688  0.5457  0.7216 -0.4261
     3 H(1)   Bbb    -0.0137    -7.291    -2.602    -2.432  0.5859  0.0350  0.8096
              Bcc     0.0288    15.351     5.478     5.121 -0.5991  0.6915  0.4036
 
              Baa    -0.0364     2.632     0.939     0.878 -0.6125  0.4738  0.6327
     4 O(17)  Bbb    -0.0038     0.277     0.099     0.092  0.7429  0.0715  0.6656
              Bcc     0.0402    -2.909    -1.038    -0.970  0.2701  0.8777 -0.3958
 
              Baa    -0.0153    -8.174    -2.917    -2.726  0.7361 -0.6766 -0.0201
     5 H(1)   Bbb    -0.0133    -7.103    -2.535    -2.369 -0.4686 -0.5307  0.7063
              Bcc     0.0286    15.277     5.451     5.096  0.4885  0.5105  0.7077
 
              Baa    -0.0362     2.620     0.935     0.874  0.7115  0.2931  0.6386
     6 O(17)  Bbb    -0.0037     0.265     0.095     0.089  0.3165  0.6777 -0.6637
              Bcc     0.0399    -2.886    -1.030    -0.963 -0.6274  0.6743  0.3894
 
              Baa    -0.0153    -8.173    -2.916    -2.726  0.9546  0.2971  0.0232
     7 H(1)   Bbb    -0.0133    -7.098    -2.533    -2.368 -0.2259  0.6709  0.7063
              Bcc     0.0286    15.271     5.449     5.094  0.1943 -0.6794  0.7075
 
              Baa    -0.0364     2.633     0.940     0.878  0.1072  0.7653 -0.6346
     8 O(17)  Bbb    -0.0038     0.277     0.099     0.092 -0.4350  0.6101  0.6622
              Bcc     0.0402    -2.910    -1.038    -0.971  0.8940  0.2051  0.3983
 
              Baa    -0.0153    -8.174    -2.917    -2.726  0.2203  0.9752 -0.0200
     9 H(1)   Bbb    -0.0133    -7.100    -2.533    -2.368  0.6903 -0.1413  0.7095
              Bcc     0.0286    15.273     5.450     5.095 -0.6891  0.1701  0.7044
 
              Baa    -0.0364     2.634     0.940     0.879 -0.6125  0.4738  0.6327
    10 O(17)  Bbb    -0.0039     0.280     0.100     0.094  0.7430  0.0721  0.6653
              Bcc     0.0403    -2.914    -1.040    -0.972  0.2696  0.8777 -0.3962
 
              Baa    -0.0153    -8.172    -2.916    -2.726  0.7362 -0.6765 -0.0200
    11 H(1)   Bbb    -0.0133    -7.102    -2.534    -2.369 -0.4687 -0.5309  0.7060
              Bcc     0.0286    15.274     5.450     5.095  0.4882  0.5104  0.7079
 
              Baa    -0.0361     2.613     0.932     0.872  0.7124  0.2921  0.6381
    12 O(17)  Bbb    -0.0036     0.258     0.092     0.086  0.3175  0.6767 -0.6643
              Bcc     0.0397    -2.871    -1.024    -0.958 -0.6259  0.6758  0.3893
 
              Baa    -0.0153    -8.174    -2.917    -2.727  0.9551  0.2956  0.0209
    13 H(1)   Bbb    -0.0133    -7.101    -2.534    -2.368 -0.2232  0.6712  0.7069
              Bcc     0.0286    15.275     5.451     5.095  0.1949 -0.6798  0.7070
 
              Baa    -0.0151    -8.060    -2.876    -2.689  0.8976 -0.1118  0.4264
    14 H(1)   Bbb    -0.0137    -7.293    -2.602    -2.433 -0.3226  0.4926  0.8083
              Bcc     0.0288    15.353     5.478     5.121  0.3004  0.8630 -0.4061
 
              Baa    -0.0151    -8.062    -2.877    -2.689 -0.3540  0.8322  0.4267
    15 H(1)   Bbb    -0.0137    -7.298    -2.604    -2.434 -0.2654 -0.5269  0.8074
              Bcc     0.0288    15.359     5.481     5.123  0.8968  0.1726  0.4074
 
              Baa    -0.0153    -8.175    -2.917    -2.727  0.2193  0.9754 -0.0207
    16 H(1)   Bbb    -0.0133    -7.101    -2.534    -2.369  0.6912 -0.1404  0.7089
              Bcc     0.0286    15.276     5.451     5.095 -0.6886  0.1698  0.7050
 
              Baa    -0.0151    -8.061    -2.876    -2.689 -0.3541  0.8320  0.4271
    17 H(1)   Bbb    -0.0137    -7.297    -2.604    -2.434 -0.2653 -0.5273  0.8072
              Bcc     0.0288    15.357     5.480     5.123  0.8968  0.1725  0.4074
 
              Baa    -0.0151    -8.061    -2.876    -2.689  0.8965 -0.1104  0.4291
    18 H(1)   Bbb    -0.0137    -7.293    -2.602    -2.433 -0.3258  0.4922  0.8072
              Bcc     0.0288    15.354     5.479     5.121  0.3004  0.8634 -0.4053
 
              Baa    -0.0151    -8.061    -2.877    -2.689  0.5472  0.7213 -0.4247
    19 H(1)   Bbb    -0.0137    -7.294    -2.603    -2.433  0.5849  0.0334  0.8104
              Bcc     0.0288    15.356     5.479     5.122 -0.5988  0.6918  0.4036
 

 ---------------------------------------------------------------------------------

 No NMR shielding tensors so no spin-rotation constants.
 Leave Link  601 at Thu May 23 19:24:29 2024, MaxMem= 26843545600 cpu:              28.9 elap:               0.3
 (Enter /gpfs/fs1/soft/improv/software/custom-built/gaussian/g16/l9999.exe)
 Unable to Open any file for archive entry.
 1\1\GINC-I018\SP\UPBE1PBE\Gen\H12O6V1(3+,3)\HHARB\23-May-2024\0\\#p PB
 E1PBE empiricaldispersion=gd3 scf=(maxcycles=500,xqc,maxconventional=5
 0) scrf=(cpcm,solvent=water) geom=allcheck guess=read chkbasis\\Title\
 \3,3\V,-0.7848429833,0.7128213774,0.0315839797\O,-1.3011380083,2.65294
 19336,-0.2786077218\H,-1.582623602,3.0513628638,-1.1203465888\O,1.1705
 679614,1.2616297748,0.0706052767\H,1.9224114267,0.7046090547,0.3371672
 771\O,-0.8797115112,0.9875622203,2.0419902962\H,-1.6110559789,0.725501
 3549,2.6276606957\O,-0.2689464075,-1.2272560025,0.3425057843\H,-0.2203
 581494,-1.9279195818,-0.3307383405\O,-2.7402776196,0.1641277365,-0.007
 3495022\H,-3.4922377071,0.7219860825,-0.2736150014\O,-0.6894764086,0.4
 384729891,-1.978713373\H,0.041223816,0.7025356722,-2.5643262216\H,-1.3
 467128598,-0.0149157564,-2.5345034829\H,1.5387767133,2.1174251335,-0.2
 095439637\H,-1.3509480575,3.3527551848,0.3954997096\H,-3.1085607369,-0
 .6918956274,0.2728133651\H,-0.2211649463,1.4391350665,2.5976816274\H,0
 .013557489,-1.6247997067,1.184281594\\Version=ES64L-G16RevC.02\State=3
 -A\HF=-1401.5586402\S2=2.005415\S2-1=0.\S2A=2.000018\RMSD=2.290e-09\Di
 pole=-0.0001307,0.0003328,0.0002472\Quadrupole=-0.5732432,0.2862143,0.
 2870289,0.9537598,0.9529488,-0.6207907\PG=C01 [X(H12O6V1)]\\@
 The archive entry for this job was punched.


 NATURE WILL TELL YOU A DIRECT LIE IF SHE CAN.

                                -- CHARLES DARWIN
 Job cpu time:       0 days  1 hours  0 minutes  1.7 seconds.
 Elapsed time:       0 days  0 hours  0 minutes 32.4 seconds.
 File lengths (MBytes):  RWF=    119 Int=      0 D2E=      0 Chk=     32 Scr=      1
 Normal termination of Gaussian 16 at Thu May 23 19:24:29 2024.
