43
maltolate_red_low_spin.log	Energy: -1634121.2202933
C          2.20441        3.61796        2.17380
C          2.56991        2.85178        0.90978
C          1.79433        1.85081        0.32835
C          2.27200        1.18309       -0.90644
O          1.41600        0.25472       -1.34492
C          3.53440        1.59477       -1.46061
C          4.23770        2.59093       -0.81716
O          3.83861        3.26457        0.35288
O          0.60509        1.37719        0.75545
H          2.95074        3.48147        2.97793
H          2.10540        4.70442        1.99386
H          1.23510        3.23223        2.52765
H          3.94476        1.13906       -2.36940
H          5.21070        2.96687       -1.16829
Fe        -0.00003        0.00008       -0.39694
C         -4.23528        0.09986        2.17404
C         -3.75468        0.79956        0.90998
C         -2.50000        0.62856        0.32855
C         -2.16077        1.37600       -0.90634
O         -0.92877        1.09902       -1.34490
C         -3.14868        2.26319       -1.46054
C         -4.36305        2.37404       -0.81709
O         -4.74673        1.69161        0.35302
O         -1.49508       -0.16432        0.75575
H         -4.49066        0.81443        2.97806
H         -5.12637       -0.52955        1.99408
H         -3.41632       -0.54630        2.52804
H         -2.95934        2.84637       -2.36940
H         -5.17525        3.02851       -1.16827
C          2.03171       -3.71774        2.17355
C          1.18508       -3.65130        0.90975
C          0.70577       -2.47920        0.32838
C         -0.11159       -2.55913       -0.90622
O         -0.48776       -1.35367       -1.34468
C         -0.38626       -3.85828       -1.46029
C          0.12507       -4.96537       -0.81695
O          0.90826       -4.95646        0.35293
O          0.89021       -1.21246        0.75542
H          1.54071       -4.29607        2.97773
H          3.02219       -4.17492        1.99330
H          2.18212       -2.68544        2.52748
H         -0.98628       -3.98589       -2.36895
H         -0.03579       -5.99600       -1.16804
