 Entering Gaussian System, Link 0=g16
 Input=V_3_B3LYP.com
 Output=V_3_B3LYP.log
 Initial command:
 /gpfs/fs1/soft/improv/software/custom-built/gaussian/g16/l1.exe "/scratch/Gau-430242.inp" -scrdir="/scratch/"
 Default CPUs for threads: 0-127
 Default linda workers: i025.lcrc.anl.gov
 Default is to use 128 SMP processors on each worker.
 Entering Link 1 = /gpfs/fs1/soft/improv/software/custom-built/gaussian/g16/l1.exe PID=    430243.
  
 Copyright (c) 1988-2021, Gaussian, Inc.  All Rights Reserved.
  
 This is part of the Gaussian(R) 16 program.  It is based on
 the Gaussian(R) 09 system (copyright 2009, Gaussian, Inc.),
 the Gaussian(R) 03 system (copyright 2003, Gaussian, Inc.),
 the Gaussian(R) 98 system (copyright 1998, Gaussian, Inc.),
 the Gaussian(R) 94 system (copyright 1995, Gaussian, Inc.),
 the Gaussian 92(TM) system (copyright 1992, Gaussian, Inc.),
 the Gaussian 90(TM) system (copyright 1990, Gaussian, Inc.),
 the Gaussian 88(TM) system (copyright 1988, Gaussian, Inc.),
 the Gaussian 86(TM) system (copyright 1986, Carnegie Mellon
 University), and the Gaussian 82(TM) system (copyright 1983,
 Carnegie Mellon University). Gaussian is a federally registered
 trademark of Gaussian, Inc.
  
 This software contains proprietary and confidential information,
 including trade secrets, belonging to Gaussian, Inc.
  
 This software is provided under written license and may be
 used, copied, transmitted, or stored only in accord with that
 written license.
  
 The following legend is applicable only to US Government
 contracts under FAR:
  
                    RESTRICTED RIGHTS LEGEND
  
 Use, reproduction and disclosure by the US Government is
 subject to restrictions as set forth in subparagraphs (a)
 and (c) of the Commercial Computer Software - Restricted
 Rights clause in FAR 52.227-19.
  
 Gaussian, Inc.
 340 Quinnipiac St., Bldg. 40, Wallingford CT 06492
  
  
 ---------------------------------------------------------------
 Warning -- This program may not be used in any manner that
 competes with the business of Gaussian, Inc. or will provide
 assistance to any competitor of Gaussian, Inc.  The licensee
 of this program is prohibited from giving any competitor of
 Gaussian, Inc. access to this program.  By using this program,
 the user acknowledges that Gaussian, Inc. is engaged in the
 business of creating and licensing software in the field of
 computational chemistry and represents and warrants to the
 licensee that it is not a competitor of Gaussian, Inc. and that
 it will not use this program in any manner prohibited above.
 ---------------------------------------------------------------
  

 Cite this work as:
 Gaussian 16, Revision C.02,
 M. J. Frisch, G. W. Trucks, H. B. Schlegel, G. E. Scuseria, 
 M. A. Robb, J. R. Cheeseman, G. Scalmani, V. Barone, 
 G. A. Petersson, H. Nakatsuji, X. Li, M. Caricato, A. V. Marenich, 
 J. Bloino, B. G. Janesko, R. Gomperts, B. Mennucci, H. P. Hratchian, 
 J. V. Ortiz, A. F. Izmaylov, J. L. Sonnenberg, D. Williams-Young, 
 F. Ding, F. Lipparini, F. Egidi, J. Goings, B. Peng, A. Petrone, 
 T. Henderson, D. Ranasinghe, V. G. Zakrzewski, J. Gao, N. Rega, 
 G. Zheng, W. Liang, M. Hada, M. Ehara, K. Toyota, R. Fukuda, 
 J. Hasegawa, M. Ishida, T. Nakajima, Y. Honda, O. Kitao, H. Nakai, 
 T. Vreven, K. Throssell, J. A. Montgomery, Jr., J. E. Peralta, 
 F. Ogliaro, M. J. Bearpark, J. J. Heyd, E. N. Brothers, K. N. Kudin, 
 V. N. Staroverov, T. A. Keith, R. Kobayashi, J. Normand, 
 K. Raghavachari, A. P. Rendell, J. C. Burant, S. S. Iyengar, 
 J. Tomasi, M. Cossi, J. M. Millam, M. Klene, C. Adamo, R. Cammi, 
 J. W. Ochterski, R. L. Martin, K. Morokuma, O. Farkas, 
 J. B. Foresman, and D. J. Fox, Gaussian, Inc., Wallingford CT, 2019.
 
 ******************************************
 Gaussian 16:  ES64L-G16RevC.02  7-Dec-2021
                23-May-2024 
 ******************************************
 %chk=V_3_B3LYP.chk
 SetSPE:  set environment variable "OMP_PROC_BIND" = "true"
 SetSPE:  set environment variable "OMP_PLACES" = "{0},{1},{2},{3},{4},{5},{6},{7},{8},{9},{10},{11},{12},{13},{14},{15},{16},{17},{18},{19},{20},{21},{22},{23},{24},{25},{26},{27},{28},{29},{30},{31},{32},{33},{34},{35},{36},{37},{38},{39},{40},{41},{42},{43},{44},{45},{46},{47},{48},{49},{50},{51},{52},{53},{54},{55},{56},{57},{58},{59},{60},{61},{62},{63},{64},{65},{66},{67},{68},{69},{70},{71},{72},{73},{74},{75},{76},{77},{78},{79},{80},{81},{82},{83},{84},{85},{86},{87},{88},{89},{90},{91},{92},{93},{94},{95},{96},{97},{98},{99},{100},{101},{102},{103},{104},{105},{106},{107},{108},{109},{110},{111},{112},{113},{114},{115},{116},{117},{118},{119},{120},{121},{122},{123},{124},{125},{126},{127}"
 SetLPE:    new flags="-opt 'Tsnet.Node.lindarsharg: ssh'  -nodelist 'i025.lcrc.anl.gov' -env GAUSS_MDEF=26843545600 -env GAUSS_EXEDIR="/gpfs/fs1/soft/improv/software/custom-built/gaussian/g16/bsd:/gpfs/fs1/soft/improv/software/custom-built/gaussian/g16" -env "OMP_PROC_BIND=true" -env "OMP_PLACES={0},{1},{2},{3},{4},{5},{6},{7},{8},{9},{10},{11},{12},{13},{14},{15},{16},{17},{18},{19},{20},{21},{22},{23},{24},{25},{26},{27},{28},{29},{30},{31},{32},{33},{34},{35},{36},{37},{38},{39},{40},{41},{42},{43},{44},{45},{46},{47},{48},{49},{50},{51},{52},{53},{54},{55},{56},{57},{58},{59},{60},{61},{62},{63},{64},{65},{66},{67},{68},{69},{70},{71},{72},{73},{74},{75},{76},{77},{78},{79},{80},{81},{82},{83},{84},{85},{86},{87},{88},{89},{90},{91},{92},{93},{94},{95},{96},{97},{98},{99},{100},{101},{102},{103},{104},{105},{106},{107},{108},{109},{110},{111},{112},{113},{114},{115},{116},{117},{118},{119},{120},{121},{122},{123},{124},{125},{126},{127}" -env GAUSS_ADEF="0,1,2,3,4,5,6,7,8,9,10,11,12,13,14,15,16,17,18,19,20,21,22,23,24,25,26,27,28,29,30,31,32,33,34,35,36,37,38,39,40,41,42,43,44,45,46,47,48,49,50,51,52,53,54,55,56,57,58,59,60,61,62,63,64,65,66,67,68,69,70,71,72,73,74,75,76,77,78,79,80,81,82,83,84,85,86,87,88,89,90,91,92,93,94,95,96,97,98,99,100,101,102,103,104,105,106,107,108,109,110,111,112,113,114,115,116,117,118,119,120,121,122,123,124,125,126,127""
 Will use up to    1 processors via Linda.
 ----------------------------------------------------------------------
 #p B3LYP empiricaldispersion=gd3 6-31+G(2df,p) opt=(cartesian,calcall,
 maxcycles=500) freq scf=(maxcycles=500,xqc,maxconventional=50)
 ----------------------------------------------------------------------
 1/6=500,10=4,18=10,26=3,38=1/1,3;
 2/12=2,17=6,18=5,29=2,40=1/2;
 3/5=1,6=6,7=114,11=2,25=1,30=1,71=2,74=-5,124=31,140=1/1,2,3;
 4//1;
 5/5=2,7=500,8=3,13=1,38=5,85=50/2,8;
 8/6=4,10=90,11=11/1;
 11/6=1,8=1,9=11,15=111,16=1/1,2,10;
 10/6=1/2;
 6/7=2,8=2,9=2,10=2,18=1,28=1/1;
 7/7=1,10=1,25=1/1,2,3,16;
 1/6=500,10=4,18=10,26=3/3(3);
 2/29=1/2;
 7/7=1,8=1,9=1,25=1,44=-1/16;
 99/12=1/99;
 2/29=1/2;
 3/5=1,6=6,7=114,11=2,25=1,30=1,71=2,74=-5,124=31,140=1/1,2,3;
 4/5=5,16=3,69=1/1;
 5/5=2,7=500,8=3,13=1,38=5,85=50/2,8;
 8/6=4,10=90,11=11/1;
 11/6=1,8=1,9=11,15=111,16=1/1,2,10;
 10/6=1/2;
 7/7=1,10=1,25=1/1,2,3,16;
 1/6=500,10=4,18=10,26=3/3(-8);
 2/29=1/2;
 6/7=2,8=2,9=2,10=2,18=1,19=2,28=1/1;
 7/7=1,8=1,9=1,25=1,44=-1/16;
 99/12=1/99;
 Leave Link    1 at Thu May 23 17:29:19 2024, MaxMem=           0 cpu:               1.7 elap:               0.0
 (Enter /gpfs/fs1/soft/improv/software/custom-built/gaussian/g16/l101.exe)
 -----
 Title
 -----
 Symbolic Z-matrix:
 Charge =  3 Multiplicity = 3
 V                    -0.79304   0.81881  -0.09491 
 O                    -1.20497   2.57394  -0.35687 
 H                    -2.12106   2.64974  -0.63312 
 O                     0.99012   1.19063  -0.05794 
 H                     1.42696   0.5998    0.55971 
 O                    -0.81752   1.03069   1.71365 
 H                    -1.02108   0.1906    2.13133 
 O                    -0.38507  -0.93351   0.17118 
 H                    -1.15682  -1.47369  -0.01433 
 O                    -2.57341   0.45178  -0.12186 
 H                    -2.77756  -0.08744  -0.88929 
 O                    -0.76966   0.60461  -1.90111 
 H                     0.09872   0.83457  -2.23949 
 H                    -0.96534  -0.30999  -2.11742 
 H                     1.12208   2.09943   0.22124 
 H                    -1.07671   3.0584    0.46184 
 H                    -2.81407  -0.02398   0.6765 
 H                     0.0422    1.33615   2.01181 
 H                    -0.11532  -1.06446   1.08312 
 
 ITRead=  0  0  0  0  0  0  0  0  0  0  0  0  0  0  0  0  0  0  0
 MicOpt= -1 -1 -1 -1 -1 -1 -1 -1 -1 -1 -1 -1 -1 -1 -1 -1 -1 -1 -1
 NAtoms=     19 NQM=       19 NQMF=       0 NMMI=      0 NMMIF=      0
                NMic=       0 NMicF=      0.
                    Isotopes and Nuclear Properties:
 (Nuclear quadrupole moments (NQMom) in fm**2, nuclear magnetic moments (NMagM)
  in nuclear magnetons)

  Atom         1           2           3           4           5           6           7           8           9          10
 IAtWgt=          51          16           1          16           1          16           1          16           1          16
 AtmWgt=  50.9439625  15.9949146   1.0078250  15.9949146   1.0078250  15.9949146   1.0078250  15.9949146   1.0078250  15.9949146
 NucSpn=           7           0           1           0           1           0           1           0           1           0
 AtZEff=  -0.0000000  -0.0000000  -0.0000000  -0.0000000  -0.0000000  -0.0000000  -0.0000000  -0.0000000  -0.0000000  -0.0000000
 NQMom=   -5.2000000   0.0000000   0.0000000   0.0000000   0.0000000   0.0000000   0.0000000   0.0000000   0.0000000   0.0000000
 NMagM=    5.1514000   0.0000000   2.7928460   0.0000000   2.7928460   0.0000000   2.7928460   0.0000000   2.7928460   0.0000000
 AtZNuc=  23.0000000   8.0000000   1.0000000   8.0000000   1.0000000   8.0000000   1.0000000   8.0000000   1.0000000   8.0000000

  Atom        11          12          13          14          15          16          17          18          19
 IAtWgt=           1          16           1           1           1           1           1           1           1
 AtmWgt=   1.0078250  15.9949146   1.0078250   1.0078250   1.0078250   1.0078250   1.0078250   1.0078250   1.0078250
 NucSpn=           1           0           1           1           1           1           1           1           1
 AtZEff=  -0.0000000  -0.0000000  -0.0000000  -0.0000000  -0.0000000  -0.0000000  -0.0000000  -0.0000000  -0.0000000
 NQMom=    0.0000000   0.0000000   0.0000000   0.0000000   0.0000000   0.0000000   0.0000000   0.0000000   0.0000000
 NMagM=    2.7928460   0.0000000   2.7928460   2.7928460   2.7928460   2.7928460   2.7928460   2.7928460   2.7928460
 AtZNuc=   1.0000000   8.0000000   1.0000000   1.0000000   1.0000000   1.0000000   1.0000000   1.0000000   1.0000000
 Leave Link  101 at Thu May 23 17:29:19 2024, MaxMem= 26843545600 cpu:               0.4 elap:               0.1
 (Enter /gpfs/fs1/soft/improv/software/custom-built/gaussian/g16/l103.exe)

 GradGradGradGradGradGradGradGradGradGradGradGradGradGradGradGradGradGrad
 Berny optimization.
 Initialization pass.
 No Z-matrix variables, so optimization will use Cartesian coordinates.
 Trust Radius=3.00D-01 FncErr=1.00D-07 GrdErr=1.00D-06 EigMax=2.50D+02 EigMin=1.00D-04
 Number of steps in this run=    114 maximum allowed number of steps=    114.
 GradGradGradGradGradGradGradGradGradGradGradGradGradGradGradGradGradGrad

 Leave Link  103 at Thu May 23 17:29:19 2024, MaxMem= 26843545600 cpu:               0.4 elap:               0.0
 (Enter /gpfs/fs1/soft/improv/software/custom-built/gaussian/g16/l202.exe)
 ---------------------------------------------------------------------------------------------------
                            Z-MATRIX (ANGSTROMS AND DEGREES)
   CD    Cent   Atom    N1       Length/X        N2       Alpha/Y        N3        Beta/Z          J
 ---------------------------------------------------------------------------------------------------
      1      1  V        0  -0.793037          0.818805         -0.094905
      2      2  O        0  -1.204971          2.573941         -0.356874
      3      3  H        0  -2.121063          2.649743         -0.633122
      4      4  O        0   0.990122          1.190635         -0.057941
      5      5  H        0   1.426962          0.599798          0.559707
      6      6  O        0  -0.817519          1.030691          1.713650
      7      7  H        0  -1.021079          0.190602          2.131326
      8      8  O        0  -0.385068         -0.933506          0.171177
      9      9  H        0  -1.156817         -1.473692         -0.014327
     10     10  O        0  -2.573405          0.451778         -0.121857
     11     11  H        0  -2.777557         -0.087440         -0.889285
     12     12  O        0  -0.769659          0.604612         -1.901109
     13     13  H        0   0.098725          0.834573         -2.239490
     14     14  H        0  -0.965336         -0.309994         -2.117418
     15     15  H        0   1.122081          2.099426          0.221242
     16     16  H        0  -1.076711          3.058396          0.461841
     17     17  H        0  -2.814074         -0.023981          0.676500
     18     18  H        0   0.042204          1.336153          2.011809
     19     19  H        0  -0.115315         -1.064459          1.083123
 ---------------------------------------------------------------------------------------------------
                         Z-Matrix orientation:                         
 ---------------------------------------------------------------------
 Center     Atomic      Atomic             Coordinates (Angstroms)
 Number     Number       Type             X           Y           Z
 ---------------------------------------------------------------------
      1         23           0       -0.793037    0.818805   -0.094905
      2          8           0       -1.204971    2.573941   -0.356874
      3          1           0       -2.121063    2.649743   -0.633122
      4          8           0        0.990122    1.190635   -0.057941
      5          1           0        1.426962    0.599798    0.559707
      6          8           0       -0.817519    1.030691    1.713650
      7          1           0       -1.021079    0.190602    2.131326
      8          8           0       -0.385068   -0.933506    0.171177
      9          1           0       -1.156817   -1.473692   -0.014327
     10          8           0       -2.573405    0.451778   -0.121857
     11          1           0       -2.777557   -0.087440   -0.889285
     12          8           0       -0.769659    0.604612   -1.901109
     13          1           0        0.098725    0.834573   -2.239490
     14          1           0       -0.965336   -0.309994   -2.117418
     15          1           0        1.122081    2.099426    0.221242
     16          1           0       -1.076711    3.058396    0.461841
     17          1           0       -2.814074   -0.023981    0.676500
     18          1           0        0.042204    1.336153    2.011809
     19          1           0       -0.115315   -1.064459    1.083123
 ---------------------------------------------------------------------
                    Distance matrix (angstroms):
                    1          2          3          4          5
     1  V    0.000000
     2  O    1.821762   0.000000
     3  H    2.325008   0.959835   0.000000
     4  O    1.821889   2.611767   3.484150   0.000000
     5  H    2.324839   3.415322   4.267739   0.959899   0.000000
     6  O    1.821090   2.611285   3.134947   2.536076   2.560263
     7  H    2.324381   3.450400   3.859988   3.136540   2.937743
     8  O    1.818745   3.640503   4.062050   2.540791   2.405292
     9  H    2.322579   4.062387   4.279649   3.421971   3.362259
    10  O    1.818006   2.536025   2.301533   3.639880   4.060711
    11  H    2.321775   3.136788   2.826442   4.064482   4.499984
    12  O    1.819010   2.540161   2.759827   2.614866   3.298603
    13  H    2.322657   2.875634   3.286750   2.383386   3.107223
    14  H    2.322591   3.387332   3.506977   3.212032   3.703756
    15  H    2.325429   2.444290   3.398642   0.959822   1.567289
    16  H    2.325125   0.959918   1.567358   2.833814   3.510364
    17  H    2.321626   3.225876   3.056824   4.060370   4.288255
    18  H    2.324547   2.949275   3.660724   2.281137   2.137375
    19  H    2.322443   4.061883   4.556733   2.758526   2.328591
                    6          7          8          9         10
     6  O    0.000000
     7  H    0.960021   0.000000
     8  O    2.534622   2.347406   0.000000
     9  H    3.061530   2.718847   0.960108   0.000000
    10  O    2.605257   2.748593   2.606473   2.392848   0.000000
    11  H    3.444886   3.505227   2.750347   2.305222   0.959885
    12  O    3.640099   4.061422   2.609231   2.833582   2.538227
    13  H    4.062670   4.557707   3.028445   3.443229   3.430916
    14  H    4.061572   4.278496   2.441955   2.411193   2.673658
    15  H    2.670492   3.447487   3.387136   4.244531   4.060675
    16  H    2.397039   3.318813   4.061790   4.557738   3.061904
    17  H    2.484803   2.318921   2.642472   2.307685   0.960023
    18  H    0.959858   1.567527   2.953276   3.665802   3.489421
    19  H    2.297892   1.869309   0.959980   1.567353   3.129403
                   11         12         13         14         15
    11  H    0.000000
    12  O    2.352526   0.000000
    13  H    3.308498   0.959935   0.000000
    14  H    2.200452   0.959991   1.567533   0.000000
    15  H    4.606825   3.212091   2.949969   3.953725   0.000000
    16  H    3.822919   3.420362   3.691102   4.243941   2.410850
    17  H    1.567497   3.349453   4.210050   3.362383   4.495491
    18  H    4.288824   4.062660   4.281159   4.558009   2.225950
    19  H    3.454344   3.481323   3.833001   3.396353   3.504877
                   16         17         18         19
    16  H    0.000000
    17  H    3.544793   0.000000
    18  H    2.573032   3.433851   0.000000
    19  H    4.278809   2.920828   2.578800   0.000000
 Stoichiometry    H12O6V(3+,3)
 Framework group  C1[X(H12O6V)]
 Deg. of freedom    51
 Full point group                 C1      NOp   1
 Largest Abelian subgroup         C1      NOp   1
 Largest concise Abelian subgroup C1      NOp   1
                         Standard orientation:                         
 ---------------------------------------------------------------------
 Center     Atomic      Atomic             Coordinates (Angstroms)
 Number     Number       Type             X           Y           Z
 ---------------------------------------------------------------------
      1         23           0       -0.020930   -0.030851    0.010117
      2          8           0       -0.320881   -1.688468   -0.683537
      3          1           0       -1.137136   -1.681045   -1.188468
      4          8           0        1.254385   -0.678558    1.138536
      5          1           0        1.942922   -0.019835    1.254320
      6          8           0        1.297591    0.293740   -1.203355
      7          1           0        1.381168    1.240413   -1.339237
      8          8           0        0.279591    1.625972    0.697472
      9          1           0       -0.432419    2.214852    0.436571
     10          8           0       -1.286602    0.614727   -1.124100
     11          1           0       -2.035606    0.937335   -0.617843
     12          8           0       -1.338715   -0.352402    1.222076
     13          1           0       -0.971940   -0.816344    1.978190
     14          1           0       -1.717839    0.480834    1.511152
     15          1           0        1.635326   -1.477232    0.766701
     16          1           0        0.408485   -1.931629   -1.258289
     17          1           0       -0.916150    1.334035   -1.640826
     18          1           0        2.128491   -0.056823   -0.874663
     19          1           0        1.113128    1.964930    0.362980
 ---------------------------------------------------------------------
 Rotational constants (GHZ):           2.0397021           1.9739483           1.9252864
 Leave Link  202 at Thu May 23 17:29:19 2024, MaxMem= 26843545600 cpu:               0.4 elap:               0.0
 (Enter /gpfs/fs1/soft/improv/software/custom-built/gaussian/g16/l301.exe)
 Standard basis: 6-31+G(2df,p) (6D, 7F)
 Ernie: Thresh=  0.10000D-02 Tol=  0.10000D-05 Strict=F.
 There are   347 symmetry adapted cartesian basis functions of A   symmetry.
 There are   317 symmetry adapted basis functions of A   symmetry.
   317 basis functions,   514 primitive gaussians,   347 cartesian basis functions
    41 alpha electrons       39 beta electrons
       nuclear repulsion energy       717.7225235776 Hartrees.
 IExCor=  402 DFT=T Ex+Corr=B3LYP ExCW=0 ScaHFX=  0.200000
 ScaDFX=  0.800000  0.720000  1.000000  0.810000 ScalE2=  1.000000  1.000000
 IRadAn=      5 IRanWt=     -1 IRanGd=            0 ICorTp=0 IEmpDi=131
 NAtoms=   19 NActive=   19 NUniq=   19 SFac= 1.00D+00 NAtFMM=   60 NAOKFM=F Big=F
 Integral buffers will be    131072 words long.
 Raffenetti 2 integral format.
 Two-electron integral symmetry is turned on.
 R6Disp:  Grimme-D3 Dispersion energy=       -0.0217936263 Hartrees.
 Nuclear repulsion after empirical dispersion term =      717.7007299513 Hartrees.
 Leave Link  301 at Thu May 23 17:29:19 2024, MaxMem= 26843545600 cpu:               0.4 elap:               0.0
 (Enter /gpfs/fs1/soft/improv/software/custom-built/gaussian/g16/l302.exe)
 NPDir=0 NMtPBC=     1 NCelOv=     1 NCel=       1 NClECP=     1 NCelD=      1
         NCelK=      1 NCelE2=     1 NClLst=     1 CellRange=     0.0.
 One-electron integrals computed using PRISM.
 One-electron integral symmetry used in STVInt
 NBasis=   317 RedAO= T EigKep=  3.17D-05  NBF=   317
 NBsUse=   317 1.00D-06 EigRej= -1.00D+00 NBFU=   317
 Precomputing XC quadrature grid using
 IXCGrd= 4 IRadAn=           5 IRanWt=          -1 IRanGd=           0 AccXCQ= 0.00D+00.
 Generated NRdTot=       0 NPtTot=           0 NUsed=           0 NTot=          32
 NSgBfM=   347   347   347   347   347 MxSgAt=    19 MxSgA2=    19.
 Leave Link  302 at Thu May 23 17:29:20 2024, MaxMem= 26843545600 cpu:              21.5 elap:               0.3
 (Enter /gpfs/fs1/soft/improv/software/custom-built/gaussian/g16/l303.exe)
 DipDrv:  MaxL=1.
 Leave Link  303 at Thu May 23 17:29:20 2024, MaxMem= 26843545600 cpu:               1.0 elap:               0.0
 (Enter /gpfs/fs1/soft/improv/software/custom-built/gaussian/g16/l401.exe)
 ExpMin= 1.07D-02 ExpMax= 4.74D+04 ExpMxC= 7.11D+03 IAcc=3 IRadAn=         5 AccDes= 0.00D+00
 Harris functional with IExCor=  402 and IRadAn=       5 diagonalized for initial guess.
 HarFok:  IExCor=  402 AccDes= 0.00D+00 IRadAn=         5 IDoV= 1 UseB2=F ITyADJ=14
 ICtDFT=  3500011 ScaDFX=  1.000000  1.000000  1.000000  1.000000
 FoFCou: FMM=F IPFlag=           0 FMFlag=      100000 FMFlg1=           0
         NFxFlg=           0 DoJE=T BraDBF=F KetDBF=T FulRan=T
         wScrn=  0.000000 ICntrl=       500 IOpCl=  0 I1Cent=   200000004 NGrid=           0
         NMat0=    1 NMatS0=      1 NMatT0=    0 NMatD0=    1 NMtDS0=    0 NMtDT0=    0
 Petite list used in FoFCou.
 Harris En= -1402.00206379675    
 JPrj=0 DoOrth=F DoCkMO=F.
 Initial guess <Sx>= 0.0000 <Sy>= 0.0000 <Sz>= 1.0000 <S**2>= 2.0000 S= 1.0000
 Leave Link  401 at Thu May 23 17:29:20 2024, MaxMem= 26843545600 cpu:              38.7 elap:               0.4
 (Enter /gpfs/fs1/soft/improv/software/custom-built/gaussian/g16/l502.exe)
 Integral symmetry usage will be decided dynamically.
 UHF open shell SCF:
 Using DIIS extrapolation, IDIIS=  1040.
 NGot= 26843545600 LenX= 26843256607 LenY= 26843135757
 Requested convergence on RMS density matrix=1.00D-08 within  50 cycles.
 Requested convergence on MAX density matrix=1.00D-06.
 Requested convergence on             energy=1.00D-06.
 No special actions if energy rises.
 Fock matrices will be formed incrementally for  20 cycles.

 Cycle   1  Pass 1  IDiag  1:
 FoFJK:  IHMeth= 1 ICntrl=       0 DoSepK=F KAlg= 0 I1Cent=           0 FoldK=F
 IRaf= 990000000 NMat=       1 IRICut=       1 DoRegI=T DoRafI=F ISym2E= 0 IDoP0=0 IntGTp=1.
 FoFCou: FMM=F IPFlag=           0 FMFlag=      100000 FMFlg1=           0
         NFxFlg=           0 DoJE=F BraDBF=F KetDBF=F FulRan=T
         wScrn=  0.000000 ICntrl=         0 IOpCl=  1 I1Cent=           0 NGrid=           0
         NMat0=    1 NMatS0=      1 NMatT0=    0 NMatD0=    1 NMtDS0=    0 NMtDT0=    0
 Symmetry not used in FoFCou.
 E= -1400.95657158444    
 DIIS: error= 4.38D-02 at cycle   1 NSaved=   1.
 NSaved= 1 IEnMin= 1 EnMin= -1400.95657158444     IErMin= 1 ErrMin= 4.38D-02
 ErrMax= 4.38D-02  0.00D+00 EMaxC= 1.00D-01 BMatC= 2.80D+00 BMatP= 2.80D+00
 IDIUse=3 WtCom= 5.62D-01 WtEn= 4.38D-01
 Coeff-Com:  0.100D+01
 Coeff-En:   0.100D+01
 Coeff:      0.100D+01
 Gap=     0.132 Goal=   None    Shift=    0.000
 Gap=     0.077 Goal=   None    Shift=    0.000
 GapD=    0.077 DampG=0.500 DampE=0.250 DampFc=0.1250 IDamp=-1.
 Damping current iteration by 1.25D-01
 RMSDP=9.68D-03 MaxDP=4.68D-01              OVMax= 4.10D-01

 Cycle   2  Pass 1  IDiag  1:
 RMSU=  1.20D-03    CP:  9.94D-01
 E= -1401.05851436542     Delta-E=       -0.101942780982 Rises=F Damp=T
 DIIS: error= 3.49D-02 at cycle   2 NSaved=   2.
 NSaved= 2 IEnMin= 2 EnMin= -1401.05851436542     IErMin= 2 ErrMin= 3.49D-02
 ErrMax= 3.49D-02  0.00D+00 EMaxC= 1.00D-01 BMatC= 1.21D+00 BMatP= 2.80D+00
 IDIUse=3 WtCom= 6.51D-01 WtEn= 3.49D-01
 Coeff-Com: -0.163D+01 0.263D+01
 Coeff-En:   0.000D+00 0.100D+01
 Coeff:     -0.106D+01 0.206D+01
 Gap=     0.218 Goal=   None    Shift=    0.000
 Gap=     0.340 Goal=   None    Shift=    0.000
 RMSDP=3.53D-03 MaxDP=1.21D-01 DE=-1.02D-01 OVMax= 3.65D-01

 Cycle   3  Pass 1  IDiag  1:
 RMSU=  2.91D-03    CP:  9.50D-01  2.52D+00
 E= -1401.30042205025     Delta-E=       -0.241907684826 Rises=F Damp=F
 DIIS: error= 1.30D-02 at cycle   3 NSaved=   3.
 NSaved= 3 IEnMin= 3 EnMin= -1401.30042205025     IErMin= 3 ErrMin= 1.30D-02
 ErrMax= 1.30D-02  0.00D+00 EMaxC= 1.00D-01 BMatC= 5.17D-01 BMatP= 1.21D+00
 IDIUse=3 WtCom= 8.70D-01 WtEn= 1.30D-01
 Coeff-Com: -0.847D+00 0.145D+01 0.396D+00
 Coeff-En:   0.842D-01 0.000D+00 0.916D+00
 Coeff:     -0.726D+00 0.126D+01 0.463D+00
 Gap=     0.148 Goal=   None    Shift=    0.000
 Gap=     0.360 Goal=   None    Shift=    0.000
 RMSDP=1.96D-03 MaxDP=6.00D-02 DE=-2.42D-01 OVMax= 6.76D-02

 Cycle   4  Pass 1  IDiag  1:
 RMSU=  1.40D-03    CP:  9.59D-01  2.77D+00  5.43D-01
 E= -1401.39006816309     Delta-E=       -0.089646112846 Rises=F Damp=F
 DIIS: error= 3.82D-03 at cycle   4 NSaved=   4.
 NSaved= 4 IEnMin= 4 EnMin= -1401.39006816309     IErMin= 4 ErrMin= 3.82D-03
 ErrMax= 3.82D-03  0.00D+00 EMaxC= 1.00D-01 BMatC= 2.94D-02 BMatP= 5.17D-01
 IDIUse=3 WtCom= 9.62D-01 WtEn= 3.82D-02
 Coeff-Com: -0.259D+00 0.304D+00 0.989D-01 0.856D+00
 Coeff-En:   0.000D+00 0.000D+00 0.000D+00 0.100D+01
 Coeff:     -0.249D+00 0.292D+00 0.951D-01 0.862D+00
 Gap=     0.138 Goal=   None    Shift=    0.000
 Gap=     0.314 Goal=   None    Shift=    0.000
 RMSDP=3.55D-04 MaxDP=8.86D-03 DE=-8.96D-02 OVMax= 1.26D-02

 Cycle   5  Pass 1  IDiag  1:
 RMSU=  2.36D-04    CP:  9.57D-01  2.91D+00  5.86D-01  8.97D-01
 E= -1401.39486911428     Delta-E=       -0.004800951192 Rises=F Damp=F
 DIIS: error= 5.94D-04 at cycle   5 NSaved=   5.
 NSaved= 5 IEnMin= 5 EnMin= -1401.39486911428     IErMin= 5 ErrMin= 5.94D-04
 ErrMax= 5.94D-04  0.00D+00 EMaxC= 1.00D-01 BMatC= 1.60D-03 BMatP= 2.94D-02
 IDIUse=3 WtCom= 9.94D-01 WtEn= 5.94D-03
 Coeff-Com: -0.137D+00 0.154D+00 0.205D-01 0.381D+00 0.581D+00
 Coeff-En:   0.000D+00 0.000D+00 0.000D+00 0.000D+00 0.100D+01
 Coeff:     -0.136D+00 0.153D+00 0.204D-01 0.379D+00 0.584D+00
 Gap=     0.140 Goal=   None    Shift=    0.000
 Gap=     0.314 Goal=   None    Shift=    0.000
 RMSDP=5.81D-05 MaxDP=2.78D-03 DE=-4.80D-03 OVMax= 3.67D-03

 Cycle   6  Pass 1  IDiag  1:
 RMSU=  5.44D-05    CP:  9.57D-01  2.92D+00  5.82D-01  9.03D-01  1.06D+00
 E= -1401.39508637936     Delta-E=       -0.000217265072 Rises=F Damp=F
 DIIS: error= 4.73D-04 at cycle   6 NSaved=   6.
 NSaved= 6 IEnMin= 6 EnMin= -1401.39508637936     IErMin= 6 ErrMin= 4.73D-04
 ErrMax= 4.73D-04  0.00D+00 EMaxC= 1.00D-01 BMatC= 4.81D-04 BMatP= 1.60D-03
 IDIUse=3 WtCom= 9.95D-01 WtEn= 4.73D-03
 Coeff-Com: -0.247D-01 0.274D-01-0.290D-01-0.707D-01 0.286D+00 0.810D+00
 Coeff-En:   0.000D+00 0.000D+00 0.000D+00 0.000D+00 0.000D+00 0.100D+01
 Coeff:     -0.245D-01 0.273D-01-0.289D-01-0.703D-01 0.285D+00 0.811D+00
 Gap=     0.142 Goal=   None    Shift=    0.000
 Gap=     0.312 Goal=   None    Shift=    0.000
 RMSDP=6.54D-05 MaxDP=3.59D-03 DE=-2.17D-04 OVMax= 4.95D-03

 Cycle   7  Pass 1  IDiag  1:
 RMSU=  2.45D-05    CP:  9.57D-01  2.95D+00  5.73D-01  9.23D-01  1.14D+00
                    CP:  8.55D-01
 E= -1401.39518309315     Delta-E=       -0.000096713791 Rises=F Damp=F
 DIIS: error= 6.85D-05 at cycle   7 NSaved=   7.
 NSaved= 7 IEnMin= 7 EnMin= -1401.39518309315     IErMin= 7 ErrMin= 6.85D-05
 ErrMax= 6.85D-05  0.00D+00 EMaxC= 1.00D-01 BMatC= 1.85D-05 BMatP= 4.81D-04
 IDIUse=1 WtCom= 1.00D+00 WtEn= 0.00D+00
 Coeff-Com: -0.348D-02 0.437D-02-0.100D-01-0.425D-01 0.168D-01 0.222D+00
 Coeff-Com:  0.813D+00
 Coeff:     -0.348D-02 0.437D-02-0.100D-01-0.425D-01 0.168D-01 0.222D+00
 Coeff:      0.813D+00
 Gap=     0.142 Goal=   None    Shift=    0.000
 Gap=     0.312 Goal=   None    Shift=    0.000
 RMSDP=1.46D-05 MaxDP=1.34D-03 DE=-9.67D-05 OVMax= 1.97D-03

 Cycle   8  Pass 1  IDiag  1:
 RMSU=  1.02D-05    CP:  9.57D-01  2.96D+00  5.73D-01  9.23D-01  1.17D+00
                    CP:  9.47D-01  1.10D+00
 E= -1401.39518899680     Delta-E=       -0.000005903658 Rises=F Damp=F
 DIIS: error= 2.35D-05 at cycle   8 NSaved=   8.
 NSaved= 8 IEnMin= 8 EnMin= -1401.39518899680     IErMin= 8 ErrMin= 2.35D-05
 ErrMax= 2.35D-05  0.00D+00 EMaxC= 1.00D-01 BMatC= 2.14D-06 BMatP= 1.85D-05
 IDIUse=1 WtCom= 1.00D+00 WtEn= 0.00D+00
 Coeff-Com:  0.145D-02-0.130D-02 0.688D-03-0.445D-02-0.432D-01-0.393D-01
 Coeff-Com:  0.307D+00 0.779D+00
 Coeff:      0.145D-02-0.130D-02 0.688D-03-0.445D-02-0.432D-01-0.393D-01
 Coeff:      0.307D+00 0.779D+00
 Gap=     0.142 Goal=   None    Shift=    0.000
 Gap=     0.312 Goal=   None    Shift=    0.000
 RMSDP=7.65D-06 MaxDP=9.12D-04 DE=-5.90D-06 OVMax= 1.64D-03

 Cycle   9  Pass 1  IDiag  1:
 RMSU=  4.76D-06    CP:  9.57D-01  2.96D+00  5.73D-01  9.24D-01  1.17D+00
                    CP:  9.71D-01  1.28D+00  1.30D+00
 E= -1401.39519064428     Delta-E=       -0.000001647477 Rises=F Damp=F
 DIIS: error= 2.24D-05 at cycle   9 NSaved=   9.
 NSaved= 9 IEnMin= 9 EnMin= -1401.39519064428     IErMin= 9 ErrMin= 2.24D-05
 ErrMax= 2.24D-05  0.00D+00 EMaxC= 1.00D-01 BMatC= 7.39D-07 BMatP= 2.14D-06
 IDIUse=1 WtCom= 1.00D+00 WtEn= 0.00D+00
 Coeff-Com:  0.139D-02-0.149D-02 0.292D-02 0.885D-02-0.268D-01-0.728D-01
 Coeff-Com: -0.158D-01 0.374D+00 0.730D+00
 Coeff:      0.139D-02-0.149D-02 0.292D-02 0.885D-02-0.268D-01-0.728D-01
 Coeff:     -0.158D-01 0.374D+00 0.730D+00
 Gap=     0.142 Goal=   None    Shift=    0.000
 Gap=     0.312 Goal=   None    Shift=    0.000
 RMSDP=5.92D-06 MaxDP=6.43D-04 DE=-1.65D-06 OVMax= 1.48D-03

 Cycle  10  Pass 1  IDiag  1:
 RMSU=  2.74D-06    CP:  9.57D-01  2.96D+00  5.73D-01  9.24D-01  1.17D+00
                    CP:  9.85D-01  1.39D+00  1.62D+00  1.63D+00
 E= -1401.39519164825     Delta-E=       -0.000001003967 Rises=F Damp=F
 DIIS: error= 1.86D-05 at cycle  10 NSaved=  10.
 NSaved=10 IEnMin=10 EnMin= -1401.39519164825     IErMin=10 ErrMin= 1.86D-05
 ErrMax= 1.86D-05  0.00D+00 EMaxC= 1.00D-01 BMatC= 3.40D-07 BMatP= 7.39D-07
 IDIUse=1 WtCom= 1.00D+00 WtEn= 0.00D+00
 Coeff-Com:  0.923D-04-0.155D-03 0.692D-03 0.390D-02 0.513D-02-0.751D-02
 Coeff-Com: -0.742D-01-0.162D+00 0.209D+00 0.102D+01
 Coeff:      0.923D-04-0.155D-03 0.692D-03 0.390D-02 0.513D-02-0.751D-02
 Coeff:     -0.742D-01-0.162D+00 0.209D+00 0.102D+01
 Gap=     0.142 Goal=   None    Shift=    0.000
 Gap=     0.312 Goal=   None    Shift=    0.000
 RMSDP=6.89D-06 MaxDP=8.05D-04 DE=-1.00D-06 OVMax= 1.76D-03

 Cycle  11  Pass 1  IDiag  1:
 RMSU=  1.64D-06    CP:  9.57D-01  2.96D+00  5.73D-01  9.24D-01  1.17D+00
                    CP:  9.90D-01  1.49D+00  1.97D+00  2.55D+00  1.85D+00
 E= -1401.39519259580     Delta-E=       -0.000000947556 Rises=F Damp=F
 DIIS: error= 1.39D-05 at cycle  11 NSaved=  11.
 NSaved=11 IEnMin=11 EnMin= -1401.39519259580     IErMin=11 ErrMin= 1.39D-05
 ErrMax= 1.39D-05  0.00D+00 EMaxC= 1.00D-01 BMatC= 1.79D-07 BMatP= 3.40D-07
 IDIUse=1 WtCom= 1.00D+00 WtEn= 0.00D+00
 Coeff-Com: -0.997D-03 0.113D-02-0.158D-02-0.484D-02 0.981D-02 0.405D-01
 Coeff-Com:  0.409D-01-0.189D+00-0.493D+00-0.302D+00 0.190D+01
 Coeff:     -0.997D-03 0.113D-02-0.158D-02-0.484D-02 0.981D-02 0.405D-01
 Coeff:      0.409D-01-0.189D+00-0.493D+00-0.302D+00 0.190D+01
 Gap=     0.142 Goal=   None    Shift=    0.000
 Gap=     0.312 Goal=   None    Shift=    0.000
 RMSDP=1.23D-05 MaxDP=1.47D-03 DE=-9.48D-07 OVMax= 3.13D-03

 Cycle  12  Pass 1  IDiag  1:
 RMSU=  6.15D-06    CP:  9.57D-01  2.96D+00  5.73D-01  9.24D-01  1.18D+00
                    CP:  1.00D+00  1.65D+00  2.58D+00  3.00D+00  3.00D+00
                    CP:  2.92D+00
 E= -1401.39519381525     Delta-E=       -0.000001219449 Rises=F Damp=F
 DIIS: error= 7.76D-06 at cycle  12 NSaved=  12.
 NSaved=12 IEnMin=12 EnMin= -1401.39519381525     IErMin=12 ErrMin= 7.76D-06
 ErrMax= 7.76D-06  0.00D+00 EMaxC= 1.00D-01 BMatC= 9.84D-08 BMatP= 1.79D-07
 IDIUse=1 WtCom= 1.00D+00 WtEn= 0.00D+00
 Coeff-Com: -0.694D-03 0.822D-03-0.445D-03-0.183D-02-0.795D-02 0.337D-02
 Coeff-Com:  0.627D-01 0.143D+00-0.142D+00-0.863D+00-0.580D-01 0.186D+01
 Coeff:     -0.694D-03 0.822D-03-0.445D-03-0.183D-02-0.795D-02 0.337D-02
 Coeff:      0.627D-01 0.143D+00-0.142D+00-0.863D+00-0.580D-01 0.186D+01
 Gap=     0.142 Goal=   None    Shift=    0.000
 Gap=     0.312 Goal=   None    Shift=    0.000
 RMSDP=1.53D-05 MaxDP=1.81D-03 DE=-1.22D-06 OVMax= 3.76D-03

 Cycle  13  Pass 1  IDiag  1:
 RMSU=  6.44D-06    CP:  9.57D-01  2.96D+00  5.73D-01  9.24D-01  1.18D+00
                    CP:  1.01D+00  1.84D+00  3.00D+00  3.00D+00  3.00D+00
                    CP:  3.00D+00  2.81D+00
 E= -1401.39519455636     Delta-E=       -0.000000741104 Rises=F Damp=F
 DIIS: error= 2.81D-06 at cycle  13 NSaved=  13.
 NSaved=13 IEnMin=13 EnMin= -1401.39519455636     IErMin=13 ErrMin= 2.81D-06
 ErrMax= 2.81D-06  0.00D+00 EMaxC= 1.00D-01 BMatC= 3.23D-08 BMatP= 9.84D-08
 IDIUse=1 WtCom= 1.00D+00 WtEn= 0.00D+00
 Coeff-Com: -0.322D-03 0.395D-03 0.479D-04 0.578D-04-0.617D-02-0.670D-02
 Coeff-Com:  0.278D-01 0.110D+00 0.309D-01-0.390D+00-0.406D+00 0.950D+00
 Coeff-Com:  0.690D+00
 Coeff:     -0.322D-03 0.395D-03 0.479D-04 0.578D-04-0.617D-02-0.670D-02
 Coeff:      0.278D-01 0.110D+00 0.309D-01-0.390D+00-0.406D+00 0.950D+00
 Coeff:      0.690D+00
 Gap=     0.142 Goal=   None    Shift=    0.000
 Gap=     0.312 Goal=   None    Shift=    0.000
 RMSDP=3.57D-06 MaxDP=4.19D-04 DE=-7.41D-07 OVMax= 8.04D-04

 Cycle  14  Pass 1  IDiag  1:
 RMSU=  1.72D-06    CP:  9.57D-01  2.96D+00  5.73D-01  9.25D-01  1.18D+00
                    CP:  1.02D+00  1.88D+00  3.00D+00  3.00D+00  3.00D+00
                    CP:  3.00D+00  3.00D+00  1.31D+00
 E= -1401.39519461610     Delta-E=       -0.000000059745 Rises=F Damp=F
 DIIS: error= 1.76D-06 at cycle  14 NSaved=  14.
 NSaved=14 IEnMin=14 EnMin= -1401.39519461610     IErMin=14 ErrMin= 1.76D-06
 ErrMax= 1.76D-06  0.00D+00 EMaxC= 1.00D-01 BMatC= 1.03D-08 BMatP= 3.23D-08
 IDIUse=1 WtCom= 1.00D+00 WtEn= 0.00D+00
 Coeff-Com: -0.490D-04 0.661D-04 0.132D-03 0.579D-03-0.840D-03-0.488D-02
 Coeff-Com: -0.230D-02 0.155D-01 0.626D-01 0.480D-01-0.207D+00-0.460D-01
 Coeff-Com:  0.384D+00 0.750D+00
 Coeff:     -0.490D-04 0.661D-04 0.132D-03 0.579D-03-0.840D-03-0.488D-02
 Coeff:     -0.230D-02 0.155D-01 0.626D-01 0.480D-01-0.207D+00-0.460D-01
 Coeff:      0.384D+00 0.750D+00
 Gap=     0.142 Goal=   None    Shift=    0.000
 Gap=     0.312 Goal=   None    Shift=    0.000
 RMSDP=1.39D-06 MaxDP=1.58D-04 DE=-5.97D-08 OVMax= 3.26D-04

 Cycle  15  Pass 1  IDiag  1:
 RMSU=  4.90D-07    CP:  9.57D-01  2.96D+00  5.73D-01  9.25D-01  1.18D+00
                    CP:  1.02D+00  1.89D+00  3.00D+00  3.00D+00  3.00D+00
                    CP:  3.00D+00  3.00D+00  1.44D+00  1.57D+00
 E= -1401.39519463254     Delta-E=       -0.000000016438 Rises=F Damp=F
 DIIS: error= 1.31D-06 at cycle  15 NSaved=  15.
 NSaved=15 IEnMin=15 EnMin= -1401.39519463254     IErMin=15 ErrMin= 1.31D-06
 ErrMax= 1.31D-06  0.00D+00 EMaxC= 1.00D-01 BMatC= 2.78D-09 BMatP= 1.03D-08
 IDIUse=1 WtCom= 1.00D+00 WtEn= 0.00D+00
 Coeff-Com:  0.764D-04-0.957D-04-0.263D-04-0.239D-04 0.183D-02 0.188D-02
 Coeff-Com: -0.830D-02-0.308D-01-0.129D-01 0.107D+00 0.120D+00-0.260D+00
 Coeff-Com: -0.185D+00-0.531D-01 0.132D+01
 Coeff:      0.764D-04-0.957D-04-0.263D-04-0.239D-04 0.183D-02 0.188D-02
 Coeff:     -0.830D-02-0.308D-01-0.129D-01 0.107D+00 0.120D+00-0.260D+00
 Coeff:     -0.185D+00-0.531D-01 0.132D+01
 Gap=     0.142 Goal=   None    Shift=    0.000
 Gap=     0.312 Goal=   None    Shift=    0.000
 RMSDP=9.78D-07 MaxDP=9.80D-05 DE=-1.64D-08 OVMax= 2.83D-04

 Cycle  16  Pass 1  IDiag  1:
 RMSU=  4.18D-07    CP:  9.57D-01  2.96D+00  5.73D-01  9.25D-01  1.18D+00
                    CP:  1.02D+00  1.90D+00  3.00D+00  3.00D+00  3.00D+00
                    CP:  3.00D+00  3.00D+00  1.50D+00  1.89D+00  2.11D+00
 E= -1401.39519464450     Delta-E=       -0.000000011964 Rises=F Damp=F
 DIIS: error= 1.25D-06 at cycle  16 NSaved=  16.
 NSaved=16 IEnMin=16 EnMin= -1401.39519464450     IErMin=16 ErrMin= 1.25D-06
 ErrMax= 1.25D-06  0.00D+00 EMaxC= 1.00D-01 BMatC= 1.85D-09 BMatP= 2.78D-09
 IDIUse=1 WtCom= 1.00D+00 WtEn= 0.00D+00
 Coeff-Com:  0.879D-04-0.107D-03-0.681D-04-0.447D-03-0.816D-04 0.295D-02
 Coeff-Com:  0.250D-02 0.213D-02-0.459D-01-0.726D-01 0.117D+00 0.122D+00
 Coeff-Com: -0.193D+00-0.589D+00-0.570D+00 0.223D+01
 Coeff:      0.879D-04-0.107D-03-0.681D-04-0.447D-03-0.816D-04 0.295D-02
 Coeff:      0.250D-02 0.213D-02-0.459D-01-0.726D-01 0.117D+00 0.122D+00
 Coeff:     -0.193D+00-0.589D+00-0.570D+00 0.223D+01
 Gap=     0.142 Goal=   None    Shift=    0.000
 Gap=     0.312 Goal=   None    Shift=    0.000
 RMSDP=1.65D-06 MaxDP=1.46D-04 DE=-1.20D-08 OVMax= 4.83D-04

 Cycle  17  Pass 1  IDiag  1:
 RMSU=  5.86D-07    CP:  9.57D-01  2.96D+00  5.73D-01  9.25D-01  1.18D+00
                    CP:  1.02D+00  1.90D+00  3.00D+00  3.00D+00  3.00D+00
                    CP:  3.00D+00  3.00D+00  1.59D+00  2.33D+00  3.00D+00
                    CP:  3.00D+00
 E= -1401.39519465942     Delta-E=       -0.000000014918 Rises=F Damp=F
 DIIS: error= 6.66D-07 at cycle  17 NSaved=  17.
 NSaved=17 IEnMin=17 EnMin= -1401.39519465942     IErMin=17 ErrMin= 6.66D-07
 ErrMax= 6.66D-07  0.00D+00 EMaxC= 1.00D-01 BMatC= 1.12D-09 BMatP= 1.85D-09
 IDIUse=1 WtCom= 1.00D+00 WtEn= 0.00D+00
 Coeff-Com:  0.397D-04-0.459D-04-0.238D-04-0.277D-03-0.820D-03 0.999D-03
 Coeff-Com:  0.538D-02 0.147D-01-0.225D-01-0.932D-01 0.143D-01 0.195D+00
 Coeff-Com: -0.218D-01-0.341D+00-0.991D+00 0.135D+01 0.888D+00
 Coeff:      0.397D-04-0.459D-04-0.238D-04-0.277D-03-0.820D-03 0.999D-03
 Coeff:      0.538D-02 0.147D-01-0.225D-01-0.932D-01 0.143D-01 0.195D+00
 Coeff:     -0.218D-01-0.341D+00-0.991D+00 0.135D+01 0.888D+00
 Gap=     0.142 Goal=   None    Shift=    0.000
 Gap=     0.312 Goal=   None    Shift=    0.000
 RMSDP=1.04D-06 MaxDP=9.24D-05 DE=-1.49D-08 OVMax= 3.04D-04

 Cycle  18  Pass 1  IDiag  1:
 RMSU=  5.14D-07    CP:  9.57D-01  2.96D+00  5.73D-01  9.25D-01  1.18D+00
                    CP:  1.02D+00  1.91D+00  3.00D+00  3.00D+00  3.00D+00
                    CP:  3.00D+00  3.00D+00  1.64D+00  2.61D+00  3.00D+00
                    CP:  3.00D+00  2.15D+00
 E= -1401.39519466458     Delta-E=       -0.000000005156 Rises=F Damp=F
 DIIS: error= 3.66D-07 at cycle  18 NSaved=  18.
 NSaved=18 IEnMin=18 EnMin= -1401.39519466458     IErMin=18 ErrMin= 3.66D-07
 ErrMax= 3.66D-07  0.00D+00 EMaxC= 1.00D-01 BMatC= 3.41D-10 BMatP= 1.12D-09
 IDIUse=1 WtCom= 1.00D+00 WtEn= 0.00D+00
 Coeff-Com: -0.290D-04 0.368D-04 0.289D-04 0.109D-03-0.338D-03-0.116D-02
 Coeff-Com:  0.189D-02 0.648D-02 0.153D-01-0.892D-02-0.664D-01 0.413D-01
 Coeff-Com:  0.116D+00 0.165D+00-0.235D+00-0.583D+00 0.485D+00 0.106D+01
 Coeff:     -0.290D-04 0.368D-04 0.289D-04 0.109D-03-0.338D-03-0.116D-02
 Coeff:      0.189D-02 0.648D-02 0.153D-01-0.892D-02-0.664D-01 0.413D-01
 Coeff:      0.116D+00 0.165D+00-0.235D+00-0.583D+00 0.485D+00 0.106D+01
 Gap=     0.142 Goal=   None    Shift=    0.000
 Gap=     0.312 Goal=   None    Shift=    0.000
 RMSDP=7.57D-07 MaxDP=6.52D-05 DE=-5.16D-09 OVMax= 2.20D-04

 Cycle  19  Pass 1  IDiag  1:
 RMSU=  6.66D-08    CP:  9.57D-01  2.96D+00  5.73D-01  9.25D-01  1.18D+00
                    CP:  1.02D+00  1.91D+00  3.00D+00  3.00D+00  3.00D+00
                    CP:  3.00D+00  3.00D+00  1.67D+00  2.79D+00  3.00D+00
                    CP:  3.00D+00  3.00D+00  1.76D+00
 E= -1401.39519466622     Delta-E=       -0.000000001640 Rises=F Damp=F
 DIIS: error= 1.70D-07 at cycle  19 NSaved=  19.
 NSaved=19 IEnMin=19 EnMin= -1401.39519466622     IErMin=19 ErrMin= 1.70D-07
 ErrMax= 1.70D-07  0.00D+00 EMaxC= 1.00D-01 BMatC= 4.69D-11 BMatP= 3.41D-10
 IDIUse=1 WtCom= 1.00D+00 WtEn= 0.00D+00
 Coeff-Com: -0.195D-04 0.226D-04 0.554D-05 0.721D-04 0.121D-03-0.326D-03
 Coeff-Com: -0.902D-03-0.178D-02 0.595D-02 0.172D-01-0.946D-02-0.319D-01
 Coeff-Com:  0.150D-01 0.772D-01 0.152D+00-0.308D+00-0.126D+00 0.126D+00
 Coeff-Com:  0.109D+01
 Coeff:     -0.195D-04 0.226D-04 0.554D-05 0.721D-04 0.121D-03-0.326D-03
 Coeff:     -0.902D-03-0.178D-02 0.595D-02 0.172D-01-0.946D-02-0.319D-01
 Coeff:      0.150D-01 0.772D-01 0.152D+00-0.308D+00-0.126D+00 0.126D+00
 Coeff:      0.109D+01
 Gap=     0.142 Goal=   None    Shift=    0.000
 Gap=     0.312 Goal=   None    Shift=    0.000
 RMSDP=1.99D-07 MaxDP=2.00D-05 DE=-1.64D-09 OVMax= 5.42D-05

 Cycle  20  Pass 1  IDiag  1:
 RMSU=  1.33D-07    CP:  9.57D-01  2.96D+00  5.73D-01  9.25D-01  1.18D+00
                    CP:  1.02D+00  1.91D+00  3.00D+00  3.00D+00  3.00D+00
                    CP:  3.00D+00  3.00D+00  1.68D+00  2.82D+00  3.00D+00
                    CP:  3.00D+00  3.00D+00  1.99D+00  1.92D+00
 E= -1401.39519466635     Delta-E=       -0.000000000136 Rises=F Damp=F
 DIIS: error= 8.29D-08 at cycle  20 NSaved=  20.
 NSaved=20 IEnMin=20 EnMin= -1401.39519466635     IErMin=20 ErrMin= 8.29D-08
 ErrMax= 8.29D-08  0.00D+00 EMaxC= 1.00D-01 BMatC= 1.52D-11 BMatP= 4.69D-11
 IDIUse=1 WtCom= 1.00D+00 WtEn= 0.00D+00
 Coeff-Com: -0.496D-05 0.557D-05-0.283D-05 0.888D-05 0.574D-04 0.102D-04
 Coeff-Com: -0.565D-03-0.124D-02-0.270D-03 0.648D-02 0.648D-02-0.159D-01
 Coeff-Com: -0.117D-01 0.735D-03 0.808D-01-0.722D-02-0.116D+00-0.124D+00
 Coeff-Com:  0.344D+00 0.839D+00
 Coeff:     -0.496D-05 0.557D-05-0.283D-05 0.888D-05 0.574D-04 0.102D-04
 Coeff:     -0.565D-03-0.124D-02-0.270D-03 0.648D-02 0.648D-02-0.159D-01
 Coeff:     -0.117D-01 0.735D-03 0.808D-01-0.722D-02-0.116D+00-0.124D+00
 Coeff:      0.344D+00 0.839D+00
 Gap=     0.142 Goal=   None    Shift=    0.000
 Gap=     0.312 Goal=   None    Shift=    0.000
 RMSDP=3.83D-08 MaxDP=3.77D-06 DE=-1.36D-10 OVMax= 9.90D-06

 Cycle  21  Pass 1  IDiag  1:
 Restarting incremental Fock formation.
 E= -1401.39519466634     Delta-E=        0.000000000017 Rises=F Damp=F
 DIIS: error= 2.77D-08 at cycle  21 NSaved=  20.
 NSaved=20 IEnMin=19 EnMin= -1401.39519466635     IErMin=20 ErrMin= 2.77D-08
 ErrMax= 2.77D-08  0.00D+00 EMaxC= 1.00D-01 BMatC= 2.57D-12 BMatP= 1.52D-11
 IDIUse=1 WtCom= 1.00D+00 WtEn= 0.00D+00
 Coeff-Com: -0.628D-07-0.228D-05-0.504D-05 0.863D-05 0.340D-04-0.178D-03
 Coeff-Com: -0.437D-03-0.883D-03 0.125D-02 0.462D-02-0.447D-02-0.790D-02
 Coeff-Com: -0.941D-02 0.227D-01 0.371D-01-0.449D-01-0.827D-01 0.308D-01
 Coeff-Com:  0.456D+00 0.598D+00
 Coeff:     -0.628D-07-0.228D-05-0.504D-05 0.863D-05 0.340D-04-0.178D-03
 Coeff:     -0.437D-03-0.883D-03 0.125D-02 0.462D-02-0.447D-02-0.790D-02
 Coeff:     -0.941D-02 0.227D-01 0.371D-01-0.449D-01-0.827D-01 0.308D-01
 Coeff:      0.456D+00 0.598D+00
 Gap=     0.142 Goal=   None    Shift=    0.000
 Gap=     0.312 Goal=   None    Shift=    0.000
 RMSDP=6.41D-09 MaxDP=4.25D-07 DE= 1.73D-11 OVMax= 1.46D-06

 SCF Done:  E(UB3LYP) =  -1401.39519467     A.U. after   21 cycles
            NFock= 21  Conv=0.64D-08     -V/T= 2.0013
 <Sx>= 0.0000 <Sy>= 0.0000 <Sz>= 1.0000 <S**2>= 2.0034 S= 1.0011
 <L.S>=  0.00000000000    
 KE= 1.399634801215D+03 PE=-4.707324812137D+03 EE= 1.188594086304D+03
 Annihilation of the first spin contaminant:
 S**2 before annihilation     2.0034,   after     2.0000
 Leave Link  502 at Thu May 23 17:29:55 2024, MaxMem= 26843545600 cpu:            3919.9 elap:              34.5
 (Enter /gpfs/fs1/soft/improv/software/custom-built/gaussian/g16/l508.exe)
 QCSCF skips out because SCF is already converged.
 Leave Link  508 at Thu May 23 17:29:55 2024, MaxMem= 26843545600 cpu:               0.2 elap:               0.0
 (Enter /gpfs/fs1/soft/improv/software/custom-built/gaussian/g16/l801.exe)
 DoSCS=F DFT=T ScalE2(SS,OS)=  1.000000  1.000000
 Range of M.O.s used for correlation:     1   317
 NBasis=   317 NAE=    41 NBE=    39 NFC=     0 NFV=     0
 NROrb=    317 NOA=    41 NOB=    39 NVA=   276 NVB=   278

 **** Warning!!: The largest alpha MO coefficient is  0.64843170D+02


 **** Warning!!: The largest beta MO coefficient is  0.64836095D+02

 Leave Link  801 at Thu May 23 17:29:55 2024, MaxMem= 26843545600 cpu:               0.4 elap:               0.0
 (Enter /gpfs/fs1/soft/improv/software/custom-built/gaussian/g16/l1101.exe)
 Using compressed storage, NAtomX=    19.
 Will process     20 centers per pass.
 R6Disp: Adding Grimme-D3 dispersion energy 1st derivatives to the gradient.
 Leave Link 1101 at Thu May 23 17:29:55 2024, MaxMem= 26843545600 cpu:              50.9 elap:               0.5
 (Enter /gpfs/fs1/soft/improv/software/custom-built/gaussian/g16/l1102.exe)
 Symmetrizing basis deriv contribution to polar:
 IMax=3 JMax=2 DiffMx= 0.00D+00
 Leave Link 1102 at Thu May 23 17:29:55 2024, MaxMem= 26843545600 cpu:               0.9 elap:               0.0
 (Enter /gpfs/fs1/soft/improv/software/custom-built/gaussian/g16/l1110.exe)
 Forming Gx(P) for the SCF density, NAtomX=    19.
 Integral derivatives from FoFJK, PRISM(SPDF).
 Do as many integral derivatives as possible in FoFJK.
 G2DrvN: MDV=   26843543431.
 G2DrvN: will do    20 centers at a time, making    1 passes.
 Calling FoFCou, ICntrl=  3107 FMM=F I1Cent=   0 AccDes= 0.00D+00.
 FoFJK:  IHMeth= 1 ICntrl=    3107 DoSepK=F KAlg= 0 I1Cent=           0 FoldK=F
 IRaf=         0 NMat=       1 IRICut=       1 DoRegI=T DoRafI=F ISym2E= 0 IDoP0=0 IntGTp=1.
 FoFCou: FMM=F IPFlag=           0 FMFlag=      100000 FMFlg1=           0
         NFxFlg=           0 DoJE=F BraDBF=F KetDBF=F FulRan=T
         wScrn=  0.000000 ICntrl=      3107 IOpCl=  1 I1Cent=           0 NGrid=           0
         NMat0=    1 NMatS0=      1 NMatT0=    0 NMatD0=    1 NMtDS0=    0 NMtDT0=    0
 Symmetry not used in FoFCou.
 End of G2Drv F.D. properties file   721 does not exist.
 End of G2Drv F.D. properties file   722 does not exist.
 End of G2Drv F.D. properties file   788 does not exist.
 Leave Link 1110 at Thu May 23 17:30:10 2024, MaxMem= 26843545600 cpu:            1878.5 elap:              15.0
 (Enter /gpfs/fs1/soft/improv/software/custom-built/gaussian/g16/l1002.exe)
 Minotr:  UHF open shell wavefunction.
          IDoAtm=1111111111111111111
          Direct CPHF calculation.
          Differentiating once with respect to electric field.
                with respect to dipole field.
          Differentiating once with respect to nuclear coordinates.
          Requested convergence is 1.0D-08 RMS, and 1.0D-07 maximum.
          Secondary convergence is 1.0D-12 RMS, and 1.0D-12 maximum.
          NewPWx=T KeepS1=F KeepF1=F KeepIn=T MapXYZ=F SortEE=F KeepMc=T.
         6034 words used for storage of precomputed grid.
 Two-electron integrals replicated using symmetry.
          MDV=   26843545600 using IRadAn=       1.
          Solving linear equations simultaneously, MaxMat=     384.
 FoF2E skips out because all densities are zero.
 CalDSu exits because no D1Ps are significant.
 FoFJK:  IHMeth= 1 ICntrl=       0 DoSepK=F KAlg= 0 I1Cent=           0 FoldK=F
 IRaf= 990000000 NMat=      57 IRICut=     142 DoRegI=T DoRafI=T ISym2E= 2 IDoP0=3 IntGTp=2.
 FoFCou: FMM=F IPFlag=           0 FMFlag=      100000 FMFlg1=           0
         NFxFlg=           0 DoJE=F BraDBF=F KetDBF=F FulRan=T
         wScrn=  0.000000 ICntrl=         0 IOpCl=  1 I1Cent=           0 NGrid=           0
         NMat0=   57 NMatS0=     57 NMatT0=    0 NMatD0=   57 NMtDS0=    0 NMtDT0=    0
 Integrals replicated using symmetry in FoFCou.
 Raff kept on since  98.06% of shell-pairs survive, threshold=   0.20 IRatSp=98.
          There are    60 degrees of freedom in the 1st order CPHF.  IDoFFX=6 NUNeed=     3.
     57 vectors produced by pass  0 Test12= 3.69D-14 1.67D-09 XBig12= 5.70D+01 1.39D+00.
 AX will form    57 AO Fock derivatives at one time.
     57 vectors produced by pass  1 Test12= 3.69D-14 1.67D-09 XBig12= 5.61D+00 2.33D-01.
     57 vectors produced by pass  2 Test12= 3.69D-14 1.67D-09 XBig12= 7.34D-02 3.26D-02.
     57 vectors produced by pass  3 Test12= 3.69D-14 1.67D-09 XBig12= 3.99D-04 2.34D-03.
     57 vectors produced by pass  4 Test12= 3.69D-14 1.67D-09 XBig12= 2.54D-06 2.21D-04.
     57 vectors produced by pass  5 Test12= 3.69D-14 1.67D-09 XBig12= 1.97D-08 1.75D-05.
     44 vectors produced by pass  6 Test12= 3.69D-14 1.67D-09 XBig12= 6.59D-11 8.15D-07.
      9 vectors produced by pass  7 Test12= 3.69D-14 1.67D-09 XBig12= 1.65D-13 5.18D-08.
      3 vectors produced by pass  8 Test12= 3.69D-14 1.67D-09 XBig12= 5.57D-16 2.97D-09.
 InvSVY:  IOpt=1 It=  1 EMax= 7.99D-15
 Solved reduced A of dimension   398 with    60 vectors.
 FullF1:  Do perturbations      1 to       3.
 Isotropic polarizability for W=    0.000000       49.97 Bohr**3.
 End of Minotr F.D. properties file   721 does not exist.
 End of Minotr F.D. properties file   722 does not exist.
 End of Minotr F.D. properties file   788 does not exist.
 Leave Link 1002 at Thu May 23 17:31:16 2024, MaxMem= 26843545600 cpu:            7910.5 elap:              65.4
 (Enter /gpfs/fs1/soft/improv/software/custom-built/gaussian/g16/l601.exe)
 Copying SCF densities to generalized density rwf, IOpCl= 1 IROHF=0.

 **********************************************************************

            Population analysis using the SCF Density.

 **********************************************************************

 Orbital symmetries:
 Alpha Orbitals:
       Occupied  (A) (A) (A) (A) (A) (A) (A) (A) (A) (A) (A) (A)
                 (A) (A) (A) (A) (A) (A) (A) (A) (A) (A) (A) (A)
                 (A) (A) (A) (A) (A) (A) (A) (A) (A) (A) (A) (A)
                 (A) (A) (A) (A) (A)
       Virtual   (A) (A) (A) (A) (A) (A) (A) (A) (A) (A) (A) (A)
                 (A) (A) (A) (A) (A) (A) (A) (A) (A) (A) (A) (A)
                 (A) (A) (A) (A) (A) (A) (A) (A) (A) (A) (A) (A)
                 (A) (A) (A) (A) (A) (A) (A) (A) (A) (A) (A) (A)
                 (A) (A) (A) (A) (A) (A) (A) (A) (A) (A) (A) (A)
                 (A) (A) (A) (A) (A) (A) (A) (A) (A) (A) (A) (A)
                 (A) (A) (A) (A) (A) (A) (A) (A) (A) (A) (A) (A)
                 (A) (A) (A) (A) (A) (A) (A) (A) (A) (A) (A) (A)
                 (A) (A) (A) (A) (A) (A) (A) (A) (A) (A) (A) (A)
                 (A) (A) (A) (A) (A) (A) (A) (A) (A) (A) (A) (A)
                 (A) (A) (A) (A) (A) (A) (A) (A) (A) (A) (A) (A)
                 (A) (A) (A) (A) (A) (A) (A) (A) (A) (A) (A) (A)
                 (A) (A) (A) (A) (A) (A) (A) (A) (A) (A) (A) (A)
                 (A) (A) (A) (A) (A) (A) (A) (A) (A) (A) (A) (A)
                 (A) (A) (A) (A) (A) (A) (A) (A) (A) (A) (A) (A)
                 (A) (A) (A) (A) (A) (A) (A) (A) (A) (A) (A) (A)
                 (A) (A) (A) (A) (A) (A) (A) (A) (A) (A) (A) (A)
                 (A) (A) (A) (A) (A) (A) (A) (A) (A) (A) (A) (A)
                 (A) (A) (A) (A) (A) (A) (A) (A) (A) (A) (A) (A)
                 (A) (A) (A) (A) (A) (A) (A) (A) (A) (A) (A) (A)
                 (A) (A) (A) (A) (A) (A) (A) (A) (A) (A) (A) (A)
                 (A) (A) (A) (A) (A) (A) (A) (A) (A) (A) (A) (A)
                 (A) (A) (A) (A) (A) (A) (A) (A) (A) (A) (A) (A)
 Beta  Orbitals:
       Occupied  (A) (A) (A) (A) (A) (A) (A) (A) (A) (A) (A) (A)
                 (A) (A) (A) (A) (A) (A) (A) (A) (A) (A) (A) (A)
                 (A) (A) (A) (A) (A) (A) (A) (A) (A) (A) (A) (A)
                 (A) (A) (A)
       Virtual   (A) (A) (A) (A) (A) (A) (A) (A) (A) (A) (A) (A)
                 (A) (A) (A) (A) (A) (A) (A) (A) (A) (A) (A) (A)
                 (A) (A) (A) (A) (A) (A) (A) (A) (A) (A) (A) (A)
                 (A) (A) (A) (A) (A) (A) (A) (A) (A) (A) (A) (A)
                 (A) (A) (A) (A) (A) (A) (A) (A) (A) (A) (A) (A)
                 (A) (A) (A) (A) (A) (A) (A) (A) (A) (A) (A) (A)
                 (A) (A) (A) (A) (A) (A) (A) (A) (A) (A) (A) (A)
                 (A) (A) (A) (A) (A) (A) (A) (A) (A) (A) (A) (A)
                 (A) (A) (A) (A) (A) (A) (A) (A) (A) (A) (A) (A)
                 (A) (A) (A) (A) (A) (A) (A) (A) (A) (A) (A) (A)
                 (A) (A) (A) (A) (A) (A) (A) (A) (A) (A) (A) (A)
                 (A) (A) (A) (A) (A) (A) (A) (A) (A) (A) (A) (A)
                 (A) (A) (A) (A) (A) (A) (A) (A) (A) (A) (A) (A)
                 (A) (A) (A) (A) (A) (A) (A) (A) (A) (A) (A) (A)
                 (A) (A) (A) (A) (A) (A) (A) (A) (A) (A) (A) (A)
                 (A) (A) (A) (A) (A) (A) (A) (A) (A) (A) (A) (A)
                 (A) (A) (A) (A) (A) (A) (A) (A) (A) (A) (A) (A)
                 (A) (A) (A) (A) (A) (A) (A) (A) (A) (A) (A) (A)
                 (A) (A) (A) (A) (A) (A) (A) (A) (A) (A) (A) (A)
                 (A) (A) (A) (A) (A) (A) (A) (A) (A) (A) (A) (A)
                 (A) (A) (A) (A) (A) (A) (A) (A) (A) (A) (A) (A)
                 (A) (A) (A) (A) (A) (A) (A) (A) (A) (A) (A) (A)
                 (A) (A) (A) (A) (A) (A) (A) (A) (A) (A) (A) (A)
                 (A) (A)
 The electronic state is 3-A.
 Alpha  occ. eigenvalues -- -197.40906 -22.82463 -19.77972 -19.77789 -19.76303
 Alpha  occ. eigenvalues --  -19.75884 -19.74511 -19.73966 -19.32953 -19.32348
 Alpha  occ. eigenvalues --  -19.31932  -3.23491  -2.27425  -2.27404  -2.27362
 Alpha  occ. eigenvalues --   -1.67416  -1.65326  -1.64457  -1.63383  -1.62132
 Alpha  occ. eigenvalues --   -1.61527  -1.20295  -1.18625  -1.16663  -1.15766
 Alpha  occ. eigenvalues --   -1.14305  -1.12888  -1.07953  -1.07692  -1.06685
 Alpha  occ. eigenvalues --   -1.03588  -1.02606  -1.00594  -0.99527  -0.96575
 Alpha  occ. eigenvalues --   -0.95721  -0.94354  -0.92653  -0.91362  -0.78456
 Alpha  occ. eigenvalues --   -0.77582
 Alpha virt. eigenvalues --   -0.63357  -0.55900  -0.50218  -0.49600  -0.48902
 Alpha virt. eigenvalues --   -0.47850  -0.46776  -0.43159  -0.42076  -0.40739
 Alpha virt. eigenvalues --   -0.40453  -0.37424  -0.36022  -0.35580  -0.34049
 Alpha virt. eigenvalues --   -0.32531  -0.31873  -0.31010  -0.29196  -0.28390
 Alpha virt. eigenvalues --   -0.28007  -0.27632  -0.27243  -0.25310  -0.25073
 Alpha virt. eigenvalues --   -0.24664  -0.23915  -0.22180  -0.21629  -0.21211
 Alpha virt. eigenvalues --   -0.19797  -0.19364  -0.18669  -0.17334  -0.16571
 Alpha virt. eigenvalues --   -0.15585  -0.15505  -0.14765  -0.13920  -0.12565
 Alpha virt. eigenvalues --   -0.11794  -0.11083  -0.09413  -0.08873  -0.07662
 Alpha virt. eigenvalues --   -0.07199  -0.06176  -0.05708  -0.04071  -0.01033
 Alpha virt. eigenvalues --    0.00285   0.01461   0.04472   0.05031   0.06818
 Alpha virt. eigenvalues --    0.08788   0.20868   0.21579   0.22912   0.25841
 Alpha virt. eigenvalues --    0.26968   0.27279   0.27950   0.28948   0.31544
 Alpha virt. eigenvalues --    0.32745   0.33111   0.34056   0.36917   0.37611
 Alpha virt. eigenvalues --    0.38019   0.39210   0.39485   0.41209   0.41855
 Alpha virt. eigenvalues --    0.43306   0.46328   0.48404   0.50348   0.50506
 Alpha virt. eigenvalues --    0.52173   0.52500   0.53438   0.54581   0.56005
 Alpha virt. eigenvalues --    0.57247   0.57979   0.59459   0.61366   0.62585
 Alpha virt. eigenvalues --    0.67335   0.68234   0.68335   0.71643   0.72526
 Alpha virt. eigenvalues --    0.74768   0.75577   0.77201   0.79164   0.81511
 Alpha virt. eigenvalues --    0.81760   0.82993   0.85593   0.86784   0.87799
 Alpha virt. eigenvalues --    0.92478   0.94130   0.94287   1.00923   1.02668
 Alpha virt. eigenvalues --    1.05923   1.13616   1.13660   1.15232   1.16987
 Alpha virt. eigenvalues --    1.19761   1.20298   1.24934   1.27654   1.29857
 Alpha virt. eigenvalues --    1.33011   1.36127   1.38181   1.41215   1.45932
 Alpha virt. eigenvalues --    1.49652   1.67326   1.68189   1.70230   1.71632
 Alpha virt. eigenvalues --    1.74265   1.74737   1.75764   1.77188   1.80760
 Alpha virt. eigenvalues --    1.84073   1.86906   1.89244   1.92455   1.97096
 Alpha virt. eigenvalues --    1.97959   2.01542   2.03525   2.08051   2.13955
 Alpha virt. eigenvalues --    2.17414   2.19639   2.20844   2.26768   2.28287
 Alpha virt. eigenvalues --    2.31684   2.32157   2.34045   2.36096   2.37678
 Alpha virt. eigenvalues --    2.39810   2.41121   2.43235   2.44137   2.46224
 Alpha virt. eigenvalues --    2.48715   2.49545   2.50261   2.54211   2.58859
 Alpha virt. eigenvalues --    2.60305   2.61011   2.61660   2.64141   2.68299
 Alpha virt. eigenvalues --    2.69058   2.78256   2.83856   2.85992   2.87414
 Alpha virt. eigenvalues --    2.89796   2.90687   2.93607   2.94364   2.95638
 Alpha virt. eigenvalues --    3.01544   3.16965   3.22903   3.49531   3.52631
 Alpha virt. eigenvalues --    3.54024   3.59646   3.60635   3.63432   3.64649
 Alpha virt. eigenvalues --    3.66496   3.67118   3.67738   3.70542   3.73268
 Alpha virt. eigenvalues --    3.78317   3.80329   3.85224   3.86250   3.88841
 Alpha virt. eigenvalues --    3.90358   3.95205   3.95950   3.99406   4.03521
 Alpha virt. eigenvalues --    4.04705   4.07198   4.12715   4.15601   4.16486
 Alpha virt. eigenvalues --    4.17864   4.21174   4.23465   4.30919   4.33305
 Alpha virt. eigenvalues --    4.35485   4.37443   4.39184   4.40080   4.47559
 Alpha virt. eigenvalues --    4.53942   4.60457   4.65974   4.67830   4.71581
 Alpha virt. eigenvalues --    4.73707   4.77837   4.84312   4.85975   4.89220
 Alpha virt. eigenvalues --    4.89365   4.89797   4.90885   4.92493   4.95607
 Alpha virt. eigenvalues --    4.96971   5.00781   5.04194   5.05558   5.06948
 Alpha virt. eigenvalues --    5.09259   5.12044   5.14545   5.17125   5.20626
 Alpha virt. eigenvalues --    5.23511   5.25322   5.25562   5.26606   5.28270
 Alpha virt. eigenvalues --    5.29113   5.32021   5.32485   5.32791   5.35228
 Alpha virt. eigenvalues --    5.37889   5.38543   5.39020   5.40569   5.41017
 Alpha virt. eigenvalues --    5.73432   5.75925   6.21589   6.88370   6.91040
 Alpha virt. eigenvalues --    6.91826   7.01367   7.06213   7.14352  13.18620
 Alpha virt. eigenvalues --   13.20117  13.20801  13.65182  13.70894  13.78461
 Alpha virt. eigenvalues --   36.46378
  Beta  occ. eigenvalues -- -197.40884 -22.79950 -19.78003 -19.77813 -19.76288
  Beta  occ. eigenvalues --  -19.75860 -19.74523 -19.73992 -19.31391 -19.30164
  Beta  occ. eigenvalues --  -19.29321  -3.15665  -2.21555  -2.18980  -2.17226
  Beta  occ. eigenvalues --   -1.67292  -1.65245  -1.64326  -1.63121  -1.61981
  Beta  occ. eigenvalues --   -1.61424  -1.19855  -1.18193  -1.16428  -1.15551
  Beta  occ. eigenvalues --   -1.14040  -1.12698  -1.07650  -1.07276  -1.06248
  Beta  occ. eigenvalues --   -1.03334  -1.02249  -1.00388  -0.99262  -0.96302
  Beta  occ. eigenvalues --   -0.95368  -0.93950  -0.92362  -0.91230
  Beta virt. eigenvalues --   -0.60010  -0.58212  -0.57530  -0.55707  -0.50038
  Beta virt. eigenvalues --   -0.47981  -0.46972  -0.46583  -0.46108  -0.42539
  Beta virt. eigenvalues --   -0.41507  -0.40542  -0.40293  -0.37229  -0.35882
  Beta virt. eigenvalues --   -0.35434  -0.33828  -0.32475  -0.31803  -0.30932
  Beta virt. eigenvalues --   -0.29087  -0.28292  -0.27965  -0.27505  -0.27079
  Beta virt. eigenvalues --   -0.25254  -0.24965  -0.24369  -0.23599  -0.21941
  Beta virt. eigenvalues --   -0.21376  -0.21117  -0.19631  -0.19209  -0.18207
  Beta virt. eigenvalues --   -0.17138  -0.16424  -0.15504  -0.15391  -0.14536
  Beta virt. eigenvalues --   -0.13771  -0.12236  -0.11593  -0.10777  -0.09296
  Beta virt. eigenvalues --   -0.08318  -0.07362  -0.06954  -0.05899  -0.05412
  Beta virt. eigenvalues --   -0.03677  -0.00779   0.01138   0.02248   0.04803
  Beta virt. eigenvalues --    0.05161   0.07504   0.09436   0.21878   0.22090
  Beta virt. eigenvalues --    0.23456   0.26518   0.27586   0.27991   0.28900
  Beta virt. eigenvalues --    0.29737   0.31803   0.33076   0.33478   0.34303
  Beta virt. eigenvalues --    0.37190   0.37840   0.38219   0.39443   0.39690
  Beta virt. eigenvalues --    0.41470   0.42295   0.43596   0.46659   0.48883
  Beta virt. eigenvalues --    0.50566   0.50778   0.52396   0.52740   0.53690
  Beta virt. eigenvalues --    0.54738   0.56500   0.57514   0.58299   0.59743
  Beta virt. eigenvalues --    0.61719   0.63015   0.67941   0.68373   0.68570
  Beta virt. eigenvalues --    0.71863   0.72791   0.75042   0.76447   0.77399
  Beta virt. eigenvalues --    0.79311   0.82066   0.82652   0.83414   0.86120
  Beta virt. eigenvalues --    0.87013   0.88091   0.93351   0.94424   0.95066
  Beta virt. eigenvalues --    1.02054   1.03628   1.06901   1.15376   1.16491
  Beta virt. eigenvalues --    1.17345   1.19220   1.21780   1.22358   1.25790
  Beta virt. eigenvalues --    1.28504   1.30672   1.33933   1.37163   1.39420
  Beta virt. eigenvalues --    1.41733   1.47042   1.50502   1.67666   1.68575
  Beta virt. eigenvalues --    1.70556   1.71945   1.74712   1.75128   1.76118
  Beta virt. eigenvalues --    1.77732   1.81184   1.84368   1.87165   1.89832
  Beta virt. eigenvalues --    1.92920   1.97595   1.98476   2.02221   2.04317
  Beta virt. eigenvalues --    2.08633   2.14710   2.18895   2.20582   2.21509
  Beta virt. eigenvalues --    2.27518   2.29084   2.32443   2.32582   2.34523
  Beta virt. eigenvalues --    2.36655   2.38706   2.40523   2.41682   2.44319
  Beta virt. eigenvalues --    2.44701   2.46706   2.49154   2.50272   2.50945
  Beta virt. eigenvalues --    2.54892   2.59368   2.60740   2.61634   2.62262
  Beta virt. eigenvalues --    2.64906   2.68639   2.69379   2.79083   2.86026
  Beta virt. eigenvalues --    2.87283   2.90067   2.92552   2.92883   2.95695
  Beta virt. eigenvalues --    2.96801   2.97994   3.03718   3.19490   3.25762
  Beta virt. eigenvalues --    3.49575   3.52699   3.54085   3.59973   3.60803
  Beta virt. eigenvalues --    3.63929   3.64923   3.67205   3.67464   3.67861
  Beta virt. eigenvalues --    3.70958   3.73594   3.78578   3.80478   3.85796
  Beta virt. eigenvalues --    3.86505   3.89089   3.90555   3.95635   3.98387
  Beta virt. eigenvalues --    4.02988   4.06459   4.08110   4.08796   4.13787
  Beta virt. eigenvalues --    4.17324   4.18044   4.20146   4.23313   4.23670
  Beta virt. eigenvalues --    4.31831   4.34688   4.36146   4.38714   4.39873
  Beta virt. eigenvalues --    4.40938   4.49716   4.55810   4.60661   4.66559
  Beta virt. eigenvalues --    4.68295   4.71918   4.74311   4.78707   4.84420
  Beta virt. eigenvalues --    4.86047   4.89390   4.89500   4.89940   4.91117
  Beta virt. eigenvalues --    4.92815   4.95998   4.97337   5.01355   5.05020
  Beta virt. eigenvalues --    5.05981   5.07841   5.09705   5.12344   5.14997
  Beta virt. eigenvalues --    5.17888   5.21041   5.23805   5.25586   5.26232
  Beta virt. eigenvalues --    5.26872   5.28699   5.29450   5.32294   5.33153
  Beta virt. eigenvalues --    5.33199   5.35780   5.38440   5.39110   5.39229
  Beta virt. eigenvalues --    5.40739   5.41239   5.73559   5.76092   6.22754
  Beta virt. eigenvalues --    6.88594   6.91254   6.92028   7.01512   7.06337
  Beta virt. eigenvalues --    7.14558  13.18724  13.20233  13.20883  13.65215
  Beta virt. eigenvalues --   13.70937  13.78488  36.48106
          Condensed to atoms (all electrons):
               1          2          3          4          5          6
     1  V   22.203375  -0.065932  -0.021924  -0.083070  -0.026243  -0.059020
     2  O   -0.065932   8.268159   0.322938  -0.109826  -0.001191  -0.043868
     3  H   -0.021924   0.322938   0.253979  -0.001203  -0.000011   0.001151
     4  O   -0.083070  -0.109826  -0.001203   8.526199   0.318680  -0.150278
     5  H   -0.026243  -0.001191  -0.000011   0.318680   0.284799   0.000607
     6  O   -0.059020  -0.043868   0.001151  -0.150278   0.000607   8.321912
     7  H   -0.017573  -0.004618   0.000018   0.004535  -0.000224   0.319230
     8  O   -0.071585   0.065094  -0.000400  -0.113149   0.001088  -0.093125
     9  H   -0.018779  -0.000546  -0.000025  -0.004299  -0.000056   0.005112
    10  O   -0.088307  -0.081846  -0.002706   0.087881  -0.000773  -0.129350
    11  H   -0.015920   0.002428  -0.000193  -0.000092   0.000012  -0.002382
    12  O   -0.066863   0.051155   0.001234  -0.123522  -0.001162   0.073881
    13  H   -0.026612  -0.003262   0.000019  -0.001206  -0.000059   0.000087
    14  H   -0.003852  -0.002138  -0.000001   0.004025   0.000037  -0.000866
    15  H   -0.018037  -0.001869  -0.000039   0.317980  -0.023098  -0.006472
    16  H   -0.015295   0.316483  -0.014710   0.000729  -0.000016  -0.009461
    17  H   -0.026915  -0.002353   0.000073  -0.000725  -0.000021   0.000320
    18  H   -0.019052   0.006046   0.000025  -0.009299   0.000021   0.316900
    19  H   -0.016441  -0.001194   0.000013   0.006079   0.000655  -0.012088
               7          8          9         10         11         12
     1  V   -0.017573  -0.071585  -0.018779  -0.088307  -0.015920  -0.066863
     2  O   -0.004618   0.065094  -0.000546  -0.081846   0.002428   0.051155
     3  H    0.000018  -0.000400  -0.000025  -0.002706  -0.000193   0.001234
     4  O    0.004535  -0.113149  -0.004299   0.087881  -0.000092  -0.123522
     5  H   -0.000224   0.001088  -0.000056  -0.000773   0.000012  -0.001162
     6  O    0.319230  -0.093125   0.005112  -0.129350  -0.002382   0.073881
     7  H    0.290722  -0.015146  -0.000306   0.006591  -0.000007  -0.001001
     8  O   -0.015146   8.278565   0.318479  -0.087141  -0.005896  -0.012727
     9  H   -0.000306   0.318479   0.271527  -0.011956   0.000554   0.005796
    10  O    0.006591  -0.087141  -0.011956   8.487017   0.316324  -0.155564
    11  H   -0.000007  -0.005896   0.000554   0.316324   0.276447  -0.003354
    12  O   -0.001001  -0.012727   0.005796  -0.155564  -0.003354   8.301416
    13  H    0.000013  -0.001623   0.000033  -0.000072  -0.000108   0.328513
    14  H   -0.000032  -0.008570   0.000609   0.000968   0.002464   0.302095
    15  H    0.000108  -0.001808  -0.000017  -0.000290  -0.000003   0.002089
    16  H   -0.000074  -0.000141   0.000011   0.004058  -0.000001  -0.003254
    17  H    0.000987  -0.001087  -0.000263   0.321928  -0.022916  -0.000513
    18  H   -0.017923   0.005271   0.000004  -0.004358  -0.000011  -0.000627
    19  H    0.003825   0.314842  -0.017400   0.004303   0.000098  -0.003565
              13         14         15         16         17         18
     1  V   -0.026612  -0.003852  -0.018037  -0.015295  -0.026915  -0.019052
     2  O   -0.003262  -0.002138  -0.001869   0.316483  -0.002353   0.006046
     3  H    0.000019  -0.000001  -0.000039  -0.014710   0.000073   0.000025
     4  O   -0.001206   0.004025   0.317980   0.000729  -0.000725  -0.009299
     5  H   -0.000059   0.000037  -0.023098  -0.000016  -0.000021   0.000021
     6  O    0.000087  -0.000866  -0.006472  -0.009461   0.000320   0.316900
     7  H    0.000013  -0.000032   0.000108  -0.000074   0.000987  -0.017923
     8  O   -0.001623  -0.008570  -0.001808  -0.000141  -0.001087   0.005271
     9  H    0.000033   0.000609  -0.000017   0.000011  -0.000263   0.000004
    10  O   -0.000072   0.000968  -0.000290   0.004058   0.321928  -0.004358
    11  H   -0.000108   0.002464  -0.000003  -0.000001  -0.022916  -0.000011
    12  O    0.328513   0.302095   0.002089  -0.003254  -0.000513  -0.000627
    13  H    0.249607  -0.015365  -0.000121   0.000011  -0.000019  -0.000026
    14  H   -0.015365   0.290806  -0.000003  -0.000026  -0.000062   0.000011
    15  H   -0.000121  -0.000003   0.268026   0.000855   0.000012   0.000309
    16  H    0.000011  -0.000026   0.000855   0.275625   0.000046   0.000025
    17  H   -0.000019  -0.000062   0.000012   0.000046   0.283337  -0.000098
    18  H   -0.000026   0.000011   0.000309   0.000025  -0.000098   0.269139
    19  H    0.000019  -0.000104  -0.000002  -0.000036  -0.000190  -0.000266
              19
     1  V   -0.016441
     2  O   -0.001194
     3  H    0.000013
     4  O    0.006079
     5  H    0.000655
     6  O   -0.012088
     7  H    0.003825
     8  O    0.314842
     9  H   -0.017400
    10  O    0.004303
    11  H    0.000098
    12  O   -0.003565
    13  H    0.000019
    14  H   -0.000104
    15  H   -0.000002
    16  H   -0.000036
    17  H   -0.000190
    18  H   -0.000266
    19  H    0.286200
          Atomic-Atomic Spin Densities.
               1          2          3          4          5          6
     1  V    2.179378  -0.014404  -0.007733  -0.032431  -0.011395  -0.022260
     2  O   -0.014404  -0.014572   0.005378   0.003512  -0.000000  -0.002324
     3  H   -0.007733   0.005378   0.009985   0.000159   0.000013  -0.000947
     4  O   -0.032431   0.003512   0.000159   0.009669   0.007639   0.000762
     5  H   -0.011395  -0.000000   0.000013   0.007639   0.011356   0.000421
     6  O   -0.022260  -0.002324  -0.000947   0.000762   0.000421  -0.005391
     7  H   -0.009730  -0.001123   0.000020  -0.000887   0.000005   0.007795
     8  O   -0.017857   0.001884  -0.000019   0.003200   0.002528   0.001685
     9  H   -0.007760  -0.000201  -0.000016  -0.001022  -0.000137  -0.000725
    10  O   -0.032003   0.003069   0.003622  -0.000859  -0.000291   0.003475
    11  H   -0.005859   0.000870  -0.000058  -0.000036   0.000003  -0.000952
    12  O   -0.012457   0.002248   0.000246   0.004068  -0.001422   0.000848
    13  H   -0.008172  -0.000684   0.000013   0.003048  -0.000085   0.000129
    14  H   -0.008591   0.000195  -0.000042  -0.001234  -0.000001  -0.000297
    15  H   -0.005062   0.001379  -0.000100   0.001784  -0.002115   0.000279
    16  H   -0.007451   0.005812  -0.002317   0.000066  -0.000063   0.001434
    17  H   -0.010842  -0.001688  -0.000085  -0.000373  -0.000011   0.002608
    18  H   -0.006586   0.001969   0.000005   0.005130   0.000870  -0.000808
    19  H   -0.008312  -0.000206   0.000007   0.001102   0.000636   0.002315
               7          8          9         10         11         12
     1  V   -0.009730  -0.017857  -0.007760  -0.032003  -0.005859  -0.012457
     2  O   -0.001123   0.001884  -0.000201   0.003069   0.000870   0.002248
     3  H    0.000020  -0.000019  -0.000016   0.003622  -0.000058   0.000246
     4  O   -0.000887   0.003200  -0.001022  -0.000859  -0.000036   0.004068
     5  H    0.000005   0.002528  -0.000137  -0.000291   0.000003  -0.001422
     6  O    0.007795   0.001685  -0.000725   0.003475  -0.000952   0.000848
     7  H    0.011002   0.000173  -0.000238   0.000885  -0.000094  -0.000061
     8  O    0.000173  -0.011942   0.003068   0.002339   0.000817  -0.000419
     9  H   -0.000238   0.003068   0.013363   0.003480   0.000173   0.001653
    10  O    0.000885   0.002339   0.003480   0.003038   0.002082   0.004448
    11  H   -0.000094   0.000817   0.000173   0.002082   0.010323   0.000650
    12  O   -0.000061  -0.000419   0.001653   0.004448   0.000650  -0.017427
    13  H    0.000007  -0.001429  -0.000004  -0.000033  -0.000135   0.007520
    14  H   -0.000017   0.001960   0.000435   0.000257   0.001134   0.004226
    15  H   -0.000063  -0.000562   0.000017  -0.000083   0.000002   0.000256
    16  H   -0.000098  -0.000093   0.000008  -0.001364   0.000021  -0.000200
    17  H    0.000617   0.000020   0.000484   0.007829  -0.002463   0.000019
    18  H   -0.002878   0.000193  -0.000008  -0.000819   0.000018  -0.000363
    19  H    0.001740   0.003958  -0.003060  -0.000809  -0.000064  -0.000808
              13         14         15         16         17         18
     1  V   -0.008172  -0.008591  -0.005062  -0.007451  -0.010842  -0.006586
     2  O   -0.000684   0.000195   0.001379   0.005812  -0.001688   0.001969
     3  H    0.000013  -0.000042  -0.000100  -0.002317  -0.000085   0.000005
     4  O    0.003048  -0.001234   0.001784   0.000066  -0.000373   0.005130
     5  H   -0.000085  -0.000001  -0.002115  -0.000063  -0.000011   0.000870
     6  O    0.000129  -0.000297   0.000279   0.001434   0.002608  -0.000808
     7  H    0.000007  -0.000017  -0.000063  -0.000098   0.000617  -0.002878
     8  O   -0.001429   0.001960  -0.000562  -0.000093   0.000020   0.000193
     9  H   -0.000004   0.000435   0.000017   0.000008   0.000484  -0.000008
    10  O   -0.000033   0.000257  -0.000083  -0.001364   0.007829  -0.000819
    11  H   -0.000135   0.001134   0.000002   0.000021  -0.002463   0.000018
    12  O    0.007520   0.004226   0.000256  -0.000200   0.000019  -0.000363
    13  H    0.009459  -0.002500  -0.000056  -0.000019   0.000015  -0.000016
    14  H   -0.002500   0.010104   0.000021   0.000012  -0.000088   0.000008
    15  H   -0.000056   0.000021   0.008211   0.000644   0.000002   0.000129
    16  H   -0.000019   0.000012   0.000644   0.007698   0.000006   0.000165
    17  H    0.000015  -0.000088   0.000002   0.000006   0.011153  -0.000127
    18  H   -0.000016   0.000008   0.000129   0.000165  -0.000127   0.014762
    19  H    0.000022  -0.000108  -0.000092  -0.000016   0.000008  -0.000242
              19
     1  V   -0.008312
     2  O   -0.000206
     3  H    0.000007
     4  O    0.001102
     5  H    0.000636
     6  O    0.002315
     7  H    0.001740
     8  O    0.003958
     9  H   -0.003060
    10  O   -0.000809
    11  H   -0.000064
    12  O   -0.000808
    13  H    0.000022
    14  H   -0.000108
    15  H   -0.000092
    16  H   -0.000016
    17  H    0.000008
    18  H   -0.000242
    19  H    0.011251
 Mulliken charges and spin densities:
               1          2
     1  V    1.458045   1.950473
     2  O   -0.713660  -0.008886
     3  H    0.461764   0.008132
     4  O   -0.669439   0.003297
     5  H    0.446954   0.007950
     6  O   -0.532289  -0.011953
     7  H    0.430875   0.007056
     8  O   -0.570942  -0.010496
     9  H    0.451521   0.009511
    10  O   -0.666707  -0.001738
    11  H    0.452557   0.006432
    12  O   -0.694025  -0.006977
    13  H    0.470172   0.007080
    14  H    0.430005   0.005475
    15  H    0.462382   0.004591
    16  H    0.445169   0.004246
    17  H    0.448456   0.007083
    18  H    0.453909   0.011404
    19  H    0.435252   0.007322
 Sum of Mulliken charges =   3.00000   2.00000
 Mulliken charges and spin densities with hydrogens summed into heavy atoms:
               1          2
     1  V    1.458045   1.950473
     2  O    0.193274   0.003492
     4  O    0.239897   0.015838
     6  O    0.352495   0.006506
     8  O    0.315831   0.006337
    10  O    0.234306   0.011777
    12  O    0.206152   0.005578
 APT charges:
               1
     1  V    2.078856
     2  O   -0.629715
     3  H    0.404787
     4  O   -0.576544
     5  H    0.356409
     6  O   -0.564984
     7  H    0.350188
     8  O   -0.573918
     9  H    0.363957
    10  O   -0.572998
    11  H    0.371159
    12  O   -0.613755
    13  H    0.408459
    14  H    0.365629
    15  H    0.378900
    16  H    0.379422
    17  H    0.359019
    18  H    0.362398
    19  H    0.352733
 Sum of APT charges =   3.00000
 APT charges with hydrogens summed into heavy atoms:
               1
     1  V    2.078856
     2  O    0.154494
     4  O    0.158765
     6  O    0.147601
     8  O    0.142772
    10  O    0.157179
    12  O    0.160333
 Electronic spatial extent (au):  <R**2>=            839.4276
 Charge=              3.0000 electrons
 Dipole moment (field-independent basis, Debye):
    X=              2.2980    Y=              3.7083    Z=             -1.0104  Tot=              4.4781
 Quadrupole moment (field-independent basis, Debye-Ang):
   XX=            -12.3988   YY=            -15.6724   ZZ=            -26.6328
   XY=             -4.0394   XZ=             -1.8771   YZ=             -0.7135
 Traceless Quadrupole moment (field-independent basis, Debye-Ang):
   XX=              5.8359   YY=              2.5623   ZZ=             -8.3982
   XY=             -4.0394   XZ=             -1.8771   YZ=             -0.7135
 Octapole moment (field-independent basis, Debye-Ang**2):
  XXX=             18.3296  YYY=             17.4634  ZZZ=              4.9990  XYY=              4.2531
  XXY=              9.1890  XXZ=              3.2195  XZZ=             -8.1227  YZZ=             -3.2871
  YYZ=            -14.6713  XYZ=             -3.2071
 Hexadecapole moment (field-independent basis, Debye-Ang**3):
 XXXX=           -169.0894 YYYY=           -175.0961 ZZZZ=           -214.9569 XXXY=            -21.1534
 XXXZ=              1.5024 YYYX=             -8.3519 YYYZ=             11.5793 ZZZX=            -17.1584
 ZZZY=            -14.7668 XXYY=            -47.4406 XXZZ=            -54.4923 YYZZ=            -51.4320
 XXYZ=             -0.3494 YYXZ=              3.1468 ZZXY=              2.2513
 N-N= 7.177007299513D+02 E-N=-4.707324821702D+03  KE= 1.399634801215D+03
  Exact polarizability:      51.689      -0.319      51.073      -0.902       0.091      47.147
 Approx polarizability:      71.301      -0.298      70.983      -1.806       0.132      64.332
                          Isotropic Fermi Contact Couplings
        Atom                 a.u.       MegaHertz       Gauss      10(-4) cm-1
     1  V(51)             -0.10628     -62.58805     -22.33297     -20.87713
     2  O(17)             -0.01550       4.69680       1.67593       1.56668
     3  H(1)               0.00533      11.90473       4.24790       3.97099
     4  O(17)              0.00053      -0.15943      -0.05689      -0.05318
     5  H(1)               0.00551      12.32075       4.39635       4.10976
     6  O(17)             -0.00421       1.27465       0.45483       0.42518
     7  H(1)               0.00482      10.76801       3.84229       3.59182
     8  O(17)             -0.00882       2.67347       0.95396       0.89177
     9  H(1)               0.00597      13.33750       4.75915       4.44891
    10  O(17)             -0.00433       1.31166       0.46803       0.43752
    11  H(1)               0.00451      10.08703       3.59930       3.36467
    12  O(17)             -0.01532       4.64310       1.65677       1.54877
    13  H(1)               0.00498      11.13385       3.97283       3.71385
    14  H(1)               0.00406       9.08073       3.24023       3.02900
    15  H(1)               0.00370       8.27388       2.95233       2.75987
    16  H(1)               0.00329       7.34963       2.62253       2.45157
    17  H(1)               0.00563      12.57897       4.48849       4.19589
    18  H(1)               0.00642      14.35226       5.12124       4.78740
    19  H(1)               0.00436       9.75119       3.47947       3.25265
 --------------------------------------------------------
       Center         ----  Spin Dipole Couplings  ----
                      3XX-RR        3YY-RR        3ZZ-RR
 --------------------------------------------------------
     1   Atom        0.741717      0.172124     -0.913841
[...]
    18  H    0.000000   0.000000  -0.000033  -0.000057  -0.000000   0.280621
    19  H    0.000002  -0.000000  -0.000000   0.000000  -0.000033  -0.000033
              19
     1  V   -0.009210
     2  O   -0.000532
     3  H    0.000000
     4  O    0.001800
     5  H   -0.000057
     6  O    0.002341
     7  H   -0.000033
     8  O    0.295032
     9  H   -0.014214
    10  O    0.001605
    11  H    0.000002
    12  O    0.000850
    13  H    0.000002
    14  H   -0.000000
    15  H   -0.000000
    16  H    0.000000
    17  H   -0.000033
    18  H   -0.000033
    19  H    0.280619
          Atomic-Atomic Spin Densities.
               1          2          3          4          5          6
     1  V    2.122181  -0.016187  -0.001788  -0.016233  -0.001888  -0.016179
     2  O   -0.016187  -0.001394   0.001769   0.003124  -0.000030   0.002674
     3  H   -0.001788   0.001769   0.002453   0.000056   0.000001  -0.000180
     4  O   -0.016233   0.003124   0.000056  -0.001243   0.001638   0.003121
     5  H   -0.001888  -0.000030   0.000001   0.001638   0.001753  -0.000077
     6  O   -0.016179   0.002674  -0.000180   0.003121  -0.000077  -0.001378
     7  H   -0.001892  -0.000233   0.000002  -0.000030  -0.000001   0.001644
     8  O   -0.016185  -0.000870  -0.000014   0.002651   0.000491   0.003142
     9  H   -0.001890  -0.000017  -0.000000  -0.000232  -0.000010  -0.000030
    10  O   -0.016234   0.002653   0.000047  -0.000867  -0.000017   0.002654
    11  H   -0.001888   0.000491   0.000016  -0.000017   0.000000  -0.000232
    12  O   -0.016180   0.003140   0.000217   0.002658  -0.000232  -0.000872
    13  H   -0.001892  -0.000078   0.000025   0.000493  -0.000010  -0.000017
    14  H   -0.001793   0.000056  -0.000012  -0.000181   0.000002  -0.000014
    15  H   -0.001787   0.000216  -0.000012   0.001769  -0.000779   0.000056
    16  H   -0.001889   0.001642  -0.000780  -0.000078  -0.000001   0.000490
    17  H   -0.001788  -0.000180  -0.000001  -0.000014  -0.000000   0.000046
    18  H   -0.001793   0.000047  -0.000001   0.000218   0.000025   0.001772
    19  H   -0.001789  -0.000014   0.000000   0.000047   0.000016   0.000217
               7          8          9         10         11         12
     1  V   -0.001892  -0.016185  -0.001890  -0.016234  -0.001888  -0.016180
     2  O   -0.000233  -0.000870  -0.000017   0.002653   0.000491   0.003140
     3  H    0.000002  -0.000014  -0.000000   0.000047   0.000016   0.000217
     4  O   -0.000030   0.002651  -0.000232  -0.000867  -0.000017   0.002658
     5  H   -0.000001   0.000491  -0.000010  -0.000017   0.000000  -0.000232
     6  O    0.001644   0.003142  -0.000030   0.002654  -0.000232  -0.000872
     7  H    0.001756  -0.000078  -0.000001   0.000492  -0.000010  -0.000017
     8  O   -0.000078  -0.001404   0.001642   0.003128  -0.000030   0.002671
     9  H   -0.000001   0.001642   0.001756  -0.000078  -0.000001   0.000490
    10  O    0.000492   0.003128  -0.000078  -0.001243   0.001638   0.003120
    11  H   -0.000010  -0.000030  -0.000001   0.001638   0.001754  -0.000077
    12  O   -0.000017   0.002671   0.000490   0.003120  -0.000077  -0.001376
    13  H    0.000000  -0.000233  -0.000010  -0.000030  -0.000001   0.001643
    14  H   -0.000000   0.000046   0.000016   0.000219   0.000025   0.001772
    15  H    0.000001  -0.000180   0.000002  -0.000014  -0.000000   0.000047
    16  H   -0.000010  -0.000017   0.000000  -0.000232  -0.000010  -0.000030
    17  H    0.000016   0.000216   0.000025   0.001769  -0.000779   0.000056
    18  H   -0.000781   0.000056   0.000001  -0.000181   0.000002  -0.000014
    19  H    0.000025   0.001770  -0.000780   0.000056   0.000001  -0.000180
              13         14         15         16         17         18
     1  V   -0.001892  -0.001793  -0.001787  -0.001889  -0.001788  -0.001793
     2  O   -0.000078   0.000056   0.000216   0.001642  -0.000180   0.000047
     3  H    0.000025  -0.000012  -0.000012  -0.000780  -0.000001  -0.000001
     4  O    0.000493  -0.000181   0.001769  -0.000078  -0.000014   0.000218
     5  H   -0.000010   0.000002  -0.000779  -0.000001  -0.000000   0.000025
     6  O   -0.000017  -0.000014   0.000056   0.000490   0.000046   0.001772
     7  H    0.000000  -0.000000   0.000001  -0.000010   0.000016  -0.000781
     8  O   -0.000233   0.000046  -0.000180  -0.000017   0.000216   0.000056
     9  H   -0.000010   0.000016   0.000002   0.000000   0.000025   0.000001
    10  O   -0.000030   0.000219  -0.000014  -0.000232   0.001769  -0.000181
    11  H   -0.000001   0.000025  -0.000000  -0.000010  -0.000779   0.000002
    12  O    0.001643   0.001772   0.000047  -0.000030   0.000056  -0.000014
    13  H    0.001755  -0.000780   0.000016  -0.000001   0.000001  -0.000000
    14  H   -0.000780   0.002456  -0.000001   0.000001  -0.000012   0.000000
    15  H    0.000016  -0.000001   0.002447   0.000025   0.000000  -0.000012
    16  H   -0.000001   0.000001   0.000025   0.001755   0.000002   0.000016
    17  H    0.000001  -0.000012   0.000000   0.000002   0.002447  -0.000001
    18  H   -0.000000   0.000000  -0.000012   0.000016  -0.000001   0.002456
    19  H    0.000002  -0.000001  -0.000001  -0.000000  -0.000012  -0.000012
              19
     1  V   -0.001789
     2  O   -0.000014
     3  H    0.000000
     4  O    0.000047
     5  H    0.000016
     6  O    0.000217
     7  H    0.000025
     8  O    0.001770
     9  H   -0.000780
    10  O    0.000056
    11  H    0.000001
    12  O   -0.000180
    13  H    0.000002
    14  H   -0.000001
    15  H   -0.000001
    16  H   -0.000000
    17  H   -0.000012
    18  H   -0.000012
    19  H    0.002453
 Mulliken charges and spin densities:
               1          2
     1  V    1.866104   2.002906
     2  O   -0.696545  -0.003192
     3  H    0.441864   0.001796
     4  O   -0.696588  -0.003120
     5  H    0.443693   0.000880
     6  O   -0.696677  -0.003164
     7  H    0.443645   0.000882
     8  O   -0.696547  -0.003198
     9  H    0.443728   0.000882
    10  O   -0.696559  -0.003120
    11  H    0.443689   0.000880
    12  O   -0.696666  -0.003162
    13  H    0.443641   0.000881
    14  H    0.441887   0.001796
    15  H    0.441933   0.001790
    16  H    0.443727   0.000882
    17  H    0.441927   0.001790
    18  H    0.441884   0.001796
    19  H    0.441860   0.001796
 Sum of Mulliken charges =   3.00000   2.00000
 Mulliken charges and spin densities with hydrogens summed into heavy atoms:
               1          2
     1  V    1.866104   2.002906
     2  O    0.189047  -0.000515
     4  O    0.189038  -0.000451
     6  O    0.188851  -0.000486
     8  O    0.189041  -0.000519
    10  O    0.189057  -0.000450
    12  O    0.188862  -0.000485
 Electronic spatial extent (au):  <R**2>=           1056.6175
 Charge=              3.0000 electrons
 Dipole moment (field-independent basis, Debye):
    X=             -0.0001    Y=             -0.0001    Z=             -0.0000  Tot=              0.0001
 Quadrupole moment (field-independent basis, Debye-Ang):
   XX=             -6.4076   YY=             -6.4095   ZZ=            -10.0799
   XY=              0.0012   XZ=             -0.0039   YZ=             -0.0078
 Traceless Quadrupole moment (field-independent basis, Debye-Ang):
   XX=              1.2247   YY=              1.2228   ZZ=             -2.4475
   XY=              0.0012   XZ=             -0.0039   YZ=             -0.0078
 Octapole moment (field-independent basis, Debye-Ang**2):
  XXX=             -0.0011  YYY=             -0.0066  ZZZ=             -0.0020  XYY=             -0.0028
  XXY=             -0.0013  XXZ=             -0.0002  XZZ=              0.0030  YZZ=              0.0064
  YYZ=              0.0021  XYZ=              0.0026
 Hexadecapole moment (field-independent basis, Debye-Ang**3):
 XXXX=           -163.1247 YYYY=           -162.7512 ZZZZ=           -227.6985 XXXY=              0.0546
 XXXZ=             26.6881 YYYX=             -0.1607 YYYZ=             34.9865 ZZZX=              0.0594
 ZZZY=             -0.4452 XXYY=            -54.4993 XXZZ=             -7.3620 YYZZ=             -7.6813
 XXYZ=            -34.6036 YYXZ=            -26.7767 ZZXY=              0.1031
 N-N= 6.371027410706D+02 E-N=-4.547076237400D+03  KE= 1.396871193240D+03
                          Isotropic Fermi Contact Couplings
        Atom                 a.u.       MegaHertz       Gauss      10(-4) cm-1
     1  V(51)             -0.04965     -29.23805     -10.43286      -9.75276
     2  O(17)             -0.01363       4.13234       1.47452       1.37840
     3  H(1)               0.00125       2.79069       0.99579       0.93087
     4  O(17)             -0.01359       4.11896       1.46975       1.37394
     5  H(1)               0.00070       1.55749       0.55575       0.51952
     6  O(17)             -0.01364       4.13437       1.47525       1.37908
     7  H(1)               0.00070       1.56119       0.55707       0.52076
     8  O(17)             -0.01364       4.13409       1.47515       1.37898
     9  H(1)               0.00070       1.56120       0.55707       0.52076
    10  O(17)             -0.01359       4.11983       1.47006       1.37423
    11  H(1)               0.00070       1.55731       0.55569       0.51946
    12  O(17)             -0.01364       4.13387       1.47507       1.37891
    13  H(1)               0.00070       1.55962       0.55651       0.52023
    14  H(1)               0.00125       2.79190       0.99622       0.93128
    15  H(1)               0.00125       2.78284       0.99299       0.92826
    16  H(1)               0.00070       1.55977       0.55657       0.52028
    17  H(1)               0.00125       2.78295       0.99303       0.92829
    18  H(1)               0.00125       2.79084       0.99584       0.93092
    19  H(1)               0.00125       2.79146       0.99606       0.93113
 --------------------------------------------------------
       Center         ----  Spin Dipole Couplings  ----
                      3XX-RR        3YY-RR        3ZZ-RR
 --------------------------------------------------------
     1   Atom        0.486523      0.486261     -0.972784
     2   Atom       -0.023031      0.032671     -0.009640
     3   Atom        0.013983     -0.006899     -0.007084
     4   Atom        0.010980     -0.001507     -0.009473
     5   Atom       -0.008189      0.000724      0.007465
     6   Atom        0.026355     -0.016999     -0.009356
     7   Atom        0.007295     -0.014842      0.007546
     8   Atom       -0.023025      0.032643     -0.009618
     9   Atom       -0.010409      0.002805      0.007604
    10   Atom        0.010972     -0.001513     -0.009459
    11   Atom       -0.008187      0.000725      0.007462
    12   Atom        0.026336     -0.016986     -0.009350
    13   Atom        0.007292     -0.014842      0.007550
    14   Atom        0.011112     -0.004042     -0.007071
    15   Atom       -0.014426      0.021605     -0.007179
    16   Atom       -0.010411      0.002798      0.007613
    17   Atom       -0.014427      0.021607     -0.007180
    18   Atom        0.011109     -0.004037     -0.007072
    19   Atom        0.013986     -0.006900     -0.007085
 --------------------------------------------------------
                        XY            XZ            YZ
 --------------------------------------------------------
     1   Atom       -0.002097      0.001286     -0.002511
     2   Atom        0.008837     -0.017581      0.023113
     3   Atom        0.014715     -0.013880     -0.006692
     4   Atom       -0.028609      0.029141      0.003462
     5   Atom       -0.010265     -0.011462      0.017264
     6   Atom        0.019677     -0.011443     -0.026841
     7   Atom        0.001327      0.020679      0.001356
     8   Atom        0.008847     -0.017571      0.023119
     9   Atom        0.008944     -0.009231     -0.018548
    10   Atom       -0.028608      0.029153      0.003453
    11   Atom       -0.010267     -0.011463      0.017264
    12   Atom        0.019680     -0.011437     -0.026856
    13   Atom        0.001330      0.020680      0.001359
    14   Atom       -0.016371      0.012763     -0.008657
    15   Atom        0.001664      0.001127      0.015281
    16   Atom        0.008941     -0.009232     -0.018548
    17   Atom        0.001664      0.001127      0.015281
    18   Atom       -0.016374      0.012761     -0.008659
    19   Atom        0.014716     -0.013880     -0.006691
 --------------------------------------------------------


 ---------------------------------------------------------------------------------
              Anisotropic Spin Dipole Couplings in Principal Axis System
 ---------------------------------------------------------------------------------

       Atom             a.u.   MegaHertz   Gauss  10(-4) cm-1        Axes

              Baa    -0.9728  -136.765   -48.801   -45.620 -0.0009  0.0017  1.0000
     1 V(51)  Bbb     0.4843    68.087    24.295    22.711  0.6851  0.7285 -0.0007
              Bcc     0.4885    68.678    24.506    22.909  0.7285 -0.6851  0.0018
 
              Baa    -0.0411     2.977     1.062     0.993  0.7354 -0.2811  0.6166
     2 O(17)  Bbb    -0.0017     0.124     0.044     0.041 -0.6774 -0.2824  0.6792
              Bcc     0.0429    -3.102    -1.107    -1.035  0.0168  0.9172  0.3981
 
              Baa    -0.0147    -7.830    -2.794    -2.612 -0.5602  0.7403 -0.3717
     3 H(1)   Bbb    -0.0136    -7.266    -2.593    -2.424  0.1405  0.5271  0.8381
              Bcc     0.0283    15.096     5.387     5.035  0.8164  0.4173 -0.3993
 
              Baa    -0.0413     2.989     1.067     0.997 -0.6136 -0.4946  0.6155
     4 O(17)  Bbb    -0.0018     0.133     0.048     0.044  0.0905  0.7303  0.6771
              Bcc     0.0432    -3.122    -1.114    -1.042  0.7844 -0.4712  0.4034
 
              Baa    -0.0149    -7.964    -2.842    -2.657  0.8532  0.5204  0.0355
     5 H(1)   Bbb    -0.0133    -7.073    -2.524    -2.359  0.3470 -0.6172  0.7061
              Bcc     0.0282    15.038     5.366     5.016 -0.3894  0.5901  0.7072
 
              Baa    -0.0412     2.982     1.064     0.995 -0.1234  0.7802  0.6132
     6 O(17)  Bbb    -0.0018     0.128     0.046     0.043  0.5855 -0.4417  0.6798
              Bcc     0.0430    -3.110    -1.110    -1.037  0.8012  0.4429 -0.4023
 
              Baa    -0.0149    -7.963    -2.842    -2.656 -0.0247  0.9990 -0.0375
     7 H(1)   Bbb    -0.0133    -7.074    -2.524    -2.360  0.7095 -0.0089 -0.7046
              Bcc     0.0282    15.037     5.366     5.016  0.7043  0.0441  0.7086
 
              Baa    -0.0411     2.977     1.062     0.993  0.7355 -0.2813  0.6164
     8 O(17)  Bbb    -0.0017     0.124     0.044     0.041 -0.6773 -0.2826  0.6792
              Bcc     0.0429    -3.101    -1.106    -1.034  0.0169  0.9170  0.3984
 
              Baa    -0.0149    -7.964    -2.842    -2.656  0.8771 -0.4791 -0.0351
     9 H(1)   Bbb    -0.0133    -7.072    -2.523    -2.359  0.3620  0.6112  0.7038
              Bcc     0.0282    15.035     5.365     5.015 -0.3158 -0.6299  0.7096
 
              Baa    -0.0413     2.989     1.067     0.997 -0.6138 -0.4946  0.6154
    10 O(17)  Bbb    -0.0018     0.134     0.048     0.045  0.0903  0.7304  0.6770
              Bcc     0.0432    -3.123    -1.114    -1.042  0.7843 -0.4711  0.4036
 
              Baa    -0.0149    -7.964    -2.842    -2.657  0.8532  0.5204  0.0355
    11 H(1)   Bbb    -0.0133    -7.074    -2.524    -2.360  0.3470 -0.6171  0.7062
              Bcc     0.0282    15.038     5.366     5.016 -0.3894  0.5902  0.7071
 
              Baa    -0.0412     2.982     1.064     0.995 -0.1235  0.7802  0.6133
    12 O(17)  Bbb    -0.0018     0.127     0.045     0.043  0.5859 -0.4415  0.6796
              Bcc     0.0430    -3.110    -1.110    -1.037  0.8010  0.4432 -0.4025
 
              Baa    -0.0149    -7.964    -2.842    -2.656 -0.0250  0.9990 -0.0375
    13 H(1)   Bbb    -0.0133    -7.074    -2.524    -2.360  0.7096 -0.0087 -0.7046
              Bcc     0.0282    15.038     5.366     5.016  0.7042  0.0442  0.7086
 
              Baa    -0.0147    -7.829    -2.794    -2.612  0.3610  0.8564  0.3692
    14 H(1)   Bbb    -0.0136    -7.268    -2.593    -2.424 -0.5257 -0.1401  0.8390
              Bcc     0.0283    15.097     5.387     5.036  0.7703 -0.4970  0.3996
 
              Baa    -0.0147    -7.830    -2.794    -2.612  0.9215  0.1141 -0.3712
    15 H(1)   Bbb    -0.0136    -7.268    -2.593    -2.424  0.3856 -0.3825  0.8397
              Bcc     0.0283    15.097     5.387     5.036  0.0462  0.9169  0.3964
 
              Baa    -0.0149    -7.964    -2.842    -2.656  0.8771 -0.4790 -0.0350
    16 H(1)   Bbb    -0.0133    -7.072    -2.523    -2.359  0.3620  0.6114  0.7036
              Bcc     0.0282    15.035     5.365     5.015 -0.3157 -0.6298  0.7097
 
              Baa    -0.0147    -7.830    -2.794    -2.612  0.9215  0.1140 -0.3711
    17 H(1)   Bbb    -0.0136    -7.268    -2.593    -2.424  0.3855 -0.3824  0.8397
              Bcc     0.0283    15.098     5.387     5.036  0.0462  0.9169  0.3964
 
              Baa    -0.0147    -7.830    -2.794    -2.612  0.3610  0.8563  0.3693
    18 H(1)   Bbb    -0.0136    -7.268    -2.593    -2.424 -0.5257 -0.1402  0.8390
              Bcc     0.0283    15.098     5.387     5.036  0.7702 -0.4971  0.3996
 
              Baa    -0.0147    -7.830    -2.794    -2.612 -0.5601  0.7404 -0.3716
    19 H(1)   Bbb    -0.0136    -7.266    -2.593    -2.424  0.1405  0.5270  0.8382
              Bcc     0.0283    15.096     5.387     5.035  0.8164  0.4173 -0.3992
 

 ---------------------------------------------------------------------------------

 No NMR shielding tensors so no spin-rotation constants.
 Leave Link  601 at Thu May 23 18:38:37 2024, MaxMem= 26843545600 cpu:              29.3 elap:               0.3
 (Enter /gpfs/fs1/soft/improv/software/custom-built/gaussian/g16/l9999.exe)
 Unable to Open any file for archive entry.
 1\1\GINC-I025\SP\UB3LYP\Gen\H12O6V1(3+,3)\HHARB\23-May-2024\0\\#p B3LY
 P empiricaldispersion=gd3 scf=(maxcycles=500,xqc,maxconventional=50) s
 crf=(cpcm,solvent=water) geom=allcheck guess=read chkbasis\\Title\\3,3
 \V,-0.7848216793,0.7129434545,0.0317806541\O,-1.2875349565,2.668029973
 1,-0.3001977585\H,-1.5578108971,3.063748851,-1.1508900497\O,1.18852744
 29,1.2507960564,0.0790941606\H,1.9368128604,0.6877585334,0.3557102085\
 O,-0.8908851068,1.0063233289,2.0537098639\H,-1.6314254154,0.754798255,
 2.6383449555\O,-0.2822778298,-1.2421613846,0.3639119244\H,-0.232912673
 9,-1.9504729527,-0.3064054257\O,-2.7581361504,0.1750232589,-0.01563873
 8\H,-3.5064248374,0.7380147888,-0.2923389812\O,-0.6786003409,0.4197049
 112,-1.990152089\H,0.0620782474,0.6711937468,-2.5746272215\H,-1.340961
 013,-0.0294873399,-2.5494590156\H,1.5664253834,2.1055942479,-0.2034464
 047\H,-1.3371823166,3.3762068737,0.3702412709\H,-3.1360172723,-0.67977
 30408,0.266928921\H,-0.228461622,1.4556210825,2.6128588006\H,-0.011909
 3927,-1.6377828741,1.2146203341\\Version=ES64L-G16RevC.02\State=3-A\HF
 =-1402.2810236\S2=2.004765\S2-1=0.\S2A=2.000013\RMSD=8.436e-09\Dipole=
 -0.0000077,-0.0000302,0.0000323\Quadrupole=-0.5697377,0.2616476,0.3080
 901,0.9789507,0.9431967,-0.6256758\PG=C01 [X(H12O6V1)]\\@
 The archive entry for this job was punched.


 CHILDREN YOU ARE VERY LITTLE,
 AND YOUR BONES ARE VERY BRITTLE;
 IF YOU WOULD GROW GREAT AND STATELY
 YOU MUST TRY TO WALK SEDATELY.
 YOU MUST STILL BE BRIGHT AND QUIET,
 AND CONTENT WITH SIMPLE DIET;
 AND REMAIN, THROUGH ALL BEWILD'RING
 INNOCENT AND HONEST CHILDREN.
     -- A CHILD'S GARDEN OF VERSE,
        ROBERT LOUIS STEVENSON
 Job cpu time:       0 days  0 hours 56 minutes 31.5 seconds.
 Elapsed time:       0 days  0 hours  0 minutes 30.6 seconds.
 File lengths (MBytes):  RWF=    120 Int=      0 D2E=      0 Chk=     32 Scr=      1
 Normal termination of Gaussian 16 at Thu May 23 18:38:37 2024.
