19
Fe_2_OPBE.log	Energy: -1080609.0770884
Fe         0.00063       -0.00122        0.00002
O         -1.93441       -0.91065        0.49260
H         -2.56712       -1.31420       -0.11444
O         -0.97206        1.95711       -0.12173
H         -0.61050        2.76361       -0.51073
O          0.39614        0.33031        2.08540
H          0.90463       -0.24369        2.67297
O          1.92800        0.92387       -0.49419
H          2.28329        1.05530       -1.38222
O          0.97400       -1.95909        0.12337
H          1.85411       -2.18777       -0.20293
O         -0.39557       -0.33379       -2.08526
H         -0.90722        0.24003       -2.67037
H         -0.21214       -1.14139       -2.58285
H         -1.85832        2.18088        0.18947
H         -2.28709       -1.04490        1.38093
H          0.61732       -2.76349        0.52124
H          0.21508        1.14017        2.58010
H          2.58278        1.28516        0.11684
