19
Fe_2_OVWN5.log	Energy: -1082508.2723728
Fe         0.00002        0.00000        0.00001
O          0.00145        2.04870        0.91137
H          0.00103        2.25404        1.85329
O         -2.27294        0.00246       -0.00175
H         -2.85334       -0.61254       -0.46463
O          0.00270        0.93356       -1.99684
H          0.77633        1.21297       -2.50045
O         -0.00155       -2.04869       -0.91138
H         -0.00269       -2.89490       -0.44966
O          2.27295       -0.00250        0.00175
H          2.85338        0.61233        0.46485
O         -0.00269       -0.93355        1.99684
H         -0.77636       -1.21296        2.50039
H          0.76946       -1.21483        2.50168
H         -2.85273        0.61881        0.46012
H          0.00307        2.89490        0.44962
H          2.85270       -0.61862       -0.46041
H         -0.76948        1.21484       -2.50163
H         -0.00129       -2.25399       -1.85331
