19
Fe_2_PBE.log	Energy: -1080142.3268669
Fe         0.00008        0.00022        0.00002
O         -1.92796        0.53759       -0.77368
H         -2.73309        0.73342       -0.26010
O         -0.56639       -2.07205       -0.02786
H         -0.11039       -2.80487        0.42569
O          0.76744       -0.18193       -1.95833
H          1.22837        0.51379       -2.46382
O          1.92786       -0.53819        0.77357
H          2.16275       -0.62054        1.71617
O          0.56630        2.07233        0.02793
H          1.32020        2.46327        0.50694
O         -0.76749        0.18154        1.95834
H         -1.22847       -0.51475        2.46300
H         -0.82764        1.00326        2.48100
H         -1.32140       -2.46258       -0.50545
H         -2.16300        0.61925       -1.71630
H          0.11127        2.80483       -0.42712
H          0.82740       -1.00421       -2.48014
H          2.73382       -0.73070        0.26002
