19
Fe_2_TPSSh.log	Energy: -1080603.5092659
Fe        -0.00001        0.00001       -0.00000
O          1.72390        0.81497        0.97594
H          1.85772        0.88354        1.93333
O         -0.91753        1.94327       -0.00587
H         -1.69026        2.21566       -0.52339
O          0.90599        0.42075       -1.86044
H          1.51583       -0.15629       -2.34541
O         -1.72385       -0.81508       -0.97596
H         -2.51375       -1.18249       -0.55153
O          0.91754       -1.94325        0.00590
H          1.69044       -2.21551        0.52322
O         -0.90600       -0.42075        1.86044
H         -1.51571        0.15632        2.34553
H         -0.85278       -1.25643        2.34923
H         -0.63664        2.71684        0.50580
H          2.51342        1.18320        0.55148
H          0.63657       -2.71690       -0.50562
H          0.85265        1.25635       -2.34936
H         -1.85753       -0.88386       -1.93335
