19
Fe_2_wB97X-D.log	Energy: -1080546.4155114
Fe         0.00005        0.00000        0.00001
O         -0.17083       -1.18495        1.75140
H         -0.98746       -1.40446        2.21311
O          2.13346       -0.33055       -0.01514
H          2.61409       -0.94248       -0.58249
O         -0.28415       -1.77527       -1.16739
H         -0.29752       -1.82528       -2.12914
O          0.17069        1.18499       -1.75138
H         -0.54715        1.64534       -2.19974
O         -2.13344        0.33048        0.01515
H         -2.61407        0.94275        0.58212
O          0.28415        1.77531        1.16736
H          0.29713        1.82542        2.12908
H          0.42285        2.66734        0.83168
H          2.78423        0.10546        0.54498
H          0.54686       -1.64533        2.19997
H         -2.78421       -0.10597       -0.54463
H         -0.42223       -2.66743       -0.83173
H          0.98718        1.40461       -2.21328
