19
Fe_2_wB97.log	Energy: -1080617.3228954
Fe        -0.00000       -0.00000       -0.00000
O         -0.00613        1.55643        1.44893
H         -0.00814        2.50538        1.26795
O          2.16888        0.00341        0.00510
H          2.74628       -0.42123       -0.64193
O         -0.00145       -1.48411        1.51570
H         -0.78005       -1.90056        1.90787
O          0.00615       -1.55644       -1.44893
H          0.00793       -1.44491       -2.40848
O         -2.16888       -0.00341       -0.00511
H         -2.74187       -0.43005       -0.65474
O          0.00145        1.48412       -1.51570
H          0.78007        1.90056       -1.90786
H         -0.77661        1.89691       -1.91280
H          2.74186        0.43009        0.65472
H         -0.00789        1.44490        2.40849
H         -2.74628        0.42119        0.64196
H          0.77662       -1.89690        1.91279
H          0.00808       -2.50538       -1.26795
