19
Fe_2_O3LYP.log	Energy: -1080623.7847683
Fe        -0.00243       -0.00052        0.00015
O         -0.63940        1.85997        0.95245
H         -0.69197        2.02510        1.90127
O         -2.08236       -0.70109       -0.02464
H         -2.43392       -1.44693       -0.52490
O         -0.28576        0.93716       -1.91517
H          0.36532        1.46412       -2.39407
O          0.63586       -1.86014       -0.95405
H          0.90095       -2.67750       -0.51635
O          2.08287        0.69593        0.02474
H          2.43289        1.45527        0.50547
O          0.29503       -0.93050        1.91669
H         -0.34596       -1.45935        2.40697
H          1.11876       -0.95191        2.41860
H         -2.82362       -0.32699        0.46636
H         -0.93374        2.66714        0.51310
H          2.82633        0.30640       -0.44998
H         -1.10272        0.96746       -2.42755
H          0.70103       -2.01994       -1.90283
