19
Fe_2_wB97X.log	Energy: -1080558.1713554
Fe        -0.00010       -0.00002        0.00014
O         -0.31292       -1.68043        1.28218
H         -0.33733       -1.66498        2.24596
O          2.13505       -0.33223        0.07704
H          2.79742        0.06256       -0.50148
O         -0.14207       -1.31118       -1.66062
H         -0.94931       -1.55646       -2.12792
O          0.31250        1.67969       -1.28307
H          0.45498        2.59274       -1.00776
O         -2.13501        0.33308       -0.07642
H         -2.79747       -0.06084        0.50259
O          0.14270        1.31113        1.66064
H          0.95042        1.55628        2.12719
H         -0.58225        1.80576        2.06066
H          2.60579       -0.90421        0.69389
H         -0.45685       -2.59294        1.00582
H         -2.60557        0.90475       -0.69368
H          0.58332       -1.80567       -2.05998
H          0.33749        1.66308       -2.24682
