19
Fe_2_bpw91.log	Energy: -1080647.9393083
Fe        -0.00001        0.00001       -0.00001
O         -1.98019        0.49362       -0.71660
H         -2.25066        0.55941       -1.64974
O          0.52605        2.10079       -0.00555
H          1.28989        2.51019        0.43878
O         -0.70810        0.18275        1.99444
H         -1.14021       -0.51530        2.51943
O          1.98014       -0.49368        0.71664
H          2.76768       -0.69140        0.17913
O         -0.52600       -2.10080        0.00551
H         -1.28987       -2.51024       -0.43871
O          0.70812       -0.18269       -1.99443
H          1.14024        0.51538       -2.51939
H          0.76049       -1.00493       -2.51482
H          0.04476        2.81990       -0.45245
H         -2.76768        0.69137       -0.17912
H         -0.04464       -2.81988        0.45239
H         -0.76049        1.00500        2.51478
H          2.25058       -0.55949        1.64981
