19
Fe_2_M06-2X.log	Energy: -1080481.2033782
Fe        -0.00015        0.00004       -0.00004
O         -0.98185        1.48125        1.18979
H         -1.06199        2.42046        0.97994
O          1.76053        0.12281        1.20728
H          2.61580       -0.28004        1.01029
O         -0.78663       -1.57243        1.21561
H         -1.56152       -2.11317        1.01641
O          0.98106       -1.48101       -1.19044
H          1.44291       -1.33541       -2.02576
O         -1.76119       -0.12185       -1.20658
H         -1.85936       -0.60500       -2.03676
O          0.78848        1.57129       -1.21571
H          1.56343        2.11155       -1.01539
H          0.42773        1.89016       -2.05265
H          1.85788        0.60567        2.03778
H         -1.44332        1.33604        2.02539
H         -2.61670        0.27994       -1.00830
H         -0.42438       -1.89128        2.05191
H          1.06015       -2.42052       -0.98157
