43
 energy: -86.199108692926 gnorm: 0.237459876865 xtb: 6.6.0 (conda-forge)
C            1.90291913000000       -0.62481259000000       -0.72100786000000
C            0.46823365000000       -0.84591405000000       -0.20441685000000
C           -0.32965864000000        0.22226706000000        0.00147855000000
C           -1.77004234000000        0.04069683000000        0.30520519000000
O           -2.38901112000000        1.10096485000000        0.54119338000000
C           -2.32791022000000       -1.37041986000000        0.28198818000000
C           -1.45007842000000       -2.39211896000000        0.06177788000000
O           -0.00365272000000       -2.19164622000000        0.07018450000000
O            0.02731574000000        1.41660868000000       -0.03581056000000
H            2.54825749000000       -1.39519616000000       -0.34646259000000
H            1.90681962000000       -0.64837324000000       -1.79234946000000
H            2.25057533000000        0.32366208000000       -0.38140372000000
H           -3.37269632000000       -1.55320062000000        0.42533868000000
H           -1.83626616000000       -3.37727803000000       -0.11402132000000
Fe          -1.35205911000000        2.60305210000000        0.26402418000000
C            1.76834571000000        5.43515442000000       -1.79767827000000
C            0.43711554000000        4.91396284000000       -2.36755477000000
C           -0.34076501000000        4.10695614000000       -1.60396722000000
C           -1.48800678000000        3.39111322000000       -2.20549308000000
O           -2.12604167000000        2.67116445000000       -1.40788379000000
C           -1.75247307000000        3.57736163000000       -3.68917831000000
C           -0.92651125000000        4.42718471000000       -4.38168838000000
O            0.03591986000000        5.29801014000000       -3.71509061000000
O           -0.18495959000000        3.86766208000000       -0.38955540000000
H            2.54390894000000        4.71758275000000       -1.99224589000000
H            2.01869535000000        6.36959853000000       -2.26319449000000
H            1.66898436000000        5.57780942000000       -0.74227151000000
H           -2.55169510000000        3.05274271000000       -4.18064806000000
H           -0.99097416000000        4.46055648000000       -5.45054881000000
C           -0.49490954000000        2.61863228000000        4.88644799000000
C           -1.78791897000000        2.94323562000000        4.11788717000000
C           -1.75200517000000        3.08603051000000        2.77827509000000
C           -2.90576278000000        3.64608787000000        2.05347542000000
O           -2.68843740000000        3.74595368000000        0.84802759000000
C           -4.13123552000000        4.07637625000000        2.84628124000000
C           -4.09532246000000        3.86033036000000        4.19434124000000
O           -3.04112329000000        3.08013026000000        4.84201107000000
O           -0.79918526000000        2.79504855000000        2.01665037000000
H           -0.55632924000000        3.01273401000000        5.88027024000000
H           -0.36785559000000        1.55846519000000        4.93219134000000
H            0.33937836000000        3.05777060000000        4.38296856000000
H           -4.97844676000000        4.53932906000000        2.37075276000000
H           -4.86923891000000        4.27242759000000        4.80417075000000
43
 energy: -86.259613254777 gnorm: 0.123255675277 xtb: 6.6.0 (conda-forge)
C            1.88388723430181       -0.65622892128075       -0.70819368289352
C            0.46112505749190       -0.86713514977953       -0.20662212593020
C           -0.34560810450948        0.20638169087914        0.00907157260653
C           -1.76956765926017        0.02520737337476        0.33777743492821
O           -2.39426443804771        1.08945644929126        0.57600713020389
C           -2.29743735279754       -1.33971227322954        0.27951906779081
C           -1.42885492977032       -2.35752829475919        0.06322887577975
O           -0.02570262100696       -2.19488837420916        0.00562957035567
O            0.01034691514944        1.42410193123800       -0.08212950830799
H            2.55483253377533       -1.42184337070350       -0.33978813863973
H            1.90067723135047       -0.66065485717501       -1.79414948934021
H            2.22272514030986        0.31420011506893       -0.36837915588788
H           -3.35098351490470       -1.53459891018642        0.40904906536073
H           -1.78756824522459       -3.36635580916486       -0.08663181306651
Fe          -1.38143983079340        2.61645278590041        0.25457843941962
C            1.74988680924186        5.44589228732427       -1.82881885156710
C            0.43767070380822        4.91932835759155       -2.38893358785928
C           -0.35259531115871        4.11881757317920       -1.62063524312434
C           -1.48952658396716        3.40824868102706       -2.22767737726919
O           -2.10160771306299        2.63802826705343       -1.44789016558156
C           -1.73463013324810        3.59577747506848       -3.65564148346415
C           -0.91862160553610        4.43316363713343       -4.34327580593690
O            0.06795666503195        5.24089044849102       -3.73598991260133
O           -0.19545529366115        3.89737285050407       -0.37815792376354
H            2.53993655940671        4.72012013674084       -2.00354814013663
H            2.02365389522076        6.38964350230102       -2.28310277732889
H            1.64325743389166        5.57318725603581       -0.75807900949596
H           -2.51997437885517        3.05164648398425       -4.16201004758272
H           -0.97678667412492        4.50256855466800       -5.41974667205306
C           -0.52962634587780        2.61757816240960        4.89920555911253
C           -1.80035637833253        2.95831469752168        4.13540695298434
C           -1.77399269318651        3.07728920696034        2.78322264723520
C           -2.92801939009823        3.63803669966192        2.06128707820480
O           -2.74942481691520        3.72793060835110        0.83013720328304
C           -4.08524780761427        4.07276399777651        2.84827571879462
C           -4.05918860122185        3.84967291854472        4.18301792334404
O           -3.02416351463412        3.15478442633458        4.85060009213150
O           -0.79468976385216        2.78083938851559        2.02077412912008
H           -0.56716809271871        3.01711526087631        5.90437038172502
H           -0.37808670288060        1.54569349550776        4.94207632193743
H            0.30955638215640        3.05615157730176        4.37114955275240
H           -4.94124264524680        4.53752708369247        2.37894219847976
H           -4.84778490862841        4.22246580017871        4.81854441628071
43
 energy: -86.289701533719 gnorm: 0.054158045164 xtb: 6.6.0 (conda-forge)
C            1.85925572739251       -0.69146742573968       -0.69372222983628
C            0.45214777833992       -0.88747555670899       -0.20474052244346
C           -0.36150332538868        0.19252998414015        0.00642988667402
C           -1.77321759935935        0.01118005786702        0.35631203174305
O           -2.41103859390138        1.07414876572350        0.60068358540574
C           -2.26671064955813       -1.31070417991058        0.28872658037840
C           -1.39913094157791       -2.32702379711116        0.06122161455701
O           -0.05397311425870       -2.19103057234752       -0.06049609072954
O            0.00377618894640        1.41969418231414       -0.14627402881818
H            2.55130970107471       -1.44950558823745       -0.32984468347627
H            1.89678131763527       -0.68177220042954       -1.78999329138418
H            2.18994819979370        0.29522422402688       -0.35844826614676
H           -3.32551259083660       -1.52347654982539        0.40160981792491
H           -1.72475345888893       -3.35848758516894       -0.05866352138662
Fe          -1.40543269920627        2.62347383896425        0.24688965964578
C            1.72805806183879        5.45609413629201       -1.86531765864076
C            0.43183498992820        4.93016830257262       -2.40944940015220
C           -0.37499186663006        4.14263950515956       -1.63181750170114
C           -1.48824208638785        3.41578886035455       -2.24677402833214
O           -2.08441177943971        2.60416038583479       -1.48373032041663
C           -1.70452562014841        3.59937719929724       -3.62628422864869
C           -0.89141490997976        4.43814058810192       -4.31026042724895
O            0.10522252807939        5.17370025745149       -3.75745995527683
O           -0.21784655036484        3.95554195514819       -0.36673763007704
H            2.53531435574229        4.73023645089147       -2.02120622707498
H            2.02281110159634        6.40655980612849       -2.30606973879949
H            1.61586204975605        5.56861186489156       -0.78436122017842
H           -2.48966616261535        3.05937080818403       -4.14610614736338
H           -0.95684882210500        4.56640633774350       -5.38917530814518
C           -0.57098117873389        2.61952002912666        4.91125085404280
C           -1.81650984974317        2.97597228225254        4.15130462564028
C           -1.79272328751162        3.07450950380349        2.78806391759838
C           -2.94251277765013        3.63790267418910        2.07027442122041
O           -2.80527433227147        3.71139557536497        0.81503469991472
C           -4.03933695557112        4.06409073834358        2.84832857995544
C           -4.01461092991155        3.84384970923047        4.18362102680299
O           -3.00596834309576        3.23618366092123        4.85687793596509
O           -0.78969786092707        2.75601449838530        2.04130035145038
H           -0.58416143500273        3.01794957039701        5.92528268695724
H           -0.39818908259132        1.54013912420007        4.95339747450820
H            0.27595450598058        3.04994201895226        4.36781721414755
H           -4.90495330014775        4.53241606934306        2.39086946268854
H           -4.81823989229957        4.16571370988211        4.84410641905618
43
 energy: -86.299788992176 gnorm: 0.054418477318 xtb: 6.6.0 (conda-forge)
C            1.85470793277757       -0.72167405809452       -0.69175315483949
C            0.44525052681924       -0.89489477897570       -0.23091528940435
C           -0.36751096748281        0.19198420991410       -0.02443908304467
C           -1.77066494786803        0.00769041167047        0.36574554967052
O           -2.41895996888220        1.06161421986821        0.62314500224733
C           -2.25380700511591       -1.31743955456166        0.30033922277217
C           -1.38214364309940       -2.33320960669868        0.06113777354695
O           -0.05583832705040       -2.19345407290569       -0.13217575944822
O            0.00519337499603        1.41300043004322       -0.19673109555385
H            2.53350068844125       -1.48526101972946       -0.31385487693379
H            1.90835682763037       -0.71647908938190       -1.78812728338615
H            2.17504347176575        0.26549958326126       -0.34992107800360
H           -3.30823445930961       -1.53602383988266        0.42007612032878
H           -1.69035707999205       -3.37305998832629       -0.02147879066128
Fe          -1.41662231554985        2.62409040066814        0.24043657460402
C            1.72328477229515        5.47548327280217       -1.89049314162044
C            0.43594284024162        4.93681237744068       -2.41936214246445
C           -0.39190848476651        4.17267279728029       -1.63023846420817
C           -1.47611686996545        3.40968917312910       -2.25805124315065
O           -2.07318874413722        2.58286636685304       -1.51052558384772
C           -1.68396234933064        3.60735827582085       -3.63864568796775
C           -0.86750233950262        4.45390482558908       -4.31791073539277
O            0.17155039978075        5.12518671397982       -3.78300740330396
O           -0.25022223016394        4.01820801649987       -0.35847322149038
H            2.53526499358612        4.75369439721133       -2.04468523847909
H            2.01171889188584        6.42519294361461       -2.33791976943188
H            1.59900093634525        5.58727858373778       -0.81188458689220
H           -2.46813945797847        3.07410772131185       -4.16178535274179
H           -0.95018634670864        4.62633165598670       -5.38929779372280
C           -0.59335269738670        2.61930416720645        4.93326475024129
C           -1.81715674504905        2.99947396684004        4.16492783817631
C           -1.79934458474363        3.07079283156055        2.79385188445878
C           -2.95306040463826        3.62609111311509        2.07561240506332
O           -2.84455292104388        3.68959349314418        0.81347082771619
C           -4.03323248945836        4.06782679385680        2.86873062317948
C           -4.00184677675411        3.85444405113271        4.20957657499781
O           -2.97095474400804        3.31729043183713        4.89139185035833
O           -0.79555972640209        2.72645581076207        2.06131952948477
H           -0.60683161913979        3.02145801136599        5.94632076424747
H           -0.44073948505302        1.53657813863739        4.97989468946260
H            0.25822903318715        3.03268611530464        4.38456447829495
H           -4.90079380948141        4.53164266199800        2.41640234813929
H           -4.81835663968992        4.13289526511294        4.87393838899906
43
 energy: -86.305257548813 gnorm: 0.030747889720 xtb: 6.6.0 (conda-forge)
C            1.85314772661865       -0.74683989665639       -0.69536271475011
C            0.43093462646559       -0.88598540080209       -0.26570742223414
C           -0.37639805845146        0.21407399495832       -0.06962749569665
C           -1.77263887403629        0.02380101610509        0.35003103860315
O           -2.43675818281147        1.05533238481681        0.63571742289823
C           -2.24242938365531       -1.31894641418397        0.31742126635709
C           -1.37051784977003       -2.33314164165564        0.05941409105221
O           -0.06046819618861       -2.17762286530352       -0.19253735894312
O            0.00946971441729        1.42056788188794       -0.24914160257313
H            2.49911122350886       -1.52463808157617       -0.28872511992914
H            1.93314869097075       -0.76155908048129       -1.78886325945152
H            2.17623862511849        0.23484584146115       -0.35167973109937
H           -3.28710826318271       -1.54453796601655        0.47144249802570
H           -1.66090973931156       -3.37824435351916        0.01714503597235
Fe          -1.43356881356750        2.61896847665764        0.23375158401515
C            1.71861065578468        5.49730760527229       -1.90638480925014
C            0.43558123935660        4.92912475208638       -2.41273507503288
C           -0.40772229107060        4.18514215968216       -1.60917610245743
C           -1.46622424342005        3.39275098626925       -2.25030366735534
O           -2.07542256626247        2.56017244085601       -1.52891775385769
C           -1.66329995002732        3.60729755012506       -3.64356952054042
C           -0.83765619306634        4.45227502469218       -4.31779392923419
O            0.21799364580651        5.07696773690337       -3.77963059229034
O           -0.29069858588297        4.07869648039659       -0.33493310252505
H            2.54089899326467        4.79267183931347       -2.07377992235618
H            1.97865267156493        6.44739236978439       -2.37015919431448
H            1.59673483002022        5.61378209494563       -0.83183391891943
H           -2.45395205887854        3.09442026988467       -4.16974673720588
H           -0.93776108555481        4.67346585608610       -5.37742986993275
C           -0.61034401464507        2.61793277450572        4.95265489121011
C           -1.81132236344919        3.01816315840975        4.16005035672494
C           -1.79557341036740        3.05574641478715        2.78039645406729
C           -2.95187710351075        3.60704082329445        2.06287716571029
O           -2.87585269429327        3.67219790883999        0.80347972616043
C           -4.02825759266544        4.06018232900892        2.87736938086307
C           -3.98267409339978        3.87349387040368        4.22458940313089
O           -2.93119207261331        3.38465263772015        4.90145470218549
O           -0.79514050119387        2.68259397043151        2.07047305460043
H           -0.64179197219047        3.02661852635206        5.96148781223090
H           -0.49390003726099        1.53189062519377        5.01196894808570
H            0.25730433842472        3.00554980350071        4.41547342289666
H           -4.90109546385672        4.51165882772271        2.43100294706937
H           -4.79937481673752        4.12244048783970        4.89230811808996
43
 energy: -86.303721096297 gnorm: 0.018785851543 xtb: 6.6.0 (conda-forge)
C            1.85737847516626       -0.77384792951995       -0.70389855742250
C            0.42031698270131       -0.89475315974011       -0.30536349252753
C           -0.38154881391893        0.21534746026272       -0.12036226703156
C           -1.77114355547437        0.01567553093262        0.32228895084094
O           -2.44580737120179        1.03118958491325        0.63095948269203
C           -2.23176604663903       -1.33619564412920        0.33847946516394
C           -1.36430665458312       -2.34828409464750        0.06079060284494
O           -0.06769988011297       -2.17721918216527       -0.23446324781566
O            0.01285757615342        1.41302774204037       -0.30344076847045
H            2.46759555905742       -1.56451290172418       -0.26331528449355
H            1.96952670787367       -0.81335594174765       -1.79354345980043
H            2.19080839256219        0.20268398718613       -0.36334169821601
H           -3.26698571575888       -1.56352935063975        0.54338207311132
H           -1.64185891461391       -3.39384920578683        0.04766569388981
Fe          -1.45062938802437        2.61735258542995        0.22474189450561
C            1.71892635773226        5.52666092208257       -1.91934014991728
C            0.44291719758569        4.93184601432962       -2.42261831035375
C           -0.41186730490186        4.20406481035757       -1.61275842270484
C           -1.45516541725025        3.39803780153425       -2.26617395079515
O           -2.07463762355633        2.56289725395957       -1.56304449062912
C           -1.64831550046465        3.61869491076610       -3.66353125062821
C           -0.80938949987490        4.45171640483216       -4.33374513422911
O            0.25098800780552        5.04765345689863       -3.78590323079411
O           -0.32662507975746        4.14177393330324       -0.33496290786274
H            2.55556478960971        4.84459229076405       -2.10331484346825
H            1.94441311499144        6.48006076347991       -2.39641136445316
H            1.60675027216930        5.64674195835959       -0.84664877798991
H           -2.44871410971287        3.12324783320618       -4.18804327758866
H           -0.90968748080374        4.69517758204549       -5.38205533345463
C           -0.62188398921079        2.61509585629449        4.97934413943955
C           -1.80990418177227        3.04118318781365        4.17464707264177
C           -1.79641580776764        3.05524683843409        2.79211448874630
C           -2.95664014443871        3.60742881573782        2.07924894223184
O           -2.90981875142444        3.66124053292366        0.82097523036706
C           -4.03782257888278        4.05292314165131        2.89730682428137
C           -3.97405555534497        3.90330831920200        4.24867203699765
O           -2.90916792722807        3.43880496026790        4.91282986999256
O           -0.80703091522341        2.64364306345521        2.09376875285396
H           -0.67014346407929        3.02895322549203        5.98435436754340
H           -0.54671782915713        1.52546690131723        5.04848565503892
H            0.26837018969761        2.97304093361272        4.46051989669279
H           -4.92151450274609        4.47734346037506        2.44878359335257
H           -4.78325310918055        4.14112856683928        4.91939160741831
43
 energy: -86.305779625182 gnorm: 0.025535722989 xtb: 6.6.0 (conda-forge)
C            1.86139009020322       -0.79281894315461       -0.71558151605412
C            0.41402763463299       -0.90053904073336       -0.33679125249021
C           -0.38358403377763        0.21387917235217       -0.15112614361657
C           -1.76959732619860        0.00842598998040        0.30118036379827
O           -2.45070330999992        1.01639644386099        0.61223090292072
C           -2.22387002294489       -1.34543423252033        0.34716995800232
C           -1.36342219877556       -2.35946962875076        0.06401528254932
O           -0.07025897462820       -2.18398640270050       -0.24786540292689
O            0.01401392246414        1.40965520233259       -0.32933193317273
H            2.44872465288688       -1.58830389310124       -0.25260288366699
H            1.99502187981902       -0.85074695403144       -1.80090147030764
H            2.20795203662341        0.18026927713700       -0.38033194072010
H           -3.25205787658053       -1.56939508659629        0.59786793260409
H           -1.63781323121735       -3.40562452357937        0.07117863691395
Fe          -1.46060233231892        2.61316646603742        0.21690772226414
C            1.71726350612036        5.55223777903851       -1.91997047433999
C            0.44781912949500        4.93327570295618       -2.42230305335192
C           -0.41156392379817        4.20982479974564       -1.61384077670023
C           -1.45788765080175        3.41134684056499       -2.27164245393832
O           -2.08937120570514        2.58046246910525       -1.57693587873202
C           -1.64652704471436        3.63067262038042       -3.67080001483389
C           -0.79280830325115        4.44515467867126       -4.34436323491345
O            0.27044445864226        5.03829488240689       -3.78903211553643
O           -0.34039395504091        4.15861946758380       -0.33983132611087
H            2.56781428602631        4.89065856578014       -2.11401801926408
H            1.91434621705172        6.51032192456947       -2.40239408302555
H            1.61509393365814        5.67625296566965       -0.84734280885456
H           -2.45497516811400        3.14386176292336       -4.19281342856454
H           -0.88248991497016        4.68190195926600       -5.39104050231438
C           -0.62712478299911        2.61088049441355        4.99764022763696
C           -1.80449512052654        3.05349643639640        4.18021997160058
C           -1.79404066723252        3.05321717911794        2.79684825409325
C           -2.95918113676334        3.60379378996001        2.08750113221804
O           -2.92580102025374        3.65245529940518        0.83185913291853
C           -4.04376017901349        4.04646732627978        2.90453371236973
C           -3.97028774802518        3.92712198176587        4.25783174156278
O           -2.89659615517407        3.46848351740173        4.91885673277738
O           -0.81529324100996        2.62192191321373        2.09890656477410
H           -0.68252483611904        3.03257993601266        5.99921984993892
H           -0.57962480048554        1.52070309686289        5.07573312802419
H            0.27931405169798        2.94596232349238        4.49326246483696
H           -4.93698992149721        4.44719766633361        2.44983756788352
H           -4.77368320738412        4.17506199415003        4.93052985374778
43
 energy: -86.307820151852 gnorm: 0.051734475697 xtb: 6.6.0 (conda-forge)
C            1.87257197939566       -0.84008503375932       -0.74664847324356
C            0.39906924694264       -0.92019079244134       -0.41997582739691
C           -0.38575625738917        0.20378545929565       -0.22699761833315
C           -1.76260909212672       -0.01956909422760        0.24585615489006
O           -2.46272686288923        0.96888107156856        0.55458255366869
C           -2.20043826702065       -1.37459235434513        0.36467748179815
C           -1.36141822400487       -2.39479273588836        0.07172182347602
O           -0.07614852552151       -2.21047960399182       -0.27048897138515
O            0.01961017824776        1.39675084968962       -0.39055715690605
H            2.39995962583370       -1.64473528828534       -0.22596496043039
H            2.06285365666541       -0.94588133396179       -1.81753021158468
H            2.25616289910035        0.12348319170545       -0.42473778387027
H           -3.21041419574947       -1.58352013740080        0.73301692246496
H           -1.62795887559877       -3.43862351790419        0.12129096300021
Fe          -1.49070729931917        2.60270430051201        0.19542524409854
C            1.71735680189624        5.61397511925026       -1.92238993073510
C            0.46343715499269        4.93704600123743       -2.42489465867440
C           -0.40745850883273        4.22599828422875       -1.62289863091396
C           -1.46618781380593        3.45315552046538       -2.29322612541049
O           -2.13582595605483        2.63876538840549       -1.61981619399627
C           -1.64188554548858        3.66355204833549       -3.69564927394375
C           -0.74959351736256        4.42655901946800       -4.37940058872178
O            0.31680408351942        5.02260732963794       -3.79792267415073
O           -0.37612752087780        4.20341970900077       -0.36206104730543
H            2.60182216359962        5.00645146194369       -2.14569892162756
H            1.83949681121256        6.58497761875627       -2.41560613993136
H            1.64613375306511        5.74813229287235       -0.84893001842974
H           -2.47386365435640        3.19802800961560       -4.20851795434138
H           -0.81123544415251        4.64408901000342       -5.42374044005827
C           -0.63840352257558        2.60261672570747        5.04719318726377
C           -1.79037191736302        3.08688909952892        4.20009240162266
C           -1.78831607705745        3.05291484603328        2.81799284849291
C           -2.96879166305135        3.60038895097850        2.12000081610425
O           -2.97209857525393        3.63354166701788        0.87298690191773
C           -4.06323784015822        4.03265198191974        2.93110205840236
C           -3.96650674418996        3.98989639559067        4.28606764229343
O           -2.86882805751226        3.53598474195031        4.93397521046993
O           -0.84246145935766        2.56748007691100        2.11793718636767
H           -0.71042719117417        3.04325789458794        6.04046151539426
H           -0.66161425979563        1.51327548409015        5.14381210127672
H            0.30793902986450        2.88003673529622        4.58389591053520
H           -4.98136807743945        4.36945638730937        2.45720145140150
H           -4.75453992885556        4.26942043929205        4.96683364645142
43
 energy: -86.308893737182 gnorm: 0.039186272864 xtb: 6.6.0 (conda-forge)
C            1.86835811725703       -0.85067650550113       -0.75503280458292
C            0.40046964607263       -0.92042291089182       -0.42198283799772
C           -0.38802753156627        0.20310276432808       -0.23003347658367
C           -1.76496820536040       -0.01712054692298        0.24778329899728
O           -2.46758871819164        0.97249176295050        0.55390933129801
C           -2.19717740701332       -1.37464404717582        0.37633415280356
C           -1.35315249695007       -2.39365379222350        0.08289311460120
O           -0.07055998111975       -2.20868754475729       -0.27941547353799
O            0.01514816165966        1.39680968639036       -0.39970422948088
H            2.39970248694430       -1.65013059133358       -0.23195991993288
H            2.05536142400317       -0.96313996701203       -1.82640023906132
H            2.24737382433662        0.11682986125917       -0.43990717420189
H           -3.20587362514840       -1.58514924471432        0.71508398810311
H           -1.61710493426807       -3.44096259026688        0.13676332446203
Fe          -1.49286867760217        2.60022512115121        0.19408406607638
C            1.70754080023835        5.62599267601888       -1.92409078354996
C            0.45929699770252        4.94121265492556       -2.42116415085127
C           -0.41086453395618        4.22581034602683       -1.61732527948925
C           -1.46476667086131        3.44714105273683       -2.29115809191785
O           -2.13680995719409        2.63347267158471       -1.61811329465408
C           -1.63365286513703        3.66165006393944       -3.69474649863163
C           -0.73883217402977        4.42509600857678       -4.37384772308946
O            0.31418954420998        5.02301100501418       -3.79394752743995
O           -0.38119482592072        4.20670394277666       -0.35013982777661
H            2.59591354040713        5.02438944282059       -2.14922339602916
H            1.82717149068700        6.59899089634694       -2.41064517034155
H            1.63362118976823        5.75238803332196       -0.84987914314656
H           -2.46095390832319        3.19740819095400       -4.21361206762136
H           -0.78821807941230        4.63804871812092       -5.42184082086403
C           -0.64786738188678        2.60180945259426        5.05078518909297
C           -1.79372301575651        3.08206932066428        4.19807143956955