 Entering Gaussian System, Link 0=g16
 Input=V_3_HSE06.com
 Output=V_3_HSE06.log
 Initial command:
 /gpfs/fs1/soft/improv/software/custom-built/gaussian/g16/l1.exe "/scratch/Gau-177938.inp" -scrdir="/scratch/"
 Default CPUs for threads: 0-127
 Default linda workers: i511.lcrc.anl.gov
 Default is to use 128 SMP processors on each worker.
 Entering Link 1 = /gpfs/fs1/soft/improv/software/custom-built/gaussian/g16/l1.exe PID=    177939.
  
 Copyright (c) 1988-2021, Gaussian, Inc.  All Rights Reserved.
  
 This is part of the Gaussian(R) 16 program.  It is based on
 the Gaussian(R) 09 system (copyright 2009, Gaussian, Inc.),
 the Gaussian(R) 03 system (copyright 2003, Gaussian, Inc.),
 the Gaussian(R) 98 system (copyright 1998, Gaussian, Inc.),
 the Gaussian(R) 94 system (copyright 1995, Gaussian, Inc.),
 the Gaussian 92(TM) system (copyright 1992, Gaussian, Inc.),
 the Gaussian 90(TM) system (copyright 1990, Gaussian, Inc.),
 the Gaussian 88(TM) system (copyright 1988, Gaussian, Inc.),
 the Gaussian 86(TM) system (copyright 1986, Carnegie Mellon
 University), and the Gaussian 82(TM) system (copyright 1983,
 Carnegie Mellon University). Gaussian is a federally registered
 trademark of Gaussian, Inc.
  
 This software contains proprietary and confidential information,
 including trade secrets, belonging to Gaussian, Inc.
  
 This software is provided under written license and may be
 used, copied, transmitted, or stored only in accord with that
 written license.
  
 The following legend is applicable only to US Government
 contracts under FAR:
  
                    RESTRICTED RIGHTS LEGEND
  
 Use, reproduction and disclosure by the US Government is
 subject to restrictions as set forth in subparagraphs (a)
 and (c) of the Commercial Computer Software - Restricted
 Rights clause in FAR 52.227-19.
  
 Gaussian, Inc.
 340 Quinnipiac St., Bldg. 40, Wallingford CT 06492
  
  
 ---------------------------------------------------------------
 Warning -- This program may not be used in any manner that
 competes with the business of Gaussian, Inc. or will provide
 assistance to any competitor of Gaussian, Inc.  The licensee
 of this program is prohibited from giving any competitor of
 Gaussian, Inc. access to this program.  By using this program,
 the user acknowledges that Gaussian, Inc. is engaged in the
 business of creating and licensing software in the field of
 computational chemistry and represents and warrants to the
 licensee that it is not a competitor of Gaussian, Inc. and that
 it will not use this program in any manner prohibited above.
 ---------------------------------------------------------------
  

 Cite this work as:
 Gaussian 16, Revision C.02,
 M. J. Frisch, G. W. Trucks, H. B. Schlegel, G. E. Scuseria, 
 M. A. Robb, J. R. Cheeseman, G. Scalmani, V. Barone, 
 G. A. Petersson, H. Nakatsuji, X. Li, M. Caricato, A. V. Marenich, 
 J. Bloino, B. G. Janesko, R. Gomperts, B. Mennucci, H. P. Hratchian, 
 J. V. Ortiz, A. F. Izmaylov, J. L. Sonnenberg, D. Williams-Young, 
 F. Ding, F. Lipparini, F. Egidi, J. Goings, B. Peng, A. Petrone, 
 T. Henderson, D. Ranasinghe, V. G. Zakrzewski, J. Gao, N. Rega, 
 G. Zheng, W. Liang, M. Hada, M. Ehara, K. Toyota, R. Fukuda, 
 J. Hasegawa, M. Ishida, T. Nakajima, Y. Honda, O. Kitao, H. Nakai, 
 T. Vreven, K. Throssell, J. A. Montgomery, Jr., J. E. Peralta, 
 F. Ogliaro, M. J. Bearpark, J. J. Heyd, E. N. Brothers, K. N. Kudin, 
 V. N. Staroverov, T. A. Keith, R. Kobayashi, J. Normand, 
 K. Raghavachari, A. P. Rendell, J. C. Burant, S. S. Iyengar, 
 J. Tomasi, M. Cossi, J. M. Millam, M. Klene, C. Adamo, R. Cammi, 
 J. W. Ochterski, R. L. Martin, K. Morokuma, O. Farkas, 
 J. B. Foresman, and D. J. Fox, Gaussian, Inc., Wallingford CT, 2019.
 
 ******************************************
 Gaussian 16:  ES64L-G16RevC.02  7-Dec-2021
                23-May-2024 
 ******************************************
 %chk=V_3_HSE06.chk
 SetSPE:  set environment variable "OMP_PROC_BIND" = "true"
 SetSPE:  set environment variable "OMP_PLACES" = "{0},{1},{2},{3},{4},{5},{6},{7},{8},{9},{10},{11},{12},{13},{14},{15},{16},{17},{18},{19},{20},{21},{22},{23},{24},{25},{26},{27},{28},{29},{30},{31},{32},{33},{34},{35},{36},{37},{38},{39},{40},{41},{42},{43},{44},{45},{46},{47},{48},{49},{50},{51},{52},{53},{54},{55},{56},{57},{58},{59},{60},{61},{62},{63},{64},{65},{66},{67},{68},{69},{70},{71},{72},{73},{74},{75},{76},{77},{78},{79},{80},{81},{82},{83},{84},{85},{86},{87},{88},{89},{90},{91},{92},{93},{94},{95},{96},{97},{98},{99},{100},{101},{102},{103},{104},{105},{106},{107},{108},{109},{110},{111},{112},{113},{114},{115},{116},{117},{118},{119},{120},{121},{122},{123},{124},{125},{126},{127}"
 SetLPE:    new flags="-opt 'Tsnet.Node.lindarsharg: ssh'  -nodelist 'i511.lcrc.anl.gov' -env GAUSS_MDEF=26843545600 -env GAUSS_EXEDIR="/gpfs/fs1/soft/improv/software/custom-built/gaussian/g16/bsd:/gpfs/fs1/soft/improv/software/custom-built/gaussian/g16" -env "OMP_PROC_BIND=true" -env "OMP_PLACES={0},{1},{2},{3},{4},{5},{6},{7},{8},{9},{10},{11},{12},{13},{14},{15},{16},{17},{18},{19},{20},{21},{22},{23},{24},{25},{26},{27},{28},{29},{30},{31},{32},{33},{34},{35},{36},{37},{38},{39},{40},{41},{42},{43},{44},{45},{46},{47},{48},{49},{50},{51},{52},{53},{54},{55},{56},{57},{58},{59},{60},{61},{62},{63},{64},{65},{66},{67},{68},{69},{70},{71},{72},{73},{74},{75},{76},{77},{78},{79},{80},{81},{82},{83},{84},{85},{86},{87},{88},{89},{90},{91},{92},{93},{94},{95},{96},{97},{98},{99},{100},{101},{102},{103},{104},{105},{106},{107},{108},{109},{110},{111},{112},{113},{114},{115},{116},{117},{118},{119},{120},{121},{122},{123},{124},{125},{126},{127}" -env GAUSS_ADEF="0,1,2,3,4,5,6,7,8,9,10,11,12,13,14,15,16,17,18,19,20,21,22,23,24,25,26,27,28,29,30,31,32,33,34,35,36,37,38,39,40,41,42,43,44,45,46,47,48,49,50,51,52,53,54,55,56,57,58,59,60,61,62,63,64,65,66,67,68,69,70,71,72,73,74,75,76,77,78,79,80,81,82,83,84,85,86,87,88,89,90,91,92,93,94,95,96,97,98,99,100,101,102,103,104,105,106,107,108,109,110,111,112,113,114,115,116,117,118,119,120,121,122,123,124,125,126,127""
 Will use up to    1 processors via Linda.
 ----------------------------------------------------------------------
 #p HSEH1PBE 6-31+G(2df,p) opt=(cartesian,calcall,maxcycles=500) freq s
 cf=(maxcycles=500,xqc,maxconventional=50)
 ----------------------------------------------------------------------
 1/6=500,10=4,18=10,26=3,38=1/1,3;
 2/12=2,17=6,18=5,29=2,40=1/2;
 3/5=1,6=6,7=114,11=2,25=1,30=1,71=2,74=-51,140=1/1,2,3;
 4//1;
 5/5=2,7=500,8=3,13=1,38=5,85=50/2,8;
 8/6=4,10=90,11=11/1;
 11/6=1,8=1,9=11,15=111,16=1/1,2,10;
 10/6=1/2;
 6/7=2,8=2,9=2,10=2,18=1,28=1/1;
 7/7=1,10=1,25=1/1,2,3,16;
 1/6=500,10=4,18=10,26=3/3(3);
 2/29=1/2;
 7/7=1,8=1,9=1,25=1,44=-1/16;
 99/12=1/99;
 2/29=1/2;
 3/5=1,6=6,7=114,11=2,25=1,30=1,71=2,74=-51,140=1/1,2,3;
 4/5=5,16=3,69=1/1;
 5/5=2,7=500,8=3,13=1,38=5,85=50/2,8;
 8/6=4,10=90,11=11/1;
 11/6=1,8=1,9=11,15=111,16=1/1,2,10;
 10/6=1/2;
 7/7=1,10=1,25=1/1,2,3,16;
 1/6=500,10=4,18=10,26=3/3(-8);
 2/29=1/2;
 6/7=2,8=2,9=2,10=2,18=1,19=2,28=1/1;
 7/7=1,8=1,9=1,25=1,44=-1/16;
 99/12=1/99;
 Leave Link    1 at Thu May 23 17:53:49 2024, MaxMem=           0 cpu:               7.1 elap:               0.1
 (Enter /gpfs/fs1/soft/improv/software/custom-built/gaussian/g16/l101.exe)
 -----
 Title
 -----
 Symbolic Z-matrix:
 Charge =  3 Multiplicity = 3
 V                    -0.79304   0.81881  -0.09491 
 O                    -1.20497   2.57394  -0.35687 
 H                    -2.12106   2.64974  -0.63312 
 O                     0.99012   1.19063  -0.05794 
 H                     1.42696   0.5998    0.55971 
 O                    -0.81752   1.03069   1.71365 
 H                    -1.02108   0.1906    2.13133 
 O                    -0.38507  -0.93351   0.17118 
 H                    -1.15682  -1.47369  -0.01433 
 O                    -2.57341   0.45178  -0.12186 
 H                    -2.77756  -0.08744  -0.88929 
 O                    -0.76966   0.60461  -1.90111 
 H                     0.09872   0.83457  -2.23949 
 H                    -0.96534  -0.30999  -2.11742 
 H                     1.12208   2.09943   0.22124 
 H                    -1.07671   3.0584    0.46184 
 H                    -2.81407  -0.02398   0.6765 
 H                     0.0422    1.33615   2.01181 
 H                    -0.11532  -1.06446   1.08312 
 
 ITRead=  0  0  0  0  0  0  0  0  0  0  0  0  0  0  0  0  0  0  0
 MicOpt= -1 -1 -1 -1 -1 -1 -1 -1 -1 -1 -1 -1 -1 -1 -1 -1 -1 -1 -1
 NAtoms=     19 NQM=       19 NQMF=       0 NMMI=      0 NMMIF=      0
                NMic=       0 NMicF=      0.
                    Isotopes and Nuclear Properties:
 (Nuclear quadrupole moments (NQMom) in fm**2, nuclear magnetic moments (NMagM)
  in nuclear magnetons)

  Atom         1           2           3           4           5           6           7           8           9          10
 IAtWgt=          51          16           1          16           1          16           1          16           1          16
 AtmWgt=  50.9439625  15.9949146   1.0078250  15.9949146   1.0078250  15.9949146   1.0078250  15.9949146   1.0078250  15.9949146
 NucSpn=           7           0           1           0           1           0           1           0           1           0
 AtZEff=  -0.0000000  -0.0000000  -0.0000000  -0.0000000  -0.0000000  -0.0000000  -0.0000000  -0.0000000  -0.0000000  -0.0000000
 NQMom=   -5.2000000   0.0000000   0.0000000   0.0000000   0.0000000   0.0000000   0.0000000   0.0000000   0.0000000   0.0000000
 NMagM=    5.1514000   0.0000000   2.7928460   0.0000000   2.7928460   0.0000000   2.7928460   0.0000000   2.7928460   0.0000000
 AtZNuc=  23.0000000   8.0000000   1.0000000   8.0000000   1.0000000   8.0000000   1.0000000   8.0000000   1.0000000   8.0000000

  Atom        11          12          13          14          15          16          17          18          19
 IAtWgt=           1          16           1           1           1           1           1           1           1
 AtmWgt=   1.0078250  15.9949146   1.0078250   1.0078250   1.0078250   1.0078250   1.0078250   1.0078250   1.0078250
 NucSpn=           1           0           1           1           1           1           1           1           1
 AtZEff=  -0.0000000  -0.0000000  -0.0000000  -0.0000000  -0.0000000  -0.0000000  -0.0000000  -0.0000000  -0.0000000
 NQMom=    0.0000000   0.0000000   0.0000000   0.0000000   0.0000000   0.0000000   0.0000000   0.0000000   0.0000000
 NMagM=    2.7928460   0.0000000   2.7928460   2.7928460   2.7928460   2.7928460   2.7928460   2.7928460   2.7928460
 AtZNuc=   1.0000000   8.0000000   1.0000000   1.0000000   1.0000000   1.0000000   1.0000000   1.0000000   1.0000000
 Leave Link  101 at Thu May 23 17:53:49 2024, MaxMem= 26843545600 cpu:               0.4 elap:               0.0
 (Enter /gpfs/fs1/soft/improv/software/custom-built/gaussian/g16/l103.exe)

 GradGradGradGradGradGradGradGradGradGradGradGradGradGradGradGradGradGrad
 Berny optimization.
 Initialization pass.
 No Z-matrix variables, so optimization will use Cartesian coordinates.
 Trust Radius=3.00D-01 FncErr=1.00D-07 GrdErr=1.00D-06 EigMax=2.50D+02 EigMin=1.00D-04
 Number of steps in this run=    114 maximum allowed number of steps=    114.
 GradGradGradGradGradGradGradGradGradGradGradGradGradGradGradGradGradGrad

 Leave Link  103 at Thu May 23 17:53:50 2024, MaxMem= 26843545600 cpu:               0.4 elap:               0.1
 (Enter /gpfs/fs1/soft/improv/software/custom-built/gaussian/g16/l202.exe)
 ---------------------------------------------------------------------------------------------------
                            Z-MATRIX (ANGSTROMS AND DEGREES)
   CD    Cent   Atom    N1       Length/X        N2       Alpha/Y        N3        Beta/Z          J
 ---------------------------------------------------------------------------------------------------
      1      1  V        0  -0.793037          0.818805         -0.094905
      2      2  O        0  -1.204971          2.573941         -0.356874
      3      3  H        0  -2.121063          2.649743         -0.633122
      4      4  O        0   0.990122          1.190635         -0.057941
      5      5  H        0   1.426962          0.599798          0.559707
      6      6  O        0  -0.817519          1.030691          1.713650
      7      7  H        0  -1.021079          0.190602          2.131326
      8      8  O        0  -0.385068         -0.933506          0.171177
      9      9  H        0  -1.156817         -1.473692         -0.014327
     10     10  O        0  -2.573405          0.451778         -0.121857
     11     11  H        0  -2.777557         -0.087440         -0.889285
     12     12  O        0  -0.769659          0.604612         -1.901109
     13     13  H        0   0.098725          0.834573         -2.239490
     14     14  H        0  -0.965336         -0.309994         -2.117418
     15     15  H        0   1.122081          2.099426          0.221242
     16     16  H        0  -1.076711          3.058396          0.461841
     17     17  H        0  -2.814074         -0.023981          0.676500
     18     18  H        0   0.042204          1.336153          2.011809
     19     19  H        0  -0.115315         -1.064459          1.083123
 ---------------------------------------------------------------------------------------------------
                         Z-Matrix orientation:                         
 ---------------------------------------------------------------------
 Center     Atomic      Atomic             Coordinates (Angstroms)
 Number     Number       Type             X           Y           Z
 ---------------------------------------------------------------------
      1         23           0       -0.793037    0.818805   -0.094905
      2          8           0       -1.204971    2.573941   -0.356874
      3          1           0       -2.121063    2.649743   -0.633122
      4          8           0        0.990122    1.190635   -0.057941
      5          1           0        1.426962    0.599798    0.559707
      6          8           0       -0.817519    1.030691    1.713650
      7          1           0       -1.021079    0.190602    2.131326
      8          8           0       -0.385068   -0.933506    0.171177
      9          1           0       -1.156817   -1.473692   -0.014327
     10          8           0       -2.573405    0.451778   -0.121857
     11          1           0       -2.777557   -0.087440   -0.889285
     12          8           0       -0.769659    0.604612   -1.901109
     13          1           0        0.098725    0.834573   -2.239490
     14          1           0       -0.965336   -0.309994   -2.117418
     15          1           0        1.122081    2.099426    0.221242
     16          1           0       -1.076711    3.058396    0.461841
     17          1           0       -2.814074   -0.023981    0.676500
     18          1           0        0.042204    1.336153    2.011809
     19          1           0       -0.115315   -1.064459    1.083123
 ---------------------------------------------------------------------
                    Distance matrix (angstroms):
                    1          2          3          4          5
     1  V    0.000000
     2  O    1.821762   0.000000
     3  H    2.325008   0.959835   0.000000
     4  O    1.821889   2.611767   3.484150   0.000000
     5  H    2.324839   3.415322   4.267739   0.959899   0.000000
     6  O    1.821090   2.611285   3.134947   2.536076   2.560263
     7  H    2.324381   3.450400   3.859988   3.136540   2.937743
     8  O    1.818745   3.640503   4.062050   2.540791   2.405292
     9  H    2.322579   4.062387   4.279649   3.421971   3.362259
    10  O    1.818006   2.536025   2.301533   3.639880   4.060711
    11  H    2.321775   3.136788   2.826442   4.064482   4.499984
    12  O    1.819010   2.540161   2.759827   2.614866   3.298603
    13  H    2.322657   2.875634   3.286750   2.383386   3.107223
    14  H    2.322591   3.387332   3.506977   3.212032   3.703756
    15  H    2.325429   2.444290   3.398642   0.959822   1.567289
    16  H    2.325125   0.959918   1.567358   2.833814   3.510364
    17  H    2.321626   3.225876   3.056824   4.060370   4.288255
    18  H    2.324547   2.949275   3.660724   2.281137   2.137375
    19  H    2.322443   4.061883   4.556733   2.758526   2.328591
                    6          7          8          9         10
     6  O    0.000000
     7  H    0.960021   0.000000
     8  O    2.534622   2.347406   0.000000
     9  H    3.061530   2.718847   0.960108   0.000000
    10  O    2.605257   2.748593   2.606473   2.392848   0.000000
    11  H    3.444886   3.505227   2.750347   2.305222   0.959885
    12  O    3.640099   4.061422   2.609231   2.833582   2.538227
    13  H    4.062670   4.557707   3.028445   3.443229   3.430916
    14  H    4.061572   4.278496   2.441955   2.411193   2.673658
    15  H    2.670492   3.447487   3.387136   4.244531   4.060675
    16  H    2.397039   3.318813   4.061790   4.557738   3.061904
    17  H    2.484803   2.318921   2.642472   2.307685   0.960023
    18  H    0.959858   1.567527   2.953276   3.665802   3.489421
    19  H    2.297892   1.869309   0.959980   1.567353   3.129403
                   11         12         13         14         15
    11  H    0.000000
    12  O    2.352526   0.000000
    13  H    3.308498   0.959935   0.000000
    14  H    2.200452   0.959991   1.567533   0.000000
    15  H    4.606825   3.212091   2.949969   3.953725   0.000000
    16  H    3.822919   3.420362   3.691102   4.243941   2.410850
    17  H    1.567497   3.349453   4.210050   3.362383   4.495491
    18  H    4.288824   4.062660   4.281159   4.558009   2.225950
    19  H    3.454344   3.481323   3.833001   3.396353   3.504877
                   16         17         18         19
    16  H    0.000000
    17  H    3.544793   0.000000
    18  H    2.573032   3.433851   0.000000
    19  H    4.278809   2.920828   2.578800   0.000000
 Stoichiometry    H12O6V(3+,3)
 Framework group  C1[X(H12O6V)]
 Deg. of freedom    51
 Full point group                 C1      NOp   1
 Largest Abelian subgroup         C1      NOp   1
 Largest concise Abelian subgroup C1      NOp   1
                         Standard orientation:                         
 ---------------------------------------------------------------------
 Center     Atomic      Atomic             Coordinates (Angstroms)
 Number     Number       Type             X           Y           Z
 ---------------------------------------------------------------------
      1         23           0       -0.020930   -0.030851    0.010117
      2          8           0       -0.320881   -1.688468   -0.683537
      3          1           0       -1.137136   -1.681045   -1.188468
      4          8           0        1.254385   -0.678558    1.138536
      5          1           0        1.942922   -0.019835    1.254320
      6          8           0        1.297591    0.293740   -1.203355
      7          1           0        1.381168    1.240413   -1.339237
      8          8           0        0.279591    1.625972    0.697472
      9          1           0       -0.432419    2.214852    0.436571
     10          8           0       -1.286602    0.614727   -1.124100
     11          1           0       -2.035606    0.937335   -0.617843
     12          8           0       -1.338715   -0.352402    1.222076
     13          1           0       -0.971940   -0.816344    1.978190
     14          1           0       -1.717839    0.480834    1.511152
     15          1           0        1.635326   -1.477232    0.766701
     16          1           0        0.408485   -1.931629   -1.258289
     17          1           0       -0.916150    1.334035   -1.640826
     18          1           0        2.128491   -0.056823   -0.874663
     19          1           0        1.113128    1.964930    0.362980
 ---------------------------------------------------------------------
 Rotational constants (GHZ):           2.0397021           1.9739483           1.9252864
 Leave Link  202 at Thu May 23 17:53:50 2024, MaxMem= 26843545600 cpu:               0.5 elap:               0.1
 (Enter /gpfs/fs1/soft/improv/software/custom-built/gaussian/g16/l301.exe)
 Standard basis: 6-31+G(2df,p) (6D, 7F)
 Ernie: Thresh=  0.10000D-02 Tol=  0.10000D-05 Strict=F.
 There are   347 symmetry adapted cartesian basis functions of A   symmetry.
 There are   317 symmetry adapted basis functions of A   symmetry.
   317 basis functions,   514 primitive gaussians,   347 cartesian basis functions
    41 alpha electrons       39 beta electrons
       nuclear repulsion energy       717.7225235776 Hartrees.
 IExCor= 3909 DFT=T Ex+Corr=HSEH1PBE ExCW=0 ScaHFX=  0.250000
 ScaDFX=  1.000000  1.000000  1.000000  1.000000 ScalE2=  1.000000  1.000000
 IRadAn=      5 IRanWt=     -1 IRanGd=            0 ICorTp=0 IEmpDi=  4
 HFx  wShort=  0.110000 wLong=  0.000000 cFull=  0.000000 cShort=  1.000000 cLong=  0.000000
 DFx  wShort=  0.110000 wLong=  0.000000 cFull=  0.000000 cShort= -0.250000 cLong=  1.000000
 NAtoms=   19 NActive=   19 NUniq=   19 SFac= 1.00D+00 NAtFMM=   60 NAOKFM=F Big=F
 Integral buffers will be    131072 words long.
 Raffenetti 2 integral format.
 Two-electron integral symmetry is turned on.
 Leave Link  301 at Thu May 23 17:53:50 2024, MaxMem= 26843545600 cpu:               0.4 elap:               0.0
 (Enter /gpfs/fs1/soft/improv/software/custom-built/gaussian/g16/l302.exe)
 NPDir=0 NMtPBC=     1 NCelOv=     1 NCel=       1 NClECP=     1 NCelD=      1
         NCelK=      1 NCelE2=     1 NClLst=     1 CellRange=     0.0.
 One-electron integrals computed using PRISM.
 One-electron integral symmetry used in STVInt
 NBasis=   317 RedAO= T EigKep=  3.17D-05  NBF=   317
 NBsUse=   317 1.00D-06 EigRej= -1.00D+00 NBFU=   317
 Precomputing XC quadrature grid using
 IXCGrd= 4 IRadAn=           5 IRanWt=          -1 IRanGd=           0 AccXCQ= 0.00D+00.
 Generated NRdTot=       0 NPtTot=           0 NUsed=           0 NTot=          32
 NSgBfM=   347   347   347   347   347 MxSgAt=    19 MxSgA2=    19.
 Leave Link  302 at Thu May 23 17:53:51 2024, MaxMem= 26843545600 cpu:              21.4 elap:               0.3
 (Enter /gpfs/fs1/soft/improv/software/custom-built/gaussian/g16/l303.exe)
 DipDrv:  MaxL=1.
 Leave Link  303 at Thu May 23 17:53:51 2024, MaxMem= 26843545600 cpu:               1.0 elap:               0.0
 (Enter /gpfs/fs1/soft/improv/software/custom-built/gaussian/g16/l401.exe)
 ExpMin= 1.07D-02 ExpMax= 4.74D+04 ExpMxC= 7.11D+03 IAcc=3 IRadAn=         5 AccDes= 0.00D+00
 Harris functional with IExCor= 1009 and IRadAn=       5 diagonalized for initial guess.
 HarFok:  IExCor= 1009 AccDes= 0.00D+00 IRadAn=         5 IDoV= 1 UseB2=F ITyADJ=14
 ICtDFT=  3500011 ScaDFX=  1.000000  1.000000  1.000000  1.000000
 FoFCou: FMM=F IPFlag=           0 FMFlag=      100000 FMFlg1=           0
         NFxFlg=           0 DoJE=T BraDBF=F KetDBF=T FulRan=T
         wScrn=  0.000000 ICntrl=       500 IOpCl=  0 I1Cent=   200000004 NGrid=           0
         NMat0=    1 NMatS0=      1 NMatT0=    0 NMatD0=    1 NMtDS0=    0 NMtDT0=    0
 Petite list used in FoFCou.
 Harris En= -1401.23219710131    
 JPrj=0 DoOrth=F DoCkMO=F.
 Initial guess <Sx>= 0.0000 <Sy>= 0.0000 <Sz>= 1.0000 <S**2>= 2.0000 S= 1.0000
 Leave Link  401 at Thu May 23 17:53:52 2024, MaxMem= 26843545600 cpu:              37.4 elap:               0.5
 (Enter /gpfs/fs1/soft/improv/software/custom-built/gaussian/g16/l502.exe)
 Integral symmetry usage will be decided dynamically.
 UHF open shell SCF:
 Using DIIS extrapolation, IDIIS=  1040.
 NGot= 26843545600 LenX= 26843256607 LenY= 26843135757
 Requested convergence on RMS density matrix=1.00D-08 within  50 cycles.
 Requested convergence on MAX density matrix=1.00D-06.
 Requested convergence on             energy=1.00D-06.
 No special actions if energy rises.
 Fock matrices will be formed incrementally for  20 cycles.

 Cycle   1  Pass 1  IDiag  1:
 FoFJK:  IHMeth= 1 ICntrl=       0 DoSepK=T KAlg= 0 I1Cent=           0 FoldK=F
 IRaf=         1 NMat=       1 IRICut=       1 DoRegI=T DoRafI=F ISym2E= 0 IDoP0=0 IntGTp=1.
 FoFCou: FMM=F IPFlag=           0 FMFlag=      100000 FMFlg1=           0
         NFxFlg=           0 DoJE=T BraDBF=F KetDBF=F FulRan=T
         wScrn=  0.000000 ICntrl=       500 IOpCl=  0 I1Cent=           0 NGrid=           0
         NMat0=    1 NMatS0=      1 NMatT0=    0 NMatD0=    1 NMtDS0=    0 NMtDT0=    0
 Symmetry not used in FoFCou.
 E= -1400.35783423434    
 DIIS: error= 5.33D-02 at cycle   1 NSaved=   1.
 NSaved= 1 IEnMin= 1 EnMin= -1400.35783423434     IErMin= 1 ErrMin= 5.33D-02
 ErrMax= 5.33D-02  0.00D+00 EMaxC= 1.00D-01 BMatC= 2.53D+00 BMatP= 2.53D+00
 IDIUse=3 WtCom= 4.67D-01 WtEn= 5.33D-01
 Coeff-Com:  0.100D+01
 Coeff-En:   0.100D+01
 Coeff:      0.100D+01
 Gap=     0.125 Goal=   None    Shift=    0.000
 Gap=     0.099 Goal=   None    Shift=    0.000
 GapD=    0.099 DampG=0.500 DampE=0.250 DampFc=0.1250 IDamp=-1.
 Damping current iteration by 1.25D-01
 RMSDP=9.77D-03 MaxDP=5.22D-01              OVMax= 3.74D-01

 Cycle   2  Pass 1  IDiag  1:
 RMSU=  1.21D-03    CP:  9.92D-01
 E= -1400.44542919584     Delta-E=       -0.087594961495 Rises=F Damp=T
 DIIS: error= 4.35D-02 at cycle   2 NSaved=   2.
 NSaved= 2 IEnMin= 2 EnMin= -1400.44542919584     IErMin= 2 ErrMin= 4.35D-02
 ErrMax= 4.35D-02  0.00D+00 EMaxC= 1.00D-01 BMatC= 1.16D+00 BMatP= 2.53D+00
 IDIUse=3 WtCom= 5.65D-01 WtEn= 4.35D-01
 Coeff-Com: -0.175D+01 0.275D+01
 Coeff-En:   0.000D+00 0.100D+01
 Coeff:     -0.987D+00 0.199D+01
 Gap=     0.212 Goal=   None    Shift=    0.000
 Gap=     0.300 Goal=   None    Shift=    0.000
 RMSDP=3.92D-03 MaxDP=2.04D-01 DE=-8.76D-02 OVMax= 3.53D-01

 Cycle   3  Pass 1  IDiag  1:
 RMSU=  2.58D-03    CP:  9.49D-01  3.00D+00
 E= -1400.66262273944     Delta-E=       -0.217193543598 Rises=F Damp=F
 DIIS: error= 1.29D-02 at cycle   3 NSaved=   3.
 NSaved= 3 IEnMin= 3 EnMin= -1400.66262273944     IErMin= 3 ErrMin= 1.29D-02
 ErrMax= 1.29D-02  0.00D+00 EMaxC= 1.00D-01 BMatC= 4.10D-01 BMatP= 1.16D+00
 IDIUse=3 WtCom= 8.71D-01 WtEn= 1.29D-01
 Coeff-Com: -0.703D+00 0.125D+01 0.451D+00
 Coeff-En:   0.908D-01 0.000D+00 0.909D+00
 Coeff:     -0.601D+00 0.109D+01 0.510D+00
 Gap=     0.131 Goal=   None    Shift=    0.000
 Gap=     0.341 Goal=   None    Shift=    0.000
 RMSDP=1.59D-03 MaxDP=4.39D-02 DE=-2.17D-01 OVMax= 4.99D-02

 Cycle   4  Pass 1  IDiag  1:
 RMSU=  1.32D-03    CP:  9.55D-01  3.00D+00  6.60D-01
 E= -1400.73047789228     Delta-E=       -0.067855152842 Rises=F Damp=F
 DIIS: error= 4.29D-03 at cycle   4 NSaved=   4.
 NSaved= 4 IEnMin= 4 EnMin= -1400.73047789228     IErMin= 4 ErrMin= 4.29D-03
 ErrMax= 4.29D-03  0.00D+00 EMaxC= 1.00D-01 BMatC= 3.64D-02 BMatP= 4.10D-01
 IDIUse=3 WtCom= 9.57D-01 WtEn= 4.29D-02
 Coeff-Com: -0.214D+00 0.255D+00 0.158D+00 0.801D+00
 Coeff-En:   0.000D+00 0.000D+00 0.000D+00 0.100D+01
 Coeff:     -0.205D+00 0.244D+00 0.152D+00 0.810D+00
 Gap=     0.136 Goal=   None    Shift=    0.000
 Gap=     0.309 Goal=   None    Shift=    0.000
 RMSDP=3.63D-04 MaxDP=1.03D-02 DE=-6.79D-02 OVMax= 1.04D-02

 Cycle   5  Pass 1  IDiag  1:
 RMSU=  2.34D-04    CP:  9.52D-01  3.00D+00  7.20D-01  8.32D-01
 E= -1400.73647977441     Delta-E=       -0.006001882134 Rises=F Damp=F
 DIIS: error= 4.57D-04 at cycle   5 NSaved=   5.
 NSaved= 5 IEnMin= 5 EnMin= -1400.73647977441     IErMin= 5 ErrMin= 4.57D-04
 ErrMax= 4.57D-04  0.00D+00 EMaxC= 1.00D-01 BMatC= 1.01D-03 BMatP= 3.64D-02
 IDIUse=3 WtCom= 9.95D-01 WtEn= 4.57D-03
 Coeff-Com: -0.112D+00 0.127D+00 0.491D-01 0.356D+00 0.579D+00
 Coeff-En:   0.000D+00 0.000D+00 0.000D+00 0.000D+00 0.100D+01
 Coeff:     -0.111D+00 0.126D+00 0.489D-01 0.355D+00 0.581D+00
 Gap=     0.137 Goal=   None    Shift=    0.000
 Gap=     0.310 Goal=   None    Shift=    0.000
 RMSDP=5.54D-05 MaxDP=2.44D-03 DE=-6.00D-03 OVMax= 2.96D-03

 Cycle   6  Pass 1  IDiag  1:
 RMSU=  5.39D-05    CP:  9.52D-01  3.00D+00  7.17D-01  8.39D-01  1.01D+00
 E= -1400.73662000040     Delta-E=       -0.000140225985 Rises=F Damp=F
 DIIS: error= 3.53D-04 at cycle   6 NSaved=   6.
 NSaved= 6 IEnMin= 6 EnMin= -1400.73662000040     IErMin= 6 ErrMin= 3.53D-04
 ErrMax= 3.53D-04  0.00D+00 EMaxC= 1.00D-01 BMatC= 2.73D-04 BMatP= 1.01D-03
 IDIUse=3 WtCom= 9.96D-01 WtEn= 3.53D-03
 Coeff-Com: -0.305D-01 0.332D-01-0.197D-01-0.114D-01 0.290D+00 0.738D+00
 Coeff-En:   0.000D+00 0.000D+00 0.000D+00 0.000D+00 0.000D+00 0.100D+01
 Coeff:     -0.304D-01 0.330D-01-0.197D-01-0.114D-01 0.289D+00 0.739D+00
 Gap=     0.138 Goal=   None    Shift=    0.000
 Gap=     0.309 Goal=   None    Shift=    0.000
 RMSDP=5.10D-05 MaxDP=2.73D-03 DE=-1.40D-04 OVMax= 3.68D-03

 Cycle   7  Pass 1  IDiag  1:
 RMSU=  4.19D-05    CP:  9.52D-01  3.00D+00  7.14D-01  8.55D-01  1.08D+00
                    CP:  9.37D-01
 E= -1400.73667351593     Delta-E=       -0.000053515528 Rises=F Damp=F
 DIIS: error= 8.49D-05 at cycle   7 NSaved=   7.
 NSaved= 7 IEnMin= 7 EnMin= -1400.73667351593     IErMin= 7 ErrMin= 8.49D-05
 ErrMax= 8.49D-05  0.00D+00 EMaxC= 1.00D-01 BMatC= 1.93D-05 BMatP= 2.73D-04
 IDIUse=1 WtCom= 1.00D+00 WtEn= 0.00D+00
 Coeff-Com: -0.525D-02 0.626D-02-0.125D-01-0.398D-01 0.929D-02 0.205D+00
 Coeff-Com:  0.837D+00
 Coeff:     -0.525D-02 0.626D-02-0.125D-01-0.398D-01 0.929D-02 0.205D+00
 Coeff:      0.837D+00
 Gap=     0.138 Goal=   None    Shift=    0.000
 Gap=     0.308 Goal=   None    Shift=    0.000
 RMSDP=1.45D-05 MaxDP=1.33D-03 DE=-5.35D-05 OVMax= 1.93D-03

 Cycle   8  Pass 1  IDiag  1:
 RMSU=  1.09D-05    CP:  9.52D-01  3.00D+00  7.14D-01  8.55D-01  1.12D+00
                    CP:  1.01D+00  9.35D-01
 E= -1400.73667940909     Delta-E=       -0.000005893163 Rises=F Damp=F
 DIIS: error= 2.16D-05 at cycle   8 NSaved=   8.
 NSaved= 8 IEnMin= 8 EnMin= -1400.73667940909     IErMin= 8 ErrMin= 2.16D-05
 ErrMax= 2.16D-05  0.00D+00 EMaxC= 1.00D-01 BMatC= 1.64D-06 BMatP= 1.93D-05
 IDIUse=1 WtCom= 1.00D+00 WtEn= 0.00D+00
 Coeff-Com:  0.339D-03-0.970D-04-0.167D-02-0.938D-02-0.324D-01-0.150D-01
 Coeff-Com:  0.237D+00 0.822D+00
 Coeff:      0.339D-03-0.970D-04-0.167D-02-0.938D-02-0.324D-01-0.150D-01
 Coeff:      0.237D+00 0.822D+00
 Gap=     0.139 Goal=   None    Shift=    0.000
 Gap=     0.308 Goal=   None    Shift=    0.000
 RMSDP=6.88D-06 MaxDP=8.18D-04 DE=-5.89D-06 OVMax= 1.32D-03

 Cycle   9  Pass 1  IDiag  1:
 RMSU=  4.46D-06    CP:  9.52D-01  3.00D+00  7.14D-01  8.56D-01  1.12D+00
                    CP:  1.03D+00  9.98D-01  1.36D+00
 E= -1400.73668068376     Delta-E=       -0.000001274676 Rises=F Damp=F
 DIIS: error= 1.57D-05 at cycle   9 NSaved=   9.
 NSaved= 9 IEnMin= 9 EnMin= -1400.73668068376     IErMin= 9 ErrMin= 1.57D-05
 ErrMax= 1.57D-05  0.00D+00 EMaxC= 1.00D-01 BMatC= 7.02D-07 BMatP= 1.64D-06
 IDIUse=1 WtCom= 1.00D+00 WtEn= 0.00D+00
 Coeff-Com:  0.164D-02-0.178D-02 0.308D-02 0.765D-02-0.218D-01-0.697D-01
 Coeff-Com: -0.117D+00 0.453D+00 0.745D+00
 Coeff:      0.164D-02-0.178D-02 0.308D-02 0.765D-02-0.218D-01-0.697D-01
 Coeff:     -0.117D+00 0.453D+00 0.745D+00
 Gap=     0.139 Goal=   None    Shift=    0.000
 Gap=     0.308 Goal=   None    Shift=    0.000
 RMSDP=6.03D-06 MaxDP=6.68D-04 DE=-1.27D-06 OVMax= 1.33D-03

 Cycle  10  Pass 1  IDiag  1:
 RMSU=  2.89D-06    CP:  9.52D-01  3.00D+00  7.14D-01  8.56D-01  1.13D+00
                    CP:  1.05D+00  1.04D+00  1.72D+00  1.64D+00
 E= -1400.73668157206     Delta-E=       -0.000000888291 Rises=F Damp=F
 DIIS: error= 1.48D-05 at cycle  10 NSaved=  10.
 NSaved=10 IEnMin=10 EnMin= -1400.73668157206     IErMin=10 ErrMin= 1.48D-05
 ErrMax= 1.48D-05  0.00D+00 EMaxC= 1.00D-01 BMatC= 2.63D-07 BMatP= 7.02D-07
 IDIUse=1 WtCom= 1.00D+00 WtEn= 0.00D+00
 Coeff-Com:  0.369D-03-0.459D-03 0.792D-03 0.278D-02 0.483D-02-0.244D-02
 Coeff-Com: -0.480D-01-0.159D+00 0.110D+00 0.109D+01
 Coeff:      0.369D-03-0.459D-03 0.792D-03 0.278D-02 0.483D-02-0.244D-02
 Coeff:     -0.480D-01-0.159D+00 0.110D+00 0.109D+01
 Gap=     0.139 Goal=   None    Shift=    0.000
 Gap=     0.308 Goal=   None    Shift=    0.000
 RMSDP=6.26D-06 MaxDP=7.21D-04 DE=-8.88D-07 OVMax= 1.42D-03

 Cycle  11  Pass 1  IDiag  1:
 RMSU=  1.50D-06    CP:  9.52D-01  3.00D+00  7.14D-01  8.56D-01  1.12D+00
                    CP:  1.06D+00  1.06D+00  2.06D+00  2.54D+00  1.86D+00
 E= -1400.73668230549     Delta-E=       -0.000000733429 Rises=F Damp=F
 DIIS: error= 1.06D-05 at cycle  11 NSaved=  11.
 NSaved=11 IEnMin=11 EnMin= -1400.73668230549     IErMin=11 ErrMin= 1.06D-05
 ErrMax= 1.06D-05  0.00D+00 EMaxC= 1.00D-01 BMatC= 1.50D-07 BMatP= 2.63D-07
 IDIUse=1 WtCom= 1.00D+00 WtEn= 0.00D+00
 Coeff-Com: -0.114D-02 0.127D-02-0.184D-02-0.444D-02 0.121D-01 0.449D-01
 Coeff-Com:  0.773D-01-0.298D+00-0.460D+00-0.112D+00 0.174D+01
 Coeff:     -0.114D-02 0.127D-02-0.184D-02-0.444D-02 0.121D-01 0.449D-01
 Coeff:      0.773D-01-0.298D+00-0.460D+00-0.112D+00 0.174D+01
 Gap=     0.139 Goal=   None    Shift=    0.000
 Gap=     0.308 Goal=   None    Shift=    0.000
 RMSDP=1.09D-05 MaxDP=1.27D-03 DE=-7.33D-07 OVMax= 2.43D-03

 Cycle  12  Pass 1  IDiag  1:
 RMSU=  5.42D-06    CP:  9.52D-01  3.00D+00  7.14D-01  8.57D-01  1.12D+00
                    CP:  1.06D+00  1.08D+00  2.61D+00  3.00D+00  3.00D+00
                    CP:  2.74D+00
 E= -1400.73668323982     Delta-E=       -0.000000934331 Rises=F Damp=F
 DIIS: error= 7.53D-06 at cycle  12 NSaved=  12.
 NSaved=12 IEnMin=12 EnMin= -1400.73668323982     IErMin=12 ErrMin= 7.53D-06
 ErrMax= 7.53D-06  0.00D+00 EMaxC= 1.00D-01 BMatC= 8.67D-08 BMatP= 1.50D-07
 IDIUse=1 WtCom= 1.00D+00 WtEn= 0.00D+00
 Coeff-Com: -0.104D-02 0.121D-02-0.835D-03-0.199D-02-0.540D-02 0.653D-02
 Coeff-Com:  0.378D-01 0.118D+00-0.119D+00-0.102D+01 0.196D+00 0.179D+01
 Coeff:     -0.104D-02 0.121D-02-0.835D-03-0.199D-02-0.540D-02 0.653D-02
 Coeff:      0.378D-01 0.118D+00-0.119D+00-0.102D+01 0.196D+00 0.179D+01
 Gap=     0.139 Goal=   None    Shift=    0.000
 Gap=     0.308 Goal=   None    Shift=    0.000
 RMSDP=1.44D-05 MaxDP=1.66D-03 DE=-9.34D-07 OVMax= 3.12D-03

 Cycle  13  Pass 1  IDiag  1:
 RMSU=  6.38D-06    CP:  9.52D-01  3.00D+00  7.14D-01  8.57D-01  1.13D+00
                    CP:  1.08D+00  1.12D+00  3.00D+00  3.00D+00  3.00D+00
                    CP:  3.00D+00  2.96D+00
 E= -1400.73668386875     Delta-E=       -0.000000628932 Rises=F Damp=F
 DIIS: error= 2.65D-06 at cycle  13 NSaved=  13.
 NSaved=13 IEnMin=13 EnMin= -1400.73668386875     IErMin=13 ErrMin= 2.65D-06
 ErrMax= 2.65D-06  0.00D+00 EMaxC= 1.00D-01 BMatC= 2.98D-08 BMatP= 8.67D-08
 IDIUse=1 WtCom= 1.00D+00 WtEn= 0.00D+00
 Coeff-Com: -0.491D-03 0.582D-03-0.963D-04-0.921D-04-0.533D-02-0.599D-02
 Coeff-Com:  0.506D-02 0.121D+00 0.407D-01-0.492D+00-0.273D+00 0.893D+00
 Coeff-Com:  0.717D+00
 Coeff:     -0.491D-03 0.582D-03-0.963D-04-0.921D-04-0.533D-02-0.599D-02
 Coeff:      0.506D-02 0.121D+00 0.407D-01-0.492D+00-0.273D+00 0.893D+00
 Coeff:      0.717D+00
 Gap=     0.139 Goal=   None    Shift=    0.000
 Gap=     0.308 Goal=   None    Shift=    0.000
 RMSDP=3.69D-06 MaxDP=4.16D-04 DE=-6.29D-07 OVMax= 7.69D-04

 Cycle  14  Pass 1  IDiag  1:
 RMSU=  2.68D-06    CP:  9.52D-01  3.00D+00  7.14D-01  8.57D-01  1.13D+00
                    CP:  1.08D+00  1.14D+00  3.00D+00  3.00D+00  3.00D+00
                    CP:  3.00D+00  3.00D+00  1.35D+00
 E= -1400.73668392558     Delta-E=       -0.000000056834 Rises=F Damp=F
 DIIS: error= 1.52D-06 at cycle  14 NSaved=  14.
 NSaved=14 IEnMin=14 EnMin= -1400.73668392558     IErMin=14 ErrMin= 1.52D-06
 ErrMax= 1.52D-06  0.00D+00 EMaxC= 1.00D-01 BMatC= 9.51D-09 BMatP= 2.98D-08
 IDIUse=1 WtCom= 1.00D+00 WtEn= 0.00D+00
 Coeff-Com: -0.626D-04 0.780D-04 0.150D-03 0.493D-03-0.108D-02-0.498D-02
 Coeff-Com: -0.665D-02 0.267D-01 0.562D-01 0.413D-01-0.205D+00-0.600D-01
 Coeff-Com:  0.402D+00 0.751D+00
 Coeff:     -0.626D-04 0.780D-04 0.150D-03 0.493D-03-0.108D-02-0.498D-02
 Coeff:     -0.665D-02 0.267D-01 0.562D-01 0.413D-01-0.205D+00-0.600D-01
 Coeff:      0.402D+00 0.751D+00
 Gap=     0.139 Goal=   None    Shift=    0.000
 Gap=     0.308 Goal=   None    Shift=    0.000
 RMSDP=1.48D-06 MaxDP=1.65D-04 DE=-5.68D-08 OVMax= 3.61D-04

 Cycle  15  Pass 1  IDiag  1:
 RMSU=  3.95D-07    CP:  9.52D-01  3.00D+00  7.14D-01  8.57D-01  1.13D+00
                    CP:  1.08D+00  1.14D+00  3.00D+00  3.00D+00  3.00D+00
                    CP:  3.00D+00  3.00D+00  1.49D+00  1.41D+00
 E= -1400.73668394015     Delta-E=       -0.000000014562 Rises=F Damp=F
 DIIS: error= 1.46D-06 at cycle  15 NSaved=  15.
 NSaved=15 IEnMin=15 EnMin= -1400.73668394015     IErMin=15 ErrMin= 1.46D-06
 ErrMax= 1.46D-06  0.00D+00 EMaxC= 1.00D-01 BMatC= 2.36D-09 BMatP= 9.51D-09
 IDIUse=1 WtCom= 1.00D+00 WtEn= 0.00D+00
 Coeff-Com:  0.118D-03-0.142D-03 0.253D-05-0.905D-05 0.171D-02 0.199D-02
 Coeff-Com: -0.911D-03-0.359D-01-0.207D-01 0.131D+00 0.105D+00-0.241D+00
 Coeff-Com: -0.221D+00-0.119D+00 0.140D+01
 Coeff:      0.118D-03-0.142D-03 0.253D-05-0.905D-05 0.171D-02 0.199D-02
 Coeff:     -0.911D-03-0.359D-01-0.207D-01 0.131D+00 0.105D+00-0.241D+00
 Coeff:     -0.221D+00-0.119D+00 0.140D+01
 Gap=     0.139 Goal=   None    Shift=    0.000
 Gap=     0.308 Goal=   None    Shift=    0.000
 RMSDP=8.98D-07 MaxDP=8.00D-05 DE=-1.46D-08 OVMax= 2.58D-04

 Cycle  16  Pass 1  IDiag  1:
 RMSU=  3.53D-07    CP:  9.52D-01  3.00D+00  7.14D-01  8.57D-01  1.13D+00
                    CP:  1.08D+00  1.14D+00  3.00D+00  3.00D+00  3.00D+00
                    CP:  3.00D+00  3.00D+00  1.55D+00  1.58D+00  2.41D+00
 E= -1400.73668394987     Delta-E=       -0.000000009723 Rises=F Damp=F
 DIIS: error= 1.10D-06 at cycle  16 NSaved=  16.
 NSaved=16 IEnMin=16 EnMin= -1400.73668394987     IErMin=16 ErrMin= 1.10D-06
 ErrMax= 1.10D-06  0.00D+00 EMaxC= 1.00D-01 BMatC= 1.54D-09 BMatP= 2.36D-09
 IDIUse=1 WtCom= 1.00D+00 WtEn= 0.00D+00
 Coeff-Com:  0.108D-03-0.127D-03-0.751D-04-0.344D-03 0.133D-03 0.251D-02
 Coeff-Com:  0.270D-02-0.453D-02-0.345D-01-0.637D-01 0.111D+00 0.101D+00
 Coeff-Com: -0.167D+00-0.499D+00-0.623D+00 0.218D+01
 Coeff:      0.108D-03-0.127D-03-0.751D-04-0.344D-03 0.133D-03 0.251D-02
 Coeff:      0.270D-02-0.453D-02-0.345D-01-0.637D-01 0.111D+00 0.101D+00
 Coeff:     -0.167D+00-0.499D+00-0.623D+00 0.218D+01
 Gap=     0.139 Goal=   None    Shift=    0.000
 Gap=     0.308 Goal=   None    Shift=    0.000
 RMSDP=1.40D-06 MaxDP=1.28D-04 DE=-9.72D-09 OVMax= 3.96D-04

 Cycle  17  Pass 1  IDiag  1:
 RMSU=  7.73D-07    CP:  9.52D-01  3.00D+00  7.14D-01  8.57D-01  1.13D+00
                    CP:  1.08D+00  1.15D+00  3.00D+00  3.00D+00  3.00D+00
                    CP:  3.00D+00  3.00D+00  1.62D+00  1.79D+00  3.00D+00
                    CP:  2.84D+00
 E= -1400.73668396085     Delta-E=       -0.000000010982 Rises=F Damp=F
 DIIS: error= 5.54D-07 at cycle  17 NSaved=  17.
 NSaved=17 IEnMin=17 EnMin= -1400.73668396085     IErMin=17 ErrMin= 5.54D-07
 ErrMax= 5.54D-07  0.00D+00 EMaxC= 1.00D-01 BMatC= 1.04D-09 BMatP= 1.54D-09
 IDIUse=1 WtCom= 1.00D+00 WtEn= 0.00D+00
 Coeff-Com:  0.461D-04-0.523D-04-0.501D-04-0.258D-03-0.622D-03 0.992D-03
 Coeff-Com:  0.239D-02 0.125D-01-0.154D-01-0.104D+00 0.251D-01 0.182D+00
 Coeff-Com:  0.575D-03-0.292D+00-0.114D+01 0.151D+01 0.823D+00
 Coeff:      0.461D-04-0.523D-04-0.501D-04-0.258D-03-0.622D-03 0.992D-03
 Coeff:      0.239D-02 0.125D-01-0.154D-01-0.104D+00 0.251D-01 0.182D+00
 Coeff:      0.575D-03-0.292D+00-0.114D+01 0.151D+01 0.823D+00
 Gap=     0.139 Goal=   None    Shift=    0.000
 Gap=     0.308 Goal=   None    Shift=    0.000
 RMSDP=9.18D-07 MaxDP=8.02D-05 DE=-1.10D-08 OVMax= 2.62D-04

 Cycle  18  Pass 1  IDiag  1:
 RMSU=  3.68D-07    CP:  9.52D-01  3.00D+00  7.14D-01  8.57D-01  1.13D+00
                    CP:  1.08D+00  1.15D+00  3.00D+00  3.00D+00  3.00D+00
                    CP:  3.00D+00  3.00D+00  1.67D+00  1.94D+00  3.00D+00
                    CP:  3.00D+00  1.81D+00
 E= -1400.73668396459     Delta-E=       -0.000000003743 Rises=F Damp=F
 DIIS: error= 3.20D-07 at cycle  18 NSaved=  18.
 NSaved=18 IEnMin=18 EnMin= -1400.73668396459     IErMin=18 ErrMin= 3.20D-07
 ErrMax= 3.20D-07  0.00D+00 EMaxC= 1.00D-01 BMatC= 2.36D-10 BMatP= 1.04D-09
 IDIUse=1 WtCom= 1.00D+00 WtEn= 0.00D+00
 Coeff-Com: -0.275D-04 0.328D-04 0.183D-04 0.576D-04-0.201D-03-0.652D-03
 Coeff-Com: -0.105D-03 0.618D-02 0.106D-01-0.907D-02-0.487D-01 0.268D-01
 Coeff-Com:  0.937D-01 0.133D+00-0.167D+00-0.483D+00 0.320D+00 0.112D+01
 Coeff:     -0.275D-04 0.328D-04 0.183D-04 0.576D-04-0.201D-03-0.652D-03
 Coeff:     -0.105D-03 0.618D-02 0.106D-01-0.907D-02-0.487D-01 0.268D-01
 Coeff:      0.937D-01 0.133D+00-0.167D+00-0.483D+00 0.320D+00 0.112D+01
 Gap=     0.139 Goal=   None    Shift=    0.000
 Gap=     0.308 Goal=   None    Shift=    0.000
 RMSDP=5.68D-07 MaxDP=5.27D-05 DE=-3.74D-09 OVMax= 1.59D-04

 Cycle  19  Pass 1  IDiag  1:
 RMSU=  5.76D-08    CP:  9.52D-01  3.00D+00  7.14D-01  8.57D-01  1.13D+00
                    CP:  1.08D+00  1.15D+00  3.00D+00  3.00D+00  3.00D+00
                    CP:  3.00D+00  3.00D+00  1.70D+00  2.03D+00  3.00D+00
                    CP:  3.00D+00  2.34D+00  1.73D+00
 E= -1400.73668396552     Delta-E=       -0.000000000930 Rises=F Damp=F
 DIIS: error= 1.40D-07 at cycle  19 NSaved=  19.
 NSaved=19 IEnMin=19 EnMin= -1400.73668396552     IErMin=19 ErrMin= 1.40D-07
 ErrMax= 1.40D-07  0.00D+00 EMaxC= 1.00D-01 BMatC= 3.05D-11 BMatP= 2.36D-10
 IDIUse=1 WtCom= 1.00D+00 WtEn= 0.00D+00
 Coeff-Com: -0.196D-04 0.226D-04 0.102D-04 0.578D-04 0.629D-04-0.307D-03
 Coeff-Com: -0.509D-03-0.562D-03 0.436D-02 0.151D-01-0.112D-01-0.240D-01
 Coeff-Com:  0.139D-01 0.648D-01 0.147D+00-0.311D+00-0.877D-01 0.183D+00
 Coeff-Com:  0.101D+01
 Coeff:     -0.196D-04 0.226D-04 0.102D-04 0.578D-04 0.629D-04-0.307D-03
 Coeff:     -0.509D-03-0.562D-03 0.436D-02 0.151D-01-0.112D-01-0.240D-01
 Coeff:      0.139D-01 0.648D-01 0.147D+00-0.311D+00-0.877D-01 0.183D+00
 Coeff:      0.101D+01
 Gap=     0.139 Goal=   None    Shift=    0.000
 Gap=     0.308 Goal=   None    Shift=    0.000
 RMSDP=1.29D-07 MaxDP=1.42D-05 DE=-9.30D-10 OVMax= 3.05D-05

 Cycle  20  Pass 1  IDiag  1:
 RMSU=  2.08D-08    CP:  9.52D-01  3.00D+00  7.14D-01  8.57D-01  1.13D+00
                    CP:  1.08D+00  1.15D+00  3.00D+00  3.00D+00  3.00D+00
                    CP:  3.00D+00  3.00D+00  1.70D+00  2.04D+00  3.00D+00
                    CP:  3.00D+00  2.47D+00  1.93D+00  1.25D+00
 E= -1400.73668396558     Delta-E=       -0.000000000051 Rises=F Damp=F
 DIIS: error= 6.78D-08 at cycle  20 NSaved=  20.
 NSaved=20 IEnMin=20 EnMin= -1400.73668396558     IErMin=20 ErrMin= 6.78D-08
 ErrMax= 6.78D-08  0.00D+00 EMaxC= 1.00D-01 BMatC= 1.10D-11 BMatP= 3.05D-11
 IDIUse=1 WtCom= 1.00D+00 WtEn= 0.00D+00
 Coeff-Com: -0.642D-05 0.738D-05-0.187D-06 0.124D-04 0.258D-04-0.582D-04
 Coeff-Com: -0.200D-03-0.805D-03-0.481D-04 0.590D-02 0.356D-02-0.116D-01
 Coeff-Com: -0.957D-02 0.879D-03 0.721D-01-0.214D-01-0.846D-01-0.129D+00
 Coeff-Com:  0.337D+00 0.838D+00
 Coeff:     -0.642D-05 0.738D-05-0.187D-06 0.124D-04 0.258D-04-0.582D-04
 Coeff:     -0.200D-03-0.805D-03-0.481D-04 0.590D-02 0.356D-02-0.116D-01
 Coeff:     -0.957D-02 0.879D-03 0.721D-01-0.214D-01-0.846D-01-0.129D+00
 Coeff:      0.337D+00 0.838D+00
 Gap=     0.139 Goal=   None    Shift=    0.000
 Gap=     0.308 Goal=   None    Shift=    0.000
 RMSDP=3.07D-08 MaxDP=3.12D-06 DE=-5.14D-11 OVMax= 7.38D-06

 Cycle  21  Pass 1  IDiag  1:
 Restarting incremental Fock formation.
 E= -1400.73668396559     Delta-E=       -0.000000000013 Rises=F Damp=F
 DIIS: error= 2.35D-08 at cycle  21 NSaved=  20.
 NSaved=20 IEnMin=20 EnMin= -1400.73668396559     IErMin=20 ErrMin= 2.35D-08
 ErrMax= 2.35D-08  0.00D+00 EMaxC= 1.00D-01 BMatC= 2.14D-12 BMatP= 1.10D-11
 IDIUse=1 WtCom= 1.00D+00 WtEn= 0.00D+00
 Coeff-Com: -0.191D-07-0.159D-05-0.222D-05-0.119D-05-0.215D-05-0.489D-04
 Coeff-Com: -0.406D-03-0.662D-03 0.140D-02 0.380D-02-0.356D-02-0.794D-02
 Coeff-Com: -0.101D-01 0.186D-01 0.391D-01-0.345D-01-0.104D+00 0.290D-01
 Coeff-Com:  0.478D+00 0.591D+00
 Coeff:     -0.191D-07-0.159D-05-0.222D-05-0.119D-05-0.215D-05-0.489D-04
 Coeff:     -0.406D-03-0.662D-03 0.140D-02 0.380D-02-0.356D-02-0.794D-02
 Coeff:     -0.101D-01 0.186D-01 0.391D-01-0.345D-01-0.104D+00 0.290D-01
 Coeff:      0.478D+00 0.591D+00
 Gap=     0.139 Goal=   None    Shift=    0.000
 Gap=     0.308 Goal=   None    Shift=    0.000
 RMSDP=5.35D-09 MaxDP=3.09D-07 DE=-1.32D-11 OVMax= 9.90D-07

 SCF Done:  E(UHSEH1PBE) =  -1400.73668397     A.U. after   21 cycles
            NFock= 21  Conv=0.54D-08     -V/T= 2.0009
 <Sx>= 0.0000 <Sy>= 0.0000 <Sz>= 1.0000 <S**2>= 2.0038 S= 1.0013
 <L.S>=  0.00000000000    
 KE= 1.399409747220D+03 PE=-4.706985538004D+03 EE= 1.189116583242D+03
 Annihilation of the first spin contaminant:
 S**2 before annihilation     2.0038,   after     2.0000
 Leave Link  502 at Thu May 23 17:55:41 2024, MaxMem= 26843545600 cpu:           12994.8 elap:             108.8
 (Enter /gpfs/fs1/soft/improv/software/custom-built/gaussian/g16/l508.exe)
 QCSCF skips out because SCF is already converged.
 Leave Link  508 at Thu May 23 17:55:41 2024, MaxMem= 26843545600 cpu:               0.2 elap:               0.0
 (Enter /gpfs/fs1/soft/improv/software/custom-built/gaussian/g16/l801.exe)
 DoSCS=F DFT=T ScalE2(SS,OS)=  1.000000  1.000000
 Range of M.O.s used for correlation:     1   317
 NBasis=   317 NAE=    41 NBE=    39 NFC=     0 NFV=     0
 NROrb=    317 NOA=    41 NOB=    39 NVA=   276 NVB=   278

 **** Warning!!: The largest alpha MO coefficient is  0.64841148D+02


 **** Warning!!: The largest beta MO coefficient is  0.64834332D+02

 Leave Link  801 at Thu May 23 17:55:41 2024, MaxMem= 26843545600 cpu:               0.4 elap:               0.0
 (Enter /gpfs/fs1/soft/improv/software/custom-built/gaussian/g16/l1101.exe)
 Using compressed storage, NAtomX=    19.
 Will process     20 centers per pass.
 Leave Link 1101 at Thu May 23 17:55:42 2024, MaxMem= 26843545600 cpu:              50.8 elap:               0.5
 (Enter /gpfs/fs1/soft/improv/software/custom-built/gaussian/g16/l1102.exe)
 Symmetrizing basis deriv contribution to polar:
 IMax=3 JMax=2 DiffMx= 0.00D+00
 Leave Link 1102 at Thu May 23 17:55:42 2024, MaxMem= 26843545600 cpu:               0.9 elap:               0.0
 (Enter /gpfs/fs1/soft/improv/software/custom-built/gaussian/g16/l1110.exe)
 Forming Gx(P) for the SCF density, NAtomX=    19.
 Integral derivatives from FoFJK, PRISM(SPDF).
 Do as many integral derivatives as possible in FoFJK.
 G2DrvN: MDV=   26843543431.
 G2DrvN: will do    20 centers at a time, making    1 passes.
 Calling FoFCou, ICntrl=  3107 FMM=F I1Cent=   0 AccDes= 0.00D+00.
 FoFJK:  IHMeth= 1 ICntrl=    3107 DoSepK=T KAlg= 0 I1Cent=           0 FoldK=F
 IRaf=         1 NMat=       1 IRICut=       1 DoRegI=T DoRafI=F ISym2E= 0 IDoP0=0 IntGTp=1.
 FoFCou: FMM=F IPFlag=           0 FMFlag=      100000 FMFlg1=           0
         NFxFlg=           0 DoJE=F BraDBF=F KetDBF=F FulRan=T
         wScrn=  0.000000 ICntrl=      3507 IOpCl=  0 I1Cent=           0 NGrid=           0
         NMat0=    1 NMatS0=      1 NMatT0=    0 NMatD0=    1 NMtDS0=    0 NMtDT0=    0
 Symmetry not used in FoFCou.
 End of G2Drv F.D. properties file   721 does not exist.
 End of G2Drv F.D. properties file   722 does not exist.
 End of G2Drv F.D. properties file   788 does not exist.
 Leave Link 1110 at Thu May 23 17:56:01 2024, MaxMem= 26843545600 cpu:            2413.4 elap:              19.3
 (Enter /gpfs/fs1/soft/improv/software/custom-built/gaussian/g16/l1002.exe)
 Minotr:  UHF open shell wavefunction.
          IDoAtm=1111111111111111111
          Direct CPHF calculation.
          Differentiating once with respect to electric field.
                with respect to dipole field.
          Differentiating once with respect to nuclear coordinates.
          Requested convergence is 1.0D-08 RMS, and 1.0D-07 maximum.
          Secondary convergence is 1.0D-12 RMS, and 1.0D-12 maximum.
          NewPWx=T KeepS1=F KeepF1=F KeepIn=T MapXYZ=F SortEE=F KeepMc=T.
         6034 words used for storage of precomputed grid.
 Two-electron integrals replicated using symmetry.
          MDV=   26843545600 using IRadAn=       1.
          Solving linear equations simultaneously, MaxMat=     384.
 FoF2E skips out because all densities are zero.
 CalDSu exits because no D1Ps are significant.
 FoFJK:  IHMeth= 1 ICntrl=       0 DoSepK=T KAlg= 0 I1Cent=           0 FoldK=F
 IRaf=         1 NMat=      57 IRICut=       1 DoRegI=T DoRafI=F ISym2E= 2 IDoP0=3 IntGTp=2.
 FoFCou: FMM=F IPFlag=           0 FMFlag=      100000 FMFlg1=           0
         NFxFlg=           0 DoJE=F BraDBF=F KetDBF=F FulRan=T
         wScrn=  0.000000 ICntrl=       500 IOpCl=  0 I1Cent=           0 NGrid=           0
         NMat0=   57 NMatS0=     57 NMatT0=    0 NMatD0=   57 NMtDS0=    0 NMtDT0=    0
 Integrals replicated using symmetry in FoFCou.
          There are    60 degrees of freedom in the 1st order CPHF.  IDoFFX=6 NUNeed=     3.
     57 vectors produced by pass  0 Test12= 3.69D-14 1.67D-09 XBig12= 5.67D+01 1.41D+00.
 AX will form    57 AO Fock derivatives at one time.
     57 vectors produced by pass  1 Test12= 3.69D-14 1.67D-09 XBig12= 5.50D+00 2.28D-01.
     57 vectors produced by pass  2 Test12= 3.69D-14 1.67D-09 XBig12= 6.32D-02 2.73D-02.
     57 vectors produced by pass  3 Test12= 3.69D-14 1.67D-09 XBig12= 2.82D-04 2.08D-03.
     57 vectors produced by pass  4 Test12= 3.69D-14 1.67D-09 XBig12= 1.77D-06 2.12D-04.
     57 vectors produced by pass  5 Test12= 3.69D-14 1.67D-09 XBig12= 1.16D-08 1.47D-05.
     41 vectors produced by pass  6 Test12= 3.69D-14 1.67D-09 XBig12= 4.34D-11 6.54D-07.
      9 vectors produced by pass  7 Test12= 3.69D-14 1.67D-09 XBig12= 1.32D-13 2.83D-08.
      2 vectors produced by pass  8 Test12= 3.69D-14 1.67D-09 XBig12= 3.93D-16 2.03D-09.
 InvSVY:  IOpt=1 It=  1 EMax= 4.44D-15
 Solved reduced A of dimension   394 with    60 vectors.
 FullF1:  Do perturbations      1 to       3.
 Isotropic polarizability for W=    0.000000       49.31 Bohr**3.
 End of Minotr F.D. properties file   721 does not exist.
 End of Minotr F.D. properties file   722 does not exist.
 End of Minotr F.D. properties file   788 does not exist.
 Leave Link 1002 at Thu May 23 17:57:14 2024, MaxMem= 26843545600 cpu:            8733.2 elap:              73.1
 (Enter /gpfs/fs1/soft/improv/software/custom-built/gaussian/g16/l601.exe)
 Copying SCF densities to generalized density rwf, IOpCl= 1 IROHF=0.

 **********************************************************************

            Population analysis using the SCF Density.

 **********************************************************************

 Orbital symmetries:
 Alpha Orbitals:
       Occupied  (A) (A) (A) (A) (A) (A) (A) (A) (A) (A) (A) (A)
                 (A) (A) (A) (A) (A) (A) (A) (A) (A) (A) (A) (A)
                 (A) (A) (A) (A) (A) (A) (A) (A) (A) (A) (A) (A)
                 (A) (A) (A) (A) (A)
       Virtual   (A) (A) (A) (A) (A) (A) (A) (A) (A) (A) (A) (A)
                 (A) (A) (A) (A) (A) (A) (A) (A) (A) (A) (A) (A)
                 (A) (A) (A) (A) (A) (A) (A) (A) (A) (A) (A) (A)
                 (A) (A) (A) (A) (A) (A) (A) (A) (A) (A) (A) (A)
                 (A) (A) (A) (A) (A) (A) (A) (A) (A) (A) (A) (A)
                 (A) (A) (A) (A) (A) (A) (A) (A) (A) (A) (A) (A)
                 (A) (A) (A) (A) (A) (A) (A) (A) (A) (A) (A) (A)
                 (A) (A) (A) (A) (A) (A) (A) (A) (A) (A) (A) (A)
                 (A) (A) (A) (A) (A) (A) (A) (A) (A) (A) (A) (A)
                 (A) (A) (A) (A) (A) (A) (A) (A) (A) (A) (A) (A)
                 (A) (A) (A) (A) (A) (A) (A) (A) (A) (A) (A) (A)
                 (A) (A) (A) (A) (A) (A) (A) (A) (A) (A) (A) (A)
                 (A) (A) (A) (A) (A) (A) (A) (A) (A) (A) (A) (A)
                 (A) (A) (A) (A) (A) (A) (A) (A) (A) (A) (A) (A)
                 (A) (A) (A) (A) (A) (A) (A) (A) (A) (A) (A) (A)
                 (A) (A) (A) (A) (A) (A) (A) (A) (A) (A) (A) (A)
                 (A) (A) (A) (A) (A) (A) (A) (A) (A) (A) (A) (A)
                 (A) (A) (A) (A) (A) (A) (A) (A) (A) (A) (A) (A)
                 (A) (A) (A) (A) (A) (A) (A) (A) (A) (A) (A) (A)
                 (A) (A) (A) (A) (A) (A) (A) (A) (A) (A) (A) (A)
                 (A) (A) (A) (A) (A) (A) (A) (A) (A) (A) (A) (A)
                 (A) (A) (A) (A) (A) (A) (A) (A) (A) (A) (A) (A)
                 (A) (A) (A) (A) (A) (A) (A) (A) (A) (A) (A) (A)
 Beta  Orbitals:
       Occupied  (A) (A) (A) (A) (A) (A) (A) (A) (A) (A) (A) (A)
                 (A) (A) (A) (A) (A) (A) (A) (A) (A) (A) (A) (A)
                 (A) (A) (A) (A) (A) (A) (A) (A) (A) (A) (A) (A)
                 (A) (A) (A)
       Virtual   (A) (A) (A) (A) (A) (A) (A) (A) (A) (A) (A) (A)
                 (A) (A) (A) (A) (A) (A) (A) (A) (A) (A) (A) (A)
                 (A) (A) (A) (A) (A) (A) (A) (A) (A) (A) (A) (A)
                 (A) (A) (A) (A) (A) (A) (A) (A) (A) (A) (A) (A)
                 (A) (A) (A) (A) (A) (A) (A) (A) (A) (A) (A) (A)
                 (A) (A) (A) (A) (A) (A) (A) (A) (A) (A) (A) (A)
                 (A) (A) (A) (A) (A) (A) (A) (A) (A) (A) (A) (A)
                 (A) (A) (A) (A) (A) (A) (A) (A) (A) (A) (A) (A)
                 (A) (A) (A) (A) (A) (A) (A) (A) (A) (A) (A) (A)
                 (A) (A) (A) (A) (A) (A) (A) (A) (A) (A) (A) (A)
                 (A) (A) (A) (A) (A) (A) (A) (A) (A) (A) (A) (A)
                 (A) (A) (A) (A) (A) (A) (A) (A) (A) (A) (A) (A)
                 (A) (A) (A) (A) (A) (A) (A) (A) (A) (A) (A) (A)
                 (A) (A) (A) (A) (A) (A) (A) (A) (A) (A) (A) (A)
                 (A) (A) (A) (A) (A) (A) (A) (A) (A) (A) (A) (A)
                 (A) (A) (A) (A) (A) (A) (A) (A) (A) (A) (A) (A)
                 (A) (A) (A) (A) (A) (A) (A) (A) (A) (A) (A) (A)
                 (A) (A) (A) (A) (A) (A) (A) (A) (A) (A) (A) (A)
                 (A) (A) (A) (A) (A) (A) (A) (A) (A) (A) (A) (A)
                 (A) (A) (A) (A) (A) (A) (A) (A) (A) (A) (A) (A)
                 (A) (A) (A) (A) (A) (A) (A) (A) (A) (A) (A) (A)
                 (A) (A) (A) (A) (A) (A) (A) (A) (A) (A) (A) (A)
                 (A) (A) (A) (A) (A) (A) (A) (A) (A) (A) (A) (A)
                 (A) (A)
 The electronic state is 3-A.
 Alpha  occ. eigenvalues -- -197.65207 -22.91195 -19.83896 -19.83722 -19.82215
 Alpha  occ. eigenvalues --  -19.81794 -19.80413 -19.79856 -19.37947 -19.37360
 Alpha  occ. eigenvalues --  -19.36955  -3.26260  -2.28858  -2.28779  -2.28638
 Alpha  occ. eigenvalues --   -1.68303  -1.66166  -1.65303  -1.64207  -1.62970
 Alpha  occ. eigenvalues --   -1.62358  -1.20127  -1.18439  -1.16421  -1.15505
 Alpha  occ. eigenvalues --   -1.14063  -1.12608  -1.07815  -1.07457  -1.06435
 Alpha  occ. eigenvalues --   -1.03373  -1.02361  -1.00299  -0.99317  -0.96288
 Alpha  occ. eigenvalues --   -0.95415  -0.94014  -0.92293  -0.90969  -0.78307
 Alpha  occ. eigenvalues --   -0.77412
 Alpha virt. eigenvalues --   -0.63552  -0.55827  -0.50081  -0.49528  -0.48829
 Alpha virt. eigenvalues --   -0.47706  -0.46651  -0.42972  -0.41867  -0.40530
 Alpha virt. eigenvalues --   -0.40252  -0.37094  -0.35728  -0.35283  -0.33776
 Alpha virt. eigenvalues --   -0.32411  -0.31831  -0.30975  -0.29055  -0.28271
 Alpha virt. eigenvalues --   -0.27805  -0.27514  -0.27119  -0.25119  -0.24911
 Alpha virt. eigenvalues --   -0.24534  -0.23823  -0.22102  -0.21507  -0.21034
 Alpha virt. eigenvalues --   -0.19588  -0.19211  -0.18682  -0.17284  -0.16595
 Alpha virt. eigenvalues --   -0.15375  -0.15301  -0.14769  -0.13870  -0.12554
 Alpha virt. eigenvalues --   -0.11718  -0.11117  -0.09387  -0.08921  -0.07639
 Alpha virt. eigenvalues --   -0.07175  -0.06175  -0.05669  -0.03966  -0.00940
 Alpha virt. eigenvalues --    0.00206   0.01413   0.04494   0.05035   0.06720
 Alpha virt. eigenvalues --    0.08765   0.20439   0.21273   0.22577   0.25442
 Alpha virt. eigenvalues --    0.26834   0.27293   0.27998   0.29072   0.31569
 Alpha virt. eigenvalues --    0.32857   0.33256   0.34400   0.37070   0.37786
 Alpha virt. eigenvalues --    0.38393   0.39285   0.39505   0.41456   0.42007
 Alpha virt. eigenvalues --    0.43393   0.46579   0.48654   0.50437   0.50822
 Alpha virt. eigenvalues --    0.52330   0.52673   0.53469   0.54804   0.56467
 Alpha virt. eigenvalues --    0.57601   0.58336   0.59869   0.61700   0.63135
 Alpha virt. eigenvalues --    0.67487   0.68726   0.68833   0.72187   0.72885
 Alpha virt. eigenvalues --    0.75172   0.75783   0.77558   0.79509   0.81638
 Alpha virt. eigenvalues --    0.82212   0.83359   0.86015   0.87244   0.88001
 Alpha virt. eigenvalues --    0.93029   0.94582   0.94841   1.01122   1.02897
 Alpha virt. eigenvalues --    1.06117   1.13283   1.13795   1.15248   1.17092
 Alpha virt. eigenvalues --    1.19532   1.20098   1.25410   1.28120   1.30432
 Alpha virt. eigenvalues --    1.33461   1.36497   1.38362   1.41595   1.46313
 Alpha virt. eigenvalues --    1.50056   1.67455   1.68886   1.70373   1.71740
 Alpha virt. eigenvalues --    1.74519   1.74978   1.75930   1.77718   1.81375
 Alpha virt. eigenvalues --    1.84691   1.87638   1.89768   1.92870   1.97263
 Alpha virt. eigenvalues --    1.98275   2.01971   2.03777   2.08242   2.14083
 Alpha virt. eigenvalues --    2.17871   2.19845   2.21061   2.27136   2.28668
 Alpha virt. eigenvalues --    2.32203   2.32720   2.34658   2.36689   2.38032
 Alpha virt. eigenvalues --    2.40548   2.41754   2.43516   2.44690   2.46908
 Alpha virt. eigenvalues --    2.49129   2.50134   2.50831   2.54701   2.59559
 Alpha virt. eigenvalues --    2.60967   2.61756   2.62333   2.64596   2.69111
 Alpha virt. eigenvalues --    2.69839   2.78762   2.84126   2.86282   2.87608
 Alpha virt. eigenvalues --    2.90019   2.90961   2.93898   2.94638   2.95945
 Alpha virt. eigenvalues --    3.01651   3.17103   3.23040   3.50170   3.53282
 Alpha virt. eigenvalues --    3.54669   3.60337   3.61349   3.64173   3.65374
 Alpha virt. eigenvalues --    3.67244   3.67861   3.68462   3.71302   3.74019
 Alpha virt. eigenvalues --    3.79060   3.81098   3.86013   3.87049   3.89641
 Alpha virt. eigenvalues --    3.91154   3.96082   3.96407   4.00190   4.04335
 Alpha virt. eigenvalues --    4.05277   4.07927   4.13559   4.16323   4.17329
 Alpha virt. eigenvalues --    4.18445   4.22103   4.24500   4.31608   4.33969
 Alpha virt. eigenvalues --    4.36421   4.38310   4.40230   4.41082   4.48459
 Alpha virt. eigenvalues --    4.54648   4.61015   4.66566   4.68404   4.72136
 Alpha virt. eigenvalues --    4.74267   4.78419   4.85005   4.86661   4.89876
 Alpha virt. eigenvalues --    4.90009   4.90440   4.91515   4.93172   4.96194
 Alpha virt. eigenvalues --    4.97586   5.01504   5.04861   5.06177   5.07633
 Alpha virt. eigenvalues --    5.09867   5.12644   5.15334   5.17744   5.21398
 Alpha virt. eigenvalues --    5.24405   5.26154   5.26404   5.27483   5.29094
 Alpha virt. eigenvalues --    5.29982   5.33038   5.33390   5.33522   5.36231
 Alpha virt. eigenvalues --    5.38752   5.39454   5.40236   5.41768   5.42184
 Alpha virt. eigenvalues --    5.74620   5.77134   6.22429   6.90807   6.93489
 Alpha virt. eigenvalues --    6.94287   7.04031   7.08878   7.16994  13.21759
 Alpha virt. eigenvalues --   13.23255  13.23927  13.68356  13.74086  13.81556
 Alpha virt. eigenvalues --   36.51390
  Beta  occ. eigenvalues -- -197.65199 -22.88639 -19.83934 -19.83752 -19.82206
  Beta  occ. eigenvalues --  -19.81776 -19.80431 -19.79890 -19.36351 -19.35102
  Beta  occ. eigenvalues --  -19.34237  -3.18041  -2.22464  -2.19751  -2.17887
  Beta  occ. eigenvalues --   -1.68172  -1.66088  -1.65171  -1.63938  -1.62819
  Beta  occ. eigenvalues --   -1.62258  -1.19612  -1.17934  -1.16162  -1.15273
  Beta  occ. eigenvalues --   -1.13767  -1.12403  -1.07463  -1.07021  -1.05981
  Beta  occ. eigenvalues --   -1.03086  -1.01973  -1.00082  -0.99023  -0.95988
  Beta  occ. eigenvalues --   -0.95038  -0.93584  -0.91986  -0.90842
  Beta virt. eigenvalues --   -0.60011  -0.57744  -0.57076  -0.55544  -0.49805
  Beta virt. eigenvalues --   -0.47752  -0.46797  -0.46396  -0.45968  -0.42286
  Beta virt. eigenvalues --   -0.41246  -0.40276  -0.40034  -0.36849  -0.35524
  Beta virt. eigenvalues --   -0.35073  -0.33467  -0.32263  -0.31665  -0.30772
  Beta virt. eigenvalues --   -0.28807  -0.28051  -0.27664  -0.27283  -0.26855
  Beta virt. eigenvalues --   -0.24968  -0.24685  -0.24131  -0.23355  -0.21723
  Beta virt. eigenvalues --   -0.21153  -0.20839  -0.19351  -0.18954  -0.18112
  Beta virt. eigenvalues --   -0.16960  -0.16308  -0.15187  -0.15115  -0.14439
  Beta virt. eigenvalues --   -0.13605  -0.12086  -0.11425  -0.10684  -0.09159
  Beta virt. eigenvalues --   -0.08237  -0.07207  -0.06811  -0.05739  -0.05244
  Beta virt. eigenvalues --   -0.03474  -0.00564   0.01221   0.02350   0.04950
  Beta virt. eigenvalues --    0.05258   0.07580   0.09582   0.21643   0.21905
  Beta virt. eigenvalues --    0.23273   0.26345   0.27621   0.28150   0.29157
  Beta virt. eigenvalues --    0.29955   0.31850   0.33280   0.33676   0.34711
  Beta virt. eigenvalues --    0.37422   0.38114   0.38654   0.39574   0.39753
  Beta virt. eigenvalues --    0.41791   0.42543   0.43777   0.47007   0.49180
  Beta virt. eigenvalues --    0.50702   0.51169   0.52626   0.53008   0.53731
  Beta virt. eigenvalues --    0.55027   0.57036   0.57948   0.58733   0.60230
  Beta virt. eigenvalues --    0.62130   0.63663   0.68355   0.68956   0.69021
  Beta virt. eigenvalues --    0.72484   0.73211   0.75523   0.76914   0.77818
  Beta virt. eigenvalues --    0.79703   0.82716   0.82978   0.83744   0.86659
  Beta virt. eigenvalues --    0.87554   0.88361   0.93975   0.94969   0.95765
  Beta virt. eigenvalues --    1.02475   1.04054   1.07288   1.15620   1.16920
  Beta virt. eigenvalues --    1.17646   1.19662   1.22010   1.22550   1.26338
  Beta virt. eigenvalues --    1.29045   1.31342   1.34503   1.37654   1.39859
  Beta virt. eigenvalues --    1.42197   1.47589   1.51041   1.67823   1.69296
  Beta virt. eigenvalues --    1.70717   1.72076   1.75005   1.75392   1.76326
  Beta virt. eigenvalues --    1.78341   1.81831   1.85009   1.87904   1.90433
  Beta virt. eigenvalues --    1.93382   1.97803   1.98877   2.02752   2.04692
  Beta virt. eigenvalues --    2.08900   2.14956   2.19548   2.20954   2.21813
  Beta virt. eigenvalues --    2.27996   2.29585   2.33058   2.33230   2.35169
  Beta virt. eigenvalues --    2.37349   2.39270   2.41281   2.42390   2.44789
  Beta virt. eigenvalues --    2.45307   2.47378   2.49580   2.50950   2.51605
  Beta virt. eigenvalues --    2.55469   2.60112   2.61447   2.62417   2.62994
  Beta virt. eigenvalues --    2.65457   2.69474   2.70184   2.79694   2.86534
  Beta virt. eigenvalues --    2.87674   2.90651   2.93211   2.93462   2.96197
  Beta virt. eigenvalues --    2.97418   2.98620   3.04190   3.20008   3.26286
  Beta virt. eigenvalues --    3.50210   3.53348   3.54730   3.60682   3.61521
  Beta virt. eigenvalues --    3.64674   3.65657   3.67941   3.68229   3.68599
  Beta virt. eigenvalues --    3.71727   3.74358   3.79332   3.81250   3.86611
  Beta virt. eigenvalues --    3.87321   3.89907   3.91350   3.96542   3.99250
  Beta virt. eigenvalues --    4.03895   4.07394   4.08917   4.09639   4.14767
  Beta virt. eigenvalues --    4.18187   4.18833   4.21126   4.24153   4.24701
  Beta virt. eigenvalues --    4.32542   4.35472   4.37139   4.39678   4.40911
  Beta virt. eigenvalues --    4.41937   4.50681   4.56612   4.61248   4.67200
  Beta virt. eigenvalues --    4.68914   4.72517   4.74941   4.79373   4.85124
  Beta virt. eigenvalues --    4.86735   4.90050   4.90154   4.90592   4.91757
  Beta virt. eigenvalues --    4.93540   4.96625   4.97998   5.02125   5.05787
  Beta virt. eigenvalues --    5.06657   5.08619   5.10387   5.12981   5.15837
  Beta virt. eigenvalues --    5.18611   5.21849   5.24725   5.26577   5.27032
  Beta virt. eigenvalues --    5.27767   5.29568   5.30347   5.33342   5.33918
  Beta virt. eigenvalues --    5.34169   5.36826   5.39388   5.40085   5.40436
  Beta virt. eigenvalues --    5.41947   5.42402   5.74721   5.77273   6.23672
  Beta virt. eigenvalues --    6.91051   6.93723   6.94516   7.04176   7.09004
  Beta virt. eigenvalues --    7.17204  13.21892  13.23394  13.24033  13.68400
  Beta virt. eigenvalues --   13.74137  13.81591  36.53260
          Condensed to atoms (all electrons):
               1          2          3          4          5          6
     1  V   22.061610  -0.040878  -0.016550  -0.059241  -0.021484  -0.035739
     2  O   -0.040878   8.295905   0.315549  -0.116991  -0.000975  -0.053152
     3  H   -0.016550   0.315549   0.242334  -0.001197  -0.000010   0.001987
     4  O   -0.059241  -0.116991  -0.001197   8.558132   0.312870  -0.163457
     5  H   -0.021484  -0.000975  -0.000010   0.312870   0.272048   0.001363
     6  O   -0.035739  -0.053152   0.001987  -0.163457   0.001363   8.348740
     7  H   -0.012174  -0.004296   0.000012   0.004952  -0.000224   0.312370
     8  O   -0.048781   0.070210  -0.000551  -0.118755   0.001702  -0.103132
     9  H   -0.014942  -0.000444  -0.000022  -0.004292  -0.000041   0.005352
    10  O   -0.062180  -0.089412  -0.002983   0.095146  -0.000741  -0.138895
    11  H   -0.012308   0.002393  -0.000156  -0.000021   0.000011  -0.002202
    12  O   -0.044821   0.041782   0.002696  -0.138213  -0.000901   0.081248
    13  H   -0.020924  -0.001577  -0.000003  -0.002090  -0.000039  -0.000082
    14  H    0.000574  -0.002365  -0.000007   0.004540   0.000033  -0.000833
    15  H   -0.014342  -0.001324  -0.000031   0.313547  -0.021733  -0.006258
    16  H   -0.011539   0.312809  -0.013391   0.001414  -0.000015  -0.009732
    17  H   -0.022462  -0.002299   0.000090  -0.000658  -0.000020   0.001183
    18  H   -0.015548   0.006037   0.000023  -0.009119  -0.000230   0.313193
    19  H   -0.011546  -0.001252   0.000011   0.006506   0.000672  -0.010765
               7          8          9         10         11         12
     1  V   -0.012174  -0.048781  -0.014942  -0.062180  -0.012308  -0.044821
     2  O   -0.004296   0.070210  -0.000444  -0.089412   0.002393   0.041782
     3  H    0.000012  -0.000551  -0.000022  -0.002983  -0.000156   0.002696
     4  O    0.004952  -0.118755  -0.004292   0.095146  -0.000021  -0.138213
     5  H   -0.000224   0.001702  -0.000041  -0.000741   0.000011  -0.000901
     6  O    0.312370  -0.103132   0.005352  -0.138895  -0.002202   0.081248
     7  H    0.277326  -0.013798  -0.000277   0.007284  -0.000008  -0.001067
     8  O   -0.013798   8.301918   0.314518  -0.099923  -0.005816  -0.020733
     9  H   -0.000277   0.314518   0.258185  -0.011982   0.000576   0.005909
    10  O    0.007284  -0.099923  -0.011982   8.516553   0.312616  -0.167871
    11  H   -0.000008  -0.005816   0.000576   0.312616   0.263565  -0.002769
    12  O   -0.001067  -0.020733   0.005909  -0.167871  -0.002769   8.342586
    13  H    0.000012  -0.000280   0.000022  -0.000240  -0.000091   0.320686
    14  H   -0.000030  -0.008814   0.000635   0.002167   0.002309   0.297850
    15  H    0.000105  -0.001637  -0.000016  -0.000231  -0.000003   0.002173
    16  H   -0.000067  -0.000093   0.000010   0.004558  -0.000003  -0.003468
    17  H    0.000989  -0.000747  -0.000439   0.316786  -0.021529  -0.000202
    18  H   -0.016435   0.005344   0.000003  -0.004232  -0.000011  -0.000531
    19  H    0.003172   0.308594  -0.015868   0.004503   0.000096  -0.003100
              13         14         15         16         17         18
     1  V   -0.020924   0.000574  -0.014342  -0.011539  -0.022462  -0.015548
     2  O   -0.001577  -0.002365  -0.001324   0.312809  -0.002299   0.006037
     3  H   -0.000003  -0.000007  -0.000031  -0.013391   0.000090   0.000023
     4  O   -0.002090   0.004540   0.313547   0.001414  -0.000658  -0.009119
     5  H   -0.000039   0.000033  -0.021733  -0.000015  -0.000020  -0.000230
     6  O   -0.000082  -0.000833  -0.006258  -0.009732   0.001183   0.313193
     7  H    0.000012  -0.000030   0.000105  -0.000067   0.000989  -0.016435
     8  O   -0.000280  -0.008814  -0.001637  -0.000093  -0.000747   0.005344
     9  H    0.000022   0.000635  -0.000016   0.000010  -0.000439   0.000003
    10  O   -0.000240   0.002167  -0.000231   0.004558   0.316786  -0.004232
    11  H   -0.000091   0.002309  -0.000003  -0.000003  -0.021529  -0.000011
    12  O    0.320686   0.297850   0.002173  -0.003468  -0.000202  -0.000531
    13  H    0.237822  -0.014001  -0.000093   0.000006  -0.000017  -0.000023
    14  H   -0.014001   0.277169  -0.000003  -0.000023  -0.000065   0.000010
    15  H   -0.000093  -0.000003   0.255471   0.000816   0.000011   0.000282
    16  H    0.000006  -0.000023   0.000816   0.262263   0.000043   0.000072
    17  H   -0.000017  -0.000065   0.000011   0.000043   0.270450  -0.000084
    18  H   -0.000023   0.000010   0.000282   0.000072  -0.000084   0.255392
    19  H    0.000011  -0.000101  -0.000005  -0.000033  -0.000175  -0.000223
              19
     1  V   -0.011546
     2  O   -0.001252
     3  H    0.000011
     4  O    0.006506
     5  H    0.000672
     6  O   -0.010765
     7  H    0.003172
     8  O    0.308594
     9  H   -0.015868
    10  O    0.004503
    11  H    0.000096
    12  O   -0.003100
    13  H    0.000011
    14  H   -0.000101
    15  H   -0.000005
    16  H   -0.000033
    17  H   -0.000175
    18  H   -0.000223
    19  H    0.272636
          Atomic-Atomic Spin Densities.
               1          2          3          4          5          6
     1  V    2.172136  -0.006906  -0.007571  -0.027241  -0.011475  -0.018143
     2  O   -0.006906  -0.028088   0.005781   0.004451  -0.000050  -0.001502
     3  H   -0.007571   0.005781   0.009407   0.000127   0.000012  -0.000840
     4  O   -0.027241   0.004451   0.000127  -0.002901   0.008367   0.001269
     5  H   -0.011475  -0.000050   0.000012   0.008367   0.010583   0.000578
     6  O   -0.018143  -0.001502  -0.000840   0.001269   0.000578  -0.016531
     7  H   -0.009736  -0.001038   0.000016  -0.000923   0.000004   0.008302
     8  O   -0.012998   0.000663  -0.000014   0.004360   0.002234   0.001971
     9  H   -0.007721  -0.000180  -0.000014  -0.000986  -0.000120  -0.000778
    10  O   -0.026780   0.003699   0.003273  -0.001817  -0.000282   0.004568
    11  H   -0.005783   0.000755  -0.000046   0.000005   0.000003  -0.000932
    12  O   -0.005580   0.003172   0.000149   0.004159  -0.001310  -0.000094
    13  H   -0.007910  -0.000658   0.000010   0.002684  -0.000071   0.000130
    14  H   -0.008627   0.000136  -0.000037  -0.001081  -0.000004  -0.000282
    15  H   -0.004979   0.001271  -0.000089   0.002256  -0.002032   0.000151
    16  H   -0.007447   0.006078  -0.002134   0.000101  -0.000057   0.001194
    17  H   -0.010864  -0.001536  -0.000073  -0.000371  -0.000009   0.002369
    18  H   -0.006597   0.001761   0.000005   0.005082   0.000718   0.000278
    19  H   -0.008357  -0.000177   0.000006   0.000985   0.000601   0.002345
               7          8          9         10         11         12
     1  V   -0.009736  -0.012998  -0.007721  -0.026780  -0.005783  -0.005580
     2  O   -0.001038   0.000663  -0.000180   0.003699   0.000755   0.003172
     3  H    0.000016  -0.000014  -0.000014   0.003273  -0.000046   0.000149
     4  O   -0.000923   0.004360  -0.000986  -0.001817   0.000005   0.004159
     5  H    0.000004   0.002234  -0.000120  -0.000282   0.000003  -0.001310
     6  O    0.008302   0.001971  -0.000778   0.004568  -0.000932  -0.000094
     7  H    0.010115   0.000342  -0.000202   0.000755  -0.000082  -0.000053
     8  O    0.000342  -0.023438   0.003809   0.003351   0.000584   0.000887
     9  H   -0.000202   0.003809   0.012367   0.003385   0.000171   0.001499
    10  O    0.000755   0.003351   0.003385  -0.010452   0.002718   0.005215
    11  H   -0.000082   0.000584   0.000171   0.002718   0.009636   0.000654
    12  O   -0.000053   0.000887   0.001499   0.005215   0.000654  -0.031218
    13  H    0.000006  -0.001267  -0.000005  -0.000079  -0.000120   0.007679
    14  H   -0.000015   0.001643   0.000420   0.000281   0.001035   0.004767
    15  H   -0.000052  -0.000572   0.000015  -0.000050   0.000002   0.000255
    16  H   -0.000085  -0.000086   0.000007  -0.001230   0.000020  -0.000201
    17  H    0.000595   0.000212   0.000387   0.008316  -0.002316  -0.000024
    18  H   -0.002641   0.000029  -0.000004  -0.000792   0.000016  -0.000325
    19  H    0.001491   0.004637  -0.002778  -0.000819  -0.000054  -0.000779
              13         14         15         16         17         18
     1  V   -0.007910  -0.008627  -0.004979  -0.007447  -0.010864  -0.006597
     2  O   -0.000658   0.000136   0.001271   0.006078  -0.001536   0.001761
     3  H    0.000010  -0.000037  -0.000089  -0.002134  -0.000073   0.000005
     4  O    0.002684  -0.001081   0.002256   0.000101  -0.000371   0.005082
     5  H   -0.000071  -0.000004  -0.002032  -0.000057  -0.000009   0.000718
     6  O    0.000130  -0.000282   0.000151   0.001194   0.002369   0.000278
     7  H    0.000006  -0.000015  -0.000052  -0.000085   0.000595  -0.002641
     8  O   -0.001267   0.001643  -0.000572  -0.000086   0.000212   0.000029
     9  H   -0.000005   0.000420   0.000015   0.000007   0.000387  -0.000004
    10  O   -0.000079   0.000281  -0.000050  -0.001230   0.008316  -0.000792
    11  H   -0.000120   0.001035   0.000002   0.000020  -0.002316   0.000016
    12  O    0.007679   0.004767   0.000255  -0.000201  -0.000024  -0.000325
    13  H    0.008919  -0.002306  -0.000048  -0.000018   0.000014  -0.000014
    14  H   -0.002306   0.009513   0.000019   0.000011  -0.000081   0.000007
    15  H   -0.000048   0.000019   0.007714   0.000591   0.000002   0.000114
    16  H   -0.000018   0.000011   0.000591   0.007229   0.000002   0.000162
    17  H    0.000014  -0.000081   0.000002   0.000002   0.010410  -0.000111
    18  H   -0.000014   0.000007   0.000114   0.000162  -0.000111   0.013576
    19  H    0.000019  -0.000095  -0.000081  -0.000014   0.000011  -0.000205
              19
     1  V   -0.008357
     2  O   -0.000177
     3  H    0.000006
     4  O    0.000985
     5  H    0.000601
     6  O    0.002345
     7  H    0.001491
     8  O    0.004637
     9  H   -0.002778
    10  O   -0.000819
    11  H   -0.000054
    12  O   -0.000779
    13  H    0.000019
    14  H   -0.000095
    15  H   -0.000081
    16  H   -0.000014
    17  H    0.000011
    18  H   -0.000205
    19  H    0.010311
 Mulliken charges and spin densities:
               1          2
     1  V    1.403274   1.977423
     2  O   -0.729720  -0.012369
     3  H    0.472199   0.007968
     4  O   -0.683072  -0.001473
     5  H    0.457714   0.007688
     6  O   -0.541191  -0.015947
     7  H    0.442151   0.006798
     8  O   -0.579226  -0.013655
     9  H    0.463112   0.009273
    10  O   -0.680923  -0.006741
    11  H    0.463350   0.006264
    12  O   -0.711256  -0.011146
    13  H    0.480901   0.006963
    14  H    0.440956   0.005306
    15  H    0.473271   0.004487
    16  H    0.456371   0.004123
    17  H    0.459143   0.006933
    18  H    0.466079   0.011058
    19  H    0.446867   0.007048
 Sum of Mulliken charges =   3.00000   2.00000
 Mulliken charges and spin densities with hydrogens summed into heavy atoms:
               1          2
     1  V    1.403274   1.977423
     2  O    0.198850  -0.000278
     4  O    0.247913   0.010702
     6  O    0.367039   0.001908
     8  O    0.330753   0.002666
    10  O    0.241570   0.006457
    12  O    0.210601   0.001122
 APT charges:
               1
     1  V    2.073206
     2  O   -0.634604
     3  H    0.407396
     4  O   -0.582407
     5  H    0.360374
     6  O   -0.573024
     7  H    0.354445
     8  O   -0.581411
     9  H    0.368179
    10  O   -0.578825
    11  H    0.374599
    12  O   -0.619091
    13  H    0.411103
    14  H    0.368921
    15  H    0.382042
    16  H    0.382293
    17  H    0.362740
    18  H    0.366964
    19  H    0.357100
 Sum of APT charges =   3.00000
 APT charges with hydrogens summed into heavy atoms:
               1
     1  V    2.073206
     2  O    0.155085
     4  O    0.160009
     6  O    0.148384
     8  O    0.143868
    10  O    0.158515
    12  O    0.160933
 Electronic spatial extent (au):  <R**2>=            838.7024
 Charge=              3.0000 electrons
 Dipole moment (field-independent basis, Debye):
    X=              2.3043    Y=              3.7165    Z=             -1.0118  Tot=              4.4884
 Quadrupole moment (field-independent basis, Debye-Ang):
   XX=            -12.0433   YY=            -15.3398   ZZ=            -26.3454
   XY=             -4.0511   XZ=             -1.8883   YZ=             -0.7211
 Traceless Quadrupole moment (field-independent basis, Debye-Ang):
   XX=              5.8662   YY=              2.5697   ZZ=             -8.4359
   XY=             -4.0511   XZ=             -1.8883   YZ=             -0.7211
 Octapole moment (field-independent basis, Debye-Ang**2):
  XXX=             18.3906  YYY=             17.5682  ZZZ=              4.9871  XYY=              4.3015
  XXY=              9.2497  XXZ=              3.2167  XZZ=             -8.1071  YZZ=             -3.2677
  YYZ=            -14.7027  XYZ=             -3.2215
 Hexadecapole moment (field-independent basis, Debye-Ang**3):
 XXXX=           -165.8908 YYYY=           -172.1654 ZZZZ=           -212.6341 XXXY=            -21.2668
 XXXZ=              1.4782 YYYX=             -8.4041 YYYZ=             11.6574 ZZZX=            -17.2132
 ZZZY=            -14.9542 XXYY=            -46.3420 XXZZ=            -53.4571 YYZZ=            -50.4540
 XXYZ=             -0.3062 YYXZ=              3.1189 ZZXY=              2.2463
 N-N= 7.177225235776D+02 E-N=-4.706985547248D+03  KE= 1.399409747220D+03
  Exact polarizability:      50.974      -0.328      50.373      -0.865       0.080      46.587
 Approx polarizability:      70.888      -0.301      70.582      -1.776       0.126      64.053
                          Isotropic Fermi Contact Couplings
        Atom                 a.u.       MegaHertz       Gauss      10(-4) cm-1
     1  V(51)             -0.16994    -100.07715     -35.71002     -33.38214
     2  O(17)             -0.01781       5.39809       1.92617       1.80061
     3  H(1)               0.00523      11.69829       4.17424       3.90213
     4  O(17)             -0.00230       0.69842       0.24921       0.23297
     5  H(1)               0.00541      12.09589       4.31611       4.03475
     6  O(17)             -0.00719       2.17855       0.77736       0.72669
     7  H(1)               0.00471      10.52589       3.75590       3.51106
     8  O(17)             -0.01115       3.38032       1.20618       1.12755
     9  H(1)               0.00587      13.12609       4.68371       4.37839
    10  O(17)             -0.00695       2.10613       0.75152       0.70253
    11  H(1)               0.00442       9.87744       3.52452       3.29476
    12  O(17)             -0.01761       5.33730       1.90448       1.78033
    13  H(1)               0.00490      10.95323       3.90838       3.65360
    14  H(1)               0.00396       8.85498       3.15968       2.95370
    15  H(1)               0.00365       8.15105       2.90850       2.71890
    16  H(1)               0.00320       7.15263       2.55223       2.38586
    17  H(1)               0.00554      12.37787       4.41673       4.12881
    18  H(1)               0.00629      14.05509       5.01521       4.68827
    19  H(1)               0.00426       9.51462       3.39505       3.17374
 --------------------------------------------------------
       Center         ----  Spin Dipole Couplings  ----
                      3XX-RR        3YY-RR        3ZZ-RR
 --------------------------------------------------------
     1   Atom        0.738750      0.173067     -0.911817
     2   Atom       -0.002330      0.021694     -0.019365
     3   Atom       -0.007094      0.010699     -0.003605
     4   Atom       -0.016313     -0.024673      0.040986
[...]
    16  H   -0.000002   0.000002  -0.000024   0.266106   0.000001  -0.000047
    17  H    0.000002  -0.000030   0.000000   0.000001   0.266784  -0.000001
    18  H    0.000000   0.000000  -0.000030  -0.000047  -0.000001   0.266669
    19  H    0.000001  -0.000001  -0.000001   0.000000  -0.000030  -0.000030
              19
     1  V   -0.006950
     2  O   -0.000533
     3  H    0.000000
     4  O    0.001714
     5  H   -0.000047
     6  O    0.002423
     7  H   -0.000024
     8  O    0.294289
     9  H   -0.012340
    10  O    0.001537
    11  H    0.000002
    12  O    0.000905
    13  H    0.000001
    14  H   -0.000001
    15  H   -0.000001
    16  H    0.000000
    17  H   -0.000030
    18  H   -0.000030
    19  H    0.266688
          Atomic-Atomic Spin Densities.
               1          2          3          4          5          6
     1  V    2.127403  -0.010673  -0.002163  -0.010697  -0.002173  -0.010627
     2  O   -0.010673  -0.012887   0.002340   0.003158  -0.000032   0.002622
     3  H   -0.002163   0.002340   0.002267   0.000036   0.000001  -0.000175
     4  O   -0.010697   0.003158   0.000036  -0.012897   0.001988   0.003139
     5  H   -0.002173  -0.000032   0.000001   0.001988   0.001649  -0.000045
     6  O   -0.010627   0.002622  -0.000175   0.003139  -0.000045  -0.012991
     7  H   -0.002180  -0.000219   0.000002  -0.000031  -0.000001   0.001991
     8  O   -0.010672  -0.001474  -0.000009   0.002640   0.000472   0.003146
     9  H   -0.002176  -0.000017  -0.000000  -0.000220  -0.000010  -0.000031
    10  O   -0.010733   0.002639   0.000029  -0.001468  -0.000017   0.002636
    11  H   -0.002170   0.000470   0.000017  -0.000017   0.000000  -0.000220
    12  O   -0.010661   0.003149   0.000204   0.002631  -0.000220  -0.001472
    13  H   -0.002178  -0.000044   0.000021   0.000471  -0.000010  -0.000017
    14  H   -0.002154   0.000036  -0.000011  -0.000174   0.000002  -0.000009
    15  H   -0.002165   0.000206  -0.000011   0.002339  -0.000748   0.000036
    16  H   -0.002176   0.001989  -0.000747  -0.000045  -0.000001   0.000473
    17  H   -0.002159  -0.000174  -0.000001  -0.000010  -0.000000   0.000030
    18  H   -0.002158   0.000030  -0.000001   0.000203   0.000021   0.002336
    19  H   -0.002161  -0.000009   0.000000   0.000030   0.000017   0.000203
               7          8          9         10         11         12
     1  V   -0.002180  -0.010672  -0.002176  -0.010733  -0.002170  -0.010661
     2  O   -0.000219  -0.001474  -0.000017   0.002639   0.000470   0.003149
     3  H    0.000002  -0.000009  -0.000000   0.000029   0.000017   0.000204
     4  O   -0.000031   0.002640  -0.000220  -0.001468  -0.000017   0.002631
     5  H   -0.000001   0.000472  -0.000010  -0.000017   0.000000  -0.000220
     6  O    0.001991   0.003146  -0.000031   0.002636  -0.000220  -0.001472
     7  H    0.001650  -0.000044  -0.000001   0.000474  -0.000010  -0.000017
     8  O   -0.000044  -0.012875   0.001988   0.003159  -0.000032   0.002624
     9  H   -0.000001   0.001988   0.001643  -0.000045  -0.000001   0.000473
    10  O    0.000474   0.003159  -0.000045  -0.012804   0.001987   0.003143
    11  H   -0.000010  -0.000032  -0.000001   0.001987   0.001636  -0.000045
    12  O   -0.000017   0.002624   0.000473   0.003143  -0.000045  -0.012917
    13  H    0.000000  -0.000219  -0.000010  -0.000031  -0.000001   0.001991
    14  H   -0.000000   0.000030   0.000017   0.000205   0.000021   0.002330
    15  H    0.000001  -0.000175   0.000002  -0.000010  -0.000000   0.000030
    16  H   -0.000010  -0.000017   0.000000  -0.000220  -0.000010  -0.000031
    17  H    0.000017   0.000206   0.000021   0.002331  -0.000745   0.000037
    18  H   -0.000748   0.000035   0.000001  -0.000175   0.000002  -0.000009
    19  H    0.000021   0.002339  -0.000746   0.000036   0.000001  -0.000175
              13         14         15         16         17         18
     1  V   -0.002178  -0.002154  -0.002165  -0.002176  -0.002159  -0.002158
     2  O   -0.000044   0.000036   0.000206   0.001989  -0.000174   0.000030
     3  H    0.000021  -0.000011  -0.000011  -0.000747  -0.000001  -0.000001
     4  O    0.000471  -0.000174   0.002339  -0.000045  -0.000010   0.000203
     5  H   -0.000010   0.000002  -0.000748  -0.000001  -0.000000   0.000021
     6  O   -0.000017  -0.000009   0.000036   0.000473   0.000030   0.002336
     7  H    0.000000  -0.000000   0.000001  -0.000010   0.000017  -0.000748
     8  O   -0.000219   0.000030  -0.000175  -0.000017   0.000206   0.000035
     9  H   -0.000010   0.000017   0.000002   0.000000   0.000021   0.000001
    10  O   -0.000031   0.000205  -0.000010  -0.000220   0.002331  -0.000175
    11  H   -0.000001   0.000021  -0.000000  -0.000010  -0.000745   0.000002
    12  O    0.001991   0.002330   0.000030  -0.000031   0.000037  -0.000009
    13  H    0.001642  -0.000746   0.000017  -0.000001   0.000001  -0.000000
    14  H   -0.000746   0.002266  -0.000001   0.000001  -0.000011   0.000000
    15  H    0.000017  -0.000001   0.002275   0.000021   0.000000  -0.000011
    16  H   -0.000001   0.000001   0.000021   0.001647   0.000002   0.000017
    17  H    0.000001  -0.000011   0.000000   0.000002   0.002267  -0.000001
    18  H   -0.000000   0.000000  -0.000011   0.000017  -0.000001   0.002272
    19  H    0.000002  -0.000001  -0.000001  -0.000000  -0.000011  -0.000011
              19
     1  V   -0.002161
     2  O   -0.000009
     3  H    0.000000
     4  O    0.000030
     5  H    0.000017
     6  O    0.000203
     7  H    0.000021
     8  O    0.002339
     9  H   -0.000746
    10  O    0.000036
    11  H    0.000001
    12  O   -0.000175
    13  H    0.000002
    14  H   -0.000001
    15  H   -0.000001
    16  H   -0.000000
    17  H   -0.000011
    18  H   -0.000011
    19  H    0.002266
 Mulliken charges and spin densities:
               1          2
     1  V    1.836660   2.037328
     2  O   -0.712789  -0.008892
     3  H    0.452370   0.001799
     4  O   -0.712787  -0.008923
     5  H    0.454454   0.000893
     6  O   -0.712964  -0.008975
     7  H    0.454451   0.000894
     8  O   -0.712932  -0.008878
     9  H    0.454455   0.000887
    10  O   -0.713061  -0.008862
    11  H    0.454505   0.000883
    12  O   -0.713075  -0.008934
    13  H    0.454470   0.000888
    14  H    0.452394   0.001798
    15  H    0.452279   0.001805
    16  H    0.454441   0.000890
    17  H    0.452322   0.001799
    18  H    0.452411   0.001802
    19  H    0.452396   0.001798
 Sum of Mulliken charges =   3.00000   2.00000
 Mulliken charges and spin densities with hydrogens summed into heavy atoms:
               1          2
     1  V    1.836660   2.037328
     2  O    0.194021  -0.006203
     4  O    0.193946  -0.006225
     6  O    0.193898  -0.006279
     8  O    0.193920  -0.006193
    10  O    0.193766  -0.006180
    12  O    0.193790  -0.006248
 Electronic spatial extent (au):  <R**2>=           1043.0478
 Charge=              3.0000 electrons
 Dipole moment (field-independent basis, Debye):
    X=             -0.0008    Y=             -0.0007    Z=              0.0000  Tot=              0.0011
 Quadrupole moment (field-independent basis, Debye-Ang):
   XX=             -6.3424   YY=             -6.3434   ZZ=            -10.0202
   XY=              0.0041   XZ=              0.0102   YZ=             -0.0061
 Traceless Quadrupole moment (field-independent basis, Debye-Ang):
   XX=              1.2263   YY=              1.2253   ZZ=             -2.4516
   XY=              0.0041   XZ=              0.0102   YZ=             -0.0061
 Octapole moment (field-independent basis, Debye-Ang**2):
  XXX=             -0.0043  YYY=              0.0031  ZZZ=             -0.0031  XYY=             -0.0016
  XXY=              0.0048  XXZ=              0.0026  XZZ=             -0.0057  YZZ=             -0.0158
  YYZ=              0.0006  XYZ=             -0.0056
 Hexadecapole moment (field-independent basis, Debye-Ang**3):
 XXXX=           -158.4378 YYYY=           -157.9532 ZZZZ=           -222.5950 XXXY=              0.3440
 XXXZ=             16.6149 YYYX=             -0.1910 YYYZ=             39.4577 ZZZX=              0.4367
 ZZZY=             -0.3501 XXYY=            -52.7727 XXZZ=             -6.0180 YYZZ=             -6.3528
 XXYZ=            -39.1759 YYXZ=            -16.9586 ZZXY=             -0.1245
 N-N= 6.411915890855D+02 E-N=-4.554864056543D+03  KE= 1.396797793560D+03
                          Isotropic Fermi Contact Couplings
        Atom                 a.u.       MegaHertz       Gauss      10(-4) cm-1
     1  V(51)             -0.11636     -68.52752     -24.45232     -22.85832
     2  O(17)             -0.01772       5.37114       1.91656       1.79162
     3  H(1)               0.00127       2.83707       1.01234       0.94635
     4  O(17)             -0.01772       5.37168       1.91675       1.79180
     5  H(1)               0.00072       1.60812       0.57382       0.53641
     6  O(17)             -0.01773       5.37398       1.91757       1.79257
     7  H(1)               0.00072       1.60709       0.57345       0.53607
     8  O(17)             -0.01772       5.36946       1.91596       1.79106
     9  H(1)               0.00072       1.59863       0.57043       0.53324
    10  O(17)             -0.01770       5.36511       1.91441       1.78961
    11  H(1)               0.00071       1.59420       0.56885       0.53177
    12  O(17)             -0.01772       5.36954       1.91598       1.79108
    13  H(1)               0.00072       1.59943       0.57072       0.53351
    14  H(1)               0.00127       2.83429       1.01134       0.94542
    15  H(1)               0.00127       2.84548       1.01534       0.94915
    16  H(1)               0.00072       1.60335       0.57212       0.53482
    17  H(1)               0.00127       2.83625       1.01205       0.94607
    18  H(1)               0.00127       2.84247       1.01426       0.94815
    19  H(1)               0.00127       2.83669       1.01220       0.94622
 --------------------------------------------------------
       Center         ----  Spin Dipole Couplings  ----
                      3XX-RR        3YY-RR        3ZZ-RR
 --------------------------------------------------------
     1   Atom        0.500570      0.496664     -0.997234
     2   Atom        0.027465     -0.017980     -0.009484
     3   Atom        0.008419     -0.001514     -0.006905
     4   Atom       -0.019694      0.029394     -0.009700
     5   Atom       -0.008889      0.001278      0.007611
     6   Atom        0.006618      0.002862     -0.009480
     7   Atom       -0.010060      0.002543      0.007517
     8   Atom        0.027460     -0.017936     -0.009524
     9   Atom        0.007535     -0.015245      0.007710
    10   Atom       -0.019814      0.029572     -0.009757
    11   Atom       -0.008888      0.001251      0.007637
    12   Atom        0.006734      0.002758     -0.009492
    13   Atom       -0.010067      0.002548      0.007519
    14   Atom       -0.014238      0.021269     -0.007032
    15   Atom        0.016288     -0.009256     -0.007031
    16   Atom        0.007553     -0.015244      0.007691
    17   Atom        0.016305     -0.009239     -0.007066
    18   Atom       -0.014237      0.021235     -0.006999
    19   Atom        0.008425     -0.001522     -0.006903
 --------------------------------------------------------
                        XY            XZ            YZ
 --------------------------------------------------------
     1   Atom        0.000472      0.003567     -0.003237
     2   Atom        0.015366     -0.013245     -0.023653
     3   Atom       -0.017544      0.012318     -0.010038
     4   Atom        0.011854     -0.013917      0.023147
     5   Atom        0.010265     -0.011077     -0.017814
     6   Atom       -0.027111      0.027062      0.000431
     7   Atom       -0.009628     -0.009980      0.018456
     8   Atom        0.015408     -0.013218     -0.023681
     9   Atom       -0.000633      0.020973     -0.000586
    10   Atom        0.011725     -0.013986      0.023258
    11   Atom        0.010254     -0.011089     -0.017801
    12   Atom       -0.027174      0.027166      0.000394
    13   Atom       -0.009619     -0.009963      0.018459
    14   Atom        0.004426      0.002491      0.015570
    15   Atom        0.013096     -0.014754     -0.005593
    16   Atom       -0.000636      0.020972     -0.000585
    17   Atom        0.013116     -0.014725     -0.005586
    18   Atom        0.004424      0.002494      0.015594
    19   Atom       -0.017539      0.012319     -0.010035
 --------------------------------------------------------


 ---------------------------------------------------------------------------------
              Anisotropic Spin Dipole Couplings in Principal Axis System
 ---------------------------------------------------------------------------------

       Atom             a.u.   MegaHertz   Gauss  10(-4) cm-1        Axes

              Baa    -0.9972  -140.204   -50.028   -46.767 -0.0024  0.0022  1.0000
     1 V(51)  Bbb     0.4966    69.820    24.913    23.289 -0.1163  0.9932 -0.0024
              Bcc     0.5006    70.385    25.115    23.478  0.9932  0.1163  0.0021
 
              Baa    -0.0380     2.746     0.980     0.916 -0.0575  0.7809  0.6220
     2 O(17)  Bbb    -0.0028     0.203     0.072     0.068  0.5470 -0.4966  0.6739
              Bcc     0.0408    -2.949    -1.052    -0.984  0.8352  0.3790 -0.3986
 
              Baa    -0.0150    -8.026    -2.864    -2.677  0.4007  0.8211  0.4064
     3 H(1)   Bbb    -0.0137    -7.318    -2.611    -2.441 -0.5598 -0.1318  0.8181
              Bcc     0.0288    15.344     5.475     5.118  0.7254 -0.5553  0.4068
 
              Baa    -0.0378     2.738     0.977     0.913  0.7019 -0.3393  0.6262
     4 O(17)  Bbb    -0.0027     0.198     0.071     0.066  0.7068  0.2229 -0.6714
              Bcc     0.0406    -2.936    -1.048    -0.979  0.0882  0.9139  0.3963
 
              Baa    -0.0153    -8.142    -2.905    -2.716  0.8518 -0.5238  0.0046
     5 H(1)   Bbb    -0.0133    -7.121    -2.541    -2.375  0.3674  0.6038  0.7074
              Bcc     0.0286    15.264     5.446     5.091 -0.3733 -0.6009  0.7068
 
              Baa    -0.0378     2.737     0.977     0.913  0.6471  0.4377 -0.6243
     6 O(17)  Bbb    -0.0027     0.192     0.068     0.064  0.1579  0.7241  0.6714
              Bcc     0.0405    -2.929    -1.045    -0.977  0.7459 -0.5330  0.3994
 
              Baa    -0.0153    -8.145    -2.906    -2.717  0.8798  0.4753  0.0004
     7 H(1)   Bbb    -0.0133    -7.123    -2.542    -2.376  0.3349 -0.6205  0.7090
              Bcc     0.0286    15.267     5.448     5.093 -0.3372  0.6237  0.7052
 
              Baa    -0.0380     2.748     0.980     0.917 -0.0580  0.7804  0.6226
     8 O(17)  Bbb    -0.0028     0.202     0.072     0.068  0.5472 -0.4968  0.6736
              Bcc     0.0408    -2.950    -1.053    -0.984  0.8350  0.3798 -0.3982
 
              Baa    -0.0153    -8.143    -2.906    -2.716  0.0268  0.9996  0.0010
     9 H(1)   Bbb    -0.0133    -7.123    -2.542    -2.376  0.7082 -0.0183 -0.7058
              Bcc     0.0286    15.266     5.447     5.092  0.7055 -0.0196  0.7084
 
              Baa    -0.0379     2.746     0.980     0.916  0.7020 -0.3379  0.6270
    10 O(17)  Bbb    -0.0028     0.204     0.073     0.068  0.7071  0.2253 -0.6703
              Bcc     0.0408    -2.950    -1.053    -0.984  0.0852  0.9138  0.3971
 
              Baa    -0.0153    -8.141    -2.905    -2.715  0.8530 -0.5218  0.0074
    11 H(1)   Bbb    -0.0133    -7.120    -2.540    -2.375  0.3646  0.6061  0.7069
              Bcc     0.0286    15.260     5.445     5.090 -0.3734 -0.6003  0.7072
 
              Baa    -0.0379     2.743     0.979     0.915  0.6467  0.4382 -0.6243
    12 O(17)  Bbb    -0.0027     0.198     0.071     0.066  0.1563  0.7250  0.6708
              Bcc     0.0406    -2.941    -1.049    -0.981  0.7466 -0.5314  0.4004
 
              Baa    -0.0153    -8.143    -2.906    -2.716  0.8793  0.4763 -0.0014
    13 H(1)   Bbb    -0.0133    -7.121    -2.541    -2.375  0.3368 -0.6196  0.7090
              Bcc     0.0286    15.264     5.447     5.091 -0.3368  0.6239  0.7052
 
              Baa    -0.0150    -8.025    -2.864    -2.677  0.9118  0.0628 -0.4057
    14 H(1)   Bbb    -0.0137    -7.316    -2.610    -2.440  0.3936 -0.4149  0.8203
              Bcc     0.0288    15.341     5.474     5.117  0.1168  0.9077  0.4031
 
              Baa    -0.0150    -8.025    -2.864    -2.677 -0.5092  0.7571 -0.4093
    15 H(1)   Bbb    -0.0137    -7.318    -2.611    -2.441  0.1618  0.5513  0.8184
              Bcc     0.0288    15.343     5.475     5.118  0.8453  0.3505 -0.4032
 
              Baa    -0.0153    -8.143    -2.906    -2.716  0.0276  0.9996  0.0003
    16 H(1)   Bbb    -0.0133    -7.123    -2.542    -2.376  0.7079 -0.0194 -0.7061
              Bcc     0.0286    15.266     5.447     5.092  0.7058 -0.0197  0.7081
 
              Baa    -0.0150    -8.025    -2.864    -2.677 -0.5095  0.7558 -0.4113
    17 H(1)   Bbb    -0.0137    -7.318    -2.611    -2.441  0.1597  0.5528  0.8179
              Bcc     0.0288    15.343     5.475     5.118  0.8455  0.3510 -0.4023
 
              Baa    -0.0150    -8.024    -2.863    -2.676  0.9125  0.0625 -0.4043
    18 H(1)   Bbb    -0.0137    -7.314    -2.610    -2.440  0.3920 -0.4158  0.8206
              Bcc     0.0287    15.338     5.473     5.116  0.1168  0.9073  0.4039
 
              Baa    -0.0150    -8.025    -2.864    -2.677  0.4002  0.8212  0.4068
    19 H(1)   Bbb    -0.0137    -7.317    -2.611    -2.441 -0.5599 -0.1323  0.8179
              Bcc     0.0288    15.342     5.474     5.118  0.7255 -0.5551  0.4069
 

 ---------------------------------------------------------------------------------

 No NMR shielding tensors so no spin-rotation constants.
 Leave Link  601 at Thu May 23 19:32:41 2024, MaxMem= 26843545600 cpu:              28.5 elap:               0.3
 (Enter /gpfs/fs1/soft/improv/software/custom-built/gaussian/g16/l9999.exe)
 Unable to Open any file for archive entry.
 1\1\GINC-I511\SP\UHSEH1PBE\Gen\H12O6V1(3+,3)\HHARB\23-May-2024\0\\#p H
 SEH1PBE scf=(maxcycles=500,xqc,maxconventional=50) scrf=(cpcm,solvent=
 water) geom=allcheck guess=read chkbasis\\Title\\3,3\V,-0.7846730872,0
 .7130532849,0.0319091731\O,-1.3001251127,2.6542242437,-0.277088697\H,-
 1.585850439,3.0518409572,-1.1176893154\O,1.1717851238,1.2610261971,0.0
 687146943\H,1.9229813601,0.7042425269,0.3373950512\O,-0.8776764349,0.9
 861139682,2.0432790443\H,-1.6076323889,0.7205445356,2.6290477274\O,-0.
 2692035558,-1.2281956565,0.3406481948\H,-0.2231531527,-1.9279832084,-0
 .3336341412\O,-2.7411151374,0.1645444849,-0.0051196117\H,-3.4927568945
 ,0.7217978717,-0.2716671813\O,-0.6925023117,0.4400187676,-1.9795884644
 \H,0.0374770454,0.7044864858,-2.5657892813\H,-1.3506472664,-0.01318358
 16,-2.5343402576\H,1.5403324888,2.115420854,-0.2150588617\H,-1.3453030
 738,3.3544599626,0.3967731517\H,-3.1090621825,-0.6908012688,0.27671292
 74\H,-0.2206867584,1.4406091708,2.5983798777\H,0.0162942078,-1.6261398
 258,1.1811613798\\Version=ES64L-G16RevC.02\State=3-A\HF=-1401.6069966\
 S2=2.005112\S2-1=0.\S2A=2.000016\RMSD=5.578e-09\Dipole=0.000281,0.0002
 636,0.0001565\Quadrupole=-0.5704947,0.2868226,0.283672,0.9639653,0.964
 3296,-0.6232297\PG=C01 [X(H12O6V1)]\\@
 The archive entry for this job was punched.


 POCKETA-POCKETA
 BARON VON RICHTOFEN
 SLAUGHTERED THE ALLIES WITH
 HARDLY A CARE.
 KILLED EIGHTY-ONE WITH HIS
 BLOOD-COLORED TRIPLANE, THEN
 UN-AEROBATICALLY
 PLUNGED FROM THE AIR.
   -- TONY HOFFMAN
 Job cpu time:       0 days  2 hours 56 minutes  0.9 seconds.
 Elapsed time:       0 days  0 hours  1 minutes 29.3 seconds.
 File lengths (MBytes):  RWF=    120 Int=      0 D2E=      0 Chk=     32 Scr=      1
 Normal termination of Gaussian 16 at Thu May 23 19:32:41 2024.
