31
Fe_CN6_minus2_HS.log	Energy: -1429386.4818505
Fe         0.11140       -0.11596        0.14921
C         -0.82713        0.81137        1.62627
C          1.88900        1.32841        0.37476
C          0.93544       -1.36266        1.44787
C          1.05051       -1.04314       -1.32888
C         -1.68822       -1.53723       -0.09508
C         -0.71923        1.12124       -1.15763
N         -1.39489        1.36347        2.50093
N          2.78261        2.09512        0.48055
N          1.43527       -2.10626        2.21567
N          1.62035       -1.59017       -2.20538
N         -2.63584       -2.23165       -0.22719
N         -1.22501        1.85029       -1.93537
H         -3.19148        1.74388       -4.18031
H         -2.22967        2.47385       -3.24821
H          3.29889       -0.92458       -4.58575
H          2.59662       -1.89819       -3.64457
H          3.28652        5.01713        0.54794
H          3.71826        3.55217        0.58627
H          2.53089       -3.30404        2.90616
H          3.74838       -3.99174        2.29745
H         -2.61470        2.26700        3.40258
H         -3.96732        2.81239        2.95511
H         -5.59844       -2.08148       -0.28736
H         -4.26164       -2.81720       -0.37330
O          4.10087        4.49380        0.63040
O          3.17482       -1.88181       -4.47352
O          3.24854       -3.97986        3.13064
O         -3.41253        2.77996        3.75224
O         -5.26397       -2.98210       -0.43169
O         -2.86429        2.64405       -4.01607
