19
Fe_2_HSE06_secondrun.log	Energy: -1080202.3061170
Fe         0.00000        0.00001       -0.00000
O         -1.88082       -0.03020        1.02376
H         -2.75681       -0.04546        0.62127
O         -0.03526        2.14699       -0.00105
H          0.53153        2.73008       -0.51901
O          1.04920        0.01804        1.83429
H          1.37141       -0.75356        2.31507
O          1.88083        0.03022       -1.02374
H          2.00685        0.03151       -1.97962
O          0.03524       -2.14698        0.00104
H          0.62108       -2.71151       -0.51628
O         -1.04920       -0.01810       -1.83429
H         -1.37143        0.75346       -2.31513
H         -1.34544       -0.80022       -2.31477
H         -0.62105        2.71151        0.51634
H         -2.00682       -0.03155        1.97965
H         -0.53162       -2.73006        0.51893
H          1.34547        0.80011        2.31483
H          2.75681        0.04563       -0.62123
