19
Fe_2_O3LYP.log	Energy: -1080623.7846804
Fe        -0.00244       -0.00052        0.00015
O         -0.63995        1.85978        0.95245
H         -0.69256        2.02490        1.90128
O         -2.08215       -0.70170       -0.02465
H         -2.43350       -1.44764       -0.52492
O         -0.28602        0.93709       -1.91517
H          0.36491        1.46424       -2.39405
O          0.63640       -1.85995       -0.95405
H          0.90174       -2.67724       -0.51636
O          2.08267        0.69653        0.02475
H          2.43246        1.45598        0.50547
O          0.29530       -0.93041        1.91669
H         -0.34553       -1.45946        2.40696
H          1.11904       -0.95158        2.41860
H         -2.82352       -0.32783        0.46635
H         -0.93454        2.66686        0.51311
H          2.82625        0.30722       -0.44996
H         -1.10298        0.96715       -2.42756
H          0.70163       -2.01972       -1.90284
