220
 energy: -383.788239286109 gnorm: 0.000653069055 xtb: 6.6.0 (conda-forge)
C           -3.79945290036242       -2.36891495436725       -0.88653200176814
C           -4.43666861880480       -1.27910473542345       -0.34205338510701
C           -3.69950860542204       -0.32105125381420        0.34977684723556
C           -2.31413854271713       -0.41166101530819        0.51915464405912
C           -1.65035977521265       -1.58977209008418       -0.02138535048496
C           -2.42239836523248       -2.51480680082390       -0.72165946073925
O           -0.36336352547678       -1.78194961792866        0.19208546702577
O           -1.64347132952333        0.51579578366221        1.15059390144428
H           -4.35524778783311       -3.11900217448993       -1.44138895239168
H           -5.50921717038440       -1.15144765881591       -0.45618263199505
H           -4.20374944634292        0.54834358862587        0.76811061776088
H           -1.92004605354940       -3.38409504454744       -1.14435814696111
Fe           0.77547093927754        0.43714759915072        0.51924705589624
C            3.52549364675130        2.38896739511875        4.99994869600585
C            3.31710619567078        3.59449893805822        4.37301743997850
C            2.61416673201354        3.63933103685345        3.17059159342626
C            2.09742234045288        2.49176482771570        2.55431461582736
C            2.32820620725622        1.21323457187560        3.21802038769781
C            3.02867765542994        1.21823232214746        4.42460651348020
O            1.88527863085747        0.09700739155135        2.68732312490967
O            1.42843167848305        2.55373659771230        1.44225875834459
H            4.07265978282044        2.33758273740477        5.93624059367558
H            3.69605688774086        4.51489437949852        4.80657693961890
H            2.44890126180481        4.59527396091488        2.67694995820660
H            3.19346491298233        0.26174617294943        4.91902547749879
C            3.45512643681829        1.04242893154394       -4.40899754122133
C            2.18062596252524        1.27207295642174       -4.87090846561575
C            1.10806256280766        1.23457608522756       -3.98219158327759
C            1.26368524280770        0.96971059530194       -2.61662200434688
C            2.61274450365013        0.69957218548335       -2.13245197943329
C            3.65877015886829        0.76436091041955       -3.05820865444966
O            2.83423457382385        0.38958543299792       -0.87869637057905
O            0.23789407352042        0.96850618985128       -1.80746116999133
H            4.30270761425749        1.06336610940881       -5.08736920041984
H            2.00108256849024        1.47853035966774       -5.92177569936414
H            0.09787481609738        1.41507565387262       -4.34622142605088
H            4.66677132081107        0.56387649719177       -2.69844566125717
O            3.55811861220618       -0.22089545538386       10.73259911716268
H            3.58581948958095       -0.15951578154254        9.77383594140335
H            2.63473836934816       -0.33290388536977       10.98045016137858
O           -1.46036949992876        1.48692714227338        8.16170732075301
H           -2.07511142888499        1.15226389201235        7.50184395966001
H           -0.63133540035365        1.66004700165005        7.70649123521985
O            0.34305750019879        7.62660803116088        6.58430384384901
H            0.22822279702751        6.74545376455716        6.95233525044876
H            0.41337915923722        7.52292573042923        5.63121991728336
O            7.58616336659259       -2.83761539621054        6.46557636795495
H            6.88590315934370       -2.32472244914075        6.05304010517053
H            7.78638937543674       -3.56779639056412        5.87078246127314
O           -3.11224438668172        4.45520155521056        4.24671536747908
H           -2.26919138658888        4.23679346325420        3.84024031028865
H           -3.70844559492257        3.72951902347933        4.03871727014990
O            8.73167622013251        5.10178622286986        4.71316653691485
H            8.24184419952791        4.27628398011790        4.66527615150415
H            8.25716235111564        5.74207144874063        4.17371885741913
O            3.93774755564531       -5.02370841134833        3.63578581847210
H            3.76927054708072       -4.30108960168091        3.02446401610199
H            3.15301747370484       -5.10250723557827        4.18675243831163
O           -0.39949412830082        8.34828418900796        0.51187601689187
H           -0.61380988051024        7.59232198799360        1.06578935440631
H           -0.18896570726884        7.99959906411118       -0.35941958631597
O            7.23558517464173       -1.21262171384483        1.33506642245901
H            6.94429761820362       -1.65681864129434        0.53312321623388
H            6.45960287681453       -0.77769007695826        1.69789465323847
O           -0.58041519071287       -0.25881494684195        3.42918468443595
H           -1.01719312383869        0.03718838377581        2.57668497697899
H            0.38255700713625       -0.12019039839350        3.17342403449477
O            5.75701975506946        8.64166865652770        1.28465258648710
H            5.08770572776381        7.95421187113037        1.33507398545343
H            6.19119789655387        8.54607080289768        0.43085814767989
O            2.19324730970365       -2.16535821268714       -0.72915544400147
H            2.46685446592698       -1.20436020930807       -0.72673168507204
H            1.26553122410376       -2.09301314688661       -0.43171975615955
O           -4.83973147027314        5.77311555246466       -0.66567372423783
H           -4.28439779309400        5.06246958425471       -0.33411062960398
H           -4.35928077059353        6.18840049718550       -1.38895424033536
O            7.35483603454961        3.99807205035873       -0.07964585512658
H            7.98321357640885        3.28980162120417        0.09400836458738
H            6.47714646215113        3.64511198727927        0.08813642327248
O           -0.49996064343773       -2.84772394738170        2.60697868487815
H           -0.53017046122521       -1.98090355196433        3.06838796600963
H           -0.36671319414937       -2.53740183196925        1.66920745221338
O           -0.14773880644375        3.34414516063867       -0.67658687801690
H           -0.08924225555535        2.45505011934316       -1.11447058143130
H            0.36140799691058        3.16844220529591        0.13608349849438
O            5.91004129476498       -5.61126242128194       -1.88746789358076
H            5.32864151001758       -5.70556106282686       -1.12648488553131
H            5.52932300840477       -4.92434508978793       -2.44207099518880
O           -4.63335287577140        1.87061088651113       -4.74646280523452
H           -4.48181130366118        0.92125662258717       -4.76803783061385
H           -4.28762269814315        2.18427509135719       -3.90603898878668
O            3.80156298270961        6.35234071410977       -3.00923505056651
H            4.48477192688399        5.85031073484919       -3.46462715090806
H            3.24725944122824        5.71431109981841       -2.55250271627121
O            1.47530302017772       -4.55652240850680       -5.13218881743607
H            1.78680939613879       -3.65741539684288       -4.99627097323543
H            1.21607014281755       -4.89084245334314       -4.26833959326072
O           -1.40582410708530        6.45899138908289       -5.08444001499524
H           -2.08648461647473        5.97093676469604       -5.55883511521387
H           -0.95725920875566        5.83167250943905       -4.51069297369210
O            8.98879023545990        3.40275621133834       -5.31564502689221
H            9.43666600924453        4.19345072527198       -4.99606450184210
H            8.35883555205043        3.14197674743209       -4.63815154989413
O           -1.85382529982983       -1.17132897601339       -8.29839931121932
H           -1.51175543477072       -1.55829745561457       -7.48712684825525
H           -1.64345332111243       -0.23302575082014       -8.27531849962099
O            2.69282081511667        6.36933296007939       -8.30442112824323
H            2.67194508934483        7.21436488528445       -7.84286385498678
H            2.50423814107868        5.68658251796295       -7.65472944162530
O            6.57769324850646        1.13503103584428       15.01550935883188
H            6.93309688417576        0.34703149586561       14.59215979648990
H            5.85630043620474        1.44745711067748       14.46079352619365
O           -1.89305986470180        0.90196064812679       10.94261080439694
H           -2.03443679358173       -0.04863759896880       10.89167587286719
H           -1.72605946702508        1.19463437478614       10.03366579740058
O           -0.24433137155740        9.81762469544826       11.37857932576274
H            0.51194339033003        9.64571787976862       10.80917417360636
H           -0.98330722951731        9.31463616011223       11.02182548925888
O            8.02917462020905       -3.34747702074744       11.79824756757110
H            8.55099804879896       -3.29363700197536       10.99158576382293
H            7.11158261322714       -3.20679293762658       11.54512831103875
O           -3.97187514873466        5.96942284658914        9.60369689175647
H           -3.71144110623509        5.32994921897535       10.27424737731853
H           -3.90928651182698        5.52422247314403        8.75324224614971
O           11.34225644558545        8.21394412552076        7.96285785194877
H           11.62030599428725        7.35747824395196        7.62318764640508
H           10.39669126249648        8.28544414901977        7.79970018602188
O            0.00480390729933       -3.22291447125395        7.94445586811182
H            0.61287362029555       -2.77987256144716        7.34591219514913
H           -0.81277471029378       -3.35709873853483        7.45554203275802
O           -4.01418023474208       10.46442522915615        6.22550489515766
H           -3.82301484234840        9.91567421706547        6.99272258159954
H           -3.50098287569943       10.11132651615104        5.49234598191786
O           11.70645100129838       -0.46891458717368        4.38379432907201
H           10.78486785184018       -0.20926414125120        4.29322393514896
H           11.71926542455522       -1.42784364692555        4.46579405434390
O           -5.56671474256521       -1.99599872253101        5.20851224284759
H           -4.65253600877571       -1.84157066079108        4.95441685502958
H           -6.08866330636296       -1.95169965659504        4.40138708269237
O            7.13760652328309       12.34915586659292        4.93588117010320
H            6.67018575758581       11.51631140284297        4.82073351815514
H            6.54300308412769       13.04432664618319        4.63656449427461
O            7.50948111799884       -8.66131768910557        5.96132800710579
H            8.23020359708143       -8.32279760333941        5.42045164183028
H            6.72991005815665       -8.13957767347184        5.74825367364239
O           -7.83040659089908        7.39941691777211        3.63111826391126
H           -7.05060736231647        6.91931176038137        3.33687674931380
H           -7.54065190921348        8.01305966173610        4.31427690506109
O           12.59497777335445        4.13272076845447        1.34445099683301
H           12.26837223793914        5.01364900322392        1.55334725941613
H           12.43697181837187        3.58576037031453        2.12016207423858
O           -3.68307236964682       -6.87760549688054        2.87249984533451
H           -3.24205171767825       -6.54292337294313        2.08640446553514
H           -3.60472526081167       -6.19291832776162        3.54382878942763
O            1.99169033702670       12.19210180168777        3.87576137502785
H            1.53611551316165       11.87138043488145        4.66045711458245
H            1.68435270059249       11.66033046134628        3.13548180541488
O            9.96002236430898       -5.46327722628581        2.06089946664725
H           10.37066785983782       -4.78468666658530        1.51583496898447
H            9.06858850487884       -5.59167828180555        1.72266320187560
O           -9.16987475889649        2.94611765678233        0.14830679010771
H           -8.29029321803158        2.59433164684383       -0.01461567654451
H           -9.05880504317384        3.85000946717217        0.46071116818581
O           11.16764842661560        9.49189986934089        2.60865890431818
H           11.35855222540233        9.80074253746994        3.49994630322141
H           10.23169429442292        9.65157106693227        2.45278429616122
O            1.09300623554779       -7.62061739136491        0.10591934766886
H            1.14435859257099       -7.87470941146144        1.03322987527250
H            0.97850672899391       -6.66656620032048        0.08529430288641
O           -5.39881245940861       11.00809712528556        0.04802456963800
H           -5.99022172326344       10.27474524962310        0.24449122269272
H           -4.50072027518936       10.66659324492533        0.09715201208575
O           12.36359440334159       -0.93822069754109       -0.68769590353836
H           13.02570788483301       -0.43549154264267       -0.20166012234037
H           11.50325590064853       -0.62938285902814       -0.38864022265234
O           -8.55282365933875       -5.61481232565097        0.93311848175651
H           -7.90434222492582       -6.31098625515181        1.07927690416958
H           -8.06687906476276       -4.78682714827715        0.87945768462739
O            3.32608766502702       11.83465852296091       -2.01012886405894
H            3.00102861530543       10.93444871619265       -1.91449998300676
H            3.54503889698786       12.14950730406694       -1.12741396787576
O            4.70620614710168      -10.87750864167573       -2.64971011890734
H            5.40978346728242      -10.22134924225056       -2.62304513342820
H            3.88742657333179      -10.41684508814823       -2.44214055764539
O           -8.86954012839402        5.45517989360999       -4.51907461093090
H           -8.54657054249324        4.56233092408708       -4.67497979858743
H           -8.40697650925441        5.78799933128909       -3.74337595335877
O           10.52044336195654        8.02189395480844       -2.38611378844828
H           11.30747445091078        8.35687940039508       -1.94449494138792
H           10.08310777755453        7.43047898718535       -1.76618137375551
O           -2.81059221837992       -6.79494673776064       -7.19381157217954
H           -1.92251962268353       -6.91027165615266       -7.54781431802493
H           -2.72467515998685       -6.28964694857972       -6.38041950786515
O           -0.08284693273724       11.60200272269051       -6.54270693646523
H           -0.67867077547699       10.88159857261331       -6.31541159629140
H            0.58253939590983       11.64657066093230       -5.84884918274242
O           13.17665326215832       -0.19634131520869       -6.22479079605477
H           13.12995626608991       -0.51422641234232       -5.31756283261439
H           12.38531926700875        0.32912908126779       -6.37840016475628
O           -6.77218160191148        0.81991062225382       -9.88979378625814
H           -5.97708876870123        0.38259493726179      -10.21089666529933
H           -6.56519858331553        1.17735740732139       -9.02101786999070
O            6.50625664432479        9.53681354740572       -6.07510292049346
H            7.16240279005649        9.16832325647386       -5.47536530666920
H            5.78257907160715        9.86526241212374       -5.53276888588055
O            1.99611678623214       -6.28153626491972      -10.34155154283752
H            2.30107843051660       -6.10917046816091       -9.44560827182798
H            1.41014982822111       -5.55715602523050      -10.58318917718822
O           -2.68686741391580        7.68118313902072      -10.31935300482059
H           -2.33963862414485        6.94409612423465      -10.83142186098157
H           -1.96247304872898        8.00977576400097       -9.77758455876475
O            7.66380873459549        5.88480835598638      -10.13494193613462
H            7.64827244507250        5.16300749702419       -9.49921075436328
H            7.33482626072074        6.66630913501724       -9.67890290804780
O           -2.26921519202073       -2.65146219173611      -10.72983347599393
H           -2.87663540552966       -3.34238114822495      -10.44659305175048
H           -2.09133463342352       -2.11501677593301       -9.94239990525967
O            2.19857384227192        6.01956353899018      -11.10588904981368
H            3.08748914443263        5.93343644287294      -11.46427560547682
H            2.30941692428532        6.13636716657285      -10.14914067787880
