352
 energy: -47.333713480620 gnorm: 0.001618625222 xtb: 6.6.1 (8d0f1dd)
C           -1.38377000011679        3.56890999998227        1.03846000013656
C           -1.14660000000517        4.80980000003821        0.48221999998070
O           -0.36569000004084        5.03376999999454       -0.67410999993415
C            0.24380999997097        3.87997000010535       -1.28189000015317
C            0.05061999993785        2.59425000004988       -0.79349000000323
C           -0.79521999994831        2.41224999996843        0.42325000006120
O           -0.91385000004985        1.12741999999559        0.77576999991971
O            0.53095000000600        1.43447000000515       -1.28289000000591
C           -1.66968999989486        6.18584999998297        0.96891999990851
O           -0.82524000003073        7.27461999985522        0.45021000008559
H           -2.00744000005039        3.48958000002457        1.93673000007236
H            0.81523000001901        4.15842000000557       -2.17426000004784
H           -2.73344000001207        6.31923000001431        0.63876999999794
H           -1.67809000006474        6.21315000000386        2.08255000001159
H           -0.36084000001034        6.75450000001770       -0.31379000020651
Fe           0.00101999997659       -0.00218999989529       -0.15748999994863
C           -2.40539000005566       -2.98142000001742        1.03957000003734
C           -3.59910999990400       -3.39464999988120        0.48300000026450
O           -4.18119000006011       -2.83106999994007       -0.67486999984927
C           -3.48368999997015       -1.72891000018152       -1.28388000003134
C           -2.27312000002668       -1.25512000002575       -0.79502999986866
C           -1.69500999999367       -1.89594999986808        0.42320999986731
O           -0.52206000003413       -1.35821999994604        0.77586000000234
O           -1.50636000004833       -0.26159999997747       -1.28526999997033
C           -4.53245999991690       -4.53249999997143        0.97102999977585
O           -5.89621999998241       -4.34374999995223        0.45022000018464
H           -2.02686000006394       -3.48117000003710        1.93905999995781
H           -4.00894000003562       -1.37353999991576       -2.17730000002250
H           -4.11801999998640       -5.52190999999824        0.64373999999197
H           -4.55351999998031       -4.55100000002157        2.08452999998945
H           -5.67582999994006       -3.68323000007709       -0.31461999997261
C            3.78534000006970       -0.58844999989451        1.04107999981953
C            4.74232000004503       -1.41296999973545        0.48444999986238
O            4.54707999990068       -2.19990999998968       -0.67295000016272
C            3.24354999990401       -2.15087000003900       -1.28170000002541
C            2.22582000001467       -1.34197999990565       -0.79294000002260
C            2.48973999999755       -0.51990000011481        0.42505999998831
O            1.43563999997780        0.22424999996462        0.77761999995414
O            0.98155000000189       -1.17807000001509       -1.28306999991787
C            6.19564000002886       -1.64698999986512        0.97157000029900
O            6.71996000004954       -2.91857999985320        0.44743999984017
H            4.02753999998670       -0.00953999991021        1.94014999998586
H            3.20008000000889       -2.78380000001693       -2.17494999994984
H            6.84116999996297       -0.78949000013332        0.64636000001496
H            6.22246999998937       -1.65860000002497        2.08506999982929
H            6.03701999988928       -3.06036999997489       -0.31633000009378
O            0.49820567724083       -0.31758849474790        5.56338025181248
H            0.67013019321215       -0.71463681974701        4.68723652003805
H            0.83173004496161        0.59851675881338        5.47775846204564
O           -2.26880867887608        0.89565405318998        5.35548188132018
H           -2.40900113294382        0.57355649963937        4.44365527214818
H           -1.36938902926005        0.58630691685358        5.56135479275645
O            2.10056625819516        2.50772050235281        2.41281778399876
H            1.81236787718292        1.77341090140372        1.85042817104543
H            1.79114639087502        2.30164359186673        3.31698977356680
O            0.77902031480319       -1.47004964874195        3.00323743924299
H            1.00548314645041       -0.90064929343860        2.24184179022329
H            0.00442387955087       -1.94573171399207        2.66372925117386
O           -4.52185822782819        2.69575993794945        4.84305434524652
H           -3.73599594448167        2.14640072697430        5.02063390046845
H           -5.00200675349471        2.22757806172115        4.13141632387427
O            6.58328188413358        1.63593358325849        1.53678317811604
H            6.06082196203947        1.95960416944652        2.29367714116028
H            5.97171938555011        1.04590505397591        1.06767249958169
O           -2.64290950357979       -0.14927772886035        2.71951425910800
H           -2.04409388605792        0.20506239549234        2.04436099381542
H           -3.43233605567809       -0.45895857412817        2.23711963228893
O            0.88282008811916        5.16909493783897        2.65019873206136
H            1.26669120394447        4.27614725079725        2.59973086614617
H            0.52928953128772        5.32103692209350        1.76341228629683
O            7.13236902366856       -4.64772768415506        2.63409233661602
H            6.95488007581966       -4.06309429995392        1.86977641242442
H            6.40391822588204       -5.28444954147461        2.59683175873171
O           -5.26870156528305       -1.17793568545489        1.46231390551988
H           -5.73674930978559       -1.83303810619783        2.00110644445842
H           -4.81956133457239       -1.72321657343392        0.79245655194727
O            2.48932574199976        5.98613130502112       -0.87621691521899
H            1.57006539551726        5.66336938253702       -0.84657480752014
H            2.92666005016150        5.54127649775190       -0.12508680158946
O            3.20494598523759       -4.35709719880106        0.85018415910529
H            3.70339549168194       -3.65888164599075        0.38628988142445
H            2.31084204604850       -4.28615825534589        0.46888608840375
O           -3.77392684247055        1.88889412143337       -0.01808566375503
H           -4.33967914174340        1.21560413567940       -0.43840463598224
H           -2.87911325959448        1.51522150638217        0.03901879736925
O            9.38383064012004       -2.04950376727021        0.44284050364612
H            9.23530673894609       -1.33289688291403        1.09041717510101
H            8.48688625796434       -2.43215927157316        0.37823138175305
O           -5.71866556298251       -6.28840059216737       -1.78848054709021
H           -5.32667480733056       -5.61646681700092       -2.37636443840554
H           -5.84965931877080       -5.79258724228768       -0.96151650454310
O           -1.92245817388458        9.65707604583825       -0.67285799695883
H           -1.52172887718968        8.86356144955583       -0.26710254738323
H           -1.21896690671225       10.32343479077237       -0.66305711000926
O            5.99866616764059       -2.74145876535424       -3.09381626367245
H            6.92394490365376       -2.49739851276730       -2.89721807939380
H            5.51029182167716       -2.55009268841474       -2.26944389814931
O           -6.02547131092095        0.14041053711763       -1.09420602470966
H           -5.83396609175692       -0.33597954335868       -0.26404360365823
H           -6.08157743672988       -0.55284823197895       -1.76757536166446
O            5.39022045268353        4.30599110887519       -5.26204119558882
H            5.18924506280192        4.48054946360906       -4.32376667915093
H            5.36902490412846        5.19339820460153       -5.65838587721026
O            0.57151208605608       -3.88774929407945       -0.40714858828692
H            0.67984075256355       -2.96035903946791       -0.68698216126626
H           -0.29955220944733       -3.88064819185674        0.01227597348839
O           -2.72886434120898        5.48877759492297       -2.31246577105549
H           -1.94736858254933        5.30242566906258       -1.76258393946436
H           -3.15644392186946        6.25495336237180       -1.88190333810363
O            5.35513840957281       -0.46892664391025       -4.71213603288962
H            4.62617934387730       -0.05317632697376       -4.22776249229902
H            5.54485354315257       -1.27996990982143       -4.20540437860392
O           -4.52108135328465       -4.10261402865010       -3.23107702398349
H           -4.32126764804526       -3.70757219992169       -2.36124596074934
H           -4.55927201702688       -3.32628272732730       -3.81919173280075
O            0.34817711038344        0.42190796267065       -3.82362881932016
H            0.39408285183510        0.70263075363391       -2.89349987506866
H           -0.60474770558810        0.26844366170122       -3.93929775462349
O            2.87772274963555       -2.15364800132764       -6.63152372844794
H            3.69132937042009       -1.72273544815278       -6.95709294800949
H            2.25267777437980       -1.41333857710752       -6.55376992918660
O           -2.57893407268597        0.24322164685578       -3.89242100192134
H           -2.28030935342888        0.03627277858786       -2.98493643748593
H           -2.84192136178113        1.18272877414337       -3.85319448490226
O            1.33478074111282        0.29185954946271       -6.45114848740747
H            2.07816313755587        0.92178182888123       -6.44117246851400
H            1.00746153014391        0.32627068822970       -5.53102442546167
O            3.13435476248064       -0.54631178806079        7.09746630745286
H            3.74571888891528       -1.08085216083964        6.56009857381648
H            2.27187594053464       -0.60742191172857        6.64653686874328
O           -4.25167865117545        0.14027911805930        7.38765255487622
H           -3.55947079704820        0.40586331692102        6.75334122436770
H           -4.97673180356503        0.77873279426273        7.24970661271623
O            1.53836805728418        2.34707750352758        5.26409134176171
H            2.42035679304111        2.32689102080328        5.68077262455800
H            1.08070663607041        3.08547595532025        5.70311983621464
O            3.08725254679388       -3.11442990713121        3.50967785275870
H            3.17766646229595       -3.53065630818745        2.63660090219065
H            2.30078854445341       -2.54906137297082        3.40666053548628
O           -6.45290996812520        2.09598347747214        6.91251877392860
H           -5.79603568906984        2.48634140403164        6.30588061950861
H           -7.15561805509426        1.79779239673988        6.30601749848756
O            4.83276856540933        2.44142535459467        3.63579127908755
H            4.68258430489867        2.35134822649191        4.59438840271513
H            3.93974499310559        2.46206809525421        3.24047290317318
O           -1.87440313948095       -2.16089984135797        4.74738506310861
H           -1.08214854727253       -1.72624479405604        5.10175185208343
H           -2.15416015091403       -1.58509816814901        4.00984987140359
O           -1.29426578042348        5.84093400108929        4.58027775490211
H           -0.62807910986101        5.58099644256819        3.91498222966989
H           -2.15321483020292        5.60502129921464        4.19108974508292
O            7.72278229331270       -2.24688594366985        4.29071531961463
H            8.02912516176396       -1.54755060627528        3.68010076030654
H            7.54465695834997       -3.03325064562188        3.73897701696078
O           -6.03163467943625        1.28273931306116        2.79130551922270
H           -5.69951736480472        0.46270603890966        2.38300212106592
H           -6.45307018174493        1.75093468478889        2.04823236004521
O            3.77772606375152        4.62484194416850        1.29025884705817
H            3.23903607432677        3.89141674504457        1.64177287639693
H            4.06836165525079        5.13175079820226        2.07014269053877
O            4.80765955450319       -6.36407755290930        2.17062093910574
H            4.63831358043631       -7.20637306477503        1.72316049813753
H            4.25515041189422       -5.70995717429035        1.69953959336411
O           -4.83195160393106        4.43112577483544        0.77960451357325
H           -4.40868052536982        3.58678945064596        0.54114498840608
H           -5.52885706209774        4.53226065614801        0.10378327492493
O            8.73408686191757       -0.09556048128406        2.49063804451367
H            9.55913956566971        0.42106846690467        2.53754715597325
H            8.04958234951536        0.53647264122271        2.20403708044844
O           -3.99843975964138       -8.64206754255456       -2.27893230022682
H           -3.39667689714254       -8.39535100586128       -3.00644456332738
H           -4.54458287065271       -7.85098452387403       -2.11142825507405
O            1.20327324171957        9.05232861089637        1.54697869966185
H            0.49337438596131        8.46761077843984        1.21265187231236
H            1.51035934775200        8.61572384304773        2.36344575971987
O            9.96923236892314       -4.52451413099241        2.03396985546482
H            9.87215540802808       -3.76255042014733        1.43694482921176
H            9.05347040451582       -4.71169539543637        2.30831648153064
O           -7.41602766789820        2.33574329025159        0.46031553058364
H           -7.03331936821962        1.63102671856638       -0.09883224429039
H           -7.33079756041803        3.14278622843193       -0.07656699220625
O            4.76598472733642        5.14890499532754       -2.56573897973564
H            5.29632369356499        4.70725902337011       -1.87915610236176
H            3.96923436201910        5.44154184326207       -2.08512403406982
O            1.65598972210121       -5.43516228373054       -2.62300282456616
H            2.27361733554755       -4.87495419608862       -3.12998678682922
H            1.30650631955464       -4.88047998684792       -1.90355865064236
O           -4.19088790844399        7.90948674985140       -1.14927277031122
H           -3.46519949184963        8.55105431367469       -1.05788233807646
H           -4.46111540942630        7.72798219319247       -0.22981547084969
O            8.81506976597144       -1.79977801949725       -2.49666285315391
H            9.56939574692506       -2.23526140370175       -2.92339624369526
H            9.01870080336484       -1.82296812217520       -1.54395668788150
O           -7.69834945626304       -8.09212326057463       -2.90598088953028
H           -7.04672489103298       -7.49907430701845       -2.48743562381608
H           -7.75258257500414       -7.79054884730884       -3.82694496996541
O            3.96196469973243        9.56974914489474       -3.47433558130093
H            3.52065555322646       10.39543211366774       -3.73359735698800
H            3.55812444089650        9.32514772160732       -2.62054769725970
O            3.56559545184993       -3.98758243042003       -4.38335586928743
H            3.32375653286604       -3.35290120281854       -5.08589351663576
H            4.38117817560513       -3.62677465558362       -3.98819215491738
O           -6.05078836419365        2.44055419425352       -2.94874238605234
H           -6.01078508866027        1.64713903278403       -2.38082053997744
H           -5.13785166464503        2.59091648552146       -3.25675152110759
O           10.14785694193809        4.80494145975150       -6.64071543222665
H            9.46859750005203        4.19510972902294       -6.30102167432412
H            9.95024131804583        5.65151740668480       -6.21022812034922
O           -4.12146693329929       -5.96261928057627       -5.42642027201141
H           -3.46412627463471       -6.61511662448378       -5.12037817538876
H           -4.24118050510120       -5.35218262464247       -4.67452673655314
O           -4.45450132064611        5.91990344088977       -4.62166353344439
H           -3.78746875282530        5.77853517172611       -3.92494361843164
H           -5.20349929993223        6.29998575990440       -4.12738001846318
O            5.31840704969580       -0.73903409743448       -7.54613068611840
H            5.31202144058116        0.15955972847480       -7.90690323134666
H            5.42001460553316       -0.61400547920248       -6.58387002050790
O           -4.55005776995637       -1.72207031529298       -4.83548464809734
H           -3.90643999101534       -1.05814787796777       -4.52051599694325
H           -4.36298038713793       -1.81622155967264       -5.78783597215331
O            3.19940895807477        0.70065602318946       -3.24097066033152
H            3.21477741258238        0.65730864284881       -2.27544071705272
H            2.25969302682592        0.56048624263824       -3.45132649669110
O            2.99977820198379       -4.65183720934338       -8.08346870663698
H            2.84566965575395       -3.80140691728447       -7.62943332481344
H            2.85153347216738       -5.31442028907991       -7.38932706642750
O           -1.59340089669882       -0.36963460043707       -6.67634057049125
H           -0.64026945172983       -0.17336493200976       -6.69036601821852
H           -1.88614088094156       -0.15535490433004       -5.76818220755129
O            3.78388523128951        1.33993580480502        9.19417149406739
H            3.16584211786364        1.22353218235155        9.93240742267340
H            3.55828113281984        0.63279100821479        8.56020665526284
O           -5.16898783376006       -0.86476956890156        9.94290126636515
H           -4.80093391346583       -0.54794095253394        9.09523857763948
H           -4.96160028055097       -1.81179958185960        9.96433787788885
O            0.20986190668037        4.53861757916995        6.57169529948173
H           -0.66617402059180        4.47943275830684        6.15107304159843
H            0.37727177049690        5.49589437065165        6.61176578239652
O            4.95705384563124       -1.91347101958457        5.38502034331141
H            5.86441768413495       -2.02931723674460        5.04848424265034
H            4.37721739840652       -2.34853284777533        4.73057579030055
O           -7.02419807891181        1.48213496013312        9.77051563590882
H           -6.86780931692405        1.73869517569935        8.83980454436667
H           -6.44353021235088        0.70914534720638        9.91285781914049
O            4.19897507749973        2.12514651930891        6.47743269940390
H            4.40702204505117        2.43442163652124        7.37337254875326
H            3.96010058269997        1.18846291771299        6.61109085504246
O           -3.86555726382147       -2.73396825303934        6.82476162079801
H           -4.04864393451261       -1.80269712264254        7.05976299637212
H           -3.19405934349972       -2.66293584420165        6.11978953367836
O            0.15795905263113        7.57837884576964        6.28440011258173
H           -0.45304582388206        7.08782632684282        5.69886404953189
H           -0.38767398554043        8.24561273879280        6.72650219052043
O           10.07662961267795       -2.67838551707069        5.95384635371593
H            9.79293142810084       -2.54139673239063        6.87064943114954
H            9.27358486378846       -2.53360130504912        5.41814123985832
O           -8.17665607263045        1.12632335947508        4.74511849472795
H           -7.43767818886931        1.14576199351684        4.10365225390147
H           -8.46833432693254        0.20197605779152        4.78273492778972
O            4.54340037548469        6.17939904196023        3.60629151074862
H            4.95133108690162        6.05770518693761        4.47711004359477
H            3.72883324213662        6.69344107508735        3.76240818415045
O            3.89331762663854       -5.59927030224159        4.87047353134416
H            3.56825750255127       -4.72611878418711        4.58047944372215
H            4.25429799288136       -5.97711407855510        4.04507896234302
O           -3.80447260221906        5.08754208224759        3.42484654729872
H           -4.11431878916019        4.84958831370890        2.53147372351897
H           -4.07136536983058        4.32484939637558        3.96954551414591
O           11.35396769579915        1.19621070025100        2.39890515387829
H           11.71741921643998        0.33009451435259        2.13027047125582
H           11.89082017639558        1.85668555392625        1.93493823742978
O           -5.01319845570936      -11.15048558806364       -1.31839066128419
H           -4.54440525906311      -11.28237224421017       -0.47872232893806
H           -4.66602216492834      -10.30847580597593       -1.66961777869520
O            1.97179084202332        7.48774412070436        3.97127453900378
H            1.59506263699678        6.69849022673897        3.53016468723431
H            1.44041205454960        7.58730841546030        4.78178735456427
O           11.95782298098650       -3.34596543557488        3.79367047566109
H           11.41599535417152       -3.11307922102029        4.57113918267816
H           11.34558925407655       -3.85845324866500        3.22963038579553
O           -9.62962751388197        2.50112460472346        2.44780879282232
H           -8.93250251456285        2.47873082770133        1.76246270947207
H           -9.21733902472992        2.10889016525853        3.24250046843782
O            6.06986903069878        3.89343796342374       -0.30191146910408
H            6.40663005364014        3.13934595506813        0.21344573917362
H            5.31023533502208        4.19875385235118        0.23312856469691
O            0.66235489777591       -7.68273596468088       -3.96471872824270
H            1.07258591495936       -8.42886694132292       -3.49923870046168
H            0.92817115303975       -6.89582660153981       -3.45424926264596
O           -4.95034964410044        7.24569669014126        1.57360336684794
H           -4.97594199539149        6.30275571493918        1.32126983117318
H           -4.61427628179529        7.24193855121306        2.48159752847653
O           12.16667153906933       -1.46415948931120        1.54402508930098
H           12.21051649923223       -2.07532062809886        2.29669072992148
H           11.34052944560609       -1.70627578306745        1.08170465804631
O           -7.85418661690273      -10.92675565482988       -2.11405256844032
H           -7.87006386240116       -9.98589769844605       -2.37828163701514
H           -6.92770215020533      -11.07596540569701       -1.84141713881573
O            2.69669253583556        8.86312376710200       -0.97880142168784
H            2.67629877100585        7.88768727301165       -1.00953418106480
H            2.24700752016983        9.06218809523557       -0.13785818991319
O            2.75898401654514       -6.47420983386281       -5.79955819756692
H            2.05866614628549       -6.89152235553819       -5.27438264205313
H            3.04784266268737       -5.70529895033182       -5.26892532106688
O           -6.89190728275379        4.62009693418088       -1.30718389565711
H           -6.64857241133597        3.92875362404931       -1.95279456279085
H           -6.79423984496621        5.45232297587636       -1.79540876204629
O            8.09582873222654        3.13483266155371       -5.57703323663030
H            8.09329488221785        2.28304437416113       -5.11271721216730
H            7.19446584993797        3.49211862955075       -5.46334640318485
O           -2.16927305891722       -7.96732227615420       -4.51562879608806
H           -1.22840104723730       -7.81270285083335       -4.31464620776495
H           -2.16060603578579       -8.57998003382627       -5.26841304282181
O           -6.40691651238634        7.12085548371716       -2.77995316862070
H           -5.66723207711780        7.43184051837233       -2.22215962213735
H           -6.98639706347414        7.88948976813098       -2.88867887560909
O            8.02154701409211        0.54865559427797       -4.19648481098138
H            8.34558313807694       -0.16626804920592       -3.61601357789298
H            7.10954624953467        0.27464856583280       -4.41156350129984
O           -7.23634399567421       -5.29638973557614       -9.53643949189028
H           -6.45861524050418       -5.05102360938968       -9.00025418364456
H           -7.89794167420472       -5.59757523077357       -8.89002808283855
O            5.12231277074928        7.15558126389223       -4.69007914202901
H            5.02040952205295        6.53418413083287       -3.94226114002033
H            4.76149277584130        7.99433167252432       -4.34611229385647
O            4.55696394573888       -8.18224004683806       -7.46031152576217
H            3.96358757998587       -7.66139937437520       -6.88293672319819
H            4.78630176868606       -7.57490843886530       -8.18398012202880
O           -3.33379435481548        3.04758270743508       -3.81550784204090
H           -3.06594814416425        3.79077131942656       -3.24569369748594
H           -3.41147319116200        3.43809021464023       -4.69974045805365
O           12.21414349008670        4.23511902375058       -8.58187157250366
H           12.05843228820333        3.29766817300878       -8.78480848811568
H           11.53004501262985        4.46316948152556       -7.92407409871156
O           -5.03124441904308       -4.58996783158380       -7.82408506807577
H           -4.72233618810655       -5.07376574756202       -7.03580326022388
H           -4.59811044107641       -3.71692355740377       -7.76875568481504
O           -4.32937313143600        6.47640259998288       -7.46374004912113
H           -3.51805379518958        6.01970617568828       -7.74157367625269
H           -4.40255652918940        6.30345001701237       -6.50562584376436
O            5.49507302934077       -3.25998823463574       -9.06587673555736
H            5.51616849519156       -2.40476918129621       -8.59616184420732
H            4.66339752027393       -3.67523100016954       -8.76359649433331
O           -3.76771178935211       -1.91817747148004       -7.69725783843459
H           -2.97570594521721       -1.43161530398403       -7.40058124048381
H           -3.96913766009746       -1.54928778225090       -8.57152934830274
O            3.64066444595743        2.03857338677092       -5.88581875078150
H            4.22240458694618        2.80159550202202       -5.74393494358268
H            3.52497823846422        1.65964637782044       -4.99105461096187
O            5.07975986650960       -6.10622231892934       -9.55486420455597
H            4.31030638192809       -5.67015367965473       -9.13910710391256
H            5.70140124871388       -5.37369730048355       -9.70565254315091
