319
 energy: -43.437193783207 gnorm: 0.003968842843 xtb: 6.6.1 (8d0f1dd)
C            2.20440999994821        3.61795999982987        2.17379999977490
C            2.56990999998339        2.85178000001162        0.90978000007788
C            1.79432999997361        1.85080999996621        0.32834999998449
C            2.27200000009403        1.18309000000903       -0.90644000002098
O            1.41600000000335        0.25472000005700       -1.34491999993379
C            3.53439999994976        1.59477000002075       -1.46061000014836
C            4.23770000002575        2.59092999999952       -0.81716000004535
O            3.83860999993349        3.26456999998761        0.35288000005801
O            0.60509000001444        1.37718999998597        0.75544999999087
H            2.95073999994717        3.48147000000617        2.97793000000734
H            2.10540000001559        4.70441999994057        1.99386000000740
H            1.23510000001277        3.23223000001767        2.52765000000787
H            3.94476000000296        1.13906000010200       -2.36940000000194
H            5.21069999997243        2.96686999994846       -1.16829000000550
Fe          -0.00002999999034        0.00007999995831       -0.39694000002868
C           -4.23528000016243        0.09986000000656        2.17404000004183
C           -3.75467999997972        0.79955999996541        0.90998000006646
C           -2.50000000002014        0.62856000006471        0.32854999998879
C           -2.16077000008549        1.37600000003798       -0.90634000005598
O           -0.92877000004522        1.09902000002887       -1.34489999991777
C           -3.14867999999696        2.26319000002106       -1.46054000004169
C           -4.36304999995664        2.37403999995162       -0.81708999989137
O           -4.74673000004328        1.69160999991362        0.35302000002610
O           -1.49508000004226       -0.16431999995768        0.75575000001285
H           -4.49065999999296        0.81443000009906        2.97806000004941
H           -5.12636999998738       -0.52954999995097        1.99408000003747
H           -3.41632000000551       -0.54630000003828        2.52804000001133
H           -2.95934000001892        2.84636999997787       -2.36939999999282
H           -5.17525000002456        3.02850999999031       -1.16826999997869
C            2.03170999983380       -3.71773999999256        2.17354999978788
C            1.18508000011288       -3.65130000002475        0.90975000004427
C            0.70576999993885       -2.47919999998543        0.32838000010031
C           -0.11159000004557       -2.55913000003388       -0.90621999982329
O           -0.48776000000808       -1.35367000005308       -1.34467999991518
C           -0.38625999996991       -3.85827999997159       -1.46029000011871
C            0.12506999992147       -4.96536999995549       -0.81695000004105
O            0.90825999993773       -4.95646000002513        0.35293000014214
O            0.89021000000852       -1.21246000000729        0.75542000004040
H            1.54071000000877       -4.29606999999170        2.97772999999088
H            3.02219000010060       -4.17492000001218        1.99329999992351
H            2.18211999997221       -2.68543999998415        2.52747999993038
H           -0.98628000000290       -3.98589000001748       -2.36894999991435
H           -0.03579000002691       -5.99600000000419       -1.16804000001300
O            1.81427755804181        0.37411325072736        5.57080871296185
H            2.61505684235070       -0.08047983948179        5.89130209367822
H            1.43890055121134       -0.18838693956815        4.86911533130495
O            0.61609365771505       -1.29779998998506        3.56476251577717
H            0.16505349237008       -2.15841952879435        3.68557912110595
H            0.64806467369852       -1.16582396192534        2.60283523812696
O            0.89081259043434        2.98987120119061        5.08129750384985
H            1.21144873044117        2.07623911945887        5.19067804118802
H           -0.05974462470044        2.87109426996053        4.90444227741657
O            2.99110903110169       -2.71238802147172        4.74294632233548
H            2.72530025752186       -3.64821786191193        4.79746383668875
H            2.18644248850753       -2.25882927511630        4.42505843184440
O           -1.88659112690210        2.47818044694570        4.48203403188300
H           -1.91271640220453        1.50635764081020        4.56073889321071
H           -1.81856835266348        2.64376261603220        3.52466922743810
O            5.11558565577968        1.87204449453434        2.47738726879321
H            4.83591071859908        0.93689349603620        2.50172516674458
H            4.60911900499027        2.26476094563550        1.74399124086000
O           -1.77400780858324       -4.23200427836767        1.60036546462715
H           -0.94109201540465       -4.50254059943426        1.17316048944613
H           -2.14377822938106       -3.57757909613838        0.98009136725908
O           -1.42720470606679        5.76036315501007        2.46071796414361
H           -1.46280343074952        4.79764724812746        2.28463247085869
H           -2.07877036376788        5.92709188057739        3.16893567459944
O            4.45833383295479       -1.06083545396294        2.57476680792152
H            4.01503527182388       -1.15576756138706        1.71152276103869
H            3.89057798040260       -1.52151285082596        3.22167565663690
O           -6.78726200864032       -0.38151713273441        0.18394304539427
H           -6.32254309739755       -1.17079201096132       -0.15614608240281
H           -6.09397884975086        0.29810599395416        0.26926367857120
O            4.00093682306853        6.02639524753736        0.79253321451563
H            3.86033580955491        5.08740010256198        0.57092700241116
H            4.61366156504058        5.96155775971613        1.54383256339907
O            2.35783475635525       -6.67124073530657        2.09166270813841
H            3.23506138400463       -6.52466681846258        1.69406404829775
H            1.78813550141415       -6.13432948044294        1.50832970542673
O           -1.55070697605144        3.01315128360077        1.70031591950803
H           -2.31929164769760        2.71016089936708        1.19680404625523
H           -0.82226317789691        2.45632351187724        1.37169301371062
O            6.55812368870950        0.31132807096695       -0.72841170984836
H            7.03346421812308        0.83862823772478       -0.05888623977607
H            5.71532147519596        0.76872172888774       -0.85588856735525
O           -2.85284823573009       -2.33738816493674       -0.38321680193098
H           -2.38588348408597       -2.36233504452177       -1.23359824068516
H           -2.42334364180422       -1.57783925271514        0.04228508995360
O            1.17329182940919        7.80750297896582       -3.41625471123872
H            1.36875685320133        6.92650706159550       -3.77350305030529
H            1.41117020529342        7.73365243729591       -2.47103723540697
O            3.42585401562571       -1.53701613557276       -0.14102413526517
H            2.71968062351273       -0.89822958550815       -0.36333644345029
H            2.92862482747605       -2.34201650690686        0.06287834293426
O           -6.65546824518882        1.77190898749517       -2.92191030687650
H           -6.02696578167326        1.56102080545562       -2.21231133115528
H           -6.08063506234384        1.86096400771202       -3.70099502649546
O           -0.18073221798048        3.76175618560611       -2.23594508837002
H           -0.39255741333808        2.92304917701340       -1.78229712955098
H           -0.21606304566351        4.44053830944551       -1.54516882502316
O            1.12039931219503       -1.37860866021597       -3.61580758965644
H            2.06617962412488       -1.41285121343752       -3.38457986711130
H            0.66882809679505       -1.32265786454215       -2.75255293861007
O           -1.94350416711355        3.07871158788596       -4.46686116857344
H           -1.73449454083033        2.12570545509631       -4.44585331301377
H           -1.36863352448648        3.43106010709259       -3.76206506713649
O            1.21085911531936        1.68961600619840       -3.78214418976362
H            0.78834763533706        2.47420469991249       -3.39185389542562
H            1.30719152235586        1.10892363073118       -3.00802611748868
O           -1.34947997506672        0.20860585217604       -3.99783679514248
H           -0.52741755346075       -0.30523129923105       -4.07333339751302
H           -1.33080730688092        0.47013315711884       -3.05923578849753
O            0.87181888785737        0.64095780667465        8.29581192166487
H            1.32099214859237       -0.14109379287823        8.66366273135917
H            1.14180076912736        0.62533048755014        7.35613690598875
O           -1.85472499195658       -0.37182661698241        4.74877974674215
H           -1.03099831847190       -0.62824659298007        4.29879532699010
H           -2.53042414284161       -0.95750186799721        4.38046412843588
O            0.91549974265266        5.78950736151132        4.38986754243601
H            0.93295951068974        4.82475891672927        4.55652090647517
H            0.20350964762311        5.89923884599686        3.73439835404590
O            4.14332633946062       -1.02488836179082        6.75907135045542
H            5.06580942494117       -0.75583324962352        6.60727280210616
H            3.92739127039408       -1.68713183705486        6.07360015574165
O           -3.89267990129723        3.38176706053329        6.32217395535096
H           -3.18744336129471        3.05093609648441        5.73393710527404
H           -4.58159066415598        3.68973002303000        5.70243423467690
O            5.91705475769975        2.52012464920412        5.19607807542353
H            5.12990597504453        2.86511188605966        5.65652614303083
H            5.59459359160450        2.27678014545400        4.30441038959760
O           -0.70099008849462       -3.82992776825881        4.27307557186412
H            0.02142589792658       -4.47726344477551        4.39271186756957
H           -1.09351933350115       -4.02545561666799        3.40261437747962
O           -3.42547021606348        6.19233258277883        4.45794945698932
H           -4.23398255758342        5.64794907029834        4.39683076202593
H           -3.20758333007646        6.21130514235907        5.40681656060199
O            7.12211223135810       -1.63449401543556        3.73306759907788
H            7.12212198525198       -2.60462760938751        3.66539753120881
H            6.25798824540305       -1.36759623650522        3.36246784832008
O           -8.61313320163619       -2.07221037025937        1.75440471413245
H           -7.96565981906309       -1.46864399381484        1.34183196492178
H           -9.42565892606151       -1.89158667829377        1.24803670778178
O            5.86207006793991        4.91670407668352        2.87748894535746
H            5.60961666891516        3.98374755504761        2.73484696037612
H            5.21756656355095        5.25294916314682        3.52611783953800
O            1.81662373103641       -5.61726440399330        4.83127296791215
H            1.67916692723054       -6.43297407141190        5.33931196526389
H            2.03634025815051       -5.94347944683910        3.93802275966863
O           -6.05806637282791        3.90860065983888        1.47329953439809
H           -5.53741243206826        3.13263419650158        1.19561630606327
H           -6.76467041311291        3.91829786199838        0.80219623591745
O            7.86610603355190        1.80948615135029        1.57899455611405
H            8.24864503029401        2.40767108893450        2.24394803927609
H            6.92356464242069        1.80113922940885        1.84111379541711
O           -4.05235752182514       -5.71706747251459        2.56410607096281
H           -3.30922645511928       -5.18539070631094        2.21033259308637
H           -4.85203325109910       -5.22852076474437        2.29269941407822
O            1.96151905104563        7.51180359292630       -0.57333399583441
H            2.63280004095433        6.97185617442258       -0.11438297033599
H            1.13266466152119        7.01633143506985       -0.43973569235393
O            6.04516855089047       -3.56094225982707        1.99915186231924
H            6.54435527577721       -3.23970908507678        1.22490855311539
H            5.40591683145084       -2.84512043367188        2.17172264126930
O           -8.82923508080866        0.43486155675199       -1.62632226414597
H           -8.20264477914784        0.11980357317352       -0.94835992552926
H           -8.22913669172033        0.90474003273618       -2.23118019701319
O            5.86236923325899        7.17350286919062       -1.62264790361286
H            6.34085573645079        6.91695228812398       -0.81062520935186
H            5.33214880049735        7.96026092118040       -1.38977975322442
O            0.58506689690980       -8.78441990616442        3.09989373453092
H           -0.28941804252231       -8.37992818142346        3.22720856214879
H            1.15625924241328       -8.08003852903027        2.73809008645635
O           -2.94680163523439        6.18231754009481       -1.85862360353672
H           -3.27550892293366        5.39021953267592       -2.31157770818430
H           -3.41017881754726        6.18531243182323       -1.00096845928270
O            7.43401598504962       -2.36142045942772       -0.27792035255198
H            8.16438974534420       -2.06561197220875        0.29483945453423
H            7.05589329240511       -1.50767906591348       -0.55876856701375
O           -5.53429060106582       -2.81843809892593       -0.84184473373318
H           -4.59208153482079       -2.65025246725046       -0.66829554868225
H           -5.56804459528878       -3.13372386693459       -1.75684650608536
O            2.90205950040761       10.17237619537160       -3.61950045237369
H            2.28637308638070        9.41846690949316       -3.67074204605834
H            3.37038150986272       10.02121213147823       -2.77765138506220
O            4.05104244220018       -1.71921923712216       -3.00665433929263
H            4.70586916841475       -1.02395942906588       -3.17680680665210
H            3.82779754127446       -1.61849650535144       -2.06002952393711
O           -4.66249312606728        1.94354075328091       -5.01311367265969
H           -3.87525569510427        2.47721439440803       -4.79883180057624
H           -4.28012482386160        1.22232083045001       -5.54380638424514
O            1.65775865908899        5.01294362270149       -4.16925803377598
H            2.45957627833420        5.05404046516867       -3.61617470036191
H            1.00174814362920        4.59183636406612       -3.58043355346988
O            0.30956691927721       -3.17547974710656       -5.62636876467140
H            0.47230272345647       -2.55381839514476       -4.89142318030682
H            0.38481284340910       -4.05838973899949       -5.22952185935793
O           -2.34627643494190        5.41984047410490       -6.17797849658604
H           -2.25993826877994        4.62329322096711       -5.61828510282911
H           -2.14034843096043        6.15851255771834       -5.57629545165264
O            1.66699458642238        0.93993806239588       -6.46570446790544
H            2.14045381093348        0.09038931776727       -6.40100834555055
H            1.49392108322307        1.17596513054253       -5.53361705841302
O           -2.90807365791359       -0.03781791973660       -6.38494816018025
H           -2.41681791518155       -0.00929153117245       -5.53899115255407
H           -2.30614296309302        0.41749371678514       -7.00295794152073
O            1.72907656060207        3.39335404154183        8.76980256441882
H            1.65697984887351        3.54201943695741        9.72442003005952
H            1.40616493064914        2.48278480630538        8.63240364515060
O           -1.84192541864733       -0.38832864288672        7.63840177261190
H           -1.86359725774993       -0.30866517441231        6.66347219973106
H           -0.97747722263580       -0.02202273308800        7.90774799032314
O            0.12438905658225        5.55040027452158        7.36522740198216
H            0.44494416699591        5.65087571594370        6.44865993768893
H            0.67084965007719        4.85102271678598        7.77330775975883
O            2.36472462998097       -1.77563267737040        8.91146800169364
H            2.03790459337712       -2.62342528119458        8.55645090163742
H            3.04998116839133       -1.51064570816923        8.26712727164486
O           -3.96009047651641        1.48499495085118        8.59738781871571
H           -3.97422334574274        2.13849641480704        7.87026074327740
H           -3.28301445170749        0.83264788251389        8.32980930203973
O            3.44090908928553        3.54197910333534        6.43040292219562
H            3.04761306208123        3.53907758359658        7.31955896200706
H            2.66586737943606        3.33361848887553        5.87406495854398
O           -1.29574442594205       -3.32890197893912        7.13075440053371
H           -1.54360744263025       -2.40045154000704        7.29777787320242
H           -1.21960477925852       -3.42828159021449        6.16056435190033
O           -2.77732108362453        5.92146114075955        7.32375875331102
H           -1.80944042788286        5.81243910336704        7.39316890126632
H           -3.12767889171831        5.02692291922009        7.13957484721675
O            6.83778587235945       -0.08525540038356        6.19180761467244
H            6.61288558677533        0.81276690196819        5.89453965876702
H            7.03921232113432       -0.58524887592331        5.37707655532354
O           -8.98480497771463       -3.70064610896013        4.15376863592039
H           -8.90442081649718       -3.12663640334422        3.36792096157572
H           -8.11870327759009       -4.13159514367694        4.23911568110222
O            3.83624474261396        5.82856552893070        4.68784651283065
H            3.81203893494321        5.11331613222738        5.35152808519322
H            2.89299376714132        5.98128706741123        4.50111186487399
O            1.43110167283572       -4.20306615881199        7.52947481635184
H            0.49048774788328       -3.94833618072485        7.47803014432465
H            1.60414273077830       -4.66088589554845        6.68398258224388
O           -5.78847428264436        4.42022670282288        4.29340405165561
H           -5.86555938755244        4.22496695563867        3.34116739745940
H           -6.70283854276528        4.45101536020785        4.61411805966623
O            8.32019633879967        3.62369266865492        3.82598631376904
H            7.99229890073084        4.50030702149579        3.57404002211911
H            7.60341531618818        3.25306954185177        4.37546704608435
O           -2.08261564411184       -7.63845627533528        3.57975822521675
H           -2.55485771393345       -8.04128811385430        4.32587423875855
H           -2.71785058502534       -7.00288403765911        3.20284160345697
O           -0.45756368865704        5.98963784640649       -0.30176235779359
H           -1.27244677847028        6.14705806466889       -0.80773697853168
H           -0.74232749165334        5.94132880774190        0.62884118323165
O            4.82694409459999       -5.83410908259961        0.68007476588527
H            4.92761876538147       -5.40009144411553       -0.18312729503879
H            5.23506617264173       -5.18210841400598        1.27943496480976
O          -10.77329823679425       -1.25133880310581       -0.04798516341504
H          -10.14942417971300       -0.68820668041696       -0.54536276714407
H          -11.57396490165477       -1.26059913760187       -0.59239729100783
O            7.36685993015686        6.22458598594820        0.75021771564868
H            7.97840612382334        5.53575191346712        0.44352280325256
H            6.86215104191468        5.81117092819608        1.47624365911170
O            1.23825990171885      -11.57073678644180        2.72921085894883
H            1.42547813954404      -11.60276804233722        1.77693381725914
H            1.01417061164734      -10.63762429677571        2.90587511893042
O           -4.05223283035737        5.98017563327716        0.75717078944587
H           -3.31570285140835        5.92720414354496        1.39392727161571
H           -4.70916222326289        5.31708453835650        1.03868873861117
O            9.07087582134080       -0.88375186293655        1.68007298391568
H            8.52032384365438       -1.18663884273745        2.42807525552645
H            8.79809031456132        0.04733179652229        1.57533034698888
O           -6.40110652732777       -4.09783407730969        1.62885823490552
H           -6.04177001629083       -3.74332105765363        0.79279700489193
H           -7.17348743961138       -3.52294058201153        1.78310618621260
O            4.04248013208206        9.47791164961854       -0.97376880397535
H            4.12084299087643        9.97326078065316       -0.14394918764936
H            3.31489983149320        8.84344950616811       -0.82304014002019
O            5.85884971565124       -6.89622868483795       -2.59154402913695
H            5.76817782033555       -5.95235875067950       -2.35702517020429
H            5.37628188761249       -7.37330224170550       -1.89683598156646
O           -7.97178663835687        3.52548623681530       -0.76370344263021
H           -7.53822763379603        3.04706050551415       -1.49539842770850
H           -8.83174374120832        3.08951776340360       -0.65825144636944
O            3.76244548951401        5.25913841466419       -2.30949349495078
H            3.77387480661871        4.61179554247102       -1.58790456215452
H            4.47670815250119        5.88869133322419       -2.10419959763203
O           -4.23112748799213       -4.95386216913458       -7.70271661448463
H           -3.58242387832828       -4.26157765014471       -7.47479258500072
H           -4.81768060704477       -5.00724812905676       -6.92759608099202
O           -1.68297900798922        7.46086722975122       -4.19331912965422
H           -0.75497178057333        7.63788319456377       -3.94942356844530
H           -2.09922073144933        7.10513099672084       -3.38347146967118
O            5.50171597864944       -4.11868953915095       -1.72969293423321
H            6.18778622995899       -3.59022622087990       -1.27719227377624
H            4.98077537676155       -3.45552374081249       -2.21764031984215
O          -11.43712150524042       -0.03405471880260       -2.80082899791736
H          -11.33661367087151        0.03463232035880       -3.76351244463300
H          -10.55238775522231        0.16254033500888       -2.43801828995769
O            3.04860026753472       12.36311542692590       -5.48313696042631
H            2.56818031152326       12.00099222153010       -6.24635047174515
H            3.02949407348569       11.64793119124290       -4.81965745063464
O            3.02298559815637       -1.70023725333062       -5.97368104325669
H            3.37605251936341       -1.73996970214867       -5.06266689545905
H            2.19159456660682       -2.21123076076341       -5.94876105404655
O           -3.12548804284031        5.73555266121433       -9.00428972718146
H           -2.99201044377721        5.70163607899297       -8.03810235360676
H           -2.37165012106007        5.22645601479548       -9.35254971063392
O            1.80842002232957        3.90577005270165       -6.89380061018234
H            1.83944453509524        2.93849100591213       -6.76195328033895
H            1.79517334161692        4.28609665843765       -5.99460328291378
O           -2.38188830125937       -2.91020954077118       -6.86432195510228
H           -1.48166926159778       -3.00026841074739       -6.49828529767387
H           -2.59836572539023       -1.96650755227228       -6.75195539092786
O           -0.66304840461545        4.28752176283515       -8.32050673105967
H            0.22478058917852        4.22513958395129       -7.93235585230341
H           -1.20206393621610        4.67148988531109       -7.60144607637028
O           -0.88681664327743        1.33972659004643       -7.92999601142258
H           -0.03442162442934        1.17166918677823       -7.48258835928478
H           -0.87221968685957        2.29412721309190       -8.12935518221853
