 Entering Gaussian System, Link 0=g16
 Input=Fe_2_OLYP.com
 Output=Fe_2_OLYP.log
 Initial command:
 /gpfs/fs1/soft/improv/software/custom-built/gaussian/g16/l1.exe "/scratch/Gau-2943307.inp" -scrdir="/scratch/"
 Default CPUs for threads: 0-127
 Default linda workers: i278.lcrc.anl.gov
 Default is to use 128 SMP processors on each worker.
 Entering Link 1 = /gpfs/fs1/soft/improv/software/custom-built/gaussian/g16/l1.exe PID=   2943308.
  
 Copyright (c) 1988-2021, Gaussian, Inc.  All Rights Reserved.
  
 This is part of the Gaussian(R) 16 program.  It is based on
 the Gaussian(R) 09 system (copyright 2009, Gaussian, Inc.),
 the Gaussian(R) 03 system (copyright 2003, Gaussian, Inc.),
 the Gaussian(R) 98 system (copyright 1998, Gaussian, Inc.),
 the Gaussian(R) 94 system (copyright 1995, Gaussian, Inc.),
 the Gaussian 92(TM) system (copyright 1992, Gaussian, Inc.),
 the Gaussian 90(TM) system (copyright 1990, Gaussian, Inc.),
 the Gaussian 88(TM) system (copyright 1988, Gaussian, Inc.),
 the Gaussian 86(TM) system (copyright 1986, Carnegie Mellon
 University), and the Gaussian 82(TM) system (copyright 1983,
 Carnegie Mellon University). Gaussian is a federally registered
 trademark of Gaussian, Inc.
  
 This software contains proprietary and confidential information,
 including trade secrets, belonging to Gaussian, Inc.
  
 This software is provided under written license and may be
 used, copied, transmitted, or stored only in accord with that
 written license.
  
 The following legend is applicable only to US Government
 contracts under FAR:
  
                    RESTRICTED RIGHTS LEGEND
  
 Use, reproduction and disclosure by the US Government is
 subject to restrictions as set forth in subparagraphs (a)
 and (c) of the Commercial Computer Software - Restricted
 Rights clause in FAR 52.227-19.
  
 Gaussian, Inc.
 340 Quinnipiac St., Bldg. 40, Wallingford CT 06492
  
  
 ---------------------------------------------------------------
 Warning -- This program may not be used in any manner that
 competes with the business of Gaussian, Inc. or will provide
 assistance to any competitor of Gaussian, Inc.  The licensee
 of this program is prohibited from giving any competitor of
 Gaussian, Inc. access to this program.  By using this program,
 the user acknowledges that Gaussian, Inc. is engaged in the
 business of creating and licensing software in the field of
 computational chemistry and represents and warrants to the
 licensee that it is not a competitor of Gaussian, Inc. and that
 it will not use this program in any manner prohibited above.
 ---------------------------------------------------------------
  

 Cite this work as:
 Gaussian 16, Revision C.02,
 M. J. Frisch, G. W. Trucks, H. B. Schlegel, G. E. Scuseria, 
 M. A. Robb, J. R. Cheeseman, G. Scalmani, V. Barone, 
 G. A. Petersson, H. Nakatsuji, X. Li, M. Caricato, A. V. Marenich, 
 J. Bloino, B. G. Janesko, R. Gomperts, B. Mennucci, H. P. Hratchian, 
 J. V. Ortiz, A. F. Izmaylov, J. L. Sonnenberg, D. Williams-Young, 
 F. Ding, F. Lipparini, F. Egidi, J. Goings, B. Peng, A. Petrone, 
 T. Henderson, D. Ranasinghe, V. G. Zakrzewski, J. Gao, N. Rega, 
 G. Zheng, W. Liang, M. Hada, M. Ehara, K. Toyota, R. Fukuda, 
 J. Hasegawa, M. Ishida, T. Nakajima, Y. Honda, O. Kitao, H. Nakai, 
 T. Vreven, K. Throssell, J. A. Montgomery, Jr., J. E. Peralta, 
 F. Ogliaro, M. J. Bearpark, J. J. Heyd, E. N. Brothers, K. N. Kudin, 
 V. N. Staroverov, T. A. Keith, R. Kobayashi, J. Normand, 
 K. Raghavachari, A. P. Rendell, J. C. Burant, S. S. Iyengar, 
 J. Tomasi, M. Cossi, J. M. Millam, M. Klene, C. Adamo, R. Cammi, 
 J. W. Ochterski, R. L. Martin, K. Morokuma, O. Farkas, 
 J. B. Foresman, and D. J. Fox, Gaussian, Inc., Wallingford CT, 2019.
 
 ******************************************
 Gaussian 16:  ES64L-G16RevC.02  7-Dec-2021
                 5-Mar-2025 
 ******************************************
 %chk=Fe_2_OLYP.chk
 SetSPE:  set environment variable "OMP_PROC_BIND" = "true"
 SetSPE:  set environment variable "OMP_PLACES" = "{0},{1},{2},{3},{4},{5},{6},{7},{8},{9},{10},{11},{12},{13},{14},{15},{16},{17},{18},{19},{20},{21},{22},{23},{24},{25},{26},{27},{28},{29},{30},{31},{32},{33},{34},{35},{36},{37},{38},{39},{40},{41},{42},{43},{44},{45},{46},{47},{48},{49},{50},{51},{52},{53},{54},{55},{56},{57},{58},{59},{60},{61},{62},{63},{64},{65},{66},{67},{68},{69},{70},{71},{72},{73},{74},{75},{76},{77},{78},{79},{80},{81},{82},{83},{84},{85},{86},{87},{88},{89},{90},{91},{92},{93},{94},{95},{96},{97},{98},{99},{100},{101},{102},{103},{104},{105},{106},{107},{108},{109},{110},{111},{112},{113},{114},{115},{116},{117},{118},{119},{120},{121},{122},{123},{124},{125},{126},{127}"
 SetLPE:    new flags="-opt 'Tsnet.Node.lindarsharg: ssh'  -nodelist 'i278.lcrc.anl.gov' -env GAUSS_MDEF=13421772800 -env GAUSS_EXEDIR="/gpfs/fs1/soft/improv/software/custom-built/gaussian/g16/bsd:/gpfs/fs1/soft/improv/software/custom-built/gaussian/g16" -env "OMP_PROC_BIND=true" -env "OMP_PLACES={0},{1},{2},{3},{4},{5},{6},{7},{8},{9},{10},{11},{12},{13},{14},{15},{16},{17},{18},{19},{20},{21},{22},{23},{24},{25},{26},{27},{28},{29},{30},{31},{32},{33},{34},{35},{36},{37},{38},{39},{40},{41},{42},{43},{44},{45},{46},{47},{48},{49},{50},{51},{52},{53},{54},{55},{56},{57},{58},{59},{60},{61},{62},{63},{64},{65},{66},{67},{68},{69},{70},{71},{72},{73},{74},{75},{76},{77},{78},{79},{80},{81},{82},{83},{84},{85},{86},{87},{88},{89},{90},{91},{92},{93},{94},{95},{96},{97},{98},{99},{100},{101},{102},{103},{104},{105},{106},{107},{108},{109},{110},{111},{112},{113},{114},{115},{116},{117},{118},{119},{120},{121},{122},{123},{124},{125},{126},{127}" -env GAUSS_ADEF="0,1,2,3,4,5,6,7,8,9,10,11,12,13,14,15,16,17,18,19,20,21,22,23,24,25,26,27,28,29,30,31,32,33,34,35,36,37,38,39,40,41,42,43,44,45,46,47,48,49,50,51,52,53,54,55,56,57,58,59,60,61,62,63,64,65,66,67,68,69,70,71,72,73,74,75,76,77,78,79,80,81,82,83,84,85,86,87,88,89,90,91,92,93,94,95,96,97,98,99,100,101,102,103,104,105,106,107,108,109,110,111,112,113,114,115,116,117,118,119,120,121,122,123,124,125,126,127""
 Will use up to    1 processors via Linda.
 ----------------------------------------------------------------------
 #p OLYP 6-31+G(2df,p) opt=(cartesian,calcall,maxcycles=500) freq scf=(
 maxcycles=500,xqc,maxconventional=50) IOp(3/174=1000000) IOp(3/175=176
 4000) IOp(3/176=806000)
 ----------------------------------------------------------------------
 1/6=500,10=4,18=10,26=3,38=1/1,3;
 2/12=2,17=6,18=5,29=2,40=1/2;
 3/5=1,6=6,7=114,11=2,25=1,30=1,71=2,74=2002,140=1,174=1000000,175=1764000,176=806000/1,2,3;
 4//1;
 5/5=2,7=500,8=3,13=1,38=5,85=50/2,8;
 8/6=4,10=90,11=11/1;
 11/6=1,8=1,9=11,15=111,16=1/1,2,10;
 10/6=1/2;
 6/7=2,8=2,9=2,10=2,18=1,28=1/1;
 7/7=1,10=1,25=1/1,2,3,16;
 1/6=500,10=4,18=10,26=3/3(3);
 2/29=1/2;
 7/7=1,8=1,9=1,25=1,44=-1/16;
 99/12=1/99;
 2/29=1/2;
 3/5=1,6=6,7=114,11=2,25=1,30=1,71=2,74=2002,140=1,174=1000000,175=1764000,176=806000/1,2,3;
 4/5=5,16=3,69=1/1;
 5/5=2,7=500,8=3,13=1,38=5,85=50/2,8;
 8/6=4,10=90,11=11/1;
 11/6=1,8=1,9=11,15=111,16=1/1,2,10;
 10/6=1/2;
 7/7=1,10=1,25=1/1,2,3,16;
 1/6=500,10=4,18=10,26=3/3(-8);
 2/29=1/2;
 6/7=2,8=2,9=2,10=2,18=1,19=2,28=1/1;
 7/7=1,8=1,9=1,25=1,44=-1/16;
 99/12=1/99;
 Leave Link    1 at Wed Mar  5 18:41:50 2025, MaxMem=           0 cpu:               1.6 elap:               0.0
 (Enter /gpfs/fs1/soft/improv/software/custom-built/gaussian/g16/l101.exe)
 -----
 Title
 -----
 Symbolic Z-matrix:
 Charge =  2 Multiplicity = 5
 Fe                   -0.79304   0.81881  -0.09491 
 O                    -1.20497   2.57394  -0.35687 
 H                    -2.12106   2.64974  -0.63312 
 O                     0.99012   1.19063  -0.05794 
 H                     1.42696   0.5998    0.55971 
 O                    -0.81752   1.03069   1.71365 
 H                    -1.02108   0.1906    2.13133 
 O                    -0.38507  -0.93351   0.17118 
 H                    -1.15682  -1.47369  -0.01433 
 O                    -2.57341   0.45178  -0.12186 
 H                    -2.77756  -0.08744  -0.88929 
 O                    -0.76966   0.60461  -1.90111 
 H                     0.09872   0.83457  -2.23949 
 H                    -0.96534  -0.30999  -2.11742 
 H                     1.12208   2.09943   0.22124 
 H                    -1.07671   3.0584    0.46184 
 H                    -2.81407  -0.02398   0.6765 
 H                     0.0422    1.33615   2.01181 
 H                    -0.11532  -1.06446   1.08312 
 
 ITRead=  0  0  0  0  0  0  0  0  0  0  0  0  0  0  0  0  0  0  0
 MicOpt= -1 -1 -1 -1 -1 -1 -1 -1 -1 -1 -1 -1 -1 -1 -1 -1 -1 -1 -1
 NAtoms=     19 NQM=       19 NQMF=       0 NMMI=      0 NMMIF=      0
                NMic=       0 NMicF=      0.
                    Isotopes and Nuclear Properties:
 (Nuclear quadrupole moments (NQMom) in fm**2, nuclear magnetic moments (NMagM)
  in nuclear magnetons)

  Atom         1           2           3           4           5           6           7           8           9          10
 IAtWgt=          56          16           1          16           1          16           1          16           1          16
 AtmWgt=  55.9349393  15.9949146   1.0078250  15.9949146   1.0078250  15.9949146   1.0078250  15.9949146   1.0078250  15.9949146
 NucSpn=           0           0           1           0           1           0           1           0           1           0
 AtZEff=  -0.0000000  -0.0000000  -0.0000000  -0.0000000  -0.0000000  -0.0000000  -0.0000000  -0.0000000  -0.0000000  -0.0000000
 NQMom=    0.0000000   0.0000000   0.0000000   0.0000000   0.0000000   0.0000000   0.0000000   0.0000000   0.0000000   0.0000000
 NMagM=    0.0000000   0.0000000   2.7928460   0.0000000   2.7928460   0.0000000   2.7928460   0.0000000   2.7928460   0.0000000
 AtZNuc=  26.0000000   8.0000000   1.0000000   8.0000000   1.0000000   8.0000000   1.0000000   8.0000000   1.0000000   8.0000000

  Atom        11          12          13          14          15          16          17          18          19
 IAtWgt=           1          16           1           1           1           1           1           1           1
 AtmWgt=   1.0078250  15.9949146   1.0078250   1.0078250   1.0078250   1.0078250   1.0078250   1.0078250   1.0078250
 NucSpn=           1           0           1           1           1           1           1           1           1
 AtZEff=  -0.0000000  -0.0000000  -0.0000000  -0.0000000  -0.0000000  -0.0000000  -0.0000000  -0.0000000  -0.0000000
 NQMom=    0.0000000   0.0000000   0.0000000   0.0000000   0.0000000   0.0000000   0.0000000   0.0000000   0.0000000
 NMagM=    2.7928460   0.0000000   2.7928460   2.7928460   2.7928460   2.7928460   2.7928460   2.7928460   2.7928460
 AtZNuc=   1.0000000   8.0000000   1.0000000   1.0000000   1.0000000   1.0000000   1.0000000   1.0000000   1.0000000
 Leave Link  101 at Wed Mar  5 18:41:51 2025, MaxMem= 13421772800 cpu:               0.4 elap:               0.1
 (Enter /gpfs/fs1/soft/improv/software/custom-built/gaussian/g16/l103.exe)

 GradGradGradGradGradGradGradGradGradGradGradGradGradGradGradGradGradGrad
 Berny optimization.
 Initialization pass.
 No Z-matrix variables, so optimization will use Cartesian coordinates.
 Trust Radius=3.00D-01 FncErr=1.00D-07 GrdErr=1.00D-06 EigMax=2.50D+02 EigMin=1.00D-04
 Number of steps in this run=    114 maximum allowed number of steps=    114.
 GradGradGradGradGradGradGradGradGradGradGradGradGradGradGradGradGradGrad

 Leave Link  103 at Wed Mar  5 18:41:51 2025, MaxMem= 13421772800 cpu:               0.4 elap:               0.0
 (Enter /gpfs/fs1/soft/improv/software/custom-built/gaussian/g16/l202.exe)
 ---------------------------------------------------------------------------------------------------
                            Z-MATRIX (ANGSTROMS AND DEGREES)
   CD    Cent   Atom    N1       Length/X        N2       Alpha/Y        N3        Beta/Z          J
 ---------------------------------------------------------------------------------------------------
      1      1  Fe       0  -0.793037          0.818805         -0.094905
      2      2  O        0  -1.204971          2.573941         -0.356874
      3      3  H        0  -2.121063          2.649743         -0.633122
      4      4  O        0   0.990122          1.190635         -0.057941
      5      5  H        0   1.426962          0.599798          0.559707
      6      6  O        0  -0.817519          1.030691          1.713650
      7      7  H        0  -1.021079          0.190602          2.131326
      8      8  O        0  -0.385068         -0.933506          0.171177
      9      9  H        0  -1.156817         -1.473692         -0.014327
     10     10  O        0  -2.573405          0.451778         -0.121857
     11     11  H        0  -2.777557         -0.087440         -0.889285
     12     12  O        0  -0.769659          0.604612         -1.901109
     13     13  H        0   0.098725          0.834573         -2.239490
     14     14  H        0  -0.965336         -0.309994         -2.117418
     15     15  H        0   1.122081          2.099426          0.221242
     16     16  H        0  -1.076711          3.058396          0.461841
     17     17  H        0  -2.814074         -0.023981          0.676500
     18     18  H        0   0.042204          1.336153          2.011809
     19     19  H        0  -0.115315         -1.064459          1.083123
 ---------------------------------------------------------------------------------------------------
                         Z-Matrix orientation:                         
 ---------------------------------------------------------------------
 Center     Atomic      Atomic             Coordinates (Angstroms)
 Number     Number       Type             X           Y           Z
 ---------------------------------------------------------------------
      1         26           0       -0.793037    0.818805   -0.094905
      2          8           0       -1.204971    2.573941   -0.356874
      3          1           0       -2.121063    2.649743   -0.633122
      4          8           0        0.990122    1.190635   -0.057941
      5          1           0        1.426962    0.599798    0.559707
      6          8           0       -0.817519    1.030691    1.713650
      7          1           0       -1.021079    0.190602    2.131326
      8          8           0       -0.385068   -0.933506    0.171177
      9          1           0       -1.156817   -1.473692   -0.014327
     10          8           0       -2.573405    0.451778   -0.121857
     11          1           0       -2.777557   -0.087440   -0.889285
     12          8           0       -0.769659    0.604612   -1.901109
     13          1           0        0.098725    0.834573   -2.239490
     14          1           0       -0.965336   -0.309994   -2.117418
     15          1           0        1.122081    2.099426    0.221242
     16          1           0       -1.076711    3.058396    0.461841
     17          1           0       -2.814074   -0.023981    0.676500
     18          1           0        0.042204    1.336153    2.011809
     19          1           0       -0.115315   -1.064459    1.083123
 ---------------------------------------------------------------------
                    Distance matrix (angstroms):
                    1          2          3          4          5
     1  Fe   0.000000
     2  O    1.821762   0.000000
     3  H    2.325008   0.959835   0.000000
     4  O    1.821889   2.611767   3.484150   0.000000
     5  H    2.324839   3.415322   4.267739   0.959899   0.000000
     6  O    1.821090   2.611285   3.134947   2.536076   2.560263
     7  H    2.324381   3.450400   3.859988   3.136540   2.937743
     8  O    1.818745   3.640503   4.062050   2.540791   2.405292
     9  H    2.322579   4.062387   4.279649   3.421971   3.362259
    10  O    1.818006   2.536025   2.301533   3.639880   4.060711
    11  H    2.321775   3.136788   2.826442   4.064482   4.499984
    12  O    1.819010   2.540161   2.759827   2.614866   3.298603
    13  H    2.322657   2.875634   3.286750   2.383386   3.107223
    14  H    2.322591   3.387332   3.506977   3.212032   3.703756
    15  H    2.325429   2.444290   3.398642   0.959822   1.567289
    16  H    2.325125   0.959918   1.567358   2.833814   3.510364
    17  H    2.321626   3.225876   3.056824   4.060370   4.288255
    18  H    2.324547   2.949275   3.660724   2.281137   2.137375
    19  H    2.322443   4.061883   4.556733   2.758526   2.328591
                    6          7          8          9         10
     6  O    0.000000
     7  H    0.960021   0.000000
     8  O    2.534622   2.347406   0.000000
     9  H    3.061530   2.718847   0.960108   0.000000
    10  O    2.605257   2.748593   2.606473   2.392848   0.000000
    11  H    3.444886   3.505227   2.750347   2.305222   0.959885
    12  O    3.640099   4.061422   2.609231   2.833582   2.538227
    13  H    4.062670   4.557707   3.028445   3.443229   3.430916
    14  H    4.061572   4.278496   2.441955   2.411193   2.673658
    15  H    2.670492   3.447487   3.387136   4.244531   4.060675
    16  H    2.397039   3.318813   4.061790   4.557738   3.061904
    17  H    2.484803   2.318921   2.642472   2.307685   0.960023
    18  H    0.959858   1.567527   2.953276   3.665802   3.489421
    19  H    2.297892   1.869309   0.959980   1.567353   3.129403
                   11         12         13         14         15
    11  H    0.000000
    12  O    2.352526   0.000000
    13  H    3.308498   0.959935   0.000000
    14  H    2.200452   0.959991   1.567533   0.000000
    15  H    4.606825   3.212091   2.949969   3.953725   0.000000
    16  H    3.822919   3.420362   3.691102   4.243941   2.410850
    17  H    1.567497   3.349453   4.210050   3.362383   4.495491
    18  H    4.288824   4.062660   4.281159   4.558009   2.225950
    19  H    3.454344   3.481323   3.833001   3.396353   3.504877
                   16         17         18         19
    16  H    0.000000
    17  H    3.544793   0.000000
    18  H    2.573032   3.433851   0.000000
    19  H    4.278809   2.920828   2.578800   0.000000
 Stoichiometry    FeH12O6(2+,5)
 Framework group  C1[X(FeH12O6)]
 Deg. of freedom    51
 Full point group                 C1      NOp   1
 Largest Abelian subgroup         C1      NOp   1
 Largest concise Abelian subgroup C1      NOp   1
                         Standard orientation:                         
 ---------------------------------------------------------------------
 Center     Atomic      Atomic             Coordinates (Angstroms)
 Number     Number       Type             X           Y           Z
 ---------------------------------------------------------------------
      1         26           0       -0.020212   -0.029769    0.009758
      2          8           0       -0.320773   -1.687164   -0.684161
      3          1           0       -1.136997   -1.679346   -1.189137
      4          8           0        1.254785   -0.678144    1.138153
      5          1           0        1.943573   -0.019708    1.254074
      6          8           0        1.298505    0.294488   -1.203590
      7          1           0        1.382461    1.241149   -1.339326
      8          8           0        0.280919    1.626834    0.697379
      9          1           0       -0.430846    2.216032    0.436526
     10          8           0       -1.285567    0.616476   -1.124434
     11          1           0       -2.034473    0.939301   -0.618170
     12          8           0       -1.338192   -0.350985    1.221594
     13          1           0       -0.971642   -0.815184    1.977660
     14          1           0       -1.717006    0.482356    1.510774
     15          1           0        1.635434   -1.476912    0.766219
     16          1           0        0.408530   -1.930525   -1.258908
     17          1           0       -0.914804    1.335716   -1.641030
     18          1           0        2.129249   -0.056449   -0.874904
     19          1           0        1.114608    1.965515    0.362985
 ---------------------------------------------------------------------
 Rotational constants (GHZ):           2.0396930           1.9739388           1.9252729
 Leave Link  202 at Wed Mar  5 18:41:51 2025, MaxMem= 13421772800 cpu:               0.6 elap:               0.0
 (Enter /gpfs/fs1/soft/improv/software/custom-built/gaussian/g16/l301.exe)
 Standard basis: 6-31+G(2df,p) (6D, 7F)
 Ernie: Thresh=  0.10000D-02 Tol=  0.10000D-05 Strict=F.
 There are   347 symmetry adapted cartesian basis functions of A   symmetry.
 There are   317 symmetry adapted basis functions of A   symmetry.
   317 basis functions,   514 primitive gaussians,   347 cartesian basis functions
    44 alpha electrons       40 beta electrons
       nuclear repulsion energy       767.7883002195 Hartrees.
 IExCor= 2002 DFT=T Ex=O Corr=LYP ExCW=0 ScaHFX=  0.000000
 ScaDFX=  1.000000  1.000000  1.000000  1.000000 ScalE2=  1.000000  1.000000
 IRadAn=      5 IRanWt=     -1 IRanGd=            0 ICorTp=0 IEmpDi=  4
 NAtoms=   19 NActive=   19 NUniq=   19 SFac= 1.00D+00 NAtFMM=   60 NAOKFM=F Big=F
 Integral buffers will be    131072 words long.
 Raffenetti 2 integral format.
 Two-electron integral symmetry is turned on.
 R6DIni: Non-standard D2/D3 S6 parameter, value=     1.000000
 R6DIni: Non-standard D2/D3 S8 parameter, value=     1.764000
 R6DIni: Non-standard D2/D3 SR6 parameter, value=     0.806000
 Leave Link  301 at Wed Mar  5 18:41:51 2025, MaxMem= 13421772800 cpu:               0.4 elap:               0.1
 (Enter /gpfs/fs1/soft/improv/software/custom-built/gaussian/g16/l302.exe)
 NPDir=0 NMtPBC=     1 NCelOv=     1 NCel=       1 NClECP=     1 NCelD=      1
         NCelK=      1 NCelE2=     1 NClLst=     1 CellRange=     0.0.
 One-electron integrals computed using PRISM.
 One-electron integral symmetry used in STVInt
 NBasis=   317 RedAO= T EigKep=  1.64D-06  NBF=   317
 NBsUse=   317 1.00D-06 EigRej= -1.00D+00 NBFU=   317
 Precomputing XC quadrature grid using
 IXCGrd= 4 IRadAn=           5 IRanWt=          -1 IRanGd=           0 AccXCQ= 0.00D+00.
 Generated NRdTot=       0 NPtTot=           0 NUsed=           0 NTot=          32
 NSgBfM=   347   346   347   347   347 MxSgAt=    19 MxSgA2=    19.
 Leave Link  302 at Wed Mar  5 18:41:52 2025, MaxMem= 13421772800 cpu:              22.5 elap:               0.3
 (Enter /gpfs/fs1/soft/improv/software/custom-built/gaussian/g16/l303.exe)
 DipDrv:  MaxL=1.
 Leave Link  303 at Wed Mar  5 18:41:52 2025, MaxMem= 13421772800 cpu:               1.1 elap:               0.0
 (Enter /gpfs/fs1/soft/improv/software/custom-built/gaussian/g16/l401.exe)
 ExpMin= 1.26D-02 ExpMax= 6.11D+04 ExpMxC= 9.18D+03 IAcc=3 IRadAn=         5 AccDes= 0.00D+00
 Harris functional with IExCor= 2002 and IRadAn=       5 diagonalized for initial guess.
 HarFok:  IExCor= 2002 AccDes= 0.00D+00 IRadAn=         5 IDoV= 1 UseB2=F ITyADJ=14
 ICtDFT=  3500011 ScaDFX=  1.000000  1.000000  1.000000  1.000000
 FoFCou: FMM=F IPFlag=           0 FMFlag=      100000 FMFlg1=           0
         NFxFlg=           0 DoJE=T BraDBF=F KetDBF=T FulRan=T
         wScrn=  0.000000 ICntrl=       500 IOpCl=  0 I1Cent=   200000004 NGrid=           0
         NMat0=    1 NMatS0=      1 NMatT0=    0 NMatD0=    1 NMtDS0=    0 NMtDT0=    0
 Petite list used in FoFCou.
 Harris En= -1721.87341341078    
 JPrj=0 DoOrth=F DoCkMO=F.
 Initial guess <Sx>= 0.0000 <Sy>= 0.0000 <Sz>= 2.0000 <S**2>= 6.0000 S= 2.0000
 Leave Link  401 at Wed Mar  5 18:41:53 2025, MaxMem= 13421772800 cpu:              40.3 elap:               0.5
 (Enter /gpfs/fs1/soft/improv/software/custom-built/gaussian/g16/l502.exe)
 Integral symmetry usage will be decided dynamically.
 UHF open shell SCF:
 Using DIIS extrapolation, IDIIS=  1040.
 NGot= 13421772800 LenX= 13421483807 LenY= 13421362957
 Requested convergence on RMS density matrix=1.00D-08 within  50 cycles.
 Requested convergence on MAX density matrix=1.00D-06.
 Requested convergence on             energy=1.00D-06.
 No special actions if energy rises.
 Fock matrices will be formed incrementally for  20 cycles.

 Cycle   1  Pass 1  IDiag  1:
 FoFJK:  IHMeth= 1 ICntrl=     500 DoSepK=F KAlg= 0 I1Cent=           0 FoldK=F
 IRaf= 990000000 NMat=       1 IRICut=       1 DoRegI=T DoRafI=F ISym2E= 0 IDoP0=0 IntGTp=1.
 FoFCou: FMM=F IPFlag=           0 FMFlag=      100000 FMFlg1=           0
         NFxFlg=           0 DoJE=T BraDBF=F KetDBF=F FulRan=T
         wScrn=  0.000000 ICntrl=       500 IOpCl=  0 I1Cent=           0 NGrid=           0
         NMat0=    1 NMatS0=      1 NMatT0=    0 NMatD0=    1 NMtDS0=    0 NMtDT0=    0
 Symmetry not used in FoFCou.
 E= -1721.31564119391    
 DIIS: error= 2.79D-02 at cycle   1 NSaved=   1.
 NSaved= 1 IEnMin= 1 EnMin= -1721.31564119391     IErMin= 1 ErrMin= 2.79D-02
 ErrMax= 2.79D-02  0.00D+00 EMaxC= 1.00D-01 BMatC= 1.76D+00 BMatP= 1.76D+00
 IDIUse=3 WtCom= 7.21D-01 WtEn= 2.79D-01
 Coeff-Com:  0.100D+01
 Coeff-En:   0.100D+01
 Coeff:      0.100D+01
 Gap=    -0.147 Goal=   None    Shift=    0.000
 Gap=     0.010 Goal=   None    Shift=    0.000
 GapD=   -0.147 DampG=0.250 DampE=0.250 DampFc=0.1250 IDamp=-1.
 Damping current iteration by 1.25D-01
 RMSDP=2.69D-01 MaxDP=3.81D+01              OVMax= 9.68D-01

 Cycle   2  Pass 1  IDiag  1:
 RMSU=  2.71D-02    CP:  1.22D+00
 E= -1721.37515954613     Delta-E=       -0.059518352221 Rises=F Damp=T
 DIIS: error= 1.70D-02 at cycle   2 NSaved=   2.
 NSaved= 2 IEnMin= 2 EnMin= -1721.37515954613     IErMin= 2 ErrMin= 1.70D-02
 ErrMax= 1.70D-02  0.00D+00 EMaxC= 1.00D-01 BMatC= 8.29D-01 BMatP= 1.76D+00
 IDIUse=3 WtCom= 8.30D-01 WtEn= 1.70D-01
 Coeff-Com: -0.414D+00 0.141D+01
 Coeff-En:   0.198D+00 0.802D+00
 Coeff:     -0.310D+00 0.131D+01
 Gap=    -0.021 Goal=   None    Shift=    0.000
 Gap=     0.040 Goal=   None    Shift=    0.000
 RMSDP=3.21D-02 MaxDP=4.42D+00 DE=-5.95D-02 OVMax= 8.84D-01

 Cycle   3  Pass 1  IDiag  1:
 RMSU=  1.98D-02    CP:  1.13D+00  1.17D-01
 E= -1720.18633899172     Delta-E=        1.188820554411 Rises=F Damp=F
 DIIS: error= 7.85D-02 at cycle   3 NSaved=   3.
 NSaved= 3 IEnMin= 2 EnMin= -1721.37515954613     IErMin= 2 ErrMin= 1.70D-02
 ErrMax= 7.85D-02  0.00D+00 EMaxC= 1.00D-01 BMatC= 1.12D+01 BMatP= 8.29D-01
 IDIUse=2 WtCom= 0.00D+00 WtEn= 1.00D+00
 Coeff-En:   0.000D+00 0.864D+00 0.136D+00
 Coeff:      0.000D+00 0.864D+00 0.136D+00
 Gap=     0.040 Goal=   None    Shift=    0.000
 Gap=     0.033 Goal=   None    Shift=    0.000
 RMSDP=3.68D-02 MaxDP=5.85D+00 DE= 1.19D+00 OVMax= 9.93D-01

 Cycle   4  Pass 1  IDiag  1:
 RMSU=  2.88D-02    CP:  9.52D-01  6.05D-01  5.03D-01
 E= -1721.16150597683     Delta-E=       -0.975166985110 Rises=F Damp=F
 DIIS: error= 2.73D-02 at cycle   4 NSaved=   4.
 NSaved= 4 IEnMin= 2 EnMin= -1721.37515954613     IErMin= 2 ErrMin= 1.70D-02
 ErrMax= 2.73D-02  0.00D+00 EMaxC= 1.00D-01 BMatC= 2.28D+00 BMatP= 8.29D-01
 IDIUse=2 WtCom= 0.00D+00 WtEn= 1.00D+00
 EnCoef did   100 forward-backward iterations
 Coeff-En:   0.498D+00 0.109D-01 0.782D-01 0.413D+00
 Coeff:      0.498D+00 0.109D-01 0.782D-01 0.413D+00
 Gap=    -0.003 Goal=   None    Shift=    0.000
 Gap=     0.092 Goal=   None    Shift=    0.000
 RMSDP=3.12D-02 MaxDP=5.87D+00 DE=-9.75D-01 OVMax= 8.99D-01

 Cycle   5  Pass 1  IDiag  1:
 RMSU=  7.05D-03    CP:  9.26D-01  6.87D-02  5.22D-01  7.74D-02
 E= -1721.54568785429     Delta-E=       -0.384181877463 Rises=F Damp=F
 DIIS: error= 1.81D-02 at cycle   5 NSaved=   5.
 NSaved= 5 IEnMin= 5 EnMin= -1721.54568785429     IErMin= 2 ErrMin= 1.70D-02
 ErrMax= 1.81D-02  0.00D+00 EMaxC= 1.00D-01 BMatC= 6.61D-01 BMatP= 8.29D-01
 IDIUse=3 WtCom= 8.19D-01 WtEn= 1.81D-01
 EnCoef did     5 forward-backward iterations
 Coeff-Com: -0.195D+00 0.521D+00-0.486D-01 0.104D+00 0.618D+00
 Coeff-En:   0.841D-01 0.000D+00 0.000D+00 0.222D+00 0.694D+00
 Coeff:     -0.144D+00 0.427D+00-0.398D-01 0.125D+00 0.632D+00
 Gap=     0.066 Goal=   None    Shift=    0.000
 Gap=     0.015 Goal=   None    Shift=    0.000
 RMSDP=5.68D-03 MaxDP=6.26D-01 DE=-3.84D-01 OVMax= 2.03D-01

 Cycle   6  Pass 1  IDiag  1:
 RMSU=  2.62D-03    CP:  8.81D-01  6.20D-02  3.73D-01  8.80D-02  1.05D+00
 E= -1721.62536776389     Delta-E=       -0.079679909601 Rises=F Damp=F
 DIIS: error= 3.85D-03 at cycle   6 NSaved=   6.
 NSaved= 6 IEnMin= 6 EnMin= -1721.62536776389     IErMin= 6 ErrMin= 3.85D-03
 ErrMax= 3.85D-03  0.00D+00 EMaxC= 1.00D-01 BMatC= 5.41D-02 BMatP= 6.61D-01
 IDIUse=3 WtCom= 9.61D-01 WtEn= 3.85D-02
 Coeff-Com: -0.321D+00 0.415D+00-0.150D-01 0.104D-01 0.198D+00 0.713D+00
 Coeff-En:   0.000D+00 0.000D+00 0.000D+00 0.392D-01 0.000D+00 0.961D+00
 Coeff:     -0.309D+00 0.399D+00-0.145D-01 0.115D-01 0.190D+00 0.722D+00
 Gap=     0.051 Goal=   None    Shift=    0.000
 Gap=     0.016 Goal=   None    Shift=    0.000
 RMSDP=1.93D-03 MaxDP=2.02D-01 DE=-7.97D-02 OVMax= 2.98D-02

 Cycle   7  Pass 1  IDiag  1:
 RMSU=  1.23D-03    CP:  8.92D-01  8.92D-02  3.89D-01  9.08D-02  1.16D+00
                    CP:  9.74D-01
 E= -1721.63107935177     Delta-E=       -0.005711587878 Rises=F Damp=F
 DIIS: error= 3.55D-03 at cycle   7 NSaved=   7.
 NSaved= 7 IEnMin= 7 EnMin= -1721.63107935177     IErMin= 7 ErrMin= 3.55D-03
 ErrMax= 3.55D-03  0.00D+00 EMaxC= 1.00D-01 BMatC= 3.16D-02 BMatP= 5.41D-02
 IDIUse=3 WtCom= 9.65D-01 WtEn= 3.55D-02
 Coeff-Com: -0.227D+00 0.261D+00 0.408D-03 0.673D-02-0.183D-01 0.447D+00
 Coeff-Com:  0.530D+00
 Coeff-En:   0.000D+00 0.000D+00 0.000D+00 0.000D+00 0.000D+00 0.000D+00
 Coeff-En:   0.100D+01
 Coeff:     -0.219D+00 0.251D+00 0.393D-03 0.649D-02-0.176D-01 0.431D+00
 Coeff:      0.547D+00
 Gap=     0.041 Goal=   None    Shift=    0.000
 Gap=     0.016 Goal=   None    Shift=    0.000
 RMSDP=1.18D-03 MaxDP=8.41D-02 DE=-5.71D-03 OVMax= 1.71D-02

 Cycle   8  Pass 1  IDiag  1:
 RMSU=  8.18D-04    CP:  8.90D-01  9.50D-02  3.87D-01  9.67D-02  1.24D+00
                    CP:  1.05D+00  1.35D+00
 E= -1721.63506734551     Delta-E=       -0.003987993735 Rises=F Damp=F
 DIIS: error= 2.00D-03 at cycle   8 NSaved=   8.
 NSaved= 8 IEnMin= 8 EnMin= -1721.63506734551     IErMin= 8 ErrMin= 2.00D-03
 ErrMax= 2.00D-03  0.00D+00 EMaxC= 1.00D-01 BMatC= 7.80D-03 BMatP= 3.16D-02
 IDIUse=3 WtCom= 9.80D-01 WtEn= 2.00D-02
 Coeff-Com: -0.663D-01 0.793D-01 0.361D-02 0.236D-02-0.857D-01-0.716D-01
 Coeff-Com:  0.151D+00 0.987D+00
 Coeff-En:   0.000D+00 0.000D+00 0.000D+00 0.000D+00 0.000D+00 0.000D+00
 Coeff-En:   0.000D+00 0.100D+01
 Coeff:     -0.649D-01 0.777D-01 0.354D-02 0.231D-02-0.840D-01-0.702D-01
 Coeff:      0.148D+00 0.987D+00
 Gap=     0.034 Goal=   None    Shift=    0.000
 Gap=     0.016 Goal=   None    Shift=    0.000
 RMSDP=1.22D-03 MaxDP=1.14D-01 DE=-3.99D-03 OVMax= 1.73D-02

 Cycle   9  Pass 1  IDiag  1:
 RMSU=  4.21D-04    CP:  8.90D-01  1.04D-01  3.87D-01  1.02D-01  1.33D+00
                    CP:  1.12D+00  1.93D+00  1.64D+00
 E= -1721.63626060998     Delta-E=       -0.001193264475 Rises=F Damp=F
 DIIS: error= 5.31D-04 at cycle   9 NSaved=   9.
 NSaved= 9 IEnMin= 9 EnMin= -1721.63626060998     IErMin= 9 ErrMin= 5.31D-04
 ErrMax= 5.31D-04  0.00D+00 EMaxC= 1.00D-01 BMatC= 5.98D-04 BMatP= 7.80D-03
 IDIUse=3 WtCom= 9.95D-01 WtEn= 5.31D-03
 Coeff-Com: -0.105D-01 0.149D-01 0.145D-02 0.205D-03-0.321D-01-0.774D-01
 Coeff-Com: -0.354D-01 0.309D+00 0.830D+00
 Coeff-En:   0.000D+00 0.000D+00 0.000D+00 0.000D+00 0.000D+00 0.000D+00
 Coeff-En:   0.000D+00 0.000D+00 0.100D+01
 Coeff:     -0.104D-01 0.148D-01 0.145D-02 0.204D-03-0.320D-01-0.770D-01
 Coeff:     -0.352D-01 0.307D+00 0.831D+00
 Gap=     0.031 Goal=   None    Shift=    0.000
 Gap=     0.016 Goal=   None    Shift=    0.000
 RMSDP=3.68D-04 MaxDP=2.99D-02 DE=-1.19D-03 OVMax= 5.49D-03

 Cycle  10  Pass 1  IDiag  1:
 RMSU=  1.55D-04    CP:  8.90D-01  1.07D-01  3.88D-01  1.03D-01  1.36D+00
                    CP:  1.15D+00  2.09D+00  1.88D+00  1.10D+00
 E= -1721.63635308653     Delta-E=       -0.000092476551 Rises=F Damp=F
 DIIS: error= 1.36D-04 at cycle  10 NSaved=  10.
 NSaved=10 IEnMin=10 EnMin= -1721.63635308653     IErMin=10 ErrMin= 1.36D-04
 ErrMax= 1.36D-04  0.00D+00 EMaxC= 1.00D-01 BMatC= 6.75D-05 BMatP= 5.98D-04
 IDIUse=3 WtCom= 9.99D-01 WtEn= 1.36D-03
 Coeff-Com:  0.104D-03 0.564D-03 0.324D-03 0.228D-03-0.397D-02-0.194D-01
 Coeff-Com: -0.428D-01-0.247D-01 0.566D+00 0.524D+00
 Coeff-En:   0.000D+00 0.000D+00 0.000D+00 0.000D+00 0.000D+00 0.000D+00
 Coeff-En:   0.000D+00 0.000D+00 0.000D+00 0.100D+01
 Coeff:      0.104D-03 0.564D-03 0.324D-03 0.228D-03-0.396D-02-0.193D-01
 Coeff:     -0.428D-01-0.246D-01 0.565D+00 0.525D+00
 Gap=     0.031 Goal=   None    Shift=    0.000
 Gap=     0.016 Goal=   None    Shift=    0.000
 RMSDP=1.02D-04 MaxDP=9.76D-03 DE=-9.25D-05 OVMax= 2.50D-03

 Cycle  11  Pass 1  IDiag  1:
 RMSU=  5.00D-05    CP:  8.90D-01  1.08D-01  3.89D-01  1.03D-01  1.36D+00
                    CP:  1.15D+00  2.12D+00  1.92D+00  1.18D+00  8.53D-01
 E= -1721.63636499125     Delta-E=       -0.000011904718 Rises=F Damp=F
 DIIS: error= 2.52D-05 at cycle  11 NSaved=  11.
 NSaved=11 IEnMin=11 EnMin= -1721.63636499125     IErMin=11 ErrMin= 2.52D-05
 ErrMax= 2.52D-05  0.00D+00 EMaxC= 1.00D-01 BMatC= 2.48D-06 BMatP= 6.75D-05
 IDIUse=1 WtCom= 1.00D+00 WtEn= 0.00D+00
 Coeff-Com: -0.151D-02 0.130D-02 0.154D-03 0.224D-03 0.465D-03 0.741D-02
 Coeff-Com: -0.644D-02-0.505D-01 0.169D+00 0.227D+00 0.652D+00
 Coeff:     -0.151D-02 0.130D-02 0.154D-03 0.224D-03 0.465D-03 0.741D-02
 Coeff:     -0.644D-02-0.505D-01 0.169D+00 0.227D+00 0.652D+00
 Gap=     0.031 Goal=   None    Shift=    0.000
 Gap=     0.016 Goal=   None    Shift=    0.000
 RMSDP=2.86D-05 MaxDP=3.24D-03 DE=-1.19D-05 OVMax= 1.29D-03

 Cycle  12  Pass 1  IDiag  1:
 RMSU=  1.81D-05    CP:  8.90D-01  1.08D-01  3.89D-01  1.03D-01  1.36D+00
                    CP:  1.15D+00  2.12D+00  1.92D+00  1.19D+00  7.97D-01
                    CP:  8.56D-01
 E= -1721.63636539376     Delta-E=       -0.000000402503 Rises=F Damp=F
 DIIS: error= 2.18D-05 at cycle  12 NSaved=  12.
 NSaved=12 IEnMin=12 EnMin= -1721.63636539376     IErMin=12 ErrMin= 2.18D-05
 ErrMax= 2.18D-05  0.00D+00 EMaxC= 1.00D-01 BMatC= 1.03D-06 BMatP= 2.48D-06
 IDIUse=1 WtCom= 1.00D+00 WtEn= 0.00D+00
 Coeff-Com: -0.128D-02 0.105D-02 0.107D-03 0.623D-04 0.106D-03 0.893D-02
 Coeff-Com:  0.589D-02-0.320D-01-0.409D-03 0.246D-01 0.957D-01 0.897D+00
 Coeff:     -0.128D-02 0.105D-02 0.107D-03 0.623D-04 0.106D-03 0.893D-02
 Coeff:      0.589D-02-0.320D-01-0.409D-03 0.246D-01 0.957D-01 0.897D+00
 Gap=     0.031 Goal=   None    Shift=    0.000
 Gap=     0.016 Goal=   None    Shift=    0.000
 RMSDP=1.19D-05 MaxDP=9.82D-04 DE=-4.03D-07 OVMax= 1.82D-03

 Cycle  13  Pass 1  IDiag  1:
 RMSU=  8.52D-06    CP:  8.90D-01  1.08D-01  3.89D-01  1.03D-01  1.36D+00
                    CP:  1.15D+00  2.12D+00  1.92D+00  1.19D+00  8.04D-01
                    CP:  9.77D-01  1.20D+00
 E= -1721.63636559397     Delta-E=       -0.000000200211 Rises=F Damp=F
 DIIS: error= 1.59D-05 at cycle  13 NSaved=  13.
 NSaved=13 IEnMin=13 EnMin= -1721.63636559397     IErMin=13 ErrMin= 1.59D-05
 ErrMax= 1.59D-05  0.00D+00 EMaxC= 1.00D-01 BMatC= 6.60D-07 BMatP= 1.03D-06
 IDIUse=1 WtCom= 1.00D+00 WtEn= 0.00D+00
 Coeff-Com: -0.688D-03 0.465D-03 0.564D-04 0.699D-04-0.292D-03 0.668D-02
 Coeff-Com:  0.831D-02-0.164D-01-0.546D-01-0.552D-01-0.226D+00 0.513D+00
 Coeff-Com:  0.824D+00
 Coeff:     -0.688D-03 0.465D-03 0.564D-04 0.699D-04-0.292D-03 0.668D-02
 Coeff:      0.831D-02-0.164D-01-0.546D-01-0.552D-01-0.226D+00 0.513D+00
 Coeff:      0.824D+00
 Gap=     0.031 Goal=   None    Shift=    0.000
 Gap=     0.016 Goal=   None    Shift=    0.000
 RMSDP=1.23D-05 MaxDP=8.75D-04 DE=-2.00D-07 OVMax= 1.96D-03

 Cycle  14  Pass 1  IDiag  1:
 RMSU=  5.78D-06    CP:  8.90D-01  1.08D-01  3.89D-01  1.03D-01  1.36D+00
                    CP:  1.15D+00  2.12D+00  1.92D+00  1.20D+00  8.12D-01
                    CP:  1.06D+00  1.55D+00  1.50D+00
 E= -1721.63636577143     Delta-E=       -0.000000177460 Rises=F Damp=F
 DIIS: error= 1.06D-05 at cycle  14 NSaved=  14.
 NSaved=14 IEnMin=14 EnMin= -1721.63636577143     IErMin=14 ErrMin= 1.06D-05
 ErrMax= 1.06D-05  0.00D+00 EMaxC= 1.00D-01 BMatC= 2.91D-07 BMatP= 6.60D-07
 IDIUse=1 WtCom= 1.00D+00 WtEn= 0.00D+00
 Coeff-Com: -0.128D-03 0.509D-04 0.195D-04 0.334D-04-0.487D-03 0.182D-02
 Coeff-Com:  0.431D-02 0.105D-03-0.405D-01-0.591D-01-0.321D+00-0.370D+00
 Coeff-Com:  0.631D+00 0.115D+01
 Coeff:     -0.128D-03 0.509D-04 0.195D-04 0.334D-04-0.487D-03 0.182D-02
 Coeff:      0.431D-02 0.105D-03-0.405D-01-0.591D-01-0.321D+00-0.370D+00
 Coeff:      0.631D+00 0.115D+01
 Gap=     0.031 Goal=   None    Shift=    0.000
 Gap=     0.016 Goal=   None    Shift=    0.000
 RMSDP=1.83D-05 MaxDP=1.23D-03 DE=-1.77D-07 OVMax= 3.07D-03

 Cycle  15  Pass 1  IDiag  1:
 RMSU=  3.39D-06    CP:  8.90D-01  1.08D-01  3.90D-01  1.03D-01  1.36D+00
                    CP:  1.15D+00  2.12D+00  1.93D+00  1.21D+00  8.00D-01
                    CP:  1.16D+00  2.22D+00  2.57D+00  1.60D+00
 E= -1721.63636591300     Delta-E=       -0.000000141578 Rises=F Damp=F
 DIIS: error= 3.34D-06 at cycle  15 NSaved=  15.
 NSaved=15 IEnMin=15 EnMin= -1721.63636591300     IErMin=15 ErrMin= 3.34D-06
 ErrMax= 3.34D-06  0.00D+00 EMaxC= 1.00D-01 BMatC= 3.05D-08 BMatP= 2.91D-07
 IDIUse=1 WtCom= 1.00D+00 WtEn= 0.00D+00
 Coeff-Com: -0.111D-03 0.105D-03 0.154D-04 0.132D-04-0.166D-03 0.296D-03
 Coeff-Com:  0.432D-03 0.593D-03-0.130D-03-0.585D-02-0.671D-01-0.254D+00
 Coeff-Com: -0.744D-03 0.359D+00 0.968D+00
 Coeff:     -0.111D-03 0.105D-03 0.154D-04 0.132D-04-0.166D-03 0.296D-03
 Coeff:      0.432D-03 0.593D-03-0.130D-03-0.585D-02-0.671D-01-0.254D+00
 Coeff:     -0.744D-03 0.359D+00 0.968D+00
 Gap=     0.031 Goal=   None    Shift=    0.000
 Gap=     0.016 Goal=   None    Shift=    0.000
 RMSDP=7.39D-06 MaxDP=4.36D-04 DE=-1.42D-07 OVMax= 1.31D-03

 Cycle  16  Pass 1  IDiag  1:
 RMSU=  1.41D-06    CP:  8.90D-01  1.08D-01  3.90D-01  1.03D-01  1.36D+00
                    CP:  1.15D+00  2.12D+00  1.93D+00  1.21D+00  7.96D-01
                    CP:  1.21D+00  2.45D+00  3.00D+00  1.98D+00  1.11D+00
 E= -1721.63636592940     Delta-E=       -0.000000016399 Rises=F Damp=F
 DIIS: error= 1.76D-06 at cycle  16 NSaved=  16.
 NSaved=16 IEnMin=16 EnMin= -1721.63636592940     IErMin=16 ErrMin= 1.76D-06
 ErrMax= 1.76D-06  0.00D+00 EMaxC= 1.00D-01 BMatC= 8.14D-09 BMatP= 3.05D-08
 IDIUse=1 WtCom= 1.00D+00 WtEn= 0.00D+00
 Coeff-Com: -0.349D-04 0.246D-04 0.251D-05 0.168D-04-0.165D-04 0.144D-03
 Coeff-Com: -0.174D-03-0.824D-03 0.497D-02 0.573D-02 0.145D-01-0.465D-01
 Coeff-Com: -0.833D-01-0.201D-01 0.432D+00 0.694D+00
 Coeff:     -0.349D-04 0.246D-04 0.251D-05 0.168D-04-0.165D-04 0.144D-03
 Coeff:     -0.174D-03-0.824D-03 0.497D-02 0.573D-02 0.145D-01-0.465D-01
 Coeff:     -0.833D-01-0.201D-01 0.432D+00 0.694D+00
 Gap=     0.031 Goal=   None    Shift=    0.000
 Gap=     0.016 Goal=   None    Shift=    0.000
 RMSDP=1.34D-06 MaxDP=8.68D-05 DE=-1.64D-08 OVMax= 1.98D-04

 Cycle  17  Pass 1  IDiag  1:
 RMSU=  7.54D-07    CP:  8.90D-01  1.08D-01  3.90D-01  1.03D-01  1.36D+00
                    CP:  1.15D+00  2.12D+00  1.93D+00  1.21D+00  7.94D-01
                    CP:  1.21D+00  2.48D+00  3.00D+00  2.05D+00  1.18D+00
                    CP:  1.21D+00
 E= -1721.63636593087     Delta-E=       -0.000000001462 Rises=F Damp=F
 DIIS: error= 7.51D-07 at cycle  17 NSaved=  17.
 NSaved=17 IEnMin=17 EnMin= -1721.63636593087     IErMin=17 ErrMin= 7.51D-07
 ErrMax= 7.51D-07  0.00D+00 EMaxC= 1.00D-01 BMatC= 2.17D-09 BMatP= 8.14D-09
 IDIUse=1 WtCom= 1.00D+00 WtEn= 0.00D+00
 Coeff-Com: -0.155D-04 0.152D-04 0.798D-07 0.674D-06 0.281D-04 0.855D-04
 Coeff-Com: -0.168D-03-0.983D-03 0.270D-02 0.472D-02 0.242D-01 0.340D-01
 Coeff-Com: -0.461D-01-0.961D-01-0.268D-02 0.422D+00 0.659D+00
 Coeff:     -0.155D-04 0.152D-04 0.798D-07 0.674D-06 0.281D-04 0.855D-04
 Coeff:     -0.168D-03-0.983D-03 0.270D-02 0.472D-02 0.242D-01 0.340D-01
 Coeff:     -0.461D-01-0.961D-01-0.268D-02 0.422D+00 0.659D+00
 Gap=     0.031 Goal=   None    Shift=    0.000
 Gap=     0.016 Goal=   None    Shift=    0.000
 RMSDP=6.67D-07 MaxDP=6.05D-05 DE=-1.46D-09 OVMax= 7.18D-05

 Cycle  18  Pass 1  IDiag  1:
 RMSU=  2.78D-07    CP:  8.90D-01  1.08D-01  3.90D-01  1.03D-01  1.36D+00
                    CP:  1.15D+00  2.12D+00  1.93D+00  1.21D+00  7.94D-01
                    CP:  1.22D+00  2.50D+00  3.00D+00  2.07D+00  1.24D+00
                    CP:  1.33D+00  1.02D+00
 E= -1721.63636593128     Delta-E=       -0.000000000414 Rises=F Damp=F
 DIIS: error= 2.51D-07 at cycle  18 NSaved=  18.
 NSaved=18 IEnMin=18 EnMin= -1721.63636593128     IErMin=18 ErrMin= 2.51D-07
 ErrMax= 2.51D-07  0.00D+00 EMaxC= 1.00D-01 BMatC= 1.78D-10 BMatP= 2.17D-09
 IDIUse=1 WtCom= 1.00D+00 WtEn= 0.00D+00
 Coeff-Com: -0.405D-05 0.306D-05 0.462D-07-0.894D-07 0.542D-05 0.564D-04
 Coeff-Com:  0.211D-04-0.362D-03-0.620D-04 0.460D-03 0.420D-02 0.172D-01
 Coeff-Com:  0.403D-02-0.169D-01-0.867D-01 0.251D-01 0.232D+00 0.821D+00
 Coeff:     -0.405D-05 0.306D-05 0.462D-07-0.894D-07 0.542D-05 0.564D-04
 Coeff:      0.211D-04-0.362D-03-0.620D-04 0.460D-03 0.420D-02 0.172D-01
 Coeff:      0.403D-02-0.169D-01-0.867D-01 0.251D-01 0.232D+00 0.821D+00
 Gap=     0.031 Goal=   None    Shift=    0.000
 Gap=     0.016 Goal=   None    Shift=    0.000
 RMSDP=3.00D-07 MaxDP=2.47D-05 DE=-4.14D-10 OVMax= 2.21D-05

 Cycle  19  Pass 1  IDiag  1:
 RMSU=  1.53D-07    CP:  8.90D-01  1.08D-01  3.90D-01  1.03D-01  1.36D+00
                    CP:  1.15D+00  2.12D+00  1.93D+00  1.21D+00  7.93D-01
                    CP:  1.22D+00  2.50D+00  3.00D+00  2.08D+00  1.23D+00
                    CP:  1.39D+00  1.07D+00  1.12D+00
 E= -1721.63636593132     Delta-E=       -0.000000000040 Rises=F Damp=F
 DIIS: error= 1.26D-07 at cycle  19 NSaved=  19.
 NSaved=19 IEnMin=19 EnMin= -1721.63636593132     IErMin=19 ErrMin= 1.26D-07
 ErrMax= 1.26D-07  0.00D+00 EMaxC= 1.00D-01 BMatC= 3.28D-11 BMatP= 1.78D-10
 IDIUse=1 WtCom= 1.00D+00 WtEn= 0.00D+00
 Coeff-Com: -0.199D-05 0.148D-05 0.189D-06 0.694D-08-0.608D-05 0.124D-04
 Coeff-Com:  0.642D-04 0.144D-03-0.739D-03-0.117D-02-0.553D-02-0.816D-02
 Coeff-Com:  0.129D-01 0.255D-01-0.330D-01-0.103D+00-0.106D+00 0.118D+00
 Coeff-Com:  0.110D+01
 Coeff:     -0.199D-05 0.148D-05 0.189D-06 0.694D-08-0.608D-05 0.124D-04
 Coeff:      0.642D-04 0.144D-03-0.739D-03-0.117D-02-0.553D-02-0.816D-02
 Coeff:      0.129D-01 0.255D-01-0.330D-01-0.103D+00-0.106D+00 0.118D+00
 Coeff:      0.110D+01
 Gap=     0.031 Goal=   None    Shift=    0.000
 Gap=     0.016 Goal=   None    Shift=    0.000
 RMSDP=2.15D-07 MaxDP=1.28D-05 DE=-4.00D-11 OVMax= 3.19D-05

 Cycle  20  Pass 1  IDiag  1:
 RMSU=  4.67D-08    CP:  8.90D-01  1.08D-01  3.90D-01  1.03D-01  1.36D+00
                    CP:  1.15D+00  2.12D+00  1.93D+00  1.21D+00  7.93D-01
                    CP:  1.22D+00  2.50D+00  3.00D+00  2.09D+00  1.23D+00
                    CP:  1.44D+00  1.15D+00  1.38D+00  1.38D+00
 E= -1721.63636593138     Delta-E=       -0.000000000059 Rises=F Damp=F
 DIIS: error= 3.25D-08 at cycle  20 NSaved=  20.
 NSaved=20 IEnMin=20 EnMin= -1721.63636593138     IErMin=20 ErrMin= 3.25D-08
 ErrMax= 3.25D-08  0.00D+00 EMaxC= 1.00D-01 BMatC= 3.99D-12 BMatP= 3.28D-11
 IDIUse=1 WtCom= 1.00D+00 WtEn= 0.00D+00
 Coeff-Com: -0.668D-06 0.699D-06 0.963D-08-0.515D-07-0.140D-05 0.187D-06
 Coeff-Com:  0.122D-04 0.510D-04-0.133D-03-0.273D-03-0.152D-02-0.425D-02
 Coeff-Com:  0.169D-02 0.762D-02 0.355D-02-0.153D-01-0.404D-01-0.120D+00
 Coeff-Com:  0.189D+00 0.980D+00
 Coeff:     -0.668D-06 0.699D-06 0.963D-08-0.515D-07-0.140D-05 0.187D-06
 Coeff:      0.122D-04 0.510D-04-0.133D-03-0.273D-03-0.152D-02-0.425D-02
 Coeff:      0.169D-02 0.762D-02 0.355D-02-0.153D-01-0.404D-01-0.120D+00
 Coeff:      0.189D+00 0.980D+00
 Gap=     0.031 Goal=   None    Shift=    0.000
 Gap=     0.016 Goal=   None    Shift=    0.000
 RMSDP=7.52D-08 MaxDP=4.66D-06 DE=-5.91D-11 OVMax= 8.15D-06

 Cycle  21  Pass 1  IDiag  1:
 Restarting incremental Fock formation.
 E= -1721.63636593134     Delta-E=        0.000000000037 Rises=F Damp=F
 DIIS: error= 2.91D-08 at cycle  21 NSaved=  20.
 NSaved=20 IEnMin=19 EnMin= -1721.63636593138     IErMin=20 ErrMin= 2.91D-08
 ErrMax= 2.91D-08  0.00D+00 EMaxC= 1.00D-01 BMatC= 3.12D-12 BMatP= 3.99D-12
 IDIUse=1 WtCom= 1.00D+00 WtEn= 0.00D+00
 Coeff-Com: -0.352D-06 0.411D-06 0.391D-07 0.367D-07 0.307D-06-0.218D-05
 Coeff-Com: -0.594D-05 0.505D-04 0.460D-04 0.455D-04-0.993D-03-0.104D-02
 Coeff-Com:  0.410D-03 0.835D-02 0.110D-01-0.345D-02-0.107D+00-0.101D+00
 Coeff-Com:  0.669D+00 0.524D+00
 Coeff:     -0.352D-06 0.411D-06 0.391D-07 0.367D-07 0.307D-06-0.218D-05
 Coeff:     -0.594D-05 0.505D-04 0.460D-04 0.455D-04-0.993D-03-0.104D-02
 Coeff:      0.410D-03 0.835D-02 0.110D-01-0.345D-02-0.107D+00-0.101D+00
 Coeff:      0.669D+00 0.524D+00
 Gap=     0.031 Goal=   None    Shift=    0.000
 Gap=     0.016 Goal=   None    Shift=    0.000
 RMSDP=2.78D-08 MaxDP=2.47D-06 DE= 3.73D-11 OVMax= 3.44D-06

 Cycle  22  Pass 1  IDiag  1:
 RMSU=  2.77D-08    CP:  1.00D+00
 E= -1721.63636593133     Delta-E=        0.000000000009 Rises=F Damp=F
 DIIS: error= 6.95D-09 at cycle  22 NSaved=  20.
 NSaved=20 IEnMin=18 EnMin= -1721.63636593138     IErMin=20 ErrMin= 6.95D-09
 ErrMax= 6.95D-09  0.00D+00 EMaxC= 1.00D-01 BMatC= 2.01D-13 BMatP= 3.12D-12
 IDIUse=1 WtCom= 1.00D+00 WtEn= 0.00D+00
 Coeff-Com: -0.179D-06 0.222D-06 0.186D-06 0.264D-06-0.254D-05-0.114D-04
 Coeff-Com:  0.365D-04 0.555D-04 0.221D-03 0.238D-03-0.597D-03-0.799D-03
 Coeff-Com:  0.314D-02 0.708D-02 0.470D-02-0.337D-01-0.811D-01 0.149D+00
 Coeff-Com:  0.224D+00 0.728D+00
 Coeff:     -0.179D-06 0.222D-06 0.186D-06 0.264D-06-0.254D-05-0.114D-04
 Coeff:      0.365D-04 0.555D-04 0.221D-03 0.238D-03-0.597D-03-0.799D-03
 Coeff:      0.314D-02 0.708D-02 0.470D-02-0.337D-01-0.811D-01 0.149D+00
 Coeff:      0.224D+00 0.728D+00
 Gap=     0.031 Goal=   None    Shift=    0.000
 Gap=     0.016 Goal=   None    Shift=    0.000
 RMSDP=1.16D-08 MaxDP=8.58D-07 DE= 9.09D-12 OVMax= 1.63D-06

 Cycle  23  Pass 1  IDiag  1:
 RMSU=  6.18D-09    CP:  1.00D+00  1.34D+00
 E= -1721.63636593135     Delta-E=       -0.000000000014 Rises=F Damp=F
 DIIS: error= 3.01D-09 at cycle  23 NSaved=  20.
 NSaved=20 IEnMin=17 EnMin= -1721.63636593138     IErMin=20 ErrMin= 3.01D-09
 ErrMax= 3.01D-09  0.00D+00 EMaxC= 1.00D-01 BMatC= 2.25D-14 BMatP= 2.01D-13
 IDIUse=1 WtCom= 1.00D+00 WtEn= 0.00D+00
 Coeff-Com:  0.113D-08 0.407D-07 0.340D-07-0.265D-06-0.156D-05-0.110D-05
 Coeff-Com:  0.410D-05 0.428D-04 0.142D-03-0.308D-04-0.225D-03-0.376D-03
 Coeff-Com:  0.172D-04 0.127D-02 0.591D-02-0.274D-02-0.510D-01-0.208D-01
 Coeff-Com:  0.141D+00 0.927D+00
 Coeff:      0.113D-08 0.407D-07 0.340D-07-0.265D-06-0.156D-05-0.110D-05
 Coeff:      0.410D-05 0.428D-04 0.142D-03-0.308D-04-0.225D-03-0.376D-03
 Coeff:      0.172D-04 0.127D-02 0.591D-02-0.274D-02-0.510D-01-0.208D-01
 Coeff:      0.141D+00 0.927D+00
 Gap=     0.031 Goal=   None    Shift=    0.000
 Gap=     0.016 Goal=   None    Shift=    0.000
 RMSDP=4.29D-09 MaxDP=4.79D-07 DE=-1.36D-11 OVMax= 3.26D-07

 SCF Done:  E(UO-LYP) =  -1721.63636593     A.U. after   23 cycles
            NFock= 23  Conv=0.43D-08     -V/T= 2.0007
 <Sx>= 0.0000 <Sy>= 0.0000 <Sz>= 2.0000 <S**2>= 6.0118 S= 2.0024
 <L.S>=  0.00000000000    
 KE= 1.720429440856D+03 PE=-5.597461804345D+03 EE= 1.387607697338D+03
 Annihilation of the first spin contaminant:
 S**2 before annihilation     6.0118,   after     6.0000
 Leave Link  502 at Wed Mar  5 18:43:13 2025, MaxMem= 13421772800 cpu:            9589.3 elap:              79.8
 (Enter /gpfs/fs1/soft/improv/software/custom-built/gaussian/g16/l508.exe)
 QCSCF skips out because SCF is already converged.
 Leave Link  508 at Wed Mar  5 18:43:13 2025, MaxMem= 13421772800 cpu:               0.3 elap:               0.0
 (Enter /gpfs/fs1/soft/improv/software/custom-built/gaussian/g16/l801.exe)
 DoSCS=F DFT=T ScalE2(SS,OS)=  1.000000  1.000000
 Range of M.O.s used for correlation:     1   317
 NBasis=   317 NAE=    44 NBE=    40 NFC=     0 NFV=     0
 NROrb=    317 NOA=    44 NOB=    40 NVA=   273 NVB=   277

 **** Warning!!: The largest alpha MO coefficient is  0.24330382D+03


 **** Warning!!: The smallest alpha delta epsilon is  0.30587369D-01


 **** Warning!!: The largest beta MO coefficient is  0.24990067D+03


 **** Warning!!: The smallest beta delta epsilon is  0.15803596D-01

 Leave Link  801 at Wed Mar  5 18:43:13 2025, MaxMem= 13421772800 cpu:               0.4 elap:               0.0
 (Enter /gpfs/fs1/soft/improv/software/custom-built/gaussian/g16/l1101.exe)
 Using compressed storage, NAtomX=    19.
 Will process     20 centers per pass.
 Leave Link 1101 at Wed Mar  5 18:43:13 2025, MaxMem= 13421772800 cpu:              51.9 elap:               0.5
 (Enter /gpfs/fs1/soft/improv/software/custom-built/gaussian/g16/l1102.exe)
 Symmetrizing basis deriv contribution to polar:
 IMax=3 JMax=2 DiffMx= 0.00D+00
 Leave Link 1102 at Wed Mar  5 18:43:14 2025, MaxMem= 13421772800 cpu:               1.0 elap:               0.0
 (Enter /gpfs/fs1/soft/improv/software/custom-built/gaussian/g16/l1110.exe)
 Forming Gx(P) for the SCF density, NAtomX=    19.
 Integral derivatives from FoFJK, PRISM(SPDF).
 Do as many integral derivatives as possible in FoFJK.
 G2DrvN: MDV=   13421770631.
 G2DrvN: will do    20 centers at a time, making    1 passes.
 Calling FoFCou, ICntrl=  3507 FMM=F I1Cent=   0 AccDes= 0.00D+00.
 FoFJK:  IHMeth= 1 ICntrl=    3507 DoSepK=F KAlg= 0 I1Cent=           0 FoldK=F
 IRaf=         0 NMat=       1 IRICut=       1 DoRegI=T DoRafI=F ISym2E= 0 IDoP0=0 IntGTp=1.
 FoFCou: FMM=F IPFlag=           0 FMFlag=      100000 FMFlg1=           0
         NFxFlg=           0 DoJE=F BraDBF=F KetDBF=F FulRan=T
         wScrn=  0.000000 ICntrl=      3507 IOpCl=  0 I1Cent=           0 NGrid=           0
         NMat0=    1 NMatS0=      1 NMatT0=    0 NMatD0=    1 NMtDS0=    0 NMtDT0=    0
 Symmetry not used in FoFCou.
 End of G2Drv F.D. properties file   721 does not exist.
 End of G2Drv F.D. properties file   722 does not exist.
 End of G2Drv F.D. properties file   788 does not exist.
 Leave Link 1110 at Wed Mar  5 18:43:28 2025, MaxMem= 13421772800 cpu:            1760.6 elap:              14.1
 (Enter /gpfs/fs1/soft/improv/software/custom-built/gaussian/g16/l1002.exe)
 Minotr:  UHF open shell wavefunction.
          IDoAtm=1111111111111111111
          Direct CPHF calculation.
          Differentiating once with respect to electric field.
                with respect to dipole field.
          Differentiating once with respect to nuclear coordinates.
          Requested convergence is 1.0D-08 RMS, and 1.0D-07 maximum.
          Secondary convergence is 1.0D-12 RMS, and 1.0D-12 maximum.
          NewPWx=T KeepS1=F KeepF1=F KeepIn=T MapXYZ=F SortEE=F KeepMc=T.
         6034 words used for storage of precomputed grid.
 Two-electron integrals replicated using symmetry.
          MDV=   13421772800 using IRadAn=       1.
          Solving linear equations simultaneously, MaxMat=     384.
 FoF2E skips out because all densities are zero.
 CalDSu exits because no D1Ps are significant.
 FoFJK:  IHMeth= 1 ICntrl=     500 DoSepK=F KAlg= 0 I1Cent=           0 FoldK=F
 IRaf= 990000000 NMat=      57 IRICut=       1 DoRegI=T DoRafI=F ISym2E= 2 IDoP0=3 IntGTp=2.
 FoFCou: FMM=F IPFlag=           0 FMFlag=      100000 FMFlg1=           0
         NFxFlg=           0 DoJE=F BraDBF=F KetDBF=F FulRan=T
         wScrn=  0.000000 ICntrl=       500 IOpCl=  0 I1Cent=           0 NGrid=           0
         NMat0=   57 NMatS0=     57 NMatT0=    0 NMatD0=   57 NMtDS0=    0 NMtDT0=    0
 Integrals replicated using symmetry in FoFCou.
          There are    60 degrees of freedom in the 1st order CPHF.  IDoFFX=6 NUNeed=     3.
     57 vectors produced by pass  0 Test12= 3.85D-14 1.67D-09 XBig12= 1.60D+02 4.41D+00.
 AX will form    57 AO Fock derivatives at one time.
     57 vectors produced by pass  1 Test12= 3.85D-14 1.67D-09 XBig12= 9.92D+00 5.20D-01.
     57 vectors produced by pass  2 Test12= 3.85D-14 1.67D-09 XBig12= 8.55D-02 2.47D-02.
     57 vectors produced by pass  3 Test12= 3.85D-14 1.67D-09 XBig12= 8.05D-04 4.02D-03.
     57 vectors produced by pass  4 Test12= 3.85D-14 1.67D-09 XBig12= 5.66D-06 1.98D-04.
     57 vectors produced by pass  5 Test12= 3.85D-14 1.67D-09 XBig12= 1.69D-08 1.05D-05.
     31 vectors produced by pass  6 Test12= 3.85D-14 1.67D-09 XBig12= 4.54D-11 4.18D-07.
      3 vectors produced by pass  7 Test12= 3.85D-14 1.67D-09 XBig12= 1.01D-13 2.15D-08.
 InvSVY:  IOpt=1 It=  1 EMax= 5.33D-15
 Solved reduced A of dimension   376 with    60 vectors.
 FullF1:  Do perturbations      1 to       3.
 Isotropic polarizability for W=    0.000000       60.85 Bohr**3.
 End of Minotr F.D. properties file   721 does not exist.
 End of Minotr F.D. properties file   722 does not exist.
 End of Minotr F.D. properties file   788 does not exist.
 Leave Link 1002 at Wed Mar  5 18:44:12 2025, MaxMem= 13421772800 cpu:            5312.3 elap:              44.6
 (Enter /gpfs/fs1/soft/improv/software/custom-built/gaussian/g16/l601.exe)
 Copying SCF densities to generalized density rwf, IOpCl= 1 IROHF=0.

 **********************************************************************

            Population analysis using the SCF Density.

 **********************************************************************

 Orbital symmetries:
 Alpha Orbitals:
       Occupied  (A) (A) (A) (A) (A) (A) (A) (A) (A) (A) (A) (A)
                 (A) (A) (A) (A) (A) (A) (A) (A) (A) (A) (A) (A)
                 (A) (A) (A) (A) (A) (A) (A) (A) (A) (A) (A) (A)
                 (A) (A) (A) (A) (A) (A) (A) (A)
       Virtual   (A) (A) (A) (A) (A) (A) (A) (A) (A) (A) (A) (A)
                 (A) (A) (A) (A) (A) (A) (A) (A) (A) (A) (A) (A)
                 (A) (A) (A) (A) (A) (A) (A) (A) (A) (A) (A) (A)
                 (A) (A) (A) (A) (A) (A) (A) (A) (A) (A) (A) (A)
                 (A) (A) (A) (A) (A) (A) (A) (A) (A) (A) (A) (A)
                 (A) (A) (A) (A) (A) (A) (A) (A) (A) (A) (A) (A)
                 (A) (A) (A) (A) (A) (A) (A) (A) (A) (A) (A) (A)
                 (A) (A) (A) (A) (A) (A) (A) (A) (A) (A) (A) (A)
                 (A) (A) (A) (A) (A) (A) (A) (A) (A) (A) (A) (A)
                 (A) (A) (A) (A) (A) (A) (A) (A) (A) (A) (A) (A)
                 (A) (A) (A) (A) (A) (A) (A) (A) (A) (A) (A) (A)
                 (A) (A) (A) (A) (A) (A) (A) (A) (A) (A) (A) (A)
                 (A) (A) (A) (A) (A) (A) (A) (A) (A) (A) (A) (A)
                 (A) (A) (A) (A) (A) (A) (A) (A) (A) (A) (A) (A)
                 (A) (A) (A) (A) (A) (A) (A) (A) (A) (A) (A) (A)
                 (A) (A) (A) (A) (A) (A) (A) (A) (A) (A) (A) (A)
                 (A) (A) (A) (A) (A) (A) (A) (A) (A) (A) (A) (A)
                 (A) (A) (A) (A) (A) (A) (A) (A) (A) (A) (A) (A)
                 (A) (A) (A) (A) (A) (A) (A) (A) (A) (A) (A) (A)
                 (A) (A) (A) (A) (A) (A) (A) (A) (A) (A) (A) (A)
                 (A) (A) (A) (A) (A) (A) (A) (A) (A) (A) (A) (A)
                 (A) (A) (A) (A) (A) (A) (A) (A) (A) (A) (A) (A)
                 (A) (A) (A) (A) (A) (A) (A) (A) (A)
 Beta  Orbitals:
       Occupied  (A) (A) (A) (A) (A) (A) (A) (A) (A) (A) (A) (A)
                 (A) (A) (A) (A) (A) (A) (A) (A) (A) (A) (A) (A)
                 (A) (A) (A) (A) (A) (A) (A) (A) (A) (A) (A) (A)
                 (A) (A) (A) (A)
       Virtual   (A) (A) (A) (A) (A) (A) (A) (A) (A) (A) (A) (A)
                 (A) (A) (A) (A) (A) (A) (A) (A) (A) (A) (A) (A)
                 (A) (A) (A) (A) (A) (A) (A) (A) (A) (A) (A) (A)
                 (A) (A) (A) (A) (A) (A) (A) (A) (A) (A) (A) (A)
                 (A) (A) (A) (A) (A) (A) (A) (A) (A) (A) (A) (A)
                 (A) (A) (A) (A) (A) (A) (A) (A) (A) (A) (A) (A)
                 (A) (A) (A) (A) (A) (A) (A) (A) (A) (A) (A) (A)
                 (A) (A) (A) (A) (A) (A) (A) (A) (A) (A) (A) (A)
                 (A) (A) (A) (A) (A) (A) (A) (A) (A) (A) (A) (A)
                 (A) (A) (A) (A) (A) (A) (A) (A) (A) (A) (A) (A)
                 (A) (A) (A) (A) (A) (A) (A) (A) (A) (A) (A) (A)
                 (A) (A) (A) (A) (A) (A) (A) (A) (A) (A) (A) (A)
                 (A) (A) (A) (A) (A) (A) (A) (A) (A) (A) (A) (A)
                 (A) (A) (A) (A) (A) (A) (A) (A) (A) (A) (A) (A)
                 (A) (A) (A) (A) (A) (A) (A) (A) (A) (A) (A) (A)
                 (A) (A) (A) (A) (A) (A) (A) (A) (A) (A) (A) (A)
                 (A) (A) (A) (A) (A) (A) (A) (A) (A) (A) (A) (A)
                 (A) (A) (A) (A) (A) (A) (A) (A) (A) (A) (A) (A)
                 (A) (A) (A) (A) (A) (A) (A) (A) (A) (A) (A) (A)
                 (A) (A) (A) (A) (A) (A) (A) (A) (A) (A) (A) (A)
                 (A) (A) (A) (A) (A) (A) (A) (A) (A) (A) (A) (A)
                 (A) (A) (A) (A) (A) (A) (A) (A) (A) (A) (A) (A)
                 (A) (A) (A) (A) (A) (A) (A) (A) (A) (A) (A) (A)
                 (A)
 The electronic state is 5-A.
 Alpha  occ. eigenvalues -- -254.95991 -29.90736 -25.86084 -25.84744 -25.83108
 Alpha  occ. eigenvalues --  -19.18874 -19.18615 -19.17861 -19.17411 -19.15361
 Alpha  occ. eigenvalues --  -19.14972  -3.66349  -2.50747  -2.47966  -2.44643
 Alpha  occ. eigenvalues --   -1.37151  -1.34893  -1.34450  -1.33897  -1.31951
 Alpha  occ. eigenvalues --   -1.31488  -0.92262  -0.90937  -0.89367  -0.88786
 Alpha  occ. eigenvalues --   -0.86930  -0.85822  -0.81454  -0.79747  -0.79063
 Alpha  occ. eigenvalues --   -0.76317  -0.76010  -0.73620  -0.72819  -0.69601
 Alpha  occ. eigenvalues --   -0.68471  -0.67178  -0.65564  -0.64370  -0.55902
 Alpha  occ. eigenvalues --   -0.54607  -0.51696  -0.43626  -0.42825
 Alpha virt. eigenvalues --   -0.39767  -0.35035  -0.32871  -0.31636  -0.27877
 Alpha virt. eigenvalues --   -0.26864  -0.26097  -0.25847  -0.23122  -0.21795
 Alpha virt. eigenvalues --   -0.20882  -0.20036  -0.19423  -0.18164  -0.17446
 Alpha virt. eigenvalues --   -0.16673  -0.15293  -0.15173  -0.14920  -0.14127
 Alpha virt. eigenvalues --   -0.12411  -0.11459  -0.10461  -0.10063  -0.08885
 Alpha virt. eigenvalues --   -0.08379  -0.07315  -0.05821  -0.04833  -0.04497
 Alpha virt. eigenvalues --   -0.03854  -0.03251  -0.01979  -0.00992   0.00312
 Alpha virt. eigenvalues --    0.01770   0.02792   0.03649   0.04086   0.05194
 Alpha virt. eigenvalues --    0.06145   0.06389   0.06979   0.08698   0.09032
 Alpha virt. eigenvalues --    0.12364   0.12571   0.16160   0.17702   0.23058
 Alpha virt. eigenvalues --    0.24677   0.25811   0.26426   0.38244   0.39406
 Alpha virt. eigenvalues --    0.40821   0.42638   0.44042   0.45112   0.46913
 Alpha virt. eigenvalues --    0.48055   0.48882   0.49384   0.50019   0.50401
 Alpha virt. eigenvalues --    0.52155   0.54585   0.56202   0.56374   0.57481
 Alpha virt. eigenvalues --    0.59020   0.60369   0.61171   0.63216   0.66984
 Alpha virt. eigenvalues --    0.67406   0.68457   0.68729   0.69846   0.69950
 Alpha virt. eigenvalues --    0.70780   0.72889   0.76067   0.76849   0.77496
 Alpha virt. eigenvalues --    0.78615   0.82909   0.84427   0.86713   0.89731
 Alpha virt. eigenvalues --    0.91472   0.93302   0.94675   0.95850   0.97158
 Alpha virt. eigenvalues --    0.98542   1.01297   1.02763   1.04053   1.05671
 Alpha virt. eigenvalues --    1.06345   1.07627   1.09532   1.24539   1.25275
 Alpha virt. eigenvalues --    1.34173   1.34823   1.36363   1.37192   1.41794
 Alpha virt. eigenvalues --    1.42219   1.43498   1.44287   1.47701   1.47977
 Alpha virt. eigenvalues --    1.52213   1.53100   1.54293   1.57413   1.60562
 Alpha virt. eigenvalues --    1.64921   1.69924   1.76213   1.82367   1.84180
 Alpha virt. eigenvalues --    1.86064   1.89411   1.89455   1.93175   1.97966
 Alpha virt. eigenvalues --    1.98998   1.99365   2.01650   2.02252   2.09805
 Alpha virt. eigenvalues --    2.13948   2.15531   2.19594   2.22638   2.26107
 Alpha virt. eigenvalues --    2.29157   2.29518   2.34161   2.38880   2.41576
 Alpha virt. eigenvalues --    2.43188   2.47837   2.50226   2.51994   2.52635
 Alpha virt. eigenvalues --    2.53784   2.54613   2.57424   2.57669   2.59785
 Alpha virt. eigenvalues --    2.61137   2.61626   2.64322   2.65770   2.66179
 Alpha virt. eigenvalues --    2.67794   2.68466   2.69888   2.72326   2.75720
 Alpha virt. eigenvalues --    2.80703   2.88387   2.91394   2.94272   2.96009
 Alpha virt. eigenvalues --    3.04602   3.29618   3.59950   3.60764   3.62816
 Alpha virt. eigenvalues --    3.65915   3.67380   3.72908   3.74261   3.75861
 Alpha virt. eigenvalues --    3.79565   3.80769   3.81851   3.82503   3.86926
 Alpha virt. eigenvalues --    3.87410   3.88203   3.90291   3.90626   3.93840
 Alpha virt. eigenvalues --    3.98237   3.98889   4.00430   4.02263   4.05126
 Alpha virt. eigenvalues --    4.06625   4.07969   4.08902   4.11610   4.12683
 Alpha virt. eigenvalues --    4.14338   4.18939   4.25342   4.28340   4.30877
 Alpha virt. eigenvalues --    4.32829   4.35991   4.37104   4.38299   4.39749
 Alpha virt. eigenvalues --    4.45825   4.51306   4.51951   4.53526   4.54789
 Alpha virt. eigenvalues --    4.56871   4.59461   4.63713   4.70940   4.76330
 Alpha virt. eigenvalues --    4.78203   4.78931   4.82098   4.85327   4.92371
 Alpha virt. eigenvalues --    4.94910   4.95965   4.97124   4.97578   4.99801
 Alpha virt. eigenvalues --    5.00899   5.01839   5.02898   5.04730   5.10125
 Alpha virt. eigenvalues --    5.10803   5.16739   5.18133   5.19736   5.21385
 Alpha virt. eigenvalues --    5.23754   5.28082   5.29156   5.30707   5.34189
 Alpha virt. eigenvalues --    5.36162   5.38293   5.40380   5.41976   5.43310
 Alpha virt. eigenvalues --    5.45646   5.46798   5.48918   5.49254   5.52282
 Alpha virt. eigenvalues --    5.56112   5.57888   5.70585   5.71836   6.13859
 Alpha virt. eigenvalues --    7.04647   7.07585   7.08653   7.16562   7.19427
 Alpha virt. eigenvalues --    7.34120  13.42170  13.44515  13.45351  14.00323
 Alpha virt. eigenvalues --   14.05677  14.10744  25.69935
  Beta  occ. eigenvalues -- -254.95923 -29.83699 -25.80298 -25.79536 -25.78576
  Beta  occ. eigenvalues --  -19.18696 -19.18431 -19.17685 -19.17252 -19.15153
  Beta  occ. eigenvalues --  -19.14770  -3.50421  -2.33102  -2.32245  -2.30989
  Beta  occ. eigenvalues --   -1.36689  -1.34450  -1.33982  -1.33458  -1.31432
  Beta  occ. eigenvalues --   -1.30960  -0.91952  -0.90519  -0.89088  -0.88460
  Beta  occ. eigenvalues --   -0.86587  -0.85509  -0.80443  -0.77991  -0.76725
  Beta  occ. eigenvalues --   -0.75331  -0.74990  -0.72339  -0.71789  -0.68642
  Beta  occ. eigenvalues --   -0.67311  -0.66057  -0.64531  -0.63603  -0.43421
  Beta virt. eigenvalues --   -0.41840  -0.40890  -0.39389  -0.34913  -0.32872
  Beta virt. eigenvalues --   -0.31665  -0.31252  -0.30417  -0.27264  -0.26215
  Beta virt. eigenvalues --   -0.25751  -0.25230  -0.22876  -0.21674  -0.20787
  Beta virt. eigenvalues --   -0.19895  -0.19323  -0.18092  -0.17353  -0.16509
  Beta virt. eigenvalues --   -0.15193  -0.15035  -0.14965  -0.13974  -0.12392
  Beta virt. eigenvalues --   -0.11357  -0.10356  -0.10019  -0.08766  -0.08324
  Beta virt. eigenvalues --   -0.07226  -0.05797  -0.04569  -0.04329  -0.03683
  Beta virt. eigenvalues --   -0.03108  -0.01903  -0.00792   0.00404   0.01897
  Beta virt. eigenvalues --    0.02995   0.03868   0.04644   0.05551   0.06943
  Beta virt. eigenvalues --    0.07101   0.07460   0.09367   0.09794   0.13081
  Beta virt. eigenvalues --    0.14103   0.17890   0.18838   0.24714   0.25784
  Beta virt. eigenvalues --    0.26054   0.26953   0.38553   0.39674   0.41174
  Beta virt. eigenvalues --    0.43204   0.44349   0.45310   0.47223   0.48634
  Beta virt. eigenvalues --    0.49142   0.49689   0.50393   0.50966   0.52346
  Beta virt. eigenvalues --    0.54782   0.56674   0.56917   0.57786   0.59241
  Beta virt. eigenvalues --    0.60637   0.61461   0.63527   0.67598   0.67938
  Beta virt. eigenvalues --    0.69028   0.69195   0.70267   0.70588   0.71274
  Beta virt. eigenvalues --    0.73503   0.76529   0.77324   0.78011   0.79047
  Beta virt. eigenvalues --    0.83599   0.84973   0.87784   0.90554   0.92328
  Beta virt. eigenvalues --    0.94075   0.96002   0.96828   0.98063   0.99468
  Beta virt. eigenvalues --    1.01848   1.04218   1.05587   1.07303   1.07502
  Beta virt. eigenvalues --    1.08921   1.11617   1.27089   1.27454   1.35763
  Beta virt. eigenvalues --    1.36463   1.37623   1.38554   1.43931   1.44713
  Beta virt. eigenvalues --    1.46001   1.46995   1.49845   1.50462   1.54248
  Beta virt. eigenvalues --    1.56146   1.58082   1.59866   1.62632   1.65685
  Beta virt. eigenvalues --    1.71881   1.77396   1.82752   1.84579   1.86633
  Beta virt. eigenvalues --    1.89801   1.90036   1.93729   1.98631   1.99705
  Beta virt. eigenvalues --    2.00273   2.02176   2.02755   2.10424   2.15418
  Beta virt. eigenvalues --    2.16031   2.20415   2.23259   2.27665   2.30237
  Beta virt. eigenvalues --    2.30961   2.35578   2.40492   2.43088   2.44860
  Beta virt. eigenvalues --    2.49586   2.51713   2.53106   2.54368   2.55252
  Beta virt. eigenvalues --    2.55648   2.58212   2.58652   2.60412   2.61894
  Beta virt. eigenvalues --    2.62696   2.65548   2.66754   2.68489   2.69766
  Beta virt. eigenvalues --    2.70305   2.71611   2.74458   2.76740   2.81313
  Beta virt. eigenvalues --    2.89741   2.92204   2.98151   2.99962   3.07679
  Beta virt. eigenvalues --    3.32681   3.61688   3.62519   3.65087   3.66910
  Beta virt. eigenvalues --    3.68236   3.73631   3.75151   3.76690   3.80666
  Beta virt. eigenvalues --    3.82195   3.82851   3.87455   3.89482   3.89844
  Beta virt. eigenvalues --    3.90108   3.92550   3.94629   3.95401   4.01564
  Beta virt. eigenvalues --    4.02044   4.04708   4.06696   4.07513   4.10079
  Beta virt. eigenvalues --    4.11777   4.12978   4.13867   4.15690   4.16611
  Beta virt. eigenvalues --    4.20374   4.33620   4.34268   4.35153   4.35947
  Beta virt. eigenvalues --    4.40005   4.41087   4.42996   4.43966   4.48893
  Beta virt. eigenvalues --    4.53967   4.54393   4.56069   4.57920   4.60252
  Beta virt. eigenvalues --    4.61972   4.68421   4.72371   4.78384   4.79411
  Beta virt. eigenvalues --    4.80551   4.83436   4.86896   4.94216   4.95489
  Beta virt. eigenvalues --    4.96457   4.97862   4.98174   5.00545   5.01629
  Beta virt. eigenvalues --    5.03173   5.05424   5.07568   5.12425   5.13048
  Beta virt. eigenvalues --    5.18297   5.19761   5.21059   5.23206   5.26544
  Beta virt. eigenvalues --    5.30557   5.31693   5.32839   5.36230   5.38057
  Beta virt. eigenvalues --    5.39834   5.42310   5.43731   5.45172   5.47015
  Beta virt. eigenvalues --    5.48488   5.50627   5.51099   5.53174   5.56829
  Beta virt. eigenvalues --    5.58625   5.72095   5.73203   6.17250   7.05468
  Beta virt. eigenvalues --    7.08398   7.09424   7.17287   7.20162   7.34646
  Beta virt. eigenvalues --   13.42596  13.44940  13.45761  14.00744  14.06146
  Beta virt. eigenvalues --   14.11189  25.79125
          Condensed to atoms (all electrons):
               1          2          3          4          5          6
     1  Fe  25.259055  -0.079220  -0.018998  -0.041497  -0.014106  -0.077060
     2  O   -0.079220   8.466017   0.313898  -0.094638   0.000545  -0.097957
     3  H   -0.018998   0.313898   0.296909   0.000707  -0.000011   0.005674
     4  O   -0.041497  -0.094638   0.000707   8.419302   0.306886  -0.104599
     5  H   -0.014106   0.000545  -0.000011   0.306886   0.322064   0.008220
     6  O   -0.077060  -0.097957   0.005674  -0.104599   0.008220   8.451282
     7  H   -0.020218   0.002260  -0.000014  -0.002808  -0.000463   0.300631
     8  O   -0.090425   0.080969  -0.001437  -0.104672   0.003859  -0.116350
     9  H   -0.009566  -0.001573  -0.000022   0.002587  -0.000120   0.001650
    10  O   -0.024982  -0.091527   0.001975   0.065583  -0.001750  -0.104425
    11  H   -0.019396   0.001927  -0.000785  -0.000718   0.000008  -0.000825
    12  O   -0.071148  -0.108764   0.007933  -0.085370   0.002396   0.085409
    13  H   -0.026906   0.006441  -0.000071   0.003421  -0.000046  -0.001484
    14  H   -0.008010   0.001100  -0.000247   0.002229  -0.000030  -0.002104
    15  H   -0.017063   0.000975  -0.000144   0.320337  -0.026295  -0.005171
    16  H   -0.013211   0.300511  -0.019048   0.004741  -0.000116   0.000051
    17  H   -0.021205   0.002001   0.000227  -0.001766  -0.000013   0.003461
    18  H   -0.018350   0.000130  -0.000122   0.012772  -0.001395   0.303575
    19  H   -0.019613  -0.001685   0.000022  -0.002301   0.000926   0.008517
               7          8          9         10         11         12
     1  Fe  -0.020218  -0.090425  -0.009566  -0.024982  -0.019396  -0.071148
     2  O    0.002260   0.080969  -0.001573  -0.091527   0.001927  -0.108764
     3  H   -0.000014  -0.001437  -0.000022   0.001975  -0.000785   0.007933
     4  O   -0.002808  -0.104672   0.002587   0.065583  -0.000718  -0.085370
     5  H   -0.000463   0.003859  -0.000120  -0.001750   0.000008   0.002396
     6  O    0.300631  -0.116350   0.001650  -0.104425  -0.000825   0.085409
     7  H    0.353419   0.009276  -0.001518   0.000204  -0.000349  -0.002280
     8  O    0.009276   8.450861   0.304328  -0.068195  -0.006756  -0.098556
     9  H   -0.001518   0.304328   0.317302   0.003260   0.002367  -0.000732
    10  O    0.000204  -0.068195   0.003260   8.395914   0.317060  -0.116040
    11  H   -0.000349  -0.006756   0.002367   0.317060   0.328914   0.000765
    12  O   -0.002280  -0.098556  -0.000732  -0.116040   0.000765   8.465044
    13  H    0.000032   0.005873  -0.000193   0.001568  -0.000404   0.317434
    14  H   -0.000075  -0.001464   0.002200   0.003203   0.005149   0.291686
    15  H   -0.000124  -0.000671  -0.000004  -0.000961   0.000014   0.002066
    16  H   -0.000467  -0.001823   0.000022   0.003637   0.000093   0.000511
    17  H    0.003000   0.005914  -0.002145   0.312264  -0.029587   0.000784
    18  H   -0.027502  -0.000435   0.000150   0.002061   0.000033  -0.002051
    19  H    0.008300   0.304644  -0.022969  -0.002006  -0.000199   0.003257
              13         14         15         16         17         18
     1  Fe  -0.026906  -0.008010  -0.017063  -0.013211  -0.021205  -0.018350
     2  O    0.006441   0.001100   0.000975   0.300511   0.002001   0.000130
     3  H   -0.000071  -0.000247  -0.000144  -0.019048   0.000227  -0.000122
     4  O    0.003421   0.002229   0.320337   0.004741  -0.001766   0.012772
     5  H   -0.000046  -0.000030  -0.026295  -0.000116  -0.000013  -0.001395
     6  O   -0.001484  -0.002104  -0.005171   0.000051   0.003461   0.303575
     7  H    0.000032  -0.000075  -0.000124  -0.000467   0.003000  -0.027502
     8  O    0.005873  -0.001464  -0.000671  -0.001823   0.005914  -0.000435
     9  H   -0.000193   0.002200  -0.000004   0.000022  -0.002145   0.000150
    10  O    0.001568   0.003203  -0.000961   0.003637   0.312264   0.002061
    11  H   -0.000404   0.005149   0.000014   0.000093  -0.029587   0.000033
    12  O    0.317434   0.291686   0.002066   0.000511   0.000784  -0.002051
    13  H    0.298681  -0.021867  -0.000528  -0.000156   0.000002  -0.000040
    14  H   -0.021867   0.351192   0.000051   0.000023  -0.000420   0.000037
    15  H   -0.000528   0.000051   0.311609   0.001429  -0.000000   0.002125
    16  H   -0.000156   0.000023   0.001429   0.327915  -0.000130   0.001389
    17  H    0.000002  -0.000420  -0.000000  -0.000130   0.326314  -0.000354
    18  H   -0.000040   0.000037   0.002125   0.001389  -0.000354   0.326080
    19  H   -0.000001  -0.000493  -0.000155  -0.000062   0.000141  -0.002093
              19
     1  Fe  -0.019613
     2  O   -0.001685
     3  H    0.000022
     4  O   -0.002301
     5  H    0.000926
     6  O    0.008517
     7  H    0.008300
     8  O    0.304644
     9  H   -0.022969
    10  O   -0.002006
    11  H   -0.000199
    12  O    0.003257
    13  H   -0.000001
    14  H   -0.000493
    15  H   -0.000155
    16  H   -0.000062
    17  H    0.000141
    18  H   -0.002093
    19  H    0.341604
          Atomic-Atomic Spin Densities.
               1          2          3          4          5          6
     1  Fe   4.058476  -0.070652   0.000730  -0.067036  -0.003294  -0.120531
     2  O   -0.070652   0.289192  -0.015144  -0.037858  -0.000026  -0.048844
     3  H    0.000730  -0.015144   0.008623   0.000162   0.000018   0.003744
     4  O   -0.067036  -0.037858   0.000162   0.241329  -0.007881  -0.047043
     5  H   -0.003294  -0.000026   0.000018  -0.007881   0.011747   0.005075
     6  O   -0.120531  -0.048844   0.003744  -0.047043   0.005075   0.325516
     7  H    0.014683   0.000700  -0.000083   0.004370  -0.000266  -0.020955
     8  O   -0.102719   0.061792  -0.001628  -0.044277   0.002680  -0.056076
     9  H    0.003176  -0.001271   0.000007   0.000394  -0.000139   0.001536
    10  O   -0.079479  -0.043393   0.002626   0.054171  -0.001380  -0.048724
    11  H    0.006685   0.001935   0.000225  -0.001106   0.000008   0.000968
    12  O   -0.079384  -0.073022   0.006129  -0.044708   0.001764   0.067662
    13  H    0.005837   0.004399  -0.000252   0.001341  -0.000166  -0.001589
    14  H    0.004376   0.001985   0.000012   0.002125  -0.000019  -0.001110
    15  H    0.002431   0.003906  -0.000031  -0.007393  -0.000818   0.001665
    16  H    0.000993  -0.005310   0.001562   0.000551  -0.000047   0.002957
    17  H   -0.000308   0.001133  -0.000298  -0.000897  -0.000005   0.000950
    18  H    0.010030   0.001458   0.000026   0.000074   0.000360  -0.015047
    19  H    0.009556  -0.001890   0.000005   0.004970   0.000115   0.004279
               7          8          9         10         11         12
     1  Fe   0.014683  -0.102719   0.003176  -0.079479   0.006685  -0.079384
     2  O    0.000700   0.061792  -0.001271  -0.043393   0.001935  -0.073022
     3  H   -0.000083  -0.001628   0.000007   0.002626   0.000225   0.006129
     4  O    0.004370  -0.044277   0.000394   0.054171  -0.001106  -0.044708
     5  H   -0.000266   0.002680  -0.000139  -0.001380   0.000008   0.001764
     6  O   -0.020955  -0.056076   0.001536  -0.048724   0.000968   0.067662
     7  H   -0.006074   0.001816   0.000525   0.004607   0.000189  -0.002077
     8  O    0.001816   0.300249  -0.011182  -0.038686   0.002737  -0.057394
     9  H    0.000525  -0.011182   0.007499   0.003437  -0.001118   0.001761
    10  O    0.004607  -0.038686   0.003437   0.258005  -0.009204  -0.044651
    11  H    0.000189   0.002737  -0.001118  -0.009204  -0.003812   0.003493
    12  O   -0.002077  -0.057394   0.001761  -0.044651   0.003493   0.317633
    13  H   -0.000001   0.004155   0.000024   0.000356   0.000073  -0.018482
    14  H    0.000042   0.003924  -0.000998   0.001031  -0.001963  -0.007549
    15  H    0.000121   0.000775   0.000003  -0.000912  -0.000002   0.001444
    16  H    0.000129  -0.000804   0.000000   0.002178  -0.000087   0.000907
    17  H   -0.001052   0.002926   0.000948  -0.004290   0.002020  -0.000185
    18  H    0.006877   0.003312  -0.000134   0.000515  -0.000020  -0.001282
    19  H   -0.002731  -0.019487   0.003424   0.002585   0.000186   0.000657
              13         14         15         16         17         18
     1  Fe   0.005837   0.004376   0.002431   0.000993  -0.000308   0.010030
     2  O    0.004399   0.001985   0.003906  -0.005310   0.001133   0.001458
     3  H   -0.000252   0.000012  -0.000031   0.001562  -0.000298   0.000026
     4  O    0.001341   0.002125  -0.007393   0.000551  -0.000897   0.000074
     5  H   -0.000166  -0.000019  -0.000818  -0.000047  -0.000005   0.000360
     6  O   -0.001589  -0.001110   0.001665   0.002957   0.000950  -0.015047
     7  H   -0.000001   0.000042   0.000121   0.000129  -0.001052   0.006877
     8  O    0.004155   0.003924   0.000775  -0.000804   0.002926   0.003312
     9  H    0.000024  -0.000998   0.000003   0.000000   0.000948  -0.000134
    10  O    0.000356   0.001031  -0.000912   0.002178  -0.004290   0.000515
    11  H    0.000073  -0.001963  -0.000002  -0.000087   0.002020  -0.000020
    12  O   -0.018482  -0.007549   0.001444   0.000907  -0.000185  -0.001282
    13  H    0.004067   0.003627   0.000130   0.000032   0.000003   0.000020
    14  H    0.003627  -0.004778  -0.000048  -0.000013   0.000111  -0.000009
    15  H    0.000130  -0.000048   0.003911  -0.000632   0.000013  -0.001271
    16  H    0.000032  -0.000013  -0.000632   0.001750   0.000062  -0.000987
    17  H    0.000003   0.000111   0.000013   0.000062   0.005561   0.000037
    18  H    0.000020  -0.000009  -0.001271  -0.000987   0.000037  -0.001299
    19  H   -0.000101   0.000112   0.000071   0.000019  -0.000572   0.001078
              19
     1  Fe   0.009556
     2  O   -0.001890
     3  H    0.000005
     4  O    0.004970
     5  H    0.000115
     6  O    0.004279
     7  H   -0.002731
     8  O   -0.019487
     9  H    0.003424
    10  O    0.002585
    11  H    0.000186
    12  O    0.000657
    13  H   -0.000101
    14  H    0.000112
    15  H    0.000071
    16  H    0.000019
    17  H   -0.000572
    18  H    0.001078
    19  H    0.000791
 Mulliken charges and spin densities:
               1          2
     1  Fe   1.331919   3.593572
     2  O   -0.701410   0.069089
     3  H    0.413556   0.006433
     4  O   -0.700195   0.051287
     5  H    0.399441   0.007725
     6  O   -0.658496   0.054435
     7  H    0.378696   0.000820
     8  O   -0.674940   0.052113
     9  H    0.404975   0.007892
    10  O   -0.696843   0.058792
    11  H    0.402690   0.001208
    12  O   -0.692346   0.072716
    13  H    0.418242   0.003474
    14  H    0.377841   0.000857
    15  H    0.412510   0.003362
    16  H    0.394691   0.003260
    17  H    0.401514   0.006158
    18  H    0.403987   0.003739
    19  H    0.384168   0.003067
 Sum of Mulliken charges =   2.00000   4.00000
 Mulliken charges and spin densities with hydrogens summed into heavy atoms:
               1          2
     1  Fe   1.331919   3.593572
     2  O    0.106837   0.078782
     4  O    0.111756   0.062375
     6  O    0.124186   0.058995
     8  O    0.114203   0.063072
    10  O    0.107361   0.066158
    12  O    0.103738   0.077047
 APT charges:
               1
     1  Fe   1.203733
     2  O   -0.493615
     3  H    0.328751
     4  O   -0.434946
     5  H    0.282283
     6  O   -0.303047
     7  H    0.204972
     8  O   -0.377542
     9  H    0.275670
    10  O   -0.423517
    11  H    0.262462
    12  O   -0.427708
    13  H    0.321834
    14  H    0.267227
    15  H    0.281763
    16  H    0.291970
    17  H    0.279448
    18  H    0.235064
    19  H    0.225198
 Sum of APT charges =   2.00000
 APT charges with hydrogens summed into heavy atoms:
               1
     1  Fe   1.203733
     2  O    0.127106
     4  O    0.129100
     6  O    0.136988
     8  O    0.123326
    10  O    0.118393
    12  O    0.161353
 Electronic spatial extent (au):  <R**2>=            859.8489
 Charge=              2.0000 electrons
 Dipole moment (field-independent basis, Debye):
    X=              2.0842    Y=              3.3884    Z=             -0.9386  Tot=              4.0873
 Quadrupole moment (field-independent basis, Debye-Ang):
   XX=            -22.2520   YY=            -25.0376   ZZ=            -34.8609
   XY=             -4.0362   XZ=             -1.1681   YZ=             -0.7606
 Traceless Quadrupole moment (field-independent basis, Debye-Ang):
   XX=              5.1315   YY=              2.3459   ZZ=             -7.4774
   XY=             -4.0362   XZ=             -1.1681   YZ=             -0.7606
 Octapole moment (field-independent basis, Debye-Ang**2):
  XXX=             16.0134  YYY=             15.2437  ZZZ=              4.3108  XYY=              3.6024
  XXY=              8.0286  XXZ=              3.0921  XZZ=             -7.3324  YZZ=             -2.9543
  YYZ=            -13.1520  XYZ=             -2.7448
 Hexadecapole moment (field-independent basis, Debye-Ang**3):
[...]
    14  H   -0.016189   0.317890  -0.000001  -0.000002  -0.000028  -0.000000
    15  H   -0.000028  -0.000001   0.322697  -0.000022   0.000000  -0.000014
    16  H   -0.000002  -0.000002  -0.000022   0.319365  -0.000022  -0.000015
    17  H   -0.000001  -0.000028   0.000000  -0.000022   0.322741  -0.000002
    18  H    0.000001  -0.000000  -0.000014  -0.000015  -0.000002   0.317887
    19  H   -0.000001  -0.000001  -0.000002   0.000000  -0.000002  -0.000018
              19
     1  Fe   0.006254
     2  O   -0.000272
     3  H   -0.000000
     4  O    0.000184
     5  H   -0.000013
     6  O    0.001910
     7  H   -0.000018
     8  O    0.290932
     9  H   -0.015958
    10  O    0.000179
    11  H   -0.000013
    12  O    0.000527
    13  H   -0.000001
    14  H   -0.000001
    15  H   -0.000002
    16  H    0.000000
    17  H   -0.000002
    18  H   -0.000018
    19  H    0.318997
          Atomic-Atomic Spin Densities.
               1          2          3          4          5          6
     1  Fe   4.052327  -0.032530   0.001216  -0.040196   0.002432  -0.044435
     2  O   -0.032530   0.081769  -0.003190  -0.007152   0.000168  -0.010276
     3  H    0.001216  -0.003190   0.002772   0.000331  -0.000001   0.000168
     4  O   -0.040196  -0.007152   0.000331   0.092688  -0.004250  -0.009181
     5  H    0.002432   0.000168  -0.000001  -0.004250   0.001896   0.000374
     6  O   -0.044435  -0.010276   0.000168  -0.009181   0.000374   0.108778
     7  H    0.002298   0.000343  -0.000001   0.000182  -0.000001  -0.004206
     8  O   -0.032538   0.006341  -0.000088  -0.007148   0.000420  -0.010747
     9  H    0.001452  -0.000090   0.000000   0.000277  -0.000015   0.000175
    10  O   -0.040267  -0.007172   0.000335   0.006970  -0.000091  -0.009168
    11  H    0.002435   0.000168  -0.000001  -0.000091   0.000000   0.000373
    12  O   -0.044445  -0.010736   0.000782  -0.009185   0.000395   0.008394
    13  H    0.002297   0.000480  -0.000022   0.000491  -0.000034  -0.000116
    14  H    0.002303   0.000476  -0.000022   0.000183  -0.000001  -0.000115
    15  H    0.002429   0.000419  -0.000016  -0.004246   0.000905   0.000395
    16  H    0.001452  -0.003168   0.000625   0.000277  -0.000001   0.000652
    17  H    0.002438   0.000421  -0.000017  -0.000091   0.000000   0.000394
    18  H    0.002301   0.000343  -0.000001   0.000490  -0.000009  -0.004205
    19  H    0.001216  -0.000088   0.000000   0.000333  -0.000016   0.000783
               7          8          9         10         11         12
     1  Fe   0.002298  -0.032538   0.001452  -0.040267   0.002435  -0.044445
     2  O    0.000343   0.006341  -0.000090  -0.007172   0.000168  -0.010736
     3  H   -0.000001  -0.000088   0.000000   0.000335  -0.000001   0.000782
     4  O    0.000182  -0.007148   0.000277   0.006970  -0.000091  -0.009185
     5  H   -0.000001   0.000420  -0.000015  -0.000091   0.000000   0.000395
     6  O   -0.004206  -0.010747   0.000175  -0.009168   0.000373   0.008394
     7  H    0.001639   0.000479  -0.000001   0.000489  -0.000009  -0.000116
     8  O    0.000479   0.081788  -0.003168  -0.007168   0.000420  -0.010276
     9  H   -0.000001  -0.003168   0.002459   0.000277  -0.000015   0.000652
    10  O    0.000489  -0.007168   0.000277   0.092858  -0.004252  -0.009175
    11  H   -0.000009   0.000420  -0.000015  -0.004252   0.001893   0.000394
    12  O   -0.000116  -0.010276   0.000652  -0.009175   0.000394   0.108801
    13  H    0.000000   0.000343  -0.000015   0.000182  -0.000001  -0.004204
    14  H    0.000000   0.000343  -0.000016   0.000490  -0.000034  -0.004207
    15  H   -0.000001   0.000168  -0.000001  -0.000091   0.000000   0.000375
    16  H   -0.000015  -0.000090   0.000000   0.000277  -0.000001   0.000175
    17  H   -0.000034   0.000168  -0.000001  -0.004255   0.000907   0.000373
    18  H    0.000887   0.000477  -0.000001   0.000182  -0.000001  -0.000116
    19  H   -0.000022  -0.003190   0.000625   0.000332  -0.000016   0.000168
              13         14         15         16         17         18
     1  Fe   0.002297   0.002303   0.002429   0.001452   0.002438   0.002301
     2  O    0.000480   0.000476   0.000419  -0.003168   0.000421   0.000343
     3  H   -0.000022  -0.000022  -0.000016   0.000625  -0.000017  -0.000001
     4  O    0.000491   0.000183  -0.004246   0.000277  -0.000091   0.000490
     5  H   -0.000034  -0.000001   0.000905  -0.000001   0.000000  -0.000009
     6  O   -0.000116  -0.000115   0.000395   0.000652   0.000394  -0.004205
     7  H    0.000000   0.000000  -0.000001  -0.000015  -0.000034   0.000887
     8  O    0.000343   0.000343   0.000168  -0.000090   0.000168   0.000477
     9  H   -0.000015  -0.000016  -0.000001   0.000000  -0.000001  -0.000001
    10  O    0.000182   0.000490  -0.000091   0.000277  -0.004255   0.000182
    11  H   -0.000001  -0.000034   0.000000  -0.000001   0.000907  -0.000001
    12  O   -0.004204  -0.004207   0.000375   0.000175   0.000373  -0.000116
    13  H    0.001634   0.000887  -0.000009  -0.000001  -0.000001   0.000000
    14  H    0.000887   0.001633  -0.000001  -0.000001  -0.000009   0.000000
    15  H   -0.000009  -0.000001   0.001897  -0.000015   0.000000  -0.000034
    16  H   -0.000001  -0.000001  -0.000015   0.002458  -0.000015  -0.000016
    17  H   -0.000001  -0.000009   0.000000  -0.000015   0.001890  -0.000001
    18  H    0.000000   0.000000  -0.000034  -0.000016  -0.000001   0.001630
    19  H   -0.000001  -0.000001  -0.000001   0.000000  -0.000001  -0.000022
              19
     1  Fe   0.001216
     2  O   -0.000088
     3  H    0.000000
     4  O    0.000333
     5  H   -0.000016
     6  O    0.000783
     7  H   -0.000022
     8  O   -0.003190
     9  H    0.000625
    10  O    0.000332
    11  H   -0.000016
    12  O    0.000168
    13  H   -0.000001
    14  H   -0.000001
    15  H   -0.000001
    16  H    0.000000
    17  H   -0.000001
    18  H   -0.000022
    19  H    0.002771
 Mulliken charges and spin densities:
               1          2
     1  Fe   1.321351   3.842184
     2  O   -0.681753   0.016525
     3  H    0.397320   0.002870
     4  O   -0.674908   0.020682
     5  H    0.393176   0.002170
     6  O   -0.680591   0.028035
     7  H    0.398498   0.001911
     8  O   -0.681728   0.016533
     9  H    0.395801   0.002594
    10  O   -0.674721   0.020754
    11  H    0.393213   0.002170
    12  O   -0.680576   0.028048
    13  H    0.398486   0.001908
    14  H    0.398478   0.001908
    15  H    0.393224   0.002172
    16  H    0.395795   0.002593
    17  H    0.393153   0.002166
    18  H    0.398468   0.001906
    19  H    0.397316   0.002870
 Sum of Mulliken charges =   2.00000   4.00000
 Mulliken charges and spin densities with hydrogens summed into heavy atoms:
               1          2
     1  Fe   1.321351   3.842184
     2  O    0.111362   0.021988
     4  O    0.111491   0.025025
     6  O    0.116375   0.031852
     8  O    0.111388   0.021997
    10  O    0.111645   0.025090
    12  O    0.116388   0.031864
 Electronic spatial extent (au):  <R**2>=           1213.3209
 Charge=              2.0000 electrons
 Dipole moment (field-independent basis, Debye):
    X=             -0.0038    Y=              0.0001    Z=             -0.0002  Tot=              0.0038
 Quadrupole moment (field-independent basis, Debye-Ang):
   XX=            -16.1094   YY=            -15.5676   ZZ=            -15.2807
   XY=              0.0495   XZ=             -0.0240   YZ=             -0.2203
 Traceless Quadrupole moment (field-independent basis, Debye-Ang):
   XX=             -0.4568   YY=              0.0849   ZZ=              0.3719
   XY=              0.0495   XZ=             -0.0240   YZ=             -0.2203
 Octapole moment (field-independent basis, Debye-Ang**2):
  XXX=             -0.0105  YYY=              0.0142  ZZZ=              0.0002  XYY=             -0.0298
  XXY=             -0.0137  XXZ=              0.0069  XZZ=             -0.0071  YZZ=              0.0021
  YYZ=             -0.0085  XYZ=             -0.0088
 Hexadecapole moment (field-independent basis, Debye-Ang**3):
 XXXX=           -135.2673 YYYY=           -177.5564 ZZZZ=           -182.9067 XXXY=            -15.0228
 XXXZ=              0.9616 YYYX=             12.7451 YYYZ=             50.2766 ZZZX=             -3.3624
 ZZZY=            -55.6916 XXYY=           -125.6088 XXZZ=           -106.0863 YYZZ=            -59.1208
 XXYZ=              6.5882 YYXZ=              2.4139 ZZXY=              2.5939
 N-N= 6.420857031890D+02 E-N=-5.347020080587D+03  KE= 1.718043922781D+03
                          Isotropic Fermi Contact Couplings
        Atom                 a.u.       MegaHertz       Gauss      10(-4) cm-1
     1  Fe(57)             0.44542      16.15094       5.76306       5.38737
     2  O(17)              0.08055     -12.20724      -4.35585      -4.07190
     3  H(1)               0.00143       1.59602       0.56950       0.53238
     4  O(17)              0.08261     -12.51946      -4.46726      -4.17604
     5  H(1)               0.00085       0.94727       0.33801       0.31598
     6  O(17)              0.08527     -12.92218      -4.61096      -4.31038
     7  H(1)               0.00075       0.83713       0.29871       0.27924
     8  O(17)              0.08056     -12.20849      -4.35629      -4.07232
     9  H(1)               0.00131       1.46701       0.52347       0.48934
    10  O(17)              0.08268     -12.52958      -4.47087      -4.17942
    11  H(1)               0.00085       0.94724       0.33800       0.31596
    12  O(17)              0.08528     -12.92343      -4.61140      -4.31079
    13  H(1)               0.00075       0.83532       0.29806       0.27863
    14  H(1)               0.00075       0.83557       0.29815       0.27872
    15  H(1)               0.00085       0.94981       0.33892       0.31682
    16  H(1)               0.00131       1.46666       0.52334       0.48923
    17  H(1)               0.00084       0.94373       0.33675       0.31479
    18  H(1)               0.00075       0.83432       0.29771       0.27830
    19  H(1)               0.00143       1.59579       0.56942       0.53230
 --------------------------------------------------------
       Center         ----  Spin Dipole Couplings  ----
                      3XX-RR        3YY-RR        3ZZ-RR
 --------------------------------------------------------
     1   Atom       -1.241878      2.144635     -0.902756
     2   Atom       -0.043674      0.112348     -0.068674
     3   Atom       -0.026574      0.049035     -0.022462
     4   Atom        0.139925     -0.072637     -0.067288
     5   Atom        0.042984     -0.020871     -0.022114
     6   Atom       -0.123949      0.000986      0.122962
     7   Atom       -0.016241     -0.016522      0.032763
     8   Atom       -0.043611      0.112351     -0.068740
     9   Atom       -0.026667      0.019990      0.006677
    10   Atom        0.139890     -0.072521     -0.067369
    11   Atom        0.038851     -0.016820     -0.022031
    12   Atom       -0.123977      0.001005      0.122972
    13   Atom       -0.016208     -0.016532      0.032740
    14   Atom       -0.014105     -0.018908      0.033013
    15   Atom        0.038831     -0.016774     -0.022057
    16   Atom       -0.026671      0.019979      0.006692
    17   Atom        0.042987     -0.020893     -0.022094
    18   Atom       -0.014067     -0.018913      0.032980
    19   Atom       -0.026591      0.049057     -0.022466
 --------------------------------------------------------
                        XY            XZ            YZ
 --------------------------------------------------------
     1   Atom        0.207425     -0.063391     -1.098736
     2   Atom        0.009228      0.005249      0.083777
     3   Atom        0.004800      0.000188      0.003387
     4   Atom       -0.012865     -0.002330     -0.030203
     5   Atom        0.013094      0.012466      0.004350
     6   Atom        0.007803     -0.001821     -0.037803
     7   Atom       -0.009646      0.020645     -0.026050
     8   Atom        0.009509      0.005158      0.083746
     9   Atom        0.002883      0.002174      0.035274
    10   Atom       -0.012794     -0.002333     -0.030390
    11   Atom       -0.020328     -0.012085      0.005896
    12   Atom        0.007766     -0.001586     -0.037793
    13   Atom       -0.009672      0.020696     -0.026051
    14   Atom        0.009185     -0.023488     -0.023316
    15   Atom       -0.020365     -0.012024      0.005882
    16   Atom        0.002843      0.002135      0.035278
    17   Atom        0.013092      0.012522      0.004364
    18   Atom        0.009207     -0.023533     -0.023317
    19   Atom        0.004699      0.000203      0.003367
 --------------------------------------------------------


 ---------------------------------------------------------------------------------
              Anisotropic Spin Dipole Couplings in Principal Axis System
 ---------------------------------------------------------------------------------

       Atom             a.u.   MegaHertz   Gauss  10(-4) cm-1        Axes

              Baa    -1.2598   -21.810    -7.782    -7.275 -0.5367  0.2886  0.7929
     1 Fe(57) Bbb    -1.2522   -21.680    -7.736    -7.232  0.8418  0.1189  0.5265
              Bcc     2.5120    43.490    15.518    14.507  0.0577  0.9500 -0.3068
 
              Baa    -0.1015     7.347     2.622     2.451 -0.0265 -0.3636  0.9312
     2 O(17)  Bbb    -0.0442     3.199     1.142     1.067  0.9981 -0.0612  0.0045
              Bcc     0.1458   -10.547    -3.763    -3.518  0.0554  0.9295  0.3645
 
              Baa    -0.0269   -14.340    -5.117    -4.783  0.9980 -0.0634  0.0061
     3 H(1)   Bbb    -0.0226   -12.070    -4.307    -4.026 -0.0090 -0.0466  0.9989
              Bcc     0.0495    26.410     9.424     8.809  0.0630  0.9969  0.0471
 
              Baa    -0.1008     7.293     2.602     2.433  0.0461  0.7404  0.6706
     4 O(17)  Bbb    -0.0399     2.888     1.030     0.963 -0.0383 -0.6695  0.7418
              Bcc     0.1407   -10.181    -3.633    -3.396  0.9982 -0.0598 -0.0025
 
              Baa    -0.0259   -13.823    -4.933    -4.611 -0.0263 -0.6133  0.7894
     5 H(1)   Bbb    -0.0221   -11.789    -4.207    -3.932 -0.2662  0.7654  0.5859
              Bcc     0.0480    25.612     9.139     8.543  0.9636  0.1948  0.1834
 
              Baa    -0.1244     9.004     3.213     3.003  0.9980 -0.0628 -0.0022
     6 O(17)  Bbb    -0.0094     0.677     0.241     0.226  0.0610  0.9595  0.2750
              Bcc     0.1338    -9.681    -3.454    -3.229 -0.0151 -0.2746  0.9614
 
              Baa    -0.0278   -14.859    -5.302    -4.956  0.1564  0.9256  0.3446
     7 H(1)   Bbb    -0.0238   -12.685    -4.526    -4.231  0.9350 -0.0264 -0.3536
              Bcc     0.0516    27.544     9.828     9.188  0.3182 -0.3775  0.8696
 
              Baa    -0.1016     7.349     2.622     2.451 -0.0232 -0.3636  0.9313
     8 O(17)  Bbb    -0.0442     3.197     1.141     1.067  0.9981 -0.0612  0.0010
              Bcc     0.1458   -10.546    -3.763    -3.518  0.0566  0.9296  0.3643
 
              Baa    -0.0268   -14.323    -5.111    -4.778  0.9981 -0.0612 -0.0004
     9 H(1)   Bbb    -0.0226   -12.035    -4.294    -4.014 -0.0387 -0.6362  0.7705
              Bcc     0.0494    26.358     9.405     8.792  0.0474  0.7691  0.6374
 
              Baa    -0.1009     7.305     2.606     2.437  0.0458  0.7391  0.6721
    10 O(17)  Bbb    -0.0397     2.873     1.025     0.958 -0.0382 -0.6710  0.7405
              Bcc     0.1407   -10.178    -3.632    -3.395  0.9982 -0.0596 -0.0025
 
              Baa    -0.0259   -13.827    -4.934    -4.612 -0.0446 -0.6117  0.7898
    11 H(1)   Bbb    -0.0221   -11.793    -4.208    -3.934  0.3586  0.7281  0.5842
              Bcc     0.0480    25.620     9.142     8.546  0.9324 -0.3093 -0.1869
 
              Baa    -0.1245     9.006     3.214     3.004  0.9980 -0.0627 -0.0032
    12 O(17)  Bbb    -0.0093     0.675     0.241     0.225  0.0612  0.9595  0.2748
              Bcc     0.1338    -9.681    -3.454    -3.229 -0.0142 -0.2745  0.9615
 
              Baa    -0.0279   -14.866    -5.305    -4.959  0.1565  0.9257  0.3445
    13 H(1)   Bbb    -0.0238   -12.689    -4.528    -4.233  0.9347 -0.0262 -0.3543
              Bcc     0.0516    27.555     9.832     9.191  0.3190 -0.3774  0.8694
 
              Baa    -0.0278   -14.859    -5.302    -4.956 -0.0374  0.9379  0.3449
    14 H(1)   Bbb    -0.0238   -12.685    -4.526    -4.231  0.9329 -0.0910  0.3485
              Bcc     0.0516    27.544     9.828     9.188 -0.3582 -0.3348  0.8716
 
              Baa    -0.0259   -13.823    -4.932    -4.611 -0.0447 -0.6094  0.7916
    15 H(1)   Bbb    -0.0221   -11.789    -4.206    -3.932  0.3588  0.7297  0.5821
              Bcc     0.0480    25.612     9.139     8.543  0.9324 -0.3100 -0.1860
 
              Baa    -0.0268   -14.323    -5.111    -4.778  0.9981 -0.0614  0.0010
    16 H(1)   Bbb    -0.0226   -12.035    -4.294    -4.014 -0.0399 -0.6363  0.7704
              Bcc     0.0494    26.357     9.405     8.792  0.0466  0.7690  0.6376
 
              Baa    -0.0259   -13.830    -4.935    -4.613 -0.0262 -0.6155  0.7877
    17 H(1)   Bbb    -0.0221   -11.795    -4.209    -3.934 -0.2667  0.7637  0.5879
              Bcc     0.0480    25.624     9.143     8.547  0.9634  0.1947  0.1842
 
              Baa    -0.0279   -14.864    -5.304    -4.958 -0.0375  0.9379  0.3450
    18 H(1)   Bbb    -0.0238   -12.687    -4.527    -4.232  0.9326 -0.0912  0.3492
              Bcc     0.0516    27.551     9.831     9.190 -0.3590 -0.3348  0.8712
 
              Baa    -0.0269   -14.343    -5.118    -4.784  0.9981 -0.0618  0.0013
    19 H(1)   Bbb    -0.0226   -12.071    -4.307    -4.027 -0.0042 -0.0466  0.9989
              Bcc     0.0495    26.414     9.425     8.811  0.0617  0.9970  0.0468
 

 ---------------------------------------------------------------------------------

 No NMR shielding tensors so no spin-rotation constants.
 Leave Link  601 at Wed Mar  5 20:57:59 2025, MaxMem= 13421772800 cpu:              30.1 elap:               0.4
 (Enter /gpfs/fs1/soft/improv/software/custom-built/gaussian/g16/l9999.exe)

 Test job not archived.
 1\1\GINC-I278\SP\UOLYP\Gen\Fe1H12O6(2+,5)\HHARB\05-Mar-2025\0\\#p OLYP
  scrf=(cpcm,solvent=water) geom=allcheck guess=read chkbasis IOp(3/174
 =1000000) IOp(3/175=1764000) IOp(3/176=806000)\\Title\\2,5\Fe,-0.78507
 66253,0.7127837186,0.0317602413\O,-1.3901197554,2.8107916471,-0.251162
 0684\H,-1.5242460617,3.2757936435,-1.0898837565\O,1.3405499908,1.32810
 29443,0.0497949091\H,2.1134078814,0.7506613801,-0.0347269136\O,-0.8690
 443773,0.9420561439,2.178851154\H,-1.6239663958,0.7394925848,2.7514734
 313\O,-0.1795937375,-1.3849535921,0.3151416799\H,0.0103480047,-2.02451
 128,-0.3867462799\O,-2.9104765982,0.098031002,0.0133156213\H,-3.254406
 7074,-0.802410235,-0.08056716\O,-0.6997861717,0.4836976838,-2.11523628
 29\H,0.0557688522,0.6868242148,-2.6868247179\H,-1.4360997735,0.2501127
 436,-2.7001373173\H,1.6841112354,2.2289217803,0.1413549151\H,-1.578777
 6079,3.4504794844,0.4509532119\H,-3.6830971055,0.6754822186,0.09993295
 73\H,-0.1318651605,1.1754518219,2.7627390439\H,-0.0491474566,-1.850728
 1346,1.1540127414\\Version=ES64L-G16RevC.02\State=5-A\HF=-1722.1831287
 \S2=6.005662\S2-1=0.\S2A=6.000007\RMSD=3.062e-09\Dipole=-0.0014637,-0.
 0003336,0.0000527\Quadrupole=-0.3144749,-0.0522151,0.36669,-0.0908819,
 0.0091038,-0.0023113\PG=C01 [X(Fe1H12O6)]\\@


 IF MATHEMATICALLY YOU END UP WITH THE INCORRECT ANSWER,
 TRY MULTIPLYING BY THE PAGE NUMBER.
 Job cpu time:       0 days  2 hours 11 minutes 22.9 seconds.
 Elapsed time:       0 days  0 hours  1 minutes  6.5 seconds.
 File lengths (MBytes):  RWF=    122 Int=      0 D2E=      0 Chk=    268 Scr=      1
 Normal termination of Gaussian 16 at Wed Mar  5 20:57:59 2025.
