 Entering Gaussian System, Link 0=g16
 Input=Fe_2_OPBE.com
 Output=Fe_2_OPBE.log
 Initial command:
 /gpfs/fs1/soft/improv/software/custom-built/gaussian/g16/l1.exe "/scratch/Gau-2963066.inp" -scrdir="/scratch/"
 Default CPUs for threads: 0-127
 Default linda workers: i284.lcrc.anl.gov
 Default is to use 128 SMP processors on each worker.
 Entering Link 1 = /gpfs/fs1/soft/improv/software/custom-built/gaussian/g16/l1.exe PID=   2963067.
  
 Copyright (c) 1988-2021, Gaussian, Inc.  All Rights Reserved.
  
 This is part of the Gaussian(R) 16 program.  It is based on
 the Gaussian(R) 09 system (copyright 2009, Gaussian, Inc.),
 the Gaussian(R) 03 system (copyright 2003, Gaussian, Inc.),
 the Gaussian(R) 98 system (copyright 1998, Gaussian, Inc.),
 the Gaussian(R) 94 system (copyright 1995, Gaussian, Inc.),
 the Gaussian 92(TM) system (copyright 1992, Gaussian, Inc.),
 the Gaussian 90(TM) system (copyright 1990, Gaussian, Inc.),
 the Gaussian 88(TM) system (copyright 1988, Gaussian, Inc.),
 the Gaussian 86(TM) system (copyright 1986, Carnegie Mellon
 University), and the Gaussian 82(TM) system (copyright 1983,
 Carnegie Mellon University). Gaussian is a federally registered
 trademark of Gaussian, Inc.
  
 This software contains proprietary and confidential information,
 including trade secrets, belonging to Gaussian, Inc.
  
 This software is provided under written license and may be
 used, copied, transmitted, or stored only in accord with that
 written license.
  
 The following legend is applicable only to US Government
 contracts under FAR:
  
                    RESTRICTED RIGHTS LEGEND
  
 Use, reproduction and disclosure by the US Government is
 subject to restrictions as set forth in subparagraphs (a)
 and (c) of the Commercial Computer Software - Restricted
 Rights clause in FAR 52.227-19.
  
 Gaussian, Inc.
 340 Quinnipiac St., Bldg. 40, Wallingford CT 06492
  
  
 ---------------------------------------------------------------
 Warning -- This program may not be used in any manner that
 competes with the business of Gaussian, Inc. or will provide
 assistance to any competitor of Gaussian, Inc.  The licensee
 of this program is prohibited from giving any competitor of
 Gaussian, Inc. access to this program.  By using this program,
 the user acknowledges that Gaussian, Inc. is engaged in the
 business of creating and licensing software in the field of
 computational chemistry and represents and warrants to the
 licensee that it is not a competitor of Gaussian, Inc. and that
 it will not use this program in any manner prohibited above.
 ---------------------------------------------------------------
  

 Cite this work as:
 Gaussian 16, Revision C.02,
 M. J. Frisch, G. W. Trucks, H. B. Schlegel, G. E. Scuseria, 
 M. A. Robb, J. R. Cheeseman, G. Scalmani, V. Barone, 
 G. A. Petersson, H. Nakatsuji, X. Li, M. Caricato, A. V. Marenich, 
 J. Bloino, B. G. Janesko, R. Gomperts, B. Mennucci, H. P. Hratchian, 
 J. V. Ortiz, A. F. Izmaylov, J. L. Sonnenberg, D. Williams-Young, 
 F. Ding, F. Lipparini, F. Egidi, J. Goings, B. Peng, A. Petrone, 
 T. Henderson, D. Ranasinghe, V. G. Zakrzewski, J. Gao, N. Rega, 
 G. Zheng, W. Liang, M. Hada, M. Ehara, K. Toyota, R. Fukuda, 
 J. Hasegawa, M. Ishida, T. Nakajima, Y. Honda, O. Kitao, H. Nakai, 
 T. Vreven, K. Throssell, J. A. Montgomery, Jr., J. E. Peralta, 
 F. Ogliaro, M. J. Bearpark, J. J. Heyd, E. N. Brothers, K. N. Kudin, 
 V. N. Staroverov, T. A. Keith, R. Kobayashi, J. Normand, 
 K. Raghavachari, A. P. Rendell, J. C. Burant, S. S. Iyengar, 
 J. Tomasi, M. Cossi, J. M. Millam, M. Klene, C. Adamo, R. Cammi, 
 J. W. Ochterski, R. L. Martin, K. Morokuma, O. Farkas, 
 J. B. Foresman, and D. J. Fox, Gaussian, Inc., Wallingford CT, 2019.
 
 ******************************************
 Gaussian 16:  ES64L-G16RevC.02  7-Dec-2021
                 5-Mar-2025 
 ******************************************
 %chk=Fe_2_OPBE.chk
 SetSPE:  set environment variable "OMP_PROC_BIND" = "true"
 SetSPE:  set environment variable "OMP_PLACES" = "{0},{1},{2},{3},{4},{5},{6},{7},{8},{9},{10},{11},{12},{13},{14},{15},{16},{17},{18},{19},{20},{21},{22},{23},{24},{25},{26},{27},{28},{29},{30},{31},{32},{33},{34},{35},{36},{37},{38},{39},{40},{41},{42},{43},{44},{45},{46},{47},{48},{49},{50},{51},{52},{53},{54},{55},{56},{57},{58},{59},{60},{61},{62},{63},{64},{65},{66},{67},{68},{69},{70},{71},{72},{73},{74},{75},{76},{77},{78},{79},{80},{81},{82},{83},{84},{85},{86},{87},{88},{89},{90},{91},{92},{93},{94},{95},{96},{97},{98},{99},{100},{101},{102},{103},{104},{105},{106},{107},{108},{109},{110},{111},{112},{113},{114},{115},{116},{117},{118},{119},{120},{121},{122},{123},{124},{125},{126},{127}"
 SetLPE:    new flags="-opt 'Tsnet.Node.lindarsharg: ssh'  -nodelist 'i284.lcrc.anl.gov' -env GAUSS_MDEF=13421772800 -env GAUSS_EXEDIR="/gpfs/fs1/soft/improv/software/custom-built/gaussian/g16/bsd:/gpfs/fs1/soft/improv/software/custom-built/gaussian/g16" -env "OMP_PROC_BIND=true" -env "OMP_PLACES={0},{1},{2},{3},{4},{5},{6},{7},{8},{9},{10},{11},{12},{13},{14},{15},{16},{17},{18},{19},{20},{21},{22},{23},{24},{25},{26},{27},{28},{29},{30},{31},{32},{33},{34},{35},{36},{37},{38},{39},{40},{41},{42},{43},{44},{45},{46},{47},{48},{49},{50},{51},{52},{53},{54},{55},{56},{57},{58},{59},{60},{61},{62},{63},{64},{65},{66},{67},{68},{69},{70},{71},{72},{73},{74},{75},{76},{77},{78},{79},{80},{81},{82},{83},{84},{85},{86},{87},{88},{89},{90},{91},{92},{93},{94},{95},{96},{97},{98},{99},{100},{101},{102},{103},{104},{105},{106},{107},{108},{109},{110},{111},{112},{113},{114},{115},{116},{117},{118},{119},{120},{121},{122},{123},{124},{125},{126},{127}" -env GAUSS_ADEF="0,1,2,3,4,5,6,7,8,9,10,11,12,13,14,15,16,17,18,19,20,21,22,23,24,25,26,27,28,29,30,31,32,33,34,35,36,37,38,39,40,41,42,43,44,45,46,47,48,49,50,51,52,53,54,55,56,57,58,59,60,61,62,63,64,65,66,67,68,69,70,71,72,73,74,75,76,77,78,79,80,81,82,83,84,85,86,87,88,89,90,91,92,93,94,95,96,97,98,99,100,101,102,103,104,105,106,107,108,109,110,111,112,113,114,115,116,117,118,119,120,121,122,123,124,125,126,127""
 Will use up to    1 processors via Linda.
 ----------------------------------------------------------------------
 #p OPBE 6-31+G(2df,p) opt=(cartesian,calcall,maxcycles=500) freq scf=(
 maxcycles=500,xqc,maxconventional=50) IOp(3/174=1000000) IOp(3/175=205
 5000) IOp(3/176=837000)
 ----------------------------------------------------------------------
 1/6=500,10=4,18=10,26=3,38=1/1,3;
 2/12=2,17=6,18=5,29=2,40=1/2;
 3/5=1,6=6,7=114,11=2,25=1,30=1,71=2,74=2009,140=1,174=1000000,175=2055000,176=837000/1,2,3;
 4//1;
 5/5=2,7=500,8=3,13=1,38=5,85=50/2,8;
 8/6=4,10=90,11=11/1;
 11/6=1,8=1,9=11,15=111,16=1/1,2,10;
 10/6=1/2;
 6/7=2,8=2,9=2,10=2,18=1,28=1/1;
 7/7=1,10=1,25=1/1,2,3,16;
 1/6=500,10=4,18=10,26=3/3(3);
 2/29=1/2;
 7/7=1,8=1,9=1,25=1,44=-1/16;
 99/12=1/99;
 2/29=1/2;
 3/5=1,6=6,7=114,11=2,25=1,30=1,71=2,74=2009,140=1,174=1000000,175=2055000,176=837000/1,2,3;
 4/5=5,16=3,69=1/1;
 5/5=2,7=500,8=3,13=1,38=5,85=50/2,8;
 8/6=4,10=90,11=11/1;
 11/6=1,8=1,9=11,15=111,16=1/1,2,10;
 10/6=1/2;
 7/7=1,10=1,25=1/1,2,3,16;
 1/6=500,10=4,18=10,26=3/3(-8);
 2/29=1/2;
 6/7=2,8=2,9=2,10=2,18=1,19=2,28=1/1;
 7/7=1,8=1,9=1,25=1,44=-1/16;
 99/12=1/99;
 Leave Link    1 at Wed Mar  5 18:41:50 2025, MaxMem=           0 cpu:               1.8 elap:               0.0
 (Enter /gpfs/fs1/soft/improv/software/custom-built/gaussian/g16/l101.exe)
 -----
 Title
 -----
 Symbolic Z-matrix:
 Charge =  2 Multiplicity = 5
 Fe                   -0.79304   0.81881  -0.09491 
 O                    -1.20497   2.57394  -0.35687 
 H                    -2.12106   2.64974  -0.63312 
 O                     0.99012   1.19063  -0.05794 
 H                     1.42696   0.5998    0.55971 
 O                    -0.81752   1.03069   1.71365 
 H                    -1.02108   0.1906    2.13133 
 O                    -0.38507  -0.93351   0.17118 
 H                    -1.15682  -1.47369  -0.01433 
 O                    -2.57341   0.45178  -0.12186 
 H                    -2.77756  -0.08744  -0.88929 
 O                    -0.76966   0.60461  -1.90111 
 H                     0.09872   0.83457  -2.23949 
 H                    -0.96534  -0.30999  -2.11742 
 H                     1.12208   2.09943   0.22124 
 H                    -1.07671   3.0584    0.46184 
 H                    -2.81407  -0.02398   0.6765 
 H                     0.0422    1.33615   2.01181 
 H                    -0.11532  -1.06446   1.08312 
 
 ITRead=  0  0  0  0  0  0  0  0  0  0  0  0  0  0  0  0  0  0  0
 MicOpt= -1 -1 -1 -1 -1 -1 -1 -1 -1 -1 -1 -1 -1 -1 -1 -1 -1 -1 -1
 NAtoms=     19 NQM=       19 NQMF=       0 NMMI=      0 NMMIF=      0
                NMic=       0 NMicF=      0.
                    Isotopes and Nuclear Properties:
 (Nuclear quadrupole moments (NQMom) in fm**2, nuclear magnetic moments (NMagM)
  in nuclear magnetons)

  Atom         1           2           3           4           5           6           7           8           9          10
 IAtWgt=          56          16           1          16           1          16           1          16           1          16
 AtmWgt=  55.9349393  15.9949146   1.0078250  15.9949146   1.0078250  15.9949146   1.0078250  15.9949146   1.0078250  15.9949146
 NucSpn=           0           0           1           0           1           0           1           0           1           0
 AtZEff=  -0.0000000  -0.0000000  -0.0000000  -0.0000000  -0.0000000  -0.0000000  -0.0000000  -0.0000000  -0.0000000  -0.0000000
 NQMom=    0.0000000   0.0000000   0.0000000   0.0000000   0.0000000   0.0000000   0.0000000   0.0000000   0.0000000   0.0000000
 NMagM=    0.0000000   0.0000000   2.7928460   0.0000000   2.7928460   0.0000000   2.7928460   0.0000000   2.7928460   0.0000000
 AtZNuc=  26.0000000   8.0000000   1.0000000   8.0000000   1.0000000   8.0000000   1.0000000   8.0000000   1.0000000   8.0000000

  Atom        11          12          13          14          15          16          17          18          19
 IAtWgt=           1          16           1           1           1           1           1           1           1
 AtmWgt=   1.0078250  15.9949146   1.0078250   1.0078250   1.0078250   1.0078250   1.0078250   1.0078250   1.0078250
 NucSpn=           1           0           1           1           1           1           1           1           1
 AtZEff=  -0.0000000  -0.0000000  -0.0000000  -0.0000000  -0.0000000  -0.0000000  -0.0000000  -0.0000000  -0.0000000
 NQMom=    0.0000000   0.0000000   0.0000000   0.0000000   0.0000000   0.0000000   0.0000000   0.0000000   0.0000000
 NMagM=    2.7928460   0.0000000   2.7928460   2.7928460   2.7928460   2.7928460   2.7928460   2.7928460   2.7928460
 AtZNuc=   1.0000000   8.0000000   1.0000000   1.0000000   1.0000000   1.0000000   1.0000000   1.0000000   1.0000000
 Leave Link  101 at Wed Mar  5 18:41:51 2025, MaxMem= 13421772800 cpu:               0.4 elap:               0.1
 (Enter /gpfs/fs1/soft/improv/software/custom-built/gaussian/g16/l103.exe)

 GradGradGradGradGradGradGradGradGradGradGradGradGradGradGradGradGradGrad
 Berny optimization.
 Initialization pass.
 No Z-matrix variables, so optimization will use Cartesian coordinates.
 Trust Radius=3.00D-01 FncErr=1.00D-07 GrdErr=1.00D-06 EigMax=2.50D+02 EigMin=1.00D-04
 Number of steps in this run=    114 maximum allowed number of steps=    114.
 GradGradGradGradGradGradGradGradGradGradGradGradGradGradGradGradGradGrad

 Leave Link  103 at Wed Mar  5 18:41:51 2025, MaxMem= 13421772800 cpu:               0.4 elap:               0.0
 (Enter /gpfs/fs1/soft/improv/software/custom-built/gaussian/g16/l202.exe)
 ---------------------------------------------------------------------------------------------------
                            Z-MATRIX (ANGSTROMS AND DEGREES)
   CD    Cent   Atom    N1       Length/X        N2       Alpha/Y        N3        Beta/Z          J
 ---------------------------------------------------------------------------------------------------
      1      1  Fe       0  -0.793037          0.818805         -0.094905
      2      2  O        0  -1.204971          2.573941         -0.356874
      3      3  H        0  -2.121063          2.649743         -0.633122
      4      4  O        0   0.990122          1.190635         -0.057941
      5      5  H        0   1.426962          0.599798          0.559707
      6      6  O        0  -0.817519          1.030691          1.713650
      7      7  H        0  -1.021079          0.190602          2.131326
      8      8  O        0  -0.385068         -0.933506          0.171177
      9      9  H        0  -1.156817         -1.473692         -0.014327
     10     10  O        0  -2.573405          0.451778         -0.121857
     11     11  H        0  -2.777557         -0.087440         -0.889285
     12     12  O        0  -0.769659          0.604612         -1.901109
     13     13  H        0   0.098725          0.834573         -2.239490
     14     14  H        0  -0.965336         -0.309994         -2.117418
     15     15  H        0   1.122081          2.099426          0.221242
     16     16  H        0  -1.076711          3.058396          0.461841
     17     17  H        0  -2.814074         -0.023981          0.676500
     18     18  H        0   0.042204          1.336153          2.011809
     19     19  H        0  -0.115315         -1.064459          1.083123
 ---------------------------------------------------------------------------------------------------
                         Z-Matrix orientation:                         
 ---------------------------------------------------------------------
 Center     Atomic      Atomic             Coordinates (Angstroms)
 Number     Number       Type             X           Y           Z
 ---------------------------------------------------------------------
      1         26           0       -0.793037    0.818805   -0.094905
      2          8           0       -1.204971    2.573941   -0.356874
      3          1           0       -2.121063    2.649743   -0.633122
      4          8           0        0.990122    1.190635   -0.057941
      5          1           0        1.426962    0.599798    0.559707
      6          8           0       -0.817519    1.030691    1.713650
      7          1           0       -1.021079    0.190602    2.131326
      8          8           0       -0.385068   -0.933506    0.171177
      9          1           0       -1.156817   -1.473692   -0.014327
     10          8           0       -2.573405    0.451778   -0.121857
     11          1           0       -2.777557   -0.087440   -0.889285
     12          8           0       -0.769659    0.604612   -1.901109
     13          1           0        0.098725    0.834573   -2.239490
     14          1           0       -0.965336   -0.309994   -2.117418
     15          1           0        1.122081    2.099426    0.221242
     16          1           0       -1.076711    3.058396    0.461841
     17          1           0       -2.814074   -0.023981    0.676500
     18          1           0        0.042204    1.336153    2.011809
     19          1           0       -0.115315   -1.064459    1.083123
 ---------------------------------------------------------------------
                    Distance matrix (angstroms):
                    1          2          3          4          5
     1  Fe   0.000000
     2  O    1.821762   0.000000
     3  H    2.325008   0.959835   0.000000
     4  O    1.821889   2.611767   3.484150   0.000000
     5  H    2.324839   3.415322   4.267739   0.959899   0.000000
     6  O    1.821090   2.611285   3.134947   2.536076   2.560263
     7  H    2.324381   3.450400   3.859988   3.136540   2.937743
     8  O    1.818745   3.640503   4.062050   2.540791   2.405292
     9  H    2.322579   4.062387   4.279649   3.421971   3.362259
    10  O    1.818006   2.536025   2.301533   3.639880   4.060711
    11  H    2.321775   3.136788   2.826442   4.064482   4.499984
    12  O    1.819010   2.540161   2.759827   2.614866   3.298603
    13  H    2.322657   2.875634   3.286750   2.383386   3.107223
    14  H    2.322591   3.387332   3.506977   3.212032   3.703756
    15  H    2.325429   2.444290   3.398642   0.959822   1.567289
    16  H    2.325125   0.959918   1.567358   2.833814   3.510364
    17  H    2.321626   3.225876   3.056824   4.060370   4.288255
    18  H    2.324547   2.949275   3.660724   2.281137   2.137375
    19  H    2.322443   4.061883   4.556733   2.758526   2.328591
                    6          7          8          9         10
     6  O    0.000000
     7  H    0.960021   0.000000
     8  O    2.534622   2.347406   0.000000
     9  H    3.061530   2.718847   0.960108   0.000000
    10  O    2.605257   2.748593   2.606473   2.392848   0.000000
    11  H    3.444886   3.505227   2.750347   2.305222   0.959885
    12  O    3.640099   4.061422   2.609231   2.833582   2.538227
    13  H    4.062670   4.557707   3.028445   3.443229   3.430916
    14  H    4.061572   4.278496   2.441955   2.411193   2.673658
    15  H    2.670492   3.447487   3.387136   4.244531   4.060675
    16  H    2.397039   3.318813   4.061790   4.557738   3.061904
    17  H    2.484803   2.318921   2.642472   2.307685   0.960023
    18  H    0.959858   1.567527   2.953276   3.665802   3.489421
    19  H    2.297892   1.869309   0.959980   1.567353   3.129403
                   11         12         13         14         15
    11  H    0.000000
    12  O    2.352526   0.000000
    13  H    3.308498   0.959935   0.000000
    14  H    2.200452   0.959991   1.567533   0.000000
    15  H    4.606825   3.212091   2.949969   3.953725   0.000000
    16  H    3.822919   3.420362   3.691102   4.243941   2.410850
    17  H    1.567497   3.349453   4.210050   3.362383   4.495491
    18  H    4.288824   4.062660   4.281159   4.558009   2.225950
    19  H    3.454344   3.481323   3.833001   3.396353   3.504877
                   16         17         18         19
    16  H    0.000000
    17  H    3.544793   0.000000
    18  H    2.573032   3.433851   0.000000
    19  H    4.278809   2.920828   2.578800   0.000000
 Stoichiometry    FeH12O6(2+,5)
 Framework group  C1[X(FeH12O6)]
 Deg. of freedom    51
 Full point group                 C1      NOp   1
 Largest Abelian subgroup         C1      NOp   1
 Largest concise Abelian subgroup C1      NOp   1
                         Standard orientation:                         
 ---------------------------------------------------------------------
 Center     Atomic      Atomic             Coordinates (Angstroms)
 Number     Number       Type             X           Y           Z
 ---------------------------------------------------------------------
      1         26           0       -0.020212   -0.029769    0.009758
      2          8           0       -0.320773   -1.687164   -0.684161
      3          1           0       -1.136997   -1.679346   -1.189137
      4          8           0        1.254785   -0.678144    1.138153
      5          1           0        1.943573   -0.019708    1.254074
      6          8           0        1.298505    0.294488   -1.203590
      7          1           0        1.382461    1.241149   -1.339326
      8          8           0        0.280919    1.626834    0.697379
      9          1           0       -0.430846    2.216032    0.436526
     10          8           0       -1.285567    0.616476   -1.124434
     11          1           0       -2.034473    0.939301   -0.618170
     12          8           0       -1.338192   -0.350985    1.221594
     13          1           0       -0.971642   -0.815184    1.977660
     14          1           0       -1.717006    0.482356    1.510774
     15          1           0        1.635434   -1.476912    0.766219
     16          1           0        0.408530   -1.930525   -1.258908
     17          1           0       -0.914804    1.335716   -1.641030
     18          1           0        2.129249   -0.056449   -0.874904
     19          1           0        1.114608    1.965515    0.362985
 ---------------------------------------------------------------------
 Rotational constants (GHZ):           2.0396930           1.9739388           1.9252729
 Leave Link  202 at Wed Mar  5 18:41:51 2025, MaxMem= 13421772800 cpu:               0.5 elap:               0.0
 (Enter /gpfs/fs1/soft/improv/software/custom-built/gaussian/g16/l301.exe)
 Standard basis: 6-31+G(2df,p) (6D, 7F)
 Ernie: Thresh=  0.10000D-02 Tol=  0.10000D-05 Strict=F.
 There are   347 symmetry adapted cartesian basis functions of A   symmetry.
 There are   317 symmetry adapted basis functions of A   symmetry.
   317 basis functions,   514 primitive gaussians,   347 cartesian basis functions
    44 alpha electrons       40 beta electrons
       nuclear repulsion energy       767.7883002195 Hartrees.
 IExCor= 2009 DFT=T Ex=O Corr=PBE ExCW=0 ScaHFX=  0.000000
 ScaDFX=  1.000000  1.000000  1.000000  1.000000 ScalE2=  1.000000  1.000000
 IRadAn=      5 IRanWt=     -1 IRanGd=            0 ICorTp=0 IEmpDi=  4
 NAtoms=   19 NActive=   19 NUniq=   19 SFac= 1.00D+00 NAtFMM=   60 NAOKFM=F Big=F
 Integral buffers will be    131072 words long.
 Raffenetti 2 integral format.
 Two-electron integral symmetry is turned on.
 R6DIni: Non-standard D2/D3 S6 parameter, value=     1.000000
 R6DIni: Non-standard D2/D3 S8 parameter, value=     2.055000
 R6DIni: Non-standard D2/D3 SR6 parameter, value=     0.837000
 Leave Link  301 at Wed Mar  5 18:41:51 2025, MaxMem= 13421772800 cpu:               0.4 elap:               0.1
 (Enter /gpfs/fs1/soft/improv/software/custom-built/gaussian/g16/l302.exe)
 NPDir=0 NMtPBC=     1 NCelOv=     1 NCel=       1 NClECP=     1 NCelD=      1
         NCelK=      1 NCelE2=     1 NClLst=     1 CellRange=     0.0.
 One-electron integrals computed using PRISM.
 One-electron integral symmetry used in STVInt
 NBasis=   317 RedAO= T EigKep=  1.64D-06  NBF=   317
 NBsUse=   317 1.00D-06 EigRej= -1.00D+00 NBFU=   317
 Precomputing XC quadrature grid using
 IXCGrd= 4 IRadAn=           5 IRanWt=          -1 IRanGd=           0 AccXCQ= 0.00D+00.
 Generated NRdTot=       0 NPtTot=           0 NUsed=           0 NTot=          32
 NSgBfM=   347   346   347   347   347 MxSgAt=    19 MxSgA2=    19.
 Leave Link  302 at Wed Mar  5 18:41:52 2025, MaxMem= 13421772800 cpu:              22.1 elap:               0.3
 (Enter /gpfs/fs1/soft/improv/software/custom-built/gaussian/g16/l303.exe)
 DipDrv:  MaxL=1.
 Leave Link  303 at Wed Mar  5 18:41:52 2025, MaxMem= 13421772800 cpu:               1.1 elap:               0.0
 (Enter /gpfs/fs1/soft/improv/software/custom-built/gaussian/g16/l401.exe)
 ExpMin= 1.26D-02 ExpMax= 6.11D+04 ExpMxC= 9.18D+03 IAcc=3 IRadAn=         5 AccDes= 0.00D+00
 Harris functional with IExCor= 2009 and IRadAn=       5 diagonalized for initial guess.
 HarFok:  IExCor= 2009 AccDes= 0.00D+00 IRadAn=         5 IDoV= 1 UseB2=F ITyADJ=14
 ICtDFT=  3500011 ScaDFX=  1.000000  1.000000  1.000000  1.000000
 FoFCou: FMM=F IPFlag=           0 FMFlag=      100000 FMFlg1=           0
         NFxFlg=           0 DoJE=T BraDBF=F KetDBF=T FulRan=T
         wScrn=  0.000000 ICntrl=       500 IOpCl=  0 I1Cent=   200000004 NGrid=           0
         NMat0=    1 NMatS0=      1 NMatT0=    0 NMatD0=    1 NMtDS0=    0 NMtDT0=    0
 Petite list used in FoFCou.
 Harris En= -1721.69021284266    
 JPrj=0 DoOrth=F DoCkMO=F.
 Initial guess <Sx>= 0.0000 <Sy>= 0.0000 <Sz>= 2.0000 <S**2>= 6.0000 S= 2.0000
 Leave Link  401 at Wed Mar  5 18:41:53 2025, MaxMem= 13421772800 cpu:              40.0 elap:               0.5
 (Enter /gpfs/fs1/soft/improv/software/custom-built/gaussian/g16/l502.exe)
 Integral symmetry usage will be decided dynamically.
 UHF open shell SCF:
 Using DIIS extrapolation, IDIIS=  1040.
 NGot= 13421772800 LenX= 13421483807 LenY= 13421362957
 Requested convergence on RMS density matrix=1.00D-08 within  50 cycles.
 Requested convergence on MAX density matrix=1.00D-06.
 Requested convergence on             energy=1.00D-06.
 No special actions if energy rises.
 Fock matrices will be formed incrementally for  20 cycles.

 Cycle   1  Pass 1  IDiag  1:
 FoFJK:  IHMeth= 1 ICntrl=     500 DoSepK=F KAlg= 0 I1Cent=           0 FoldK=F
 IRaf= 990000000 NMat=       1 IRICut=       1 DoRegI=T DoRafI=F ISym2E= 0 IDoP0=0 IntGTp=1.
 FoFCou: FMM=F IPFlag=           0 FMFlag=      100000 FMFlg1=           0
         NFxFlg=           0 DoJE=T BraDBF=F KetDBF=F FulRan=T
         wScrn=  0.000000 ICntrl=       500 IOpCl=  0 I1Cent=           0 NGrid=           0
         NMat0=    1 NMatS0=      1 NMatT0=    0 NMatD0=    1 NMtDS0=    0 NMtDT0=    0
 Symmetry not used in FoFCou.
 E= -1721.24236974191    
 DIIS: error= 2.50D-02 at cycle   1 NSaved=   1.
 NSaved= 1 IEnMin= 1 EnMin= -1721.24236974191     IErMin= 1 ErrMin= 2.50D-02
 ErrMax= 2.50D-02  0.00D+00 EMaxC= 1.00D-01 BMatC= 1.59D+00 BMatP= 1.59D+00
 IDIUse=3 WtCom= 7.50D-01 WtEn= 2.50D-01
 Coeff-Com:  0.100D+01
 Coeff-En:   0.100D+01
 Coeff:      0.100D+01
 Gap=    -0.137 Goal=   None    Shift=    0.000
 Gap=     0.010 Goal=   None    Shift=    0.000
 GapD=   -0.137 DampG=0.250 DampE=0.250 DampFc=0.1250 IDamp=-1.
 Damping current iteration by 1.25D-01
 RMSDP=1.83D-01 MaxDP=2.28D+01              OVMax= 9.79D-01

 Cycle   2  Pass 1  IDiag  1:
 RMSU=  1.83D-02    CP:  1.13D+00
 E= -1721.29318694395     Delta-E=       -0.050817202040 Rises=F Damp=T
 DIIS: error= 1.60D-02 at cycle   2 NSaved=   2.
 NSaved= 2 IEnMin= 2 EnMin= -1721.29318694395     IErMin= 2 ErrMin= 1.60D-02
 ErrMax= 1.60D-02  0.00D+00 EMaxC= 1.00D-01 BMatC= 7.77D-01 BMatP= 1.59D+00
 IDIUse=3 WtCom= 8.40D-01 WtEn= 1.60D-01
 Coeff-Com: -0.369D+00 0.137D+01
 Coeff-En:   0.213D+00 0.787D+00
 Coeff:     -0.275D+00 0.128D+01
 Gap=    -0.022 Goal=   None    Shift=    0.000
 Gap=     0.040 Goal=   None    Shift=    0.000
 RMSDP=2.44D-02 MaxDP=2.50D+00 DE=-5.08D-02 OVMax= 9.18D-01

 Cycle   3  Pass 1  IDiag  1:
 RMSU=  2.00D-02    CP:  1.14D+00  2.38D-01
 E= -1720.64412981869     Delta-E=        0.649057125260 Rises=F Damp=F
 DIIS: error= 6.04D-02 at cycle   3 NSaved=   3.
 NSaved= 3 IEnMin= 2 EnMin= -1721.29318694395     IErMin= 2 ErrMin= 1.60D-02
 ErrMax= 6.04D-02  0.00D+00 EMaxC= 1.00D-01 BMatC= 6.74D+00 BMatP= 7.77D-01
 IDIUse=2 WtCom= 0.00D+00 WtEn= 1.00D+00
 Coeff-En:   0.000D+00 0.809D+00 0.191D+00
 Coeff:      0.000D+00 0.809D+00 0.191D+00
 Gap=     0.032 Goal=   None    Shift=    0.000
 Gap=     0.010 Goal=   None    Shift=    0.000
 RMSDP=4.73D-02 MaxDP=5.63D+00 DE= 6.49D-01 OVMax= 9.97D-01

 Cycle   4  Pass 1  IDiag  1:
 RMSU=  3.52D-02    CP:  1.05D+00  1.71D+00  3.28D-01
 E= -1720.26642376616     Delta-E=        0.377706052526 Rises=F Damp=F
 DIIS: error= 5.27D-02 at cycle   4 NSaved=   4.
 NSaved= 4 IEnMin= 2 EnMin= -1721.29318694395     IErMin= 2 ErrMin= 1.60D-02
 ErrMax= 5.27D-02  0.00D+00 EMaxC= 1.00D-01 BMatC= 5.69D+00 BMatP= 7.77D-01
 IDIUse=2 WtCom= 0.00D+00 WtEn= 1.00D+00
 EnCoef did   100 forward-backward iterations
 Coeff-En:   0.519D+00 0.231D-01 0.213D+00 0.244D+00
 Coeff:      0.519D+00 0.231D-01 0.213D+00 0.244D+00
 Gap=    -0.002 Goal=   None    Shift=    0.000
 Gap=    -0.060 Goal=   None    Shift=    0.000
 RMSDP=4.63D-02 MaxDP=5.65D+00 DE= 3.78D-01 OVMax= 9.99D-01

 Cycle   5  Pass 1  IDiag  1:
 RMSU=  7.96D-03    CP:  9.48D-01  5.69D-02  5.14D-01  8.33D-02
 E= -1721.51134290941     Delta-E=       -1.244919143247 Rises=F Damp=F
 DIIS: error= 5.54D-03 at cycle   5 NSaved=   5.
 NSaved= 5 IEnMin= 5 EnMin= -1721.51134290941     IErMin= 5 ErrMin= 5.54D-03
 ErrMax= 5.54D-03  0.00D+00 EMaxC= 1.00D-01 BMatC= 1.37D-01 BMatP= 7.77D-01
 IDIUse=3 WtCom= 9.45D-01 WtEn= 5.54D-02
 Coeff-Com: -0.253D-01 0.253D+00-0.367D-01 0.859D-02 0.801D+00
 Coeff-En:   0.000D+00 0.000D+00 0.000D+00 0.486D-02 0.995D+00
 Coeff:     -0.239D-01 0.239D+00-0.347D-01 0.838D-02 0.812D+00
 Gap=     0.058 Goal=   None    Shift=    0.000
 Gap=     0.015 Goal=   None    Shift=    0.000
 RMSDP=2.93D-03 MaxDP=2.72D-01 DE=-1.24D+00 OVMax= 9.49D-02

 Cycle   6  Pass 1  IDiag  1:
 RMSU=  2.43D-03    CP:  9.49D-01  8.97D-02  4.63D-01  5.92D-02  9.05D-01
 E= -1721.52890946736     Delta-E=       -0.017566557945 Rises=F Damp=F
 DIIS: error= 2.21D-03 at cycle   6 NSaved=   6.
 NSaved= 6 IEnMin= 6 EnMin= -1721.52890946736     IErMin= 6 ErrMin= 2.21D-03
 ErrMax= 2.21D-03  0.00D+00 EMaxC= 1.00D-01 BMatC= 1.83D-02 BMatP= 1.37D-01
 IDIUse=3 WtCom= 9.78D-01 WtEn= 2.21D-02
 Coeff-Com: -0.392D-01 0.954D-01-0.298D-01 0.168D-02 0.392D+00 0.580D+00
 Coeff-En:   0.000D+00 0.000D+00 0.000D+00 0.000D+00 0.505D-01 0.950D+00
 Coeff:     -0.384D-01 0.933D-01-0.292D-01 0.164D-02 0.385D+00 0.588D+00
 Gap=     0.047 Goal=   None    Shift=    0.000
 Gap=     0.017 Goal=   None    Shift=    0.000
 RMSDP=1.42D-03 MaxDP=1.16D-01 DE=-1.76D-02 OVMax= 4.10D-02

 Cycle   7  Pass 1  IDiag  1:
 RMSU=  8.97D-04    CP:  9.47D-01  9.30D-02  4.69D-01  6.78D-02  9.99D-01
                    CP:  7.11D-01
 E= -1721.53160092329     Delta-E=       -0.002691455931 Rises=F Damp=F
 DIIS: error= 1.22D-03 at cycle   7 NSaved=   7.
 NSaved= 7 IEnMin= 7 EnMin= -1721.53160092329     IErMin= 7 ErrMin= 1.22D-03
 ErrMax= 1.22D-03  0.00D+00 EMaxC= 1.00D-01 BMatC= 3.92D-03 BMatP= 1.83D-02
 IDIUse=3 WtCom= 9.88D-01 WtEn= 1.22D-02
 Coeff-Com: -0.628D-01 0.766D-01-0.187D-02-0.177D-02 0.653D-01 0.346D+00
 Coeff-Com:  0.579D+00
 Coeff-En:   0.000D+00 0.000D+00 0.000D+00 0.000D+00 0.000D+00 0.120D+00
 Coeff-En:   0.880D+00
 Coeff:     -0.620D-01 0.757D-01-0.185D-02-0.175D-02 0.645D-01 0.343D+00
 Coeff:      0.583D+00
 Gap=     0.048 Goal=   None    Shift=    0.000
 Gap=     0.018 Goal=   None    Shift=    0.000
 RMSDP=4.10D-04 MaxDP=3.07D-02 DE=-2.69D-03 OVMax= 8.64D-03

 Cycle   8  Pass 1  IDiag  1:
 RMSU=  3.17D-04    CP:  9.48D-01  8.48D-02  4.74D-01  6.98D-02  1.01D+00
                    CP:  7.18D-01  8.23D-01
 E= -1721.53216498287     Delta-E=       -0.000564059584 Rises=F Damp=F
 DIIS: error= 5.19D-04 at cycle   8 NSaved=   8.
 NSaved= 8 IEnMin= 8 EnMin= -1721.53216498287     IErMin= 8 ErrMin= 5.19D-04
 ErrMax= 5.19D-04  0.00D+00 EMaxC= 1.00D-01 BMatC= 6.71D-04 BMatP= 3.92D-03
 IDIUse=3 WtCom= 9.95D-01 WtEn= 5.19D-03
 Coeff-Com: -0.462D-01 0.527D-01 0.176D-02-0.137D-02-0.170D-01 0.930D-01
 Coeff-Com:  0.235D+00 0.682D+00
 Coeff-En:   0.000D+00 0.000D+00 0.000D+00 0.000D+00 0.000D+00 0.000D+00
 Coeff-En:   0.000D+00 0.100D+01
 Coeff:     -0.460D-01 0.524D-01 0.175D-02-0.137D-02-0.169D-01 0.925D-01
 Coeff:      0.234D+00 0.684D+00
 Gap=     0.047 Goal=   None    Shift=    0.000
 Gap=     0.018 Goal=   None    Shift=    0.000
 RMSDP=2.40D-04 MaxDP=2.60D-02 DE=-5.64D-04 OVMax= 4.03D-03

 Cycle   9  Pass 1  IDiag  1:
 RMSU=  1.51D-04    CP:  9.49D-01  8.83D-02  4.74D-01  6.97D-02  1.02D+00
                    CP:  7.50D-01  8.89D-01  9.11D-01
 E= -1721.53223544296     Delta-E=       -0.000070460088 Rises=F Damp=F
 DIIS: error= 3.73D-04 at cycle   9 NSaved=   9.
 NSaved= 9 IEnMin= 9 EnMin= -1721.53223544296     IErMin= 9 ErrMin= 3.73D-04
 ErrMax= 3.73D-04  0.00D+00 EMaxC= 1.00D-01 BMatC= 3.00D-04 BMatP= 6.71D-04
 IDIUse=3 WtCom= 9.96D-01 WtEn= 3.73D-03
 Coeff-Com: -0.315D-01 0.355D-01 0.120D-02-0.765D-03-0.246D-01 0.171D-01
 Coeff-Com:  0.751D-01 0.316D+00 0.612D+00
 Coeff-En:   0.000D+00 0.000D+00 0.000D+00 0.000D+00 0.000D+00 0.000D+00
 Coeff-En:   0.000D+00 0.000D+00 0.100D+01
 Coeff:     -0.314D-01 0.353D-01 0.120D-02-0.762D-03-0.245D-01 0.170D-01
 Coeff:      0.748D-01 0.315D+00 0.613D+00
 Gap=     0.046 Goal=   None    Shift=    0.000
 Gap=     0.018 Goal=   None    Shift=    0.000
 RMSDP=9.40D-05 MaxDP=6.04D-03 DE=-7.05D-05 OVMax= 4.55D-03

 Cycle  10  Pass 1  IDiag  1:
 RMSU=  5.16D-05    CP:  9.49D-01  8.75D-02  4.75D-01  7.02D-02  1.02D+00
                    CP:  7.55D-01  8.89D-01  1.02D+00  1.20D+00
 E= -1721.53226383771     Delta-E=       -0.000028394747 Rises=F Damp=F
 DIIS: error= 2.61D-04 at cycle  10 NSaved=  10.
 NSaved=10 IEnMin=10 EnMin= -1721.53226383771     IErMin=10 ErrMin= 2.61D-04
 ErrMax= 2.61D-04  0.00D+00 EMaxC= 1.00D-01 BMatC= 1.41D-04 BMatP= 3.00D-04
 IDIUse=3 WtCom= 9.97D-01 WtEn= 2.61D-03
 Coeff-Com: -0.166D-01 0.192D-01 0.533D-03-0.443D-03-0.162D-01-0.120D-01
 Coeff-Com: -0.156D-01-0.909D-01 0.288D+00 0.844D+00
 Coeff-En:   0.000D+00 0.000D+00 0.000D+00 0.000D+00 0.000D+00 0.000D+00
 Coeff-En:   0.000D+00 0.000D+00 0.000D+00 0.100D+01
 Coeff:     -0.165D-01 0.192D-01 0.532D-03-0.442D-03-0.162D-01-0.120D-01
 Coeff:     -0.155D-01-0.906D-01 0.287D+00 0.844D+00
 Gap=     0.046 Goal=   None    Shift=    0.000
 Gap=     0.018 Goal=   None    Shift=    0.000
 RMSDP=9.21D-05 MaxDP=8.32D-03 DE=-2.84D-05 OVMax= 7.05D-03

 Cycle  11  Pass 1  IDiag  1:
 RMSU=  4.63D-05    CP:  9.49D-01  8.72D-02  4.75D-01  7.07D-02  1.03D+00
                    CP:  7.54D-01  8.94D-01  1.09D+00  1.51D+00  1.21D+00
 E= -1721.53228299245     Delta-E=       -0.000019154743 Rises=F Damp=F
 DIIS: error= 1.37D-04 at cycle  11 NSaved=  11.
 NSaved=11 IEnMin=11 EnMin= -1721.53228299245     IErMin=11 ErrMin= 1.37D-04
 ErrMax= 1.37D-04  0.00D+00 EMaxC= 1.00D-01 BMatC= 4.08D-05 BMatP= 1.41D-04
 IDIUse=3 WtCom= 9.99D-01 WtEn= 1.37D-03
 Coeff-Com: -0.350D-03 0.876D-03-0.633D-04 0.136D-05 0.318D-02 0.707D-02
 Coeff-Com: -0.751D-02-0.243D+00-0.364D+00 0.348D+00 0.126D+01
 Coeff-En:   0.000D+00 0.000D+00 0.000D+00 0.000D+00 0.000D+00 0.000D+00
 Coeff-En:   0.000D+00 0.000D+00 0.000D+00 0.000D+00 0.100D+01
 Coeff:     -0.350D-03 0.875D-03-0.632D-04 0.136D-05 0.318D-02 0.706D-02
 Coeff:     -0.750D-02-0.242D+00-0.363D+00 0.347D+00 0.125D+01
 Gap=     0.045 Goal=   None    Shift=    0.000
 Gap=     0.018 Goal=   None    Shift=    0.000
 RMSDP=1.14D-04 MaxDP=1.06D-02 DE=-1.92D-05 OVMax= 1.06D-02

 Cycle  12  Pass 1  IDiag  1:
 RMSU=  2.67D-05    CP:  9.49D-01  8.70D-02  4.76D-01  7.12D-02  1.04D+00
                    CP:  7.61D-01  8.94D-01  1.16D+00  1.95D+00  1.91D+00
                    CP:  1.63D+00
 E= -1721.53229229354     Delta-E=       -0.000009301089 Rises=F Damp=F
 DIIS: error= 3.46D-05 at cycle  12 NSaved=  12.
 NSaved=12 IEnMin=12 EnMin= -1721.53229229354     IErMin=12 ErrMin= 3.46D-05
 ErrMax= 3.46D-05  0.00D+00 EMaxC= 1.00D-01 BMatC= 1.90D-06 BMatP= 4.08D-05
 IDIUse=1 WtCom= 1.00D+00 WtEn= 0.00D+00
 Coeff-Com:  0.195D-02-0.204D-02-0.585D-04 0.605D-04 0.516D-02 0.129D-01
 Coeff-Com:  0.779D-02-0.149D+00-0.287D+00 0.985D-01 0.731D+00 0.581D+00
 Coeff:      0.195D-02-0.204D-02-0.585D-04 0.605D-04 0.516D-02 0.129D-01
 Coeff:      0.779D-02-0.149D+00-0.287D+00 0.985D-01 0.731D+00 0.581D+00
 Gap=     0.045 Goal=   None    Shift=    0.000
 Gap=     0.018 Goal=   None    Shift=    0.000
 RMSDP=2.84D-05 MaxDP=2.04D-03 DE=-9.30D-06 OVMax= 3.58D-03

 Cycle  13  Pass 1  IDiag  1:
 RMSU=  1.19D-05    CP:  9.49D-01  8.69D-02  4.77D-01  7.14D-02  1.04D+00
                    CP:  7.61D-01  8.89D-01  1.18D+00  2.05D+00  2.05D+00
                    CP:  1.86D+00  1.30D+00
 E= -1721.53229301444     Delta-E=       -0.000000720897 Rises=F Damp=F
 DIIS: error= 2.41D-05 at cycle  13 NSaved=  13.
 NSaved=13 IEnMin=13 EnMin= -1721.53229301444     IErMin=13 ErrMin= 2.41D-05
 ErrMax= 2.41D-05  0.00D+00 EMaxC= 1.00D-01 BMatC= 1.19D-06 BMatP= 1.90D-06
 IDIUse=1 WtCom= 1.00D+00 WtEn= 0.00D+00
 Coeff-Com:  0.158D-02-0.181D-02 0.334D-04 0.156D-04 0.255D-02 0.865D-02
 Coeff-Com:  0.937D-02-0.383D-01-0.575D-01 0.320D-01 0.352D-01-0.244D+00
 Coeff-Com:  0.125D+01
 Coeff:      0.158D-02-0.181D-02 0.334D-04 0.156D-04 0.255D-02 0.865D-02
 Coeff:      0.937D-02-0.383D-01-0.575D-01 0.320D-01 0.352D-01-0.244D+00
 Coeff:      0.125D+01
 Gap=     0.044 Goal=   None    Shift=    0.000
 Gap=     0.018 Goal=   None    Shift=    0.000
 RMSDP=2.49D-05 MaxDP=1.84D-03 DE=-7.21D-07 OVMax= 4.09D-03

 Cycle  14  Pass 1  IDiag  1:
 RMSU=  8.02D-06    CP:  9.49D-01  8.67D-02  4.77D-01  7.14D-02  1.04D+00
                    CP:  7.60D-01  8.84D-01  1.20D+00  2.08D+00  2.17D+00
                    CP:  2.08D+00  1.83D+00  1.72D+00
 E= -1721.53229357766     Delta-E=       -0.000000563222 Rises=F Damp=F
 DIIS: error= 1.63D-05 at cycle  14 NSaved=  14.
 NSaved=14 IEnMin=14 EnMin= -1721.53229357766     IErMin=14 ErrMin= 1.63D-05
 ErrMax= 1.63D-05  0.00D+00 EMaxC= 1.00D-01 BMatC= 9.76D-07 BMatP= 1.19D-06
 IDIUse=1 WtCom= 1.00D+00 WtEn= 0.00D+00
 Coeff-Com:  0.632D-04-0.236D-03 0.598D-04-0.242D-04-0.209D-02-0.307D-02
 Coeff-Com: -0.121D-02 0.576D-01 0.194D+00 0.738D-01-0.529D+00-0.148D+01
 Coeff-Com:  0.139D+01 0.130D+01
 Coeff:      0.632D-04-0.236D-03 0.598D-04-0.242D-04-0.209D-02-0.307D-02
 Coeff:     -0.121D-02 0.576D-01 0.194D+00 0.738D-01-0.529D+00-0.148D+01
 Coeff:      0.139D+01 0.130D+01
 Gap=     0.044 Goal=   None    Shift=    0.000
 Gap=     0.018 Goal=   None    Shift=    0.000
 RMSDP=4.21D-05 MaxDP=3.30D-03 DE=-5.63D-07 OVMax= 7.03D-03

 Cycle  15  Pass 1  IDiag  1:
 RMSU=  1.12D-05    CP:  9.49D-01  8.66D-02  4.77D-01  7.15D-02  1.04D+00
                    CP:  7.59D-01  8.73D-01  1.22D+00  2.14D+00  2.29D+00
                    CP:  2.38D+00  2.66D+00  3.00D+00  2.06D+00
 E= -1721.53229421100     Delta-E=       -0.000000633340 Rises=F Damp=F
 DIIS: error= 5.06D-06 at cycle  15 NSaved=  15.
 NSaved=15 IEnMin=15 EnMin= -1721.53229421100     IErMin=15 ErrMin= 5.06D-06
 ErrMax= 5.06D-06  0.00D+00 EMaxC= 1.00D-01 BMatC= 7.26D-08 BMatP= 9.76D-07
 IDIUse=1 WtCom= 1.00D+00 WtEn= 0.00D+00
 Coeff-Com:  0.192D-03-0.241D-03-0.786D-05-0.253D-05-0.378D-03-0.191D-02
 Coeff-Com: -0.263D-02 0.915D-02 0.404D-01 0.278D-01-0.106D+00-0.415D+00
 Coeff-Com:  0.932D-01 0.337D+00 0.102D+01
 Coeff:      0.192D-03-0.241D-03-0.786D-05-0.253D-05-0.378D-03-0.191D-02
 Coeff:     -0.263D-02 0.915D-02 0.404D-01 0.278D-01-0.106D+00-0.415D+00
 Coeff:      0.932D-01 0.337D+00 0.102D+01
 Gap=     0.044 Goal=   None    Shift=    0.000
 Gap=     0.018 Goal=   None    Shift=    0.000
 RMSDP=1.75D-05 MaxDP=1.15D-03 DE=-6.33D-07 OVMax= 2.81D-03

 Cycle  16  Pass 1  IDiag  1:
 RMSU=  3.52D-06    CP:  9.49D-01  8.64D-02  4.77D-01  7.16D-02  1.04D+00
                    CP:  7.58D-01  8.69D-01  1.23D+00  2.17D+00  2.36D+00
                    CP:  2.53D+00  2.97D+00  3.00D+00  2.59D+00  1.71D+00
 E= -1721.53229425530     Delta-E=       -0.000000044307 Rises=F Damp=F
 DIIS: error= 2.67D-06 at cycle  16 NSaved=  16.
 NSaved=16 IEnMin=16 EnMin= -1721.53229425530     IErMin=16 ErrMin= 2.67D-06
 ErrMax= 2.67D-06  0.00D+00 EMaxC= 1.00D-01 BMatC= 1.86D-08 BMatP= 7.26D-08
 IDIUse=1 WtCom= 1.00D+00 WtEn= 0.00D+00
 Coeff-Com:  0.942D-04-0.946D-04-0.891D-05-0.784D-06 0.888D-04-0.442D-03
 Coeff-Com: -0.109D-02-0.346D-02 0.352D-03 0.130D-01 0.753D-02-0.603D-01
 Coeff-Com: -0.543D-01 0.460D-01 0.402D+00 0.651D+00
 Coeff:      0.942D-04-0.946D-04-0.891D-05-0.784D-06 0.888D-04-0.442D-03
 Coeff:     -0.109D-02-0.346D-02 0.352D-03 0.130D-01 0.753D-02-0.603D-01
 Coeff:     -0.543D-01 0.460D-01 0.402D+00 0.651D+00
 Gap=     0.044 Goal=   None    Shift=    0.000
 Gap=     0.018 Goal=   None    Shift=    0.000
 RMSDP=2.21D-06 MaxDP=2.07D-04 DE=-4.43D-08 OVMax= 2.19D-04

 Cycle  17  Pass 1  IDiag  1:
 RMSU=  5.85D-07    CP:  9.49D-01  8.64D-02  4.77D-01  7.16D-02  1.04D+00
                    CP:  7.58D-01  8.69D-01  1.23D+00  2.17D+00  2.36D+00
                    CP:  2.51D+00  2.95D+00  3.00D+00  2.59D+00  1.68D+00
                    CP:  8.50D-01
 E= -1721.53229425827     Delta-E=       -0.000000002964 Rises=F Damp=F
 DIIS: error= 1.14D-06 at cycle  17 NSaved=  17.
 NSaved=17 IEnMin=17 EnMin= -1721.53229425827     IErMin=17 ErrMin= 1.14D-06
 ErrMax= 1.14D-06  0.00D+00 EMaxC= 1.00D-01 BMatC= 3.66D-09 BMatP= 1.86D-08
 IDIUse=1 WtCom= 1.00D+00 WtEn= 0.00D+00
 Coeff-Com:  0.310D-04-0.251D-04-0.373D-05-0.265D-07 0.109D-03 0.197D-04
 Coeff-Com: -0.253D-03-0.335D-02-0.482D-02 0.454D-02 0.194D-01 0.274D-01
 Coeff-Com: -0.420D-01-0.244D-01 0.628D-01 0.390D+00 0.571D+00
 Coeff:      0.310D-04-0.251D-04-0.373D-05-0.265D-07 0.109D-03 0.197D-04
 Coeff:     -0.253D-03-0.335D-02-0.482D-02 0.454D-02 0.194D-01 0.274D-01
 Coeff:     -0.420D-01-0.244D-01 0.628D-01 0.390D+00 0.571D+00
 Gap=     0.044 Goal=   None    Shift=    0.000
 Gap=     0.018 Goal=   None    Shift=    0.000
 RMSDP=6.93D-07 MaxDP=5.68D-05 DE=-2.96D-09 OVMax= 7.89D-05

 Cycle  18  Pass 1  IDiag  1:
 RMSU=  3.21D-07    CP:  9.49D-01  8.64D-02  4.77D-01  7.16D-02  1.04D+00
                    CP:  7.58D-01  8.70D-01  1.23D+00  2.17D+00  2.35D+00
                    CP:  2.51D+00  2.94D+00  3.00D+00  2.59D+00  1.67D+00
                    CP:  8.52D-01  9.66D-01
 E= -1721.53229425890     Delta-E=       -0.000000000635 Rises=F Damp=F
 DIIS: error= 2.42D-07 at cycle  18 NSaved=  18.
 NSaved=18 IEnMin=18 EnMin= -1721.53229425890     IErMin=18 ErrMin= 2.42D-07
 ErrMax= 2.42D-07  0.00D+00 EMaxC= 1.00D-01 BMatC= 2.73D-10 BMatP= 3.66D-09
 IDIUse=1 WtCom= 1.00D+00 WtEn= 0.00D+00
 Coeff-Com:  0.137D-05-0.868D-06 0.621D-08 0.154D-06 0.233D-04 0.625D-04
 Coeff-Com:  0.709D-04-0.584D-03-0.142D-02-0.407D-03 0.520D-02 0.241D-01
 Coeff-Com: -0.834D-02-0.215D-01-0.591D-01 0.623D-01 0.253D+00 0.747D+00
 Coeff:      0.137D-05-0.868D-06 0.621D-08 0.154D-06 0.233D-04 0.625D-04
 Coeff:      0.709D-04-0.584D-03-0.142D-02-0.407D-03 0.520D-02 0.241D-01
 Coeff:     -0.834D-02-0.215D-01-0.591D-01 0.623D-01 0.253D+00 0.747D+00
 Gap=     0.044 Goal=   None    Shift=    0.000
 Gap=     0.018 Goal=   None    Shift=    0.000
 RMSDP=2.97D-07 MaxDP=2.38D-05 DE=-6.35D-10 OVMax= 3.67D-05

 Cycle  19  Pass 1  IDiag  1:
 RMSU=  1.02D-07    CP:  9.49D-01  8.64D-02  4.77D-01  7.16D-02  1.04D+00
                    CP:  7.58D-01  8.70D-01  1.23D+00  2.17D+00  2.35D+00
                    CP:  2.51D+00  2.94D+00  3.00D+00  2.60D+00  1.69D+00
                    CP:  8.69D-01  1.00D+00  1.06D+00
 E= -1721.53229425889     Delta-E=        0.000000000013 Rises=F Damp=F
 DIIS: error= 8.15D-08 at cycle  19 NSaved=  19.
 NSaved=19 IEnMin=18 EnMin= -1721.53229425890     IErMin=19 ErrMin= 8.15D-08
 ErrMax= 8.15D-08  0.00D+00 EMaxC= 1.00D-01 BMatC= 1.40D-11 BMatP= 2.73D-10
 IDIUse=1 WtCom= 1.00D+00 WtEn= 0.00D+00
 Coeff-Com: -0.204D-05 0.167D-05 0.390D-06 0.785D-07-0.313D-05 0.135D-04
 Coeff-Com:  0.395D-04 0.893D-04 0.735D-04-0.442D-03-0.187D-03 0.786D-02
 Coeff-Com:  0.149D-02-0.725D-02-0.318D-01 0.126D-01 0.632D-01 0.195D+00
 Coeff-Com:  0.759D+00
 Coeff:     -0.204D-05 0.167D-05 0.390D-06 0.785D-07-0.313D-05 0.135D-04
 Coeff:      0.395D-04 0.893D-04 0.735D-04-0.442D-03-0.187D-03 0.786D-02
 Coeff:      0.149D-02-0.725D-02-0.318D-01 0.126D-01 0.632D-01 0.195D+00
 Coeff:      0.759D+00
 Gap=     0.044 Goal=   None    Shift=    0.000
 Gap=     0.018 Goal=   None    Shift=    0.000
 RMSDP=7.97D-08 MaxDP=7.13D-06 DE= 1.32D-11 OVMax= 8.33D-06

 Cycle  20  Pass 1  IDiag  1:
 RMSU=  3.59D-08    CP:  9.49D-01  8.64D-02  4.77D-01  7.16D-02  1.04D+00
                    CP:  7.58D-01  8.70D-01  1.23D+00  2.17D+00  2.35D+00
                    CP:  2.51D+00  2.95D+00  3.00D+00  2.60D+00  1.69D+00
                    CP:  8.72D-01  1.01D+00  1.17D+00  1.13D+00
 E= -1721.53229425890     Delta-E=       -0.000000000014 Rises=F Damp=F
 DIIS: error= 5.52D-08 at cycle  20 NSaved=  20.
 NSaved=20 IEnMin=20 EnMin= -1721.53229425890     IErMin=20 ErrMin= 5.52D-08
 ErrMax= 5.52D-08  0.00D+00 EMaxC= 1.00D-01 BMatC= 6.26D-12 BMatP= 1.40D-11
 IDIUse=1 WtCom= 1.00D+00 WtEn= 0.00D+00
 Coeff-Com: -0.468D-06 0.304D-06 0.194D-07-0.176D-07-0.803D-05-0.189D-04
 Coeff-Com: -0.110D-04 0.260D-03 0.646D-03-0.625D-04-0.232D-02-0.437D-02
 Coeff-Com:  0.461D-02 0.374D-02 0.312D-02-0.273D-02-0.431D-01-0.201D+00
 Coeff-Com: -0.282D+00 0.152D+01
 Coeff:     -0.468D-06 0.304D-06 0.194D-07-0.176D-07-0.803D-05-0.189D-04
 Coeff:     -0.110D-04 0.260D-03 0.646D-03-0.625D-04-0.232D-02-0.437D-02
 Coeff:      0.461D-02 0.374D-02 0.312D-02-0.273D-02-0.431D-01-0.201D+00
 Coeff:     -0.282D+00 0.152D+01
 Gap=     0.044 Goal=   None    Shift=    0.000
 Gap=     0.018 Goal=   None    Shift=    0.000
 RMSDP=9.43D-08 MaxDP=6.40D-06 DE=-1.36D-11 OVMax= 1.14D-05

 Cycle  21  Pass 1  IDiag  1:
 Restarting incremental Fock formation.
 E= -1721.53229425891     Delta-E=       -0.000000000009 Rises=F Damp=F
 DIIS: error= 2.30D-08 at cycle  21 NSaved=  20.
 NSaved=20 IEnMin=20 EnMin= -1721.53229425891     IErMin=20 ErrMin= 2.30D-08
 ErrMax= 2.30D-08  0.00D+00 EMaxC= 1.00D-01 BMatC= 1.25D-12 BMatP= 6.26D-12
 IDIUse=1 WtCom= 1.00D+00 WtEn= 0.00D+00
 Coeff-Com:  0.211D-06-0.259D-06-0.698D-07-0.290D-05-0.887D-05-0.610D-05
 Coeff-Com:  0.120D-03 0.342D-03 0.926D-05-0.119D-02-0.236D-02 0.267D-02
 Coeff-Com:  0.209D-02 0.136D-02-0.129D-02-0.182D-01-0.882D-01-0.292D+00
 Coeff-Com:  0.753D+00 0.644D+00
 Coeff:      0.211D-06-0.259D-06-0.698D-07-0.290D-05-0.887D-05-0.610D-05
 Coeff:      0.120D-03 0.342D-03 0.926D-05-0.119D-02-0.236D-02 0.267D-02
 Coeff:      0.209D-02 0.136D-02-0.129D-02-0.182D-01-0.882D-01-0.292D+00
 Coeff:      0.753D+00 0.644D+00
 Gap=     0.044 Goal=   None    Shift=    0.000
 Gap=     0.018 Goal=   None    Shift=    0.000
 RMSDP=2.39D-08 MaxDP=1.72D-06 DE=-8.64D-12 OVMax= 3.14D-06

 Cycle  22  Pass 1  IDiag  1:
 RMSU=  2.34D-08    CP:  1.00D+00
 E= -1721.53229425889     Delta-E=        0.000000000020 Rises=F Damp=F
 DIIS: error= 1.23D-08 at cycle  22 NSaved=  20.
 NSaved=20 IEnMin=19 EnMin= -1721.53229425891     IErMin=20 ErrMin= 1.23D-08
 ErrMax= 1.23D-08  0.00D+00 EMaxC= 1.00D-01 BMatC= 3.68D-13 BMatP= 1.25D-12
 IDIUse=1 WtCom= 1.00D+00 WtEn= 0.00D+00
 Coeff-Com:  0.661D-07-0.939D-08 0.124D-06-0.105D-06 0.969D-06 0.137D-04
 Coeff-Com:  0.621D-04 0.204D-04-0.154D-03-0.839D-04 0.593D-03 0.106D-03
 Coeff-Com: -0.140D-02-0.582D-03 0.399D-02 0.183D-01-0.136D+00-0.290D-01
 Coeff-Com:  0.394D+00 0.750D+00
 Coeff:      0.661D-07-0.939D-08 0.124D-06-0.105D-06 0.969D-06 0.137D-04
 Coeff:      0.621D-04 0.204D-04-0.154D-03-0.839D-04 0.593D-03 0.106D-03
 Coeff:     -0.140D-02-0.582D-03 0.399D-02 0.183D-01-0.136D+00-0.290D-01
 Coeff:      0.394D+00 0.750D+00
 Gap=     0.044 Goal=   None    Shift=    0.000
 Gap=     0.018 Goal=   None    Shift=    0.000
 RMSDP=1.67D-08 MaxDP=1.36D-06 DE= 1.96D-11 OVMax= 2.14D-06

 Cycle  23  Pass 1  IDiag  1:
 RMSU=  1.08D-08    CP:  1.00D+00  1.50D+00
 E= -1721.53229425892     Delta-E=       -0.000000000026 Rises=F Damp=F
 DIIS: error= 2.62D-09 at cycle  23 NSaved=  20.
 NSaved=20 IEnMin=20 EnMin= -1721.53229425892     IErMin=20 ErrMin= 2.62D-09
 ErrMax= 2.62D-09  0.00D+00 EMaxC= 1.00D-01 BMatC= 3.41D-14 BMatP= 3.68D-13
 IDIUse=1 WtCom= 1.00D+00 WtEn= 0.00D+00
 Coeff-Com:  0.228D-07 0.620D-06 0.109D-05 0.550D-06-0.160D-04-0.336D-04
 Coeff-Com:  0.130D-04 0.147D-03 0.401D-03-0.286D-03-0.365D-03-0.755D-03
 Coeff-Com:  0.629D-03 0.539D-02 0.220D-01-0.190D-01-0.128D+00 0.233D-01
 Coeff-Com:  0.271D+00 0.826D+00
 Coeff:      0.228D-07 0.620D-06 0.109D-05 0.550D-06-0.160D-04-0.336D-04
 Coeff:      0.130D-04 0.147D-03 0.401D-03-0.286D-03-0.365D-03-0.755D-03
 Coeff:      0.629D-03 0.539D-02 0.220D-01-0.190D-01-0.128D+00 0.233D-01
 Coeff:      0.271D+00 0.826D+00
 Gap=     0.044 Goal=   None    Shift=    0.000
 Gap=     0.018 Goal=   None    Shift=    0.000
 RMSDP=6.00D-09 MaxDP=5.22D-07 DE=-2.59D-11 OVMax= 6.38D-07

 SCF Done:  E(UO-PBE) =  -1721.53229426     A.U. after   23 cycles
            NFock= 23  Conv=0.60D-08     -V/T= 2.0008
 <Sx>= 0.0000 <Sy>= 0.0000 <Sz>= 2.0000 <S**2>= 6.0108 S= 2.0022
 <L.S>=  0.00000000000    
 KE= 1.720123917156D+03 PE=-5.597535828756D+03 EE= 1.388091317122D+03
 Annihilation of the first spin contaminant:
 S**2 before annihilation     6.0108,   after     6.0000
 Leave Link  502 at Wed Mar  5 18:43:12 2025, MaxMem= 13421772800 cpu:            9530.2 elap:              79.2
 (Enter /gpfs/fs1/soft/improv/software/custom-built/gaussian/g16/l508.exe)
 QCSCF skips out because SCF is already converged.
 Leave Link  508 at Wed Mar  5 18:43:13 2025, MaxMem= 13421772800 cpu:               0.3 elap:               0.0
 (Enter /gpfs/fs1/soft/improv/software/custom-built/gaussian/g16/l801.exe)
 DoSCS=F DFT=T ScalE2(SS,OS)=  1.000000  1.000000
 Range of M.O.s used for correlation:     1   317
 NBasis=   317 NAE=    44 NBE=    40 NFC=     0 NFV=     0
 NROrb=    317 NOA=    44 NOB=    40 NVA=   273 NVB=   277

 **** Warning!!: The largest alpha MO coefficient is  0.19493689D+03


 **** Warning!!: The smallest alpha delta epsilon is  0.44418752D-01


 **** Warning!!: The largest beta MO coefficient is  0.24154936D+03


 **** Warning!!: The smallest beta delta epsilon is  0.18365722D-01

 Leave Link  801 at Wed Mar  5 18:43:13 2025, MaxMem= 13421772800 cpu:               0.4 elap:               0.0
 (Enter /gpfs/fs1/soft/improv/software/custom-built/gaussian/g16/l1101.exe)
 Using compressed storage, NAtomX=    19.
 Will process     20 centers per pass.
 Leave Link 1101 at Wed Mar  5 18:43:13 2025, MaxMem= 13421772800 cpu:              51.8 elap:               0.5
 (Enter /gpfs/fs1/soft/improv/software/custom-built/gaussian/g16/l1102.exe)
 Symmetrizing basis deriv contribution to polar:
 IMax=3 JMax=2 DiffMx= 0.00D+00
 Leave Link 1102 at Wed Mar  5 18:43:13 2025, MaxMem= 13421772800 cpu:               1.0 elap:               0.0
 (Enter /gpfs/fs1/soft/improv/software/custom-built/gaussian/g16/l1110.exe)
 Forming Gx(P) for the SCF density, NAtomX=    19.
 Integral derivatives from FoFJK, PRISM(SPDF).
 Do as many integral derivatives as possible in FoFJK.
 G2DrvN: MDV=   13421770631.
 G2DrvN: will do    20 centers at a time, making    1 passes.
 Calling FoFCou, ICntrl=  3507 FMM=F I1Cent=   0 AccDes= 0.00D+00.
 FoFJK:  IHMeth= 1 ICntrl=    3507 DoSepK=F KAlg= 0 I1Cent=           0 FoldK=F
 IRaf=         0 NMat=       1 IRICut=       1 DoRegI=T DoRafI=F ISym2E= 0 IDoP0=0 IntGTp=1.
 FoFCou: FMM=F IPFlag=           0 FMFlag=      100000 FMFlg1=           0
         NFxFlg=           0 DoJE=F BraDBF=F KetDBF=F FulRan=T
         wScrn=  0.000000 ICntrl=      3507 IOpCl=  0 I1Cent=           0 NGrid=           0
         NMat0=    1 NMatS0=      1 NMatT0=    0 NMatD0=    1 NMtDS0=    0 NMtDT0=    0
 Symmetry not used in FoFCou.
 End of G2Drv F.D. properties file   721 does not exist.
 End of G2Drv F.D. properties file   722 does not exist.
 End of G2Drv F.D. properties file   788 does not exist.
 Leave Link 1110 at Wed Mar  5 18:43:28 2025, MaxMem= 13421772800 cpu:            1753.4 elap:              14.1
 (Enter /gpfs/fs1/soft/improv/software/custom-built/gaussian/g16/l1002.exe)
 Minotr:  UHF open shell wavefunction.
          IDoAtm=1111111111111111111
          Direct CPHF calculation.
          Differentiating once with respect to electric field.
                with respect to dipole field.
          Differentiating once with respect to nuclear coordinates.
          Requested convergence is 1.0D-08 RMS, and 1.0D-07 maximum.
          Secondary convergence is 1.0D-12 RMS, and 1.0D-12 maximum.
          NewPWx=T KeepS1=F KeepF1=F KeepIn=T MapXYZ=F SortEE=F KeepMc=T.
         6034 words used for storage of precomputed grid.
 Two-electron integrals replicated using symmetry.
          MDV=   13421772800 using IRadAn=       1.
          Solving linear equations simultaneously, MaxMat=     384.
 FoF2E skips out because all densities are zero.
 CalDSu exits because no D1Ps are significant.
 FoFJK:  IHMeth= 1 ICntrl=     500 DoSepK=F KAlg= 0 I1Cent=           0 FoldK=F
 IRaf= 990000000 NMat=      57 IRICut=       1 DoRegI=T DoRafI=F ISym2E= 2 IDoP0=3 IntGTp=2.
 FoFCou: FMM=F IPFlag=           0 FMFlag=      100000 FMFlg1=           0
         NFxFlg=           0 DoJE=F BraDBF=F KetDBF=F FulRan=T
         wScrn=  0.000000 ICntrl=       500 IOpCl=  0 I1Cent=           0 NGrid=           0
         NMat0=   57 NMatS0=     57 NMatT0=    0 NMatD0=   57 NMtDS0=    0 NMtDT0=    0
 Integrals replicated using symmetry in FoFCou.
          There are    60 degrees of freedom in the 1st order CPHF.  IDoFFX=6 NUNeed=     3.
     57 vectors produced by pass  0 Test12= 3.85D-14 1.67D-09 XBig12= 1.23D+02 3.31D+00.
 AX will form    57 AO Fock derivatives at one time.
     57 vectors produced by pass  1 Test12= 3.85D-14 1.67D-09 XBig12= 9.39D+00 5.43D-01.
     57 vectors produced by pass  2 Test12= 3.85D-14 1.67D-09 XBig12= 8.50D-02 2.45D-02.
     57 vectors produced by pass  3 Test12= 3.85D-14 1.67D-09 XBig12= 8.49D-04 4.46D-03.
     57 vectors produced by pass  4 Test12= 3.85D-14 1.67D-09 XBig12= 6.72D-06 2.72D-04.
     57 vectors produced by pass  5 Test12= 3.85D-14 1.67D-09 XBig12= 1.97D-08 9.69D-06.
     31 vectors produced by pass  6 Test12= 3.85D-14 1.67D-09 XBig12= 5.80D-11 5.21D-07.
      4 vectors produced by pass  7 Test12= 3.85D-14 1.67D-09 XBig12= 1.21D-13 2.73D-08.
 InvSVY:  IOpt=1 It=  1 EMax= 5.33D-15
 Solved reduced A of dimension   377 with    60 vectors.
 FullF1:  Do perturbations      1 to       3.
 Isotropic polarizability for W=    0.000000       58.66 Bohr**3.
 End of Minotr F.D. properties file   721 does not exist.
 End of Minotr F.D. properties file   722 does not exist.
 End of Minotr F.D. properties file   788 does not exist.
 Leave Link 1002 at Wed Mar  5 18:44:10 2025, MaxMem= 13421772800 cpu:            5079.5 elap:              42.7
 (Enter /gpfs/fs1/soft/improv/software/custom-built/gaussian/g16/l601.exe)
 Copying SCF densities to generalized density rwf, IOpCl= 1 IROHF=0.

 **********************************************************************

            Population analysis using the SCF Density.

 **********************************************************************

 Orbital symmetries:
 Alpha Orbitals:
       Occupied  (A) (A) (A) (A) (A) (A) (A) (A) (A) (A) (A) (A)
                 (A) (A) (A) (A) (A) (A) (A) (A) (A) (A) (A) (A)
                 (A) (A) (A) (A) (A) (A) (A) (A) (A) (A) (A) (A)
                 (A) (A) (A) (A) (A) (A) (A) (A)
       Virtual   (A) (A) (A) (A) (A) (A) (A) (A) (A) (A) (A) (A)
                 (A) (A) (A) (A) (A) (A) (A) (A) (A) (A) (A) (A)
                 (A) (A) (A) (A) (A) (A) (A) (A) (A) (A) (A) (A)
                 (A) (A) (A) (A) (A) (A) (A) (A) (A) (A) (A) (A)
                 (A) (A) (A) (A) (A) (A) (A) (A) (A) (A) (A) (A)
                 (A) (A) (A) (A) (A) (A) (A) (A) (A) (A) (A) (A)
                 (A) (A) (A) (A) (A) (A) (A) (A) (A) (A) (A) (A)
                 (A) (A) (A) (A) (A) (A) (A) (A) (A) (A) (A) (A)
                 (A) (A) (A) (A) (A) (A) (A) (A) (A) (A) (A) (A)
                 (A) (A) (A) (A) (A) (A) (A) (A) (A) (A) (A) (A)
                 (A) (A) (A) (A) (A) (A) (A) (A) (A) (A) (A) (A)
                 (A) (A) (A) (A) (A) (A) (A) (A) (A) (A) (A) (A)
                 (A) (A) (A) (A) (A) (A) (A) (A) (A) (A) (A) (A)
                 (A) (A) (A) (A) (A) (A) (A) (A) (A) (A) (A) (A)
                 (A) (A) (A) (A) (A) (A) (A) (A) (A) (A) (A) (A)
                 (A) (A) (A) (A) (A) (A) (A) (A) (A) (A) (A) (A)
                 (A) (A) (A) (A) (A) (A) (A) (A) (A) (A) (A) (A)
                 (A) (A) (A) (A) (A) (A) (A) (A) (A) (A) (A) (A)
                 (A) (A) (A) (A) (A) (A) (A) (A) (A) (A) (A) (A)
                 (A) (A) (A) (A) (A) (A) (A) (A) (A) (A) (A) (A)
                 (A) (A) (A) (A) (A) (A) (A) (A) (A) (A) (A) (A)
                 (A) (A) (A) (A) (A) (A) (A) (A) (A) (A) (A) (A)
                 (A) (A) (A) (A) (A) (A) (A) (A) (A)
 Beta  Orbitals:
       Occupied  (A) (A) (A) (A) (A) (A) (A) (A) (A) (A) (A) (A)
                 (A) (A) (A) (A) (A) (A) (A) (A) (A) (A) (A) (A)
                 (A) (A) (A) (A) (A) (A) (A) (A) (A) (A) (A) (A)
                 (A) (A) (A) (A)
       Virtual   (A) (A) (A) (A) (A) (A) (A) (A) (A) (A) (A) (A)
                 (A) (A) (A) (A) (A) (A) (A) (A) (A) (A) (A) (A)
                 (A) (A) (A) (A) (A) (A) (A) (A) (A) (A) (A) (A)
                 (A) (A) (A) (A) (A) (A) (A) (A) (A) (A) (A) (A)
                 (A) (A) (A) (A) (A) (A) (A) (A) (A) (A) (A) (A)
                 (A) (A) (A) (A) (A) (A) (A) (A) (A) (A) (A) (A)
                 (A) (A) (A) (A) (A) (A) (A) (A) (A) (A) (A) (A)
                 (A) (A) (A) (A) (A) (A) (A) (A) (A) (A) (A) (A)
                 (A) (A) (A) (A) (A) (A) (A) (A) (A) (A) (A) (A)
                 (A) (A) (A) (A) (A) (A) (A) (A) (A) (A) (A) (A)
                 (A) (A) (A) (A) (A) (A) (A) (A) (A) (A) (A) (A)
                 (A) (A) (A) (A) (A) (A) (A) (A) (A) (A) (A) (A)
                 (A) (A) (A) (A) (A) (A) (A) (A) (A) (A) (A) (A)
                 (A) (A) (A) (A) (A) (A) (A) (A) (A) (A) (A) (A)
                 (A) (A) (A) (A) (A) (A) (A) (A) (A) (A) (A) (A)
                 (A) (A) (A) (A) (A) (A) (A) (A) (A) (A) (A) (A)
                 (A) (A) (A) (A) (A) (A) (A) (A) (A) (A) (A) (A)
                 (A) (A) (A) (A) (A) (A) (A) (A) (A) (A) (A) (A)
                 (A) (A) (A) (A) (A) (A) (A) (A) (A) (A) (A) (A)
                 (A) (A) (A) (A) (A) (A) (A) (A) (A) (A) (A) (A)
                 (A) (A) (A) (A) (A) (A) (A) (A) (A) (A) (A) (A)
                 (A) (A) (A) (A) (A) (A) (A) (A) (A) (A) (A) (A)
                 (A) (A) (A) (A) (A) (A) (A) (A) (A) (A) (A) (A)
                 (A)
 The electronic state is 5-A.
 Alpha  occ. eigenvalues -- -254.91723 -29.90635 -25.85527 -25.84027 -25.82507
 Alpha  occ. eigenvalues --  -19.17332 -19.17079 -19.16309 -19.15849 -19.13802
 Alpha  occ. eigenvalues --  -19.13417  -3.66931  -2.51339  -2.48205  -2.45106
 Alpha  occ. eigenvalues --   -1.37733  -1.35450  -1.35014  -1.34458  -1.32520
 Alpha  occ. eigenvalues --   -1.32072  -0.92588  -0.91262  -0.89682  -0.89108
 Alpha  occ. eigenvalues --   -0.87259  -0.86147  -0.81936  -0.80147  -0.79450
 Alpha  occ. eigenvalues --   -0.76674  -0.76361  -0.73967  -0.73230  -0.69939
 Alpha  occ. eigenvalues --   -0.68756  -0.67420  -0.65832  -0.64610  -0.56366
 Alpha  occ. eigenvalues --   -0.55025  -0.51852  -0.43842  -0.43036
 Alpha virt. eigenvalues --   -0.38594  -0.33760  -0.31620  -0.30428  -0.26802
 Alpha virt. eigenvalues --   -0.25788  -0.24799  -0.24571  -0.21917  -0.20573
 Alpha virt. eigenvalues --   -0.19763  -0.19406  -0.18413  -0.17346  -0.16382
 Alpha virt. eigenvalues --   -0.15927  -0.14650  -0.13848  -0.13620  -0.13057
 Alpha virt. eigenvalues --   -0.11070  -0.10409  -0.09290  -0.08736  -0.07920
 Alpha virt. eigenvalues --   -0.07600  -0.06342  -0.04732  -0.04109  -0.03512
 Alpha virt. eigenvalues --   -0.02904  -0.02429  -0.01261  -0.00464   0.01089
 Alpha virt. eigenvalues --    0.02539   0.03449   0.04385   0.04539   0.05847
 Alpha virt. eigenvalues --    0.06525   0.06806   0.07459   0.09255   0.09469
 Alpha virt. eigenvalues --    0.12681   0.13116   0.16460   0.17828   0.23306
 Alpha virt. eigenvalues --    0.25049   0.26221   0.26752   0.38028   0.39303
 Alpha virt. eigenvalues --    0.40725   0.42598   0.44386   0.45818   0.47487
 Alpha virt. eigenvalues --    0.48158   0.49239   0.49593   0.50351   0.50632
 Alpha virt. eigenvalues --    0.52865   0.55268   0.56179   0.56807   0.57937
 Alpha virt. eigenvalues --    0.59655   0.60745   0.61684   0.63360   0.67020
 Alpha virt. eigenvalues --    0.67664   0.68177   0.68798   0.69956   0.70198
 Alpha virt. eigenvalues --    0.70606   0.73002   0.76177   0.77124   0.77971
 Alpha virt. eigenvalues --    0.79072   0.82969   0.84736   0.86461   0.90115
 Alpha virt. eigenvalues --    0.91732   0.93502   0.94638   0.95862   0.97163
 Alpha virt. eigenvalues --    0.98508   1.01238   1.02852   1.03942   1.05488
 Alpha virt. eigenvalues --    1.06991   1.08035   1.09544   1.24531   1.25256
 Alpha virt. eigenvalues --    1.33546   1.34733   1.36371   1.37127   1.41080
 Alpha virt. eigenvalues --    1.41622   1.42920   1.43795   1.47394   1.47652
 Alpha virt. eigenvalues --    1.51927   1.52723   1.53888   1.57017   1.60248
 Alpha virt. eigenvalues --    1.64727   1.69661   1.76083   1.81640   1.83534
 Alpha virt. eigenvalues --    1.85380   1.88804   1.89042   1.92601   1.97560
 Alpha virt. eigenvalues --    1.98835   1.99297   2.01557   2.02140   2.09506
 Alpha virt. eigenvalues --    2.13653   2.14854   2.18978   2.21917   2.25441
 Alpha virt. eigenvalues --    2.28582   2.28974   2.33483   2.38253   2.41035
 Alpha virt. eigenvalues --    2.42798   2.47570   2.49960   2.51783   2.52704
 Alpha virt. eigenvalues --    2.53804   2.54698   2.57171   2.57360   2.59971
 Alpha virt. eigenvalues --    2.60823   2.61680   2.63994   2.65536   2.65948
 Alpha virt. eigenvalues --    2.67637   2.68322   2.69706   2.72047   2.75563
 Alpha virt. eigenvalues --    2.80702   2.88466   2.91453   2.94151   2.95866
 Alpha virt. eigenvalues --    3.04493   3.29812   3.59469   3.60195   3.62342
 Alpha virt. eigenvalues --    3.65375   3.66820   3.72391   3.73755   3.75314
 Alpha virt. eigenvalues --    3.79076   3.80223   3.81272   3.81697   3.86420
 Alpha virt. eigenvalues --    3.86931   3.87765   3.89617   3.90079   3.93380
 Alpha virt. eigenvalues --    3.97756   3.98444   4.00067   4.01840   4.04656
 Alpha virt. eigenvalues --    4.06201   4.07575   4.08533   4.11245   4.12237
 Alpha virt. eigenvalues --    4.13845   4.18517   4.24535   4.27542   4.30324
 Alpha virt. eigenvalues --    4.32404   4.35311   4.36572   4.37605   4.39220
 Alpha virt. eigenvalues --    4.45118   4.50562   4.51415   4.52851   4.54204
 Alpha virt. eigenvalues --    4.56307   4.59109   4.63218   4.69997   4.75361
 Alpha virt. eigenvalues --    4.77162   4.77892   4.81066   4.84281   4.91488
 Alpha virt. eigenvalues --    4.93955   4.95013   4.96138   4.96574   4.98797
 Alpha virt. eigenvalues --    4.99893   5.00869   5.02003   5.03800   5.09264
 Alpha virt. eigenvalues --    5.09942   5.15828   5.17188   5.18841   5.20406
 Alpha virt. eigenvalues --    5.22796   5.27198   5.28280   5.29892   5.33422
 Alpha virt. eigenvalues --    5.35479   5.37629   5.39575   5.41268   5.42629
 Alpha virt. eigenvalues --    5.45008   5.46146   5.48042   5.48353   5.51765
 Alpha virt. eigenvalues --    5.55629   5.57455   5.70047   5.71351   6.13391
 Alpha virt. eigenvalues --    7.04934   7.07895   7.08968   7.17032   7.19906
 Alpha virt. eigenvalues --    7.34577  13.43169  13.45510  13.46355  14.01340
 Alpha virt. eigenvalues --   14.06761  14.11854  25.69836
  Beta  occ. eigenvalues -- -254.91667 -29.83439 -25.79601 -25.78762 -25.77880
  Beta  occ. eigenvalues --  -19.17159 -19.16897 -19.16137 -19.15695 -19.13596
  Beta  occ. eigenvalues --  -19.13220  -3.50877  -2.33272  -2.32383  -2.31219
  Beta  occ. eigenvalues --   -1.37257  -1.35008  -1.34542  -1.34018  -1.32005
  Beta  occ. eigenvalues --   -1.31548  -0.92268  -0.90820  -0.89403  -0.88772
  Beta  occ. eigenvalues --   -0.86909  -0.85834  -0.80752  -0.78265  -0.76962
  Beta  occ. eigenvalues --   -0.75607  -0.75253  -0.72614  -0.72115  -0.68918
  Beta  occ. eigenvalues --   -0.67543  -0.66247  -0.64757  -0.63836  -0.43415
  Beta virt. eigenvalues --   -0.41578  -0.40486  -0.38281  -0.33572  -0.31687
  Beta virt. eigenvalues --   -0.30861  -0.30239  -0.29898  -0.26194  -0.25045
  Beta virt. eigenvalues --   -0.24422  -0.24075  -0.21546  -0.20311  -0.19561
  Beta virt. eigenvalues --   -0.19048  -0.18078  -0.17133  -0.16137  -0.15518
  Beta virt. eigenvalues --   -0.14288  -0.13524  -0.13381  -0.12609  -0.10772
  Beta virt. eigenvalues --   -0.10123  -0.08980  -0.08518  -0.07610  -0.07334
  Beta virt. eigenvalues --   -0.06081  -0.04427  -0.03625  -0.03140  -0.02514
  Beta virt. eigenvalues --   -0.02085  -0.00989  -0.00039   0.01434   0.02905
  Beta virt. eigenvalues --    0.03972   0.04771   0.05463   0.06368   0.07636
  Beta virt. eigenvalues --    0.07753   0.08277   0.09955   0.10425   0.13839
  Beta virt. eigenvalues --    0.14482   0.18403   0.19161   0.25252   0.26355
  Beta virt. eigenvalues --    0.26645   0.27455   0.38524   0.39734   0.41313
  Beta virt. eigenvalues --    0.43391   0.44794   0.46130   0.47973   0.48799
  Beta virt. eigenvalues --    0.49652   0.50103   0.50785   0.51302   0.53104
  Beta virt. eigenvalues --    0.55624   0.56821   0.57387   0.58405   0.59981
  Beta virt. eigenvalues --    0.61101   0.62070   0.63773   0.67798   0.68245
  Beta virt. eigenvalues --    0.68938   0.69313   0.70590   0.70856   0.71243
  Beta virt. eigenvalues --    0.73733   0.76735   0.77731   0.78605   0.79631
  Beta virt. eigenvalues --    0.83813   0.85396   0.87801   0.91036   0.92628
  Beta virt. eigenvalues --    0.94356   0.96329   0.96967   0.98319   0.99723
  Beta virt. eigenvalues --    1.01936   1.04503   1.05736   1.07320   1.08268
  Beta virt. eigenvalues --    1.09497   1.11950   1.27337   1.27672   1.35920
  Beta virt. eigenvalues --    1.36564   1.37919   1.38548   1.43845   1.44569
  Beta virt. eigenvalues --    1.46022   1.47102   1.49990   1.50485   1.54242
  Beta virt. eigenvalues --    1.56248   1.58166   1.59733   1.62648   1.65621
  Beta virt. eigenvalues --    1.71896   1.77414   1.82087   1.83989   1.86047
  Beta virt. eigenvalues --    1.89211   1.89755   1.93240   1.98261   1.99650
  Beta virt. eigenvalues --    2.00356   2.02147   2.02727   2.10204   2.15189
  Beta virt. eigenvalues --    2.15544   2.19953   2.22639   2.27257   2.29747
  Beta virt. eigenvalues --    2.30656   2.35105   2.40129   2.42810   2.44743
  Beta virt. eigenvalues --    2.49548   2.51720   2.53379   2.54324   2.55258
  Beta virt. eigenvalues --    2.55806   2.58062   2.58502   2.60674   2.62078
  Beta virt. eigenvalues --    2.62551   2.65282   2.66605   2.68666   2.69882
  Beta virt. eigenvalues --    2.70410   2.71682   2.74488   2.76730   2.81424
  Beta virt. eigenvalues --    2.89950   2.92336   2.98506   3.00255   3.07923
  Beta virt. eigenvalues --    3.33253   3.61143   3.62285   3.64902   3.66477
  Beta virt. eigenvalues --    3.67796   3.73122   3.74723   3.76187   3.80257
  Beta virt. eigenvalues --    3.81824   3.82400   3.87358   3.89175   3.89520
  Beta virt. eigenvalues --    3.89747   3.92246   3.94397   3.95314   4.01369
  Beta virt. eigenvalues --    4.01913   4.04826   4.06680   4.07446   4.10068
  Beta virt. eigenvalues --    4.12213   4.13341   4.13523   4.16285   4.16450
  Beta virt. eigenvalues --    4.20124   4.33440   4.34051   4.34882   4.35705
  Beta virt. eigenvalues --    4.39655   4.40811   4.42698   4.43561   4.48600
  Beta virt. eigenvalues --    4.53480   4.54070   4.55505   4.57325   4.59897
  Beta virt. eigenvalues --    4.61751   4.68040   4.71553   4.77559   4.78450
  Beta virt. eigenvalues --    4.79639   4.82510   4.85949   4.93537   4.94543
  Beta virt. eigenvalues --    4.95494   4.96892   4.97233   4.99568   5.00649
  Beta virt. eigenvalues --    5.02333   5.04668   5.07001   5.11733   5.12364
  Beta virt. eigenvalues --    5.17532   5.18970   5.20282   5.22386   5.25826
  Beta virt. eigenvalues --    5.29925   5.31151   5.32404   5.35864   5.37474
  Beta virt. eigenvalues --    5.39297   5.41675   5.43233   5.44580   5.46440
  Beta virt. eigenvalues --    5.47956   5.49866   5.50253   5.52713   5.56365
  Beta virt. eigenvalues --    5.58214   5.71706   5.72831   6.17266   7.05800
  Beta virt. eigenvalues --    7.08756   7.09786   7.17800   7.20678   7.35126
  Beta virt. eigenvalues --   13.43643  13.45985  13.46820  14.01794  14.07276
  Beta virt. eigenvalues --   14.12343  25.79583
          Condensed to atoms (all electrons):
               1          2          3          4          5          6
     1  Fe  25.282378  -0.084471  -0.013839  -0.034171  -0.009580  -0.067233
     2  O   -0.084471   8.510288   0.310886  -0.104300   0.000852  -0.100994
     3  H   -0.013839   0.310886   0.281817   0.001013  -0.000011   0.005110
     4  O   -0.034171  -0.104300   0.001013   8.454909   0.303900  -0.113944
     5  H   -0.009580   0.000852  -0.000011   0.303900   0.306083   0.008223
     6  O   -0.067233  -0.100994   0.005110  -0.113944   0.008223   8.474843
     7  H   -0.017098   0.002380  -0.000017  -0.002339  -0.000463   0.298818
     8  O   -0.083403   0.082191  -0.001411  -0.114580   0.003485  -0.121472
     9  H   -0.006112  -0.001405  -0.000019   0.002738  -0.000106   0.001594
    10  O   -0.017563  -0.090603   0.002413   0.068976  -0.001672  -0.115318
    11  H   -0.016249   0.001656  -0.000675  -0.000727   0.000007  -0.000212
    12  O   -0.066424  -0.115421   0.006867  -0.086841   0.002283   0.086103
    13  H   -0.022086   0.005808  -0.000064   0.003680  -0.000055  -0.001395
    14  H   -0.006015   0.001285  -0.000223   0.001961  -0.000024  -0.001977
    15  H   -0.013342   0.001396  -0.000128   0.317324  -0.024614  -0.005580
    16  H   -0.009934   0.299257  -0.017526   0.004147  -0.000106   0.000587
    17  H   -0.017113   0.001816   0.000203  -0.001652  -0.000014   0.003102
    18  H   -0.015930  -0.000459  -0.000106   0.012751  -0.001349   0.302379
    19  H   -0.015785  -0.001601   0.000019  -0.002531   0.000971   0.009381
               7          8          9         10         11         12
     1  Fe  -0.017098  -0.083403  -0.006112  -0.017563  -0.016249  -0.066424
     2  O    0.002380   0.082191  -0.001405  -0.090603   0.001656  -0.115421
     3  H   -0.000017  -0.001411  -0.000019   0.002413  -0.000675   0.006867
     4  O   -0.002339  -0.114580   0.002738   0.068976  -0.000727  -0.086841
     5  H   -0.000463   0.003485  -0.000106  -0.001672   0.000007   0.002283
     6  O    0.298818  -0.121472   0.001594  -0.115318  -0.000212   0.086103
     7  H    0.337925   0.009602  -0.001361   0.000209  -0.000333  -0.002226
     8  O    0.009602   8.479210   0.303324  -0.077092  -0.006747  -0.105250
     9  H   -0.001361   0.303324   0.300180   0.003118   0.002114  -0.001206
    10  O    0.000209  -0.077092   0.003118   8.426907   0.314533  -0.126881
    11  H   -0.000333  -0.006747   0.002114   0.314533   0.312705   0.001898
    12  O   -0.002226  -0.105250  -0.001206  -0.126881   0.001898   8.500352
    13  H    0.000031   0.005262  -0.000175   0.001775  -0.000390   0.314215
    14  H   -0.000071  -0.000829   0.002035   0.002681   0.004834   0.292992
    15  H   -0.000123  -0.000118  -0.000006  -0.000913   0.000013   0.002008
    16  H   -0.000458  -0.001715   0.000019   0.003012   0.000092   0.000831
    17  H    0.003011   0.005723  -0.002070   0.310236  -0.027820   0.000937
    18  H   -0.026207  -0.000340   0.000127   0.002235   0.000030  -0.001812
    19  H    0.007862   0.301253  -0.021257  -0.001622  -0.000197   0.003296
              13         14         15         16         17         18
     1  Fe  -0.022086  -0.006015  -0.013342  -0.009934  -0.017113  -0.015930
     2  O    0.005808   0.001285   0.001396   0.299257   0.001816  -0.000459
     3  H   -0.000064  -0.000223  -0.000128  -0.017526   0.000203  -0.000106
     4  O    0.003680   0.001961   0.317324   0.004147  -0.001652   0.012751
     5  H   -0.000055  -0.000024  -0.024614  -0.000106  -0.000014  -0.001349
     6  O   -0.001395  -0.001977  -0.005580   0.000587   0.003102   0.302379
     7  H    0.000031  -0.000071  -0.000123  -0.000458   0.003011  -0.026207
     8  O    0.005262  -0.000829  -0.000118  -0.001715   0.005723  -0.000340
     9  H   -0.000175   0.002035  -0.000006   0.000019  -0.002070   0.000127
    10  O    0.001775   0.002681  -0.000913   0.003012   0.310236   0.002235
    11  H   -0.000390   0.004834   0.000013   0.000092  -0.027820   0.000030
    12  O    0.314215   0.292992   0.002008   0.000831   0.000937  -0.001812
    13  H    0.284902  -0.020605  -0.000497  -0.000157   0.000004  -0.000040
    14  H   -0.020605   0.333719   0.000050   0.000023  -0.000403   0.000034
    15  H   -0.000497   0.000050   0.295670   0.001407  -0.000001   0.002015
    16  H   -0.000157   0.000023   0.001407   0.311559  -0.000124   0.001434
    17  H    0.000004  -0.000403  -0.000001  -0.000124   0.310300  -0.000339
    18  H   -0.000040   0.000034   0.002015   0.001434  -0.000339   0.310565
    19  H    0.000005  -0.000473  -0.000153  -0.000060   0.000160  -0.002029
              19
     1  Fe  -0.015785
     2  O   -0.001601
     3  H    0.000019
     4  O   -0.002531
     5  H    0.000971
     6  O    0.009381
     7  H    0.007862
     8  O    0.301253
     9  H   -0.021257
    10  O   -0.001622
    11  H   -0.000197
    12  O    0.003296
    13  H    0.000005
    14  H   -0.000473
    15  H   -0.000153
    16  H   -0.000060
    17  H    0.000160
    18  H   -0.002029
    19  H    0.326444
          Atomic-Atomic Spin Densities.
               1          2          3          4          5          6
     1  Fe   4.092135  -0.067433   0.000069  -0.066114  -0.003540  -0.117288
     2  O   -0.067433   0.287482  -0.013633  -0.042592   0.000097  -0.051515
     3  H    0.000069  -0.013633   0.008213   0.000224   0.000017   0.003460
     4  O   -0.066114  -0.042592   0.000224   0.247182  -0.007420  -0.051026
     5  H   -0.003540   0.000097   0.000017  -0.007420   0.011040   0.005014
     6  O   -0.117288  -0.051515   0.003460  -0.051026   0.005014   0.329450
     7  H    0.012691   0.000747  -0.000072   0.003933  -0.000210  -0.018505
     8  O   -0.102828   0.064525  -0.001519  -0.050275   0.002712  -0.060457
     9  H    0.002267  -0.001207   0.000004   0.000573  -0.000139   0.001133
    10  O   -0.080045  -0.048255   0.002658   0.057606  -0.001343  -0.053834
    11  H    0.006613   0.001630   0.000202  -0.001003   0.000007   0.000944
    12  O   -0.077665  -0.074039   0.005870  -0.048008   0.001778   0.069778
    13  H    0.005099   0.004020  -0.000224   0.001263  -0.000148  -0.001468
    14  H    0.004838   0.001844   0.000007   0.001963  -0.000023  -0.001094
    15  H    0.002073   0.003846  -0.000037  -0.006435  -0.000935   0.001633
    16  H    0.000838  -0.004429   0.001222   0.000726  -0.000047   0.002814
    17  H   -0.000666   0.001145  -0.000269  -0.000884  -0.000004   0.001215
    18  H    0.008863   0.001317   0.000030   0.000871   0.000282  -0.013427
    19  H    0.007649  -0.001794   0.000005   0.004605   0.000203   0.005163
               7          8          9         10         11         12
     1  Fe   0.012691  -0.102828   0.002267  -0.080045   0.006613  -0.077665
     2  O    0.000747   0.064525  -0.001207  -0.048255   0.001630  -0.074039
     3  H   -0.000072  -0.001519   0.000004   0.002658   0.000202   0.005870
     4  O    0.003933  -0.050275   0.000573   0.057606  -0.001003  -0.048008
     5  H   -0.000210   0.002712  -0.000139  -0.001343   0.000007   0.001778
     6  O   -0.018505  -0.060457   0.001133  -0.053834   0.000944   0.069778
     7  H   -0.007130   0.002983   0.000446   0.004092   0.000178  -0.001861
     8  O    0.002983   0.306218  -0.010398  -0.043052   0.002492  -0.060252
     9  H    0.000446  -0.010398   0.007852   0.004364  -0.000890   0.001290
    10  O    0.004092  -0.043052   0.004364   0.268048  -0.008249  -0.049560
    11  H    0.000178   0.002492  -0.000890  -0.008249  -0.003898   0.003125
    12  O   -0.001861  -0.060252   0.001290  -0.049560   0.003125   0.320407
    13  H   -0.000003   0.003888   0.000030   0.000369   0.000075  -0.016156
    14  H    0.000038   0.003501  -0.000751   0.001424  -0.001768  -0.007978
    15  H    0.000117   0.000760   0.000003  -0.000814  -0.000002   0.001126
    16  H    0.000123  -0.000816   0.000001   0.002067  -0.000076   0.000816
    17  H   -0.000984   0.002994   0.000821  -0.004106   0.001780   0.000027
    18  H    0.006261   0.002850  -0.000109   0.000690  -0.000020  -0.001234
    19  H   -0.002844  -0.016797   0.002693   0.002133   0.000183   0.000908
              13         14         15         16         17         18
     1  Fe   0.005099   0.004838   0.002073   0.000838  -0.000666   0.008863
     2  O    0.004020   0.001844   0.003846  -0.004429   0.001145   0.001317
     3  H   -0.000224   0.000007  -0.000037   0.001222  -0.000269   0.000030
     4  O    0.001263   0.001963  -0.006435   0.000726  -0.000884   0.000871
     5  H   -0.000148  -0.000023  -0.000935  -0.000047  -0.000004   0.000282
     6  O   -0.001468  -0.001094   0.001633   0.002814   0.001215  -0.013427
     7  H   -0.000003   0.000038   0.000117   0.000123  -0.000984   0.006261
     8  O    0.003888   0.003501   0.000760  -0.000816   0.002994   0.002850
     9  H    0.000030  -0.000751   0.000003   0.000001   0.000821  -0.000109
    10  O    0.000369   0.001424  -0.000814   0.002067  -0.004106   0.000690
    11  H    0.000075  -0.001768  -0.000002  -0.000076   0.001780  -0.000020
    12  O   -0.016156  -0.007978   0.001126   0.000816   0.000027  -0.001234
    13  H    0.002529   0.003351   0.000135   0.000036   0.000001   0.000019
    14  H    0.003351  -0.004618  -0.000040  -0.000012   0.000101  -0.000009
    15  H    0.000135  -0.000040   0.003740  -0.000550   0.000012  -0.001145
    16  H    0.000036  -0.000012  -0.000550   0.001394   0.000058  -0.000909
    17  H    0.000001   0.000101   0.000012   0.000058   0.004880   0.000034
    18  H    0.000019  -0.000009  -0.001145  -0.000909   0.000034  -0.002239
    19  H   -0.000098   0.000104   0.000067   0.000018  -0.000523   0.001054
              19
     1  Fe   0.007649
     2  O   -0.001794
     3  H    0.000005
     4  O    0.004605
     5  H    0.000203
     6  O    0.005163
     7  H   -0.002844
     8  O   -0.016797
     9  H    0.002693
    10  O    0.002133
    11  H    0.000183
    12  O    0.000908
    13  H   -0.000098
    14  H    0.000104
    15  H    0.000067
    16  H    0.000018
    17  H   -0.000523
    18  H    0.001054
    19  H   -0.000429
 Mulliken charges and spin densities:
               1          2
     1  Fe   1.233970   3.627557
     2  O   -0.718563   0.061756
     3  H    0.425690   0.006227
     4  O   -0.710313   0.045189
     5  H    0.412189   0.007340
     6  O   -0.662013   0.051989
     7  H    0.390859   0.000000
     8  O   -0.677094   0.046531
     9  H    0.418470   0.007984
    10  O   -0.704431   0.054194
    11  H    0.415466   0.001323
    12  O   -0.705720   0.068372
    13  H    0.429781   0.002718
    14  H    0.391006   0.000880
    15  H    0.425591   0.003554
    16  H    0.407712   0.003273
    17  H    0.414044   0.005632
    18  H    0.417041   0.003181
    19  H    0.396316   0.002299
 Sum of Mulliken charges =   2.00000   4.00000
 Mulliken charges and spin densities with hydrogens summed into heavy atoms:
               1          2
     1  Fe   1.233970   3.627557
     2  O    0.114839   0.071256
     4  O    0.127466   0.056083
     6  O    0.145886   0.055170
     8  O    0.137692   0.056814
    10  O    0.125079   0.061150
    12  O    0.115067   0.071970
 APT charges:
               1
     1  Fe   1.220947
     2  O   -0.504224
     3  H    0.331202
     4  O   -0.450293
     5  H    0.286189
     6  O   -0.330554
     7  H    0.217959
     8  O   -0.400958
     9  H    0.286647
    10  O   -0.439135
    11  H    0.272569
    12  O   -0.440411
    13  H    0.323030
    14  H    0.272962
    15  H    0.289596
    16  H    0.296341
    17  H    0.284291
    18  H    0.248206
    19  H    0.235636
 Sum of APT charges =   2.00000
 APT charges with hydrogens summed into heavy atoms:
               1
     1  Fe   1.220947
     2  O    0.123319
     4  O    0.125492
     6  O    0.135611
     8  O    0.121324
    10  O    0.117725
    12  O    0.155582
 Electronic spatial extent (au):  <R**2>=            858.0800
 Charge=              2.0000 electrons
 Dipole moment (field-independent basis, Debye):
    X=              2.0866    Y=              3.3954    Z=             -0.9416  Tot=              4.0950
 Quadrupole moment (field-independent basis, Debye-Ang):
   XX=            -21.4172   YY=            -24.2214   ZZ=            -34.1326
   XY=             -4.0606   XZ=             -1.1819   YZ=             -0.7506
 Traceless Quadrupole moment (field-independent basis, Debye-Ang):
   XX=              5.1732   YY=              2.3690   ZZ=             -7.5422
   XY=             -4.0606   XZ=             -1.1819   YZ=             -0.7506
 Octapole moment (field-independent basis, Debye-Ang**2):
  XXX=             16.0874  YYY=             15.4457  ZZZ=              4.2723  XYY=              3.6747
  XXY=              8.1233  XXZ=              3.0594  XZZ=             -7.2998  YZZ=             -2.9182
  YYZ=            -13.1853  XYZ=             -2.7814
[...]
    14  H   -0.014721   0.302501  -0.000001  -0.000002  -0.000025  -0.000000
    15  H   -0.000025  -0.000001   0.306794  -0.000019   0.000000  -0.000003
    16  H   -0.000002  -0.000002  -0.000019   0.304598  -0.000012  -0.000007
    17  H   -0.000001  -0.000025   0.000000  -0.000012   0.307089  -0.000002
    18  H    0.000001  -0.000000  -0.000003  -0.000007  -0.000002   0.302525
    19  H   -0.000001  -0.000001  -0.000002   0.000000  -0.000002  -0.000007
              19
     1  Fe   0.007812
     2  O   -0.000273
     3  H   -0.000000
     4  O    0.000066
     5  H   -0.000007
     6  O    0.001351
     7  H   -0.000006
     8  O    0.292081
     9  H   -0.014527
    10  O    0.000079
    11  H   -0.000009
    12  O    0.000479
    13  H   -0.000001
    14  H   -0.000001
    15  H   -0.000002
    16  H    0.000000
    17  H   -0.000002
    18  H   -0.000007
    19  H    0.304137
          Atomic-Atomic Spin Densities.
               1          2          3          4          5          6
     1  Fe   4.101916  -0.029073   0.000859  -0.041324   0.002227  -0.041729
     2  O   -0.029073   0.068160  -0.002512  -0.007602   0.000188  -0.010738
     3  H    0.000859  -0.002512   0.002538   0.000331  -0.000001   0.000189
     4  O   -0.041324  -0.007602   0.000331   0.088866  -0.003857  -0.009800
     5  H    0.002227   0.000188  -0.000001  -0.003857   0.001717   0.000387
     6  O   -0.041729  -0.010738   0.000189  -0.009800   0.000387   0.096363
     7  H    0.001915   0.000336  -0.000001   0.000194  -0.000001  -0.003497
     8  O   -0.029030   0.006113  -0.000084  -0.007524   0.000433  -0.011461
     9  H    0.001180  -0.000088   0.000000   0.000265  -0.000015   0.000187
    10  O   -0.041604  -0.007640   0.000341   0.007527  -0.000096  -0.009758
    11  H    0.002275   0.000184  -0.000001  -0.000096   0.000000   0.000377
    12  O   -0.041716  -0.011473   0.000771  -0.009781   0.000415   0.008371
    13  H    0.001899   0.000474  -0.000022   0.000503  -0.000034  -0.000114
    14  H    0.001934   0.000461  -0.000020   0.000194  -0.000001  -0.000114
    15  H    0.002223   0.000439  -0.000016  -0.003846   0.000734   0.000413
    16  H    0.001173  -0.002594   0.000455   0.000272  -0.000001   0.000627
    17  H    0.002278   0.000439  -0.000018  -0.000096   0.000000   0.000414
    18  H    0.001913   0.000335  -0.000001   0.000506  -0.000010  -0.003498
    19  H    0.000857  -0.000084   0.000000   0.000332  -0.000017   0.000770
               7          8          9         10         11         12
     1  Fe   0.001915  -0.029030   0.001180  -0.041604   0.002275  -0.041716
     2  O    0.000336   0.006113  -0.000088  -0.007640   0.000184  -0.011473
     3  H   -0.000001  -0.000084   0.000000   0.000341  -0.000001   0.000771
     4  O    0.000194  -0.007524   0.000265   0.007527  -0.000096  -0.009781
     5  H   -0.000001   0.000433  -0.000015  -0.000096   0.000000   0.000415
     6  O   -0.003497  -0.011461   0.000187  -0.009758   0.000377   0.008371
     7  H    0.001500   0.000465  -0.000001   0.000500  -0.000009  -0.000113
     8  O    0.000465   0.068051  -0.002606  -0.007735   0.000447  -0.010723
     9  H   -0.000001  -0.002606   0.002197   0.000271  -0.000015   0.000626
    10  O    0.000500  -0.007735   0.000271   0.089598  -0.003893  -0.009789
    11  H   -0.000009   0.000447  -0.000015  -0.003893   0.001685   0.000411
    12  O   -0.000113  -0.010723   0.000626  -0.009789   0.000411   0.096343
    13  H    0.000000   0.000333  -0.000015   0.000193  -0.000001  -0.003490
    14  H    0.000000   0.000337  -0.000015   0.000506  -0.000035  -0.003515
    15  H   -0.000001   0.000184  -0.000001  -0.000096   0.000000   0.000382
    16  H   -0.000015  -0.000087   0.000000   0.000263  -0.000001   0.000186
    17  H   -0.000034   0.000187  -0.000001  -0.003909   0.000748   0.000383
    18  H    0.000654   0.000469  -0.000001   0.000193  -0.000001  -0.000114
    19  H   -0.000021  -0.002521   0.000459   0.000344  -0.000017   0.000189
              13         14         15         16         17         18
     1  Fe   0.001899   0.001934   0.002223   0.001173   0.002278   0.001913
     2  O    0.000474   0.000461   0.000439  -0.002594   0.000439   0.000335
     3  H   -0.000022  -0.000020  -0.000016   0.000455  -0.000018  -0.000001
     4  O    0.000503   0.000194  -0.003846   0.000272  -0.000096   0.000506
     5  H   -0.000034  -0.000001   0.000734  -0.000001   0.000000  -0.000010
     6  O   -0.000114  -0.000114   0.000413   0.000627   0.000414  -0.003498
     7  H    0.000000   0.000000  -0.000001  -0.000015  -0.000034   0.000654
     8  O    0.000333   0.000337   0.000184  -0.000087   0.000187   0.000469
     9  H   -0.000015  -0.000015  -0.000001   0.000000  -0.000001  -0.000001
    10  O    0.000193   0.000506  -0.000096   0.000263  -0.003909   0.000193
    11  H   -0.000001  -0.000035   0.000000  -0.000001   0.000748  -0.000001
    12  O   -0.003490  -0.003515   0.000382   0.000186   0.000383  -0.000114
    13  H    0.001493   0.000655  -0.000010  -0.000001  -0.000001   0.000000
    14  H    0.000655   0.001502  -0.000001  -0.000001  -0.000009   0.000000
    15  H   -0.000010  -0.000001   0.001719  -0.000015   0.000000  -0.000034
    16  H   -0.000001  -0.000001  -0.000015   0.002180  -0.000015  -0.000015
    17  H   -0.000001  -0.000009   0.000000  -0.000015   0.001708  -0.000001
    18  H    0.000000   0.000000  -0.000034  -0.000015  -0.000001   0.001485
    19  H   -0.000001  -0.000001  -0.000001   0.000000  -0.000001  -0.000021
              19
     1  Fe   0.000857
     2  O   -0.000084
     3  H    0.000000
     4  O    0.000332
     5  H   -0.000017
     6  O    0.000770
     7  H   -0.000021
     8  O   -0.002521
     9  H    0.000459
    10  O    0.000344
    11  H   -0.000017
    12  O    0.000189
    13  H   -0.000001
    14  H   -0.000001
    15  H   -0.000001
    16  H    0.000000
    17  H   -0.000001
    18  H   -0.000021
    19  H    0.002564
 Mulliken charges and spin densities:
               1          2
     1  Fe   1.278318   3.898174
     2  O   -0.697929   0.005324
     3  H    0.408573   0.002810
     4  O   -0.689886   0.015062
     5  H    0.404943   0.002070
     6  O   -0.696785   0.017391
     7  H    0.409983   0.001872
     8  O   -0.698424   0.005247
     9  H    0.406743   0.002428
    10  O   -0.689224   0.015215
    11  H    0.405011   0.002059
    12  O   -0.696834   0.017362
    13  H    0.410060   0.001863
    14  H    0.409974   0.001877
    15  H    0.405056   0.002074
    16  H    0.406681   0.002412
    17  H    0.404876   0.002071
    18  H    0.410035   0.001860
    19  H    0.408829   0.002830
 Sum of Mulliken charges =   2.00000   4.00000
 Mulliken charges and spin densities with hydrogens summed into heavy atoms:
               1          2
     1  Fe   1.278318   3.898174
     2  O    0.117326   0.010545
     4  O    0.120113   0.019205
     6  O    0.123233   0.021123
     8  O    0.117148   0.010505
    10  O    0.120663   0.019345
    12  O    0.123200   0.021101
 Electronic spatial extent (au):  <R**2>=           1197.4804
 Charge=              2.0000 electrons
 Dipole moment (field-independent basis, Debye):
    X=              0.0446    Y=             -0.0919    Z=             -0.0035  Tot=              0.1022
 Quadrupole moment (field-independent basis, Debye-Ang):
   XX=            -15.3808   YY=            -15.2847   ZZ=            -14.7386
   XY=              0.3261   XZ=              0.2892   YZ=              0.0854
 Traceless Quadrupole moment (field-independent basis, Debye-Ang):
   XX=             -0.2461   YY=             -0.1500   ZZ=              0.3961
   XY=              0.3261   XZ=              0.2892   YZ=              0.0854
 Octapole moment (field-independent basis, Debye-Ang**2):
  XXX=              0.7421  YYY=             -0.6096  ZZZ=              0.0045  XYY=             -0.2686
  XXY=             -0.2327  XXZ=             -0.0147  XZZ=              0.0713  YZZ=             -0.1513
  YYZ=             -0.0476  XYZ=              0.0547
 Hexadecapole moment (field-independent basis, Debye-Ang**3):
 XXXX=           -210.6691 YYYY=           -201.8680 ZZZZ=           -148.4624 XXXY=             51.9227
 XXXZ=            -34.8948 YYYX=            -58.8051 YYYZ=            -20.0621 ZZZX=             40.9472
 ZZZY=             30.2439 XXYY=            -46.9492 XXZZ=            -89.5174 YYZZ=            -95.0205
 XXYZ=            -10.9772 YYXZ=             -4.9135 ZZXY=             10.4228
 N-N= 6.460016452904D+02 E-N=-5.355078908331D+03  KE= 1.718018639748D+03
                          Isotropic Fermi Contact Couplings
        Atom                 a.u.       MegaHertz       Gauss      10(-4) cm-1
     1  Fe(57)             0.40986      14.86136       5.30290       4.95722
     2  O(17)              0.06993     -10.59838      -3.78177      -3.53524
     3  H(1)               0.00132       1.47400       0.52596       0.49167
     4  O(17)              0.07667     -11.61948      -4.14612      -3.87584
     5  H(1)               0.00073       0.81468       0.29070       0.27175
     6  O(17)              0.07598     -11.51487      -4.10879      -3.84095
     7  H(1)               0.00069       0.76614       0.27338       0.25556
     8  O(17)              0.07005     -10.61637      -3.78818      -3.54124
     9  H(1)               0.00113       1.26719       0.45216       0.42269
    10  O(17)              0.07696     -11.66262      -4.16151      -3.89023
    11  H(1)               0.00071       0.79566       0.28391       0.26540
    12  O(17)              0.07598     -11.51475      -4.10875      -3.84091
    13  H(1)               0.00068       0.75482       0.26934       0.25178
    14  H(1)               0.00069       0.76776       0.27396       0.25610
    15  H(1)               0.00073       0.81725       0.29162       0.27261
    16  H(1)               0.00113       1.25851       0.44907       0.41979
    17  H(1)               0.00072       0.80695       0.28794       0.26917
    18  H(1)               0.00067       0.75381       0.26898       0.25144
    19  H(1)               0.00133       1.48511       0.52992       0.49538
 --------------------------------------------------------
       Center         ----  Spin Dipole Couplings  ----
                      3XX-RR        3YY-RR        3ZZ-RR
 --------------------------------------------------------
     1   Atom        1.032458     -0.578064     -0.454395
     2   Atom        0.099246     -0.019290     -0.079956
     3   Atom        0.033384     -0.010671     -0.022712
     4   Atom       -0.038324      0.095327     -0.057003
     5   Atom       -0.021234      0.043588     -0.022354
     6   Atom       -0.032198     -0.094128      0.126326
     7   Atom       -0.018038     -0.023788      0.041826
     8   Atom        0.094636     -0.014876     -0.079760
     9   Atom        0.020038     -0.016751     -0.003287
    10   Atom       -0.037607      0.094687     -0.057080
    11   Atom        0.008759      0.015943     -0.024702
    12   Atom       -0.032489     -0.093780      0.126269
    13   Atom       -0.017965     -0.023832      0.041797
    14   Atom       -0.027274     -0.009260      0.036534
    15   Atom        0.009027      0.015847     -0.024874
    16   Atom        0.020361     -0.017068     -0.003293
    17   Atom       -0.021220      0.043395     -0.022176
    18   Atom       -0.027329     -0.009209      0.036538
    19   Atom        0.034088     -0.011450     -0.022638
 --------------------------------------------------------
                        XY            XZ            YZ
 --------------------------------------------------------
     1   Atom        1.233869      1.351757      0.699135
     2   Atom        0.062978     -0.046882     -0.024933
     3   Atom        0.030922      0.004478      0.002829
     4   Atom       -0.085126      0.029077      0.003627
     5   Atom       -0.012655      0.001274     -0.014823
     6   Atom        0.043096      0.011951      0.021876
     7   Atom       -0.005215      0.024663     -0.009679
     8   Atom        0.066148     -0.047205     -0.025035
     9   Atom        0.021548     -0.029483     -0.013357
    10   Atom       -0.084614      0.030256      0.003617
    11   Atom       -0.035947     -0.006020      0.004389
    12   Atom        0.043335      0.012130      0.021638
    13   Atom       -0.005233      0.024793     -0.009641
    14   Atom        0.000368      0.003537      0.030920
    15   Atom       -0.035991     -0.005746      0.004099
    16   Atom        0.021344     -0.029582     -0.013222
    17   Atom       -0.012766      0.001348     -0.015104
    18   Atom        0.000406      0.003601      0.031004
    19   Atom        0.030346      0.004675      0.002563
 --------------------------------------------------------


 ---------------------------------------------------------------------------------
              Anisotropic Spin Dipole Couplings in Principal Axis System
 ---------------------------------------------------------------------------------

       Atom             a.u.   MegaHertz   Gauss  10(-4) cm-1        Axes

              Baa    -1.2696   -21.980    -7.843    -7.332  0.6220 -0.5045 -0.5988
     1 Fe(57) Bbb    -1.2180   -21.088    -7.525    -7.034 -0.0196  0.7545 -0.6561
              Bcc     2.4876    43.067    15.368    14.366  0.7827  0.4198  0.4594
 
              Baa    -0.0931     6.737     2.404     2.247  0.1789  0.1744  0.9683
     2 O(17)  Bbb    -0.0461     3.338     1.191     1.114 -0.4191  0.9039 -0.0854
              Bcc     0.1392   -10.076    -3.595    -3.361  0.8901  0.3905 -0.2348
 
              Baa    -0.0267   -14.230    -5.077    -4.746 -0.4465  0.8856 -0.1278
     3 H(1)   Bbb    -0.0230   -12.292    -4.386    -4.100 -0.1228  0.0809  0.9891
              Bcc     0.0497    26.521     9.463     8.846  0.8863  0.4573  0.0727
 
              Baa    -0.0985     7.124     2.542     2.376  0.7549  0.3421 -0.5595
     4 O(17)  Bbb    -0.0387     2.803     1.000     0.935  0.4841  0.2850  0.8273
              Bcc     0.1372    -9.927    -3.542    -3.311 -0.4425  0.8954 -0.0495
 
              Baa    -0.0262   -13.999    -4.995    -4.670  0.4460  0.2625  0.8557
     5 H(1)   Bbb    -0.0228   -12.167    -4.342    -4.059  0.8773  0.0609 -0.4760
              Bcc     0.0490    26.166     9.337     8.728 -0.1771  0.9630 -0.2031
 
              Baa    -0.1170     8.470     3.022     2.825 -0.4455  0.8934 -0.0584
     6 O(17)  Bbb    -0.0131     0.948     0.338     0.316  0.8893  0.4340 -0.1443
              Bcc     0.1302    -9.418    -3.361    -3.141  0.1036  0.1163  0.9878
 
              Baa    -0.0279   -14.894    -5.315    -4.968  0.8207  0.5285 -0.2169
     7 H(1)   Bbb    -0.0243   -12.975    -4.630    -4.328 -0.4612  0.8370  0.2944
              Bcc     0.0522    27.869     9.944     9.296  0.3372 -0.1416  0.9307
 
              Baa    -0.0929     6.724     2.399     2.243  0.1917  0.1487  0.9701
     8 O(17)  Bbb    -0.0459     3.318     1.184     1.107 -0.4393  0.8969 -0.0506
              Bcc     0.1388   -10.043    -3.583    -3.350  0.8776  0.4165 -0.2373
 
              Baa    -0.0267   -14.245    -5.083    -4.751 -0.4411  0.8964 -0.0440
     9 H(1)   Bbb    -0.0230   -12.291    -4.386    -4.100  0.4514  0.2640  0.8524
              Bcc     0.0497    26.536     9.469     8.851  0.7757  0.3561 -0.5210
 
              Baa    -0.0989     7.155     2.553     2.387  0.7483  0.3378 -0.5709
    10 O(17)  Bbb    -0.0376     2.720     0.971     0.907  0.4929  0.2929  0.8193
              Bcc     0.1365    -9.875    -3.524    -3.294 -0.4440  0.8945 -0.0527
 
              Baa    -0.0263   -14.043    -5.011    -4.684  0.4346  0.2808  0.8557
    11 H(1)   Bbb    -0.0229   -12.206    -4.355    -4.072  0.6026  0.6154 -0.5080
              Bcc     0.0492    26.249     9.366     8.756 -0.6693  0.7365  0.0983
 
              Baa    -0.1170     8.465     3.021     2.824 -0.4491  0.8917 -0.0569
    12 O(17)  Bbb    -0.0131     0.948     0.338     0.316  0.8873  0.4377 -0.1452
              Bcc     0.1301    -9.413    -3.359    -3.140  0.1045  0.1157  0.9878
 
              Baa    -0.0279   -14.912    -5.321    -4.974  0.8189  0.5310 -0.2177
    13 H(1)   Bbb    -0.0243   -12.987    -4.634    -4.332 -0.4632  0.8356  0.2954
              Bcc     0.0523    27.899     9.955     9.306  0.3388 -0.1411  0.9302
 
              Baa    -0.0279   -14.901    -5.317    -4.970  0.9250  0.3202 -0.2044
    14 H(1)   Bbb    -0.0243   -12.978    -4.631    -4.329 -0.3776  0.8342 -0.4019
              Bcc     0.0523    27.878     9.948     9.299  0.0418  0.4489  0.8926
 
              Baa    -0.0264   -14.061    -5.017    -4.690  0.4168  0.2712  0.8676
    15 H(1)   Bbb    -0.0229   -12.207    -4.356    -4.072  0.6128  0.6212 -0.4885
              Bcc     0.0492    26.268     9.373     8.762 -0.6714  0.7352  0.0927
 
              Baa    -0.0267   -14.270    -5.092    -4.760 -0.4300  0.9022 -0.0337
    16 H(1)   Bbb    -0.0231   -12.303    -4.390    -4.104  0.4581  0.2502  0.8530
              Bcc     0.0498    26.574     9.482     8.864  0.7780  0.3513 -0.5209
 
              Baa    -0.0262   -13.987    -4.991    -4.665  0.4550  0.2677  0.8493
    17 H(1)   Bbb    -0.0228   -12.171    -4.343    -4.060  0.8724  0.0575 -0.4855
              Bcc     0.0490    26.157     9.334     8.725 -0.1788  0.9618 -0.2074
 
              Baa    -0.0280   -14.930    -5.328    -4.980  0.9264  0.3166 -0.2038
    18 H(1)   Bbb    -0.0244   -12.995    -4.637    -4.335 -0.3741  0.8352 -0.4031
              Bcc     0.0523    27.925     9.964     9.315  0.0426  0.4497  0.8922
 
              Baa    -0.0266   -14.209    -5.070    -4.740 -0.4429  0.8948 -0.0559
    19 H(1)   Bbb    -0.0230   -12.282    -4.382    -4.097 -0.0907  0.0173  0.9957
              Bcc     0.0496    26.491     9.453     8.836  0.8920  0.4461  0.0735
 

 ---------------------------------------------------------------------------------

 No NMR shielding tensors so no spin-rotation constants.
 Leave Link  601 at Wed Mar  5 21:08:37 2025, MaxMem= 13421772800 cpu:              29.1 elap:               0.4
 (Enter /gpfs/fs1/soft/improv/software/custom-built/gaussian/g16/l9999.exe)

 Test job not archived.
 1\1\GINC-I284\SP\UOPBE\Gen\Fe1H12O6(2+,5)\HHARB\05-Mar-2025\0\\#p OPBE
  scrf=(cpcm,solvent=water) geom=allcheck guess=read chkbasis IOp(3/174
 =1000000) IOp(3/175=2055000) IOp(3/176=837000)\\Title\\2,5\Fe,-0.78480
 71506,0.7129617649,0.0319072749\O,-1.3292264882,2.8151453069,-0.281996
 1769\H,-1.4850569182,3.2640774315,-1.122142132\O,1.3288555912,1.285027
 6137,0.0657183394\H,2.0920943463,0.6984120097,-0.0106953423\O,-0.88754
 13138,0.9853520942,2.1603774349\H,-1.6440527532,0.7923233442,2.7293267
 449\O,-0.2234153066,-1.3849571883,0.3455098336\H,-0.0284279732,-2.0297
 215632,-0.3461277677\O,-2.8984401026,0.1407290551,-0.0001079073\H,-3.2
 531655027,-0.7529157216,-0.0946378618\O,-0.6829516131,0.4414083368,-2.
 0969066462\H,0.0736748101,0.6382210243,-2.6645261333\H,-1.4194932743,0
 .2269037505,-2.6842245004\H,1.682609006,2.1801313795,0.1433158879\H,-1
 .5275402373,3.4579958929,0.4100674706\H,-3.6621366654,0.7254189567,0.0
 864501981\H,-0.1488501145,1.1963542285,2.7462198621\H,-0.1136459098,-1
 .8467879462,1.1865168315\\Version=ES64L-G16RevC.02\State=5-A\HF=-1722.
 0601927\S2=6.00617\S2-1=0.\S2A=6.000011\RMSD=2.713e-09\Dipole=-0.03835
 42,-0.011382,-0.0041276\Quadrupole=-0.2084786,-0.2002571,0.4087357,-0.
 20676,0.0025687,-0.0855312\PG=C01 [X(Fe1H12O6)]\\@


 MISERY NO LONGER LOVES COMPANY.  NOWADAYS IT INSISTS ON IT.

                                              -- BAKER'S LAW
 Job cpu time:       0 days  2 hours 10 minutes 11.7 seconds.
 Elapsed time:       0 days  0 hours  1 minutes  5.8 seconds.
 File lengths (MBytes):  RWF=    122 Int=      0 D2E=      0 Chk=    268 Scr=      1
 Normal termination of Gaussian 16 at Wed Mar  5 21:08:37 2025.
