 Entering Gaussian System, Link 0=g16
 Input=Fe_2_O3LYP.com
 Output=Fe_2_O3LYP.log
 Initial command:
 /gpfs/fs1/soft/improv/software/custom-built/gaussian/g16/l1.exe "/scratch/Gau-3168694.inp" -scrdir="/scratch/"
 Default CPUs for threads: 0-127
 Default linda workers: i277.lcrc.anl.gov
 Default is to use 128 SMP processors on each worker.
 Entering Link 1 = /gpfs/fs1/soft/improv/software/custom-built/gaussian/g16/l1.exe PID=   3168695.
  
 Copyright (c) 1988-2021, Gaussian, Inc.  All Rights Reserved.
  
 This is part of the Gaussian(R) 16 program.  It is based on
 the Gaussian(R) 09 system (copyright 2009, Gaussian, Inc.),
 the Gaussian(R) 03 system (copyright 2003, Gaussian, Inc.),
 the Gaussian(R) 98 system (copyright 1998, Gaussian, Inc.),
 the Gaussian(R) 94 system (copyright 1995, Gaussian, Inc.),
 the Gaussian 92(TM) system (copyright 1992, Gaussian, Inc.),
 the Gaussian 90(TM) system (copyright 1990, Gaussian, Inc.),
 the Gaussian 88(TM) system (copyright 1988, Gaussian, Inc.),
 the Gaussian 86(TM) system (copyright 1986, Carnegie Mellon
 University), and the Gaussian 82(TM) system (copyright 1983,
 Carnegie Mellon University). Gaussian is a federally registered
 trademark of Gaussian, Inc.
  
 This software contains proprietary and confidential information,
 including trade secrets, belonging to Gaussian, Inc.
  
 This software is provided under written license and may be
 used, copied, transmitted, or stored only in accord with that
 written license.
  
 The following legend is applicable only to US Government
 contracts under FAR:
  
                    RESTRICTED RIGHTS LEGEND
  
 Use, reproduction and disclosure by the US Government is
 subject to restrictions as set forth in subparagraphs (a)
 and (c) of the Commercial Computer Software - Restricted
 Rights clause in FAR 52.227-19.
  
 Gaussian, Inc.
 340 Quinnipiac St., Bldg. 40, Wallingford CT 06492
  
  
 ---------------------------------------------------------------
 Warning -- This program may not be used in any manner that
 competes with the business of Gaussian, Inc. or will provide
 assistance to any competitor of Gaussian, Inc.  The licensee
 of this program is prohibited from giving any competitor of
 Gaussian, Inc. access to this program.  By using this program,
 the user acknowledges that Gaussian, Inc. is engaged in the
 business of creating and licensing software in the field of
 computational chemistry and represents and warrants to the
 licensee that it is not a competitor of Gaussian, Inc. and that
 it will not use this program in any manner prohibited above.
 ---------------------------------------------------------------
  

 Cite this work as:
 Gaussian 16, Revision C.02,
 M. J. Frisch, G. W. Trucks, H. B. Schlegel, G. E. Scuseria, 
 M. A. Robb, J. R. Cheeseman, G. Scalmani, V. Barone, 
 G. A. Petersson, H. Nakatsuji, X. Li, M. Caricato, A. V. Marenich, 
 J. Bloino, B. G. Janesko, R. Gomperts, B. Mennucci, H. P. Hratchian, 
 J. V. Ortiz, A. F. Izmaylov, J. L. Sonnenberg, D. Williams-Young, 
 F. Ding, F. Lipparini, F. Egidi, J. Goings, B. Peng, A. Petrone, 
 T. Henderson, D. Ranasinghe, V. G. Zakrzewski, J. Gao, N. Rega, 
 G. Zheng, W. Liang, M. Hada, M. Ehara, K. Toyota, R. Fukuda, 
 J. Hasegawa, M. Ishida, T. Nakajima, Y. Honda, O. Kitao, H. Nakai, 
 T. Vreven, K. Throssell, J. A. Montgomery, Jr., J. E. Peralta, 
 F. Ogliaro, M. J. Bearpark, J. J. Heyd, E. N. Brothers, K. N. Kudin, 
 V. N. Staroverov, T. A. Keith, R. Kobayashi, J. Normand, 
 K. Raghavachari, A. P. Rendell, J. C. Burant, S. S. Iyengar, 
 J. Tomasi, M. Cossi, J. M. Millam, M. Klene, C. Adamo, R. Cammi, 
 J. W. Ochterski, R. L. Martin, K. Morokuma, O. Farkas, 
 J. B. Foresman, and D. J. Fox, Gaussian, Inc., Wallingford CT, 2019.
 
 ******************************************
 Gaussian 16:  ES64L-G16RevC.02  7-Dec-2021
                 5-Mar-2025 
 ******************************************
 %chk=Fe_2_O3LYP.chk
 SetSPE:  set environment variable "OMP_PROC_BIND" = "true"
 SetSPE:  set environment variable "OMP_PLACES" = "{0},{1},{2},{3},{4},{5},{6},{7},{8},{9},{10},{11},{12},{13},{14},{15},{16},{17},{18},{19},{20},{21},{22},{23},{24},{25},{26},{27},{28},{29},{30},{31},{32},{33},{34},{35},{36},{37},{38},{39},{40},{41},{42},{43},{44},{45},{46},{47},{48},{49},{50},{51},{52},{53},{54},{55},{56},{57},{58},{59},{60},{61},{62},{63},{64},{65},{66},{67},{68},{69},{70},{71},{72},{73},{74},{75},{76},{77},{78},{79},{80},{81},{82},{83},{84},{85},{86},{87},{88},{89},{90},{91},{92},{93},{94},{95},{96},{97},{98},{99},{100},{101},{102},{103},{104},{105},{106},{107},{108},{109},{110},{111},{112},{113},{114},{115},{116},{117},{118},{119},{120},{121},{122},{123},{124},{125},{126},{127}"
 SetLPE:    new flags="-opt 'Tsnet.Node.lindarsharg: ssh'  -nodelist 'i277.lcrc.anl.gov' -env GAUSS_MDEF=13421772800 -env GAUSS_EXEDIR="/gpfs/fs1/soft/improv/software/custom-built/gaussian/g16/bsd:/gpfs/fs1/soft/improv/software/custom-built/gaussian/g16" -env "OMP_PROC_BIND=true" -env "OMP_PLACES={0},{1},{2},{3},{4},{5},{6},{7},{8},{9},{10},{11},{12},{13},{14},{15},{16},{17},{18},{19},{20},{21},{22},{23},{24},{25},{26},{27},{28},{29},{30},{31},{32},{33},{34},{35},{36},{37},{38},{39},{40},{41},{42},{43},{44},{45},{46},{47},{48},{49},{50},{51},{52},{53},{54},{55},{56},{57},{58},{59},{60},{61},{62},{63},{64},{65},{66},{67},{68},{69},{70},{71},{72},{73},{74},{75},{76},{77},{78},{79},{80},{81},{82},{83},{84},{85},{86},{87},{88},{89},{90},{91},{92},{93},{94},{95},{96},{97},{98},{99},{100},{101},{102},{103},{104},{105},{106},{107},{108},{109},{110},{111},{112},{113},{114},{115},{116},{117},{118},{119},{120},{121},{122},{123},{124},{125},{126},{127}" -env GAUSS_ADEF="0,1,2,3,4,5,6,7,8,9,10,11,12,13,14,15,16,17,18,19,20,21,22,23,24,25,26,27,28,29,30,31,32,33,34,35,36,37,38,39,40,41,42,43,44,45,46,47,48,49,50,51,52,53,54,55,56,57,58,59,60,61,62,63,64,65,66,67,68,69,70,71,72,73,74,75,76,77,78,79,80,81,82,83,84,85,86,87,88,89,90,91,92,93,94,95,96,97,98,99,100,101,102,103,104,105,106,107,108,109,110,111,112,113,114,115,116,117,118,119,120,121,122,123,124,125,126,127""
 Will use up to    1 processors via Linda.
 ----------------------------------------------------------------------
 #p O3LYP 6-31+G(2df,p) opt=(cartesian,calcall,maxcycles=500,loose) fre
 q scf=(maxcycles=500,xqc,maxconventional=50) IOp(3/174=1000000) IOp(3/
 175=1805800) IOp(3/176=1406000)
 ----------------------------------------------------------------------
 1/6=500,7=-1,10=4,18=10,26=3,38=1/1,3;
 2/12=2,17=6,18=5,29=2,40=1/2;
 3/5=1,6=6,7=114,11=2,25=1,30=1,71=2,74=-24,140=1,174=1000000,175=1805800,176=1406000/1,2,3;
 4//1;
 5/5=2,7=500,8=3,13=1,38=5,85=50/2,8;
 8/6=4,10=90,11=11/1;
 11/6=1,8=1,9=11,15=111,16=1/1,2,10;
 10/6=1/2;
 6/7=2,8=2,9=2,10=2,18=1,28=1/1;
 7/7=1,10=1,25=1/1,2,3,16;
 1/6=500,7=-1,10=4,18=10,26=3/3(3);
 2/29=1/2;
 7/7=1,8=1,9=1,25=1,44=-1/16;
 99/12=1/99;
 2/29=1/2;
 3/5=1,6=6,7=114,11=2,25=1,30=1,71=2,74=-24,140=1,174=1000000,175=1805800,176=1406000/1,2,3;
 4/5=5,16=3,69=1/1;
 5/5=2,7=500,8=3,13=1,38=5,85=50/2,8;
 8/6=4,10=90,11=11/1;
 11/6=1,8=1,9=11,15=111,16=1/1,2,10;
 10/6=1/2;
 7/7=1,10=1,25=1/1,2,3,16;
 1/6=500,7=-1,10=4,18=10,26=3/3(-8);
 2/29=1/2;
 6/7=2,8=2,9=2,10=2,18=1,19=2,28=1/1;
 7/7=1,8=1,9=1,25=1,44=-1/16;
 99/12=1/99;
 Leave Link    1 at Wed Mar  5 18:41:50 2025, MaxMem=           0 cpu:               6.6 elap:               0.1
 (Enter /gpfs/fs1/soft/improv/software/custom-built/gaussian/g16/l101.exe)
 -----
 Title
 -----
 Symbolic Z-matrix:
 Charge =  2 Multiplicity = 5
 Fe                   -0.79304   0.81881  -0.09491 
 O                    -1.20497   2.57394  -0.35687 
 H                    -2.12106   2.64974  -0.63312 
 O                     0.99012   1.19063  -0.05794 
 H                     1.42696   0.5998    0.55971 
 O                    -0.81752   1.03069   1.71365 
 H                    -1.02108   0.1906    2.13133 
 O                    -0.38507  -0.93351   0.17118 
 H                    -1.15682  -1.47369  -0.01433 
 O                    -2.57341   0.45178  -0.12186 
 H                    -2.77756  -0.08744  -0.88929 
 O                    -0.76966   0.60461  -1.90111 
 H                     0.09872   0.83457  -2.23949 
 H                    -0.96534  -0.30999  -2.11742 
 H                     1.12208   2.09943   0.22124 
 H                    -1.07671   3.0584    0.46184 
 H                    -2.81407  -0.02398   0.6765 
 H                     0.0422    1.33615   2.01181 
 H                    -0.11532  -1.06446   1.08312 
 
 ITRead=  0  0  0  0  0  0  0  0  0  0  0  0  0  0  0  0  0  0  0
 MicOpt= -1 -1 -1 -1 -1 -1 -1 -1 -1 -1 -1 -1 -1 -1 -1 -1 -1 -1 -1
 NAtoms=     19 NQM=       19 NQMF=       0 NMMI=      0 NMMIF=      0
                NMic=       0 NMicF=      0.
                    Isotopes and Nuclear Properties:
 (Nuclear quadrupole moments (NQMom) in fm**2, nuclear magnetic moments (NMagM)
  in nuclear magnetons)

  Atom         1           2           3           4           5           6           7           8           9          10
 IAtWgt=          56          16           1          16           1          16           1          16           1          16
 AtmWgt=  55.9349393  15.9949146   1.0078250  15.9949146   1.0078250  15.9949146   1.0078250  15.9949146   1.0078250  15.9949146
 NucSpn=           0           0           1           0           1           0           1           0           1           0
 AtZEff=  -0.0000000  -0.0000000  -0.0000000  -0.0000000  -0.0000000  -0.0000000  -0.0000000  -0.0000000  -0.0000000  -0.0000000
 NQMom=    0.0000000   0.0000000   0.0000000   0.0000000   0.0000000   0.0000000   0.0000000   0.0000000   0.0000000   0.0000000
 NMagM=    0.0000000   0.0000000   2.7928460   0.0000000   2.7928460   0.0000000   2.7928460   0.0000000   2.7928460   0.0000000
 AtZNuc=  26.0000000   8.0000000   1.0000000   8.0000000   1.0000000   8.0000000   1.0000000   8.0000000   1.0000000   8.0000000

  Atom        11          12          13          14          15          16          17          18          19
 IAtWgt=           1          16           1           1           1           1           1           1           1
 AtmWgt=   1.0078250  15.9949146   1.0078250   1.0078250   1.0078250   1.0078250   1.0078250   1.0078250   1.0078250
 NucSpn=           1           0           1           1           1           1           1           1           1
 AtZEff=  -0.0000000  -0.0000000  -0.0000000  -0.0000000  -0.0000000  -0.0000000  -0.0000000  -0.0000000  -0.0000000
 NQMom=    0.0000000   0.0000000   0.0000000   0.0000000   0.0000000   0.0000000   0.0000000   0.0000000   0.0000000
 NMagM=    2.7928460   0.0000000   2.7928460   2.7928460   2.7928460   2.7928460   2.7928460   2.7928460   2.7928460
 AtZNuc=   1.0000000   8.0000000   1.0000000   1.0000000   1.0000000   1.0000000   1.0000000   1.0000000   1.0000000
 Leave Link  101 at Wed Mar  5 18:41:51 2025, MaxMem= 13421772800 cpu:               0.4 elap:               0.1
 (Enter /gpfs/fs1/soft/improv/software/custom-built/gaussian/g16/l103.exe)

 GradGradGradGradGradGradGradGradGradGradGradGradGradGradGradGradGradGrad
 Berny optimization.
 Initialization pass.
 No Z-matrix variables, so optimization will use Cartesian coordinates.
 Trust Radius=3.00D-01 FncErr=1.00D-07 GrdErr=1.00D-06 EigMax=2.50D+02 EigMin=1.00D-04
 Number of steps in this run=    114 maximum allowed number of steps=    114.
 GradGradGradGradGradGradGradGradGradGradGradGradGradGradGradGradGradGrad

 Leave Link  103 at Wed Mar  5 18:41:51 2025, MaxMem= 13421772800 cpu:               0.4 elap:               0.0
 (Enter /gpfs/fs1/soft/improv/software/custom-built/gaussian/g16/l202.exe)
 ---------------------------------------------------------------------------------------------------
                            Z-MATRIX (ANGSTROMS AND DEGREES)
   CD    Cent   Atom    N1       Length/X        N2       Alpha/Y        N3        Beta/Z          J
 ---------------------------------------------------------------------------------------------------
      1      1  Fe       0  -0.793037          0.818805         -0.094905
      2      2  O        0  -1.204971          2.573941         -0.356874
      3      3  H        0  -2.121063          2.649743         -0.633122
      4      4  O        0   0.990122          1.190635         -0.057941
      5      5  H        0   1.426962          0.599798          0.559707
      6      6  O        0  -0.817519          1.030691          1.713650
      7      7  H        0  -1.021079          0.190602          2.131326
      8      8  O        0  -0.385068         -0.933506          0.171177
      9      9  H        0  -1.156817         -1.473692         -0.014327
     10     10  O        0  -2.573405          0.451778         -0.121857
     11     11  H        0  -2.777557         -0.087440         -0.889285
     12     12  O        0  -0.769659          0.604612         -1.901109
     13     13  H        0   0.098725          0.834573         -2.239490
     14     14  H        0  -0.965336         -0.309994         -2.117418
     15     15  H        0   1.122081          2.099426          0.221242
     16     16  H        0  -1.076711          3.058396          0.461841
     17     17  H        0  -2.814074         -0.023981          0.676500
     18     18  H        0   0.042204          1.336153          2.011809
     19     19  H        0  -0.115315         -1.064459          1.083123
 ---------------------------------------------------------------------------------------------------
                         Z-Matrix orientation:                         
 ---------------------------------------------------------------------
 Center     Atomic      Atomic             Coordinates (Angstroms)
 Number     Number       Type             X           Y           Z
 ---------------------------------------------------------------------
      1         26           0       -0.793037    0.818805   -0.094905
      2          8           0       -1.204971    2.573941   -0.356874
      3          1           0       -2.121063    2.649743   -0.633122
      4          8           0        0.990122    1.190635   -0.057941
      5          1           0        1.426962    0.599798    0.559707
      6          8           0       -0.817519    1.030691    1.713650
      7          1           0       -1.021079    0.190602    2.131326
      8          8           0       -0.385068   -0.933506    0.171177
      9          1           0       -1.156817   -1.473692   -0.014327
     10          8           0       -2.573405    0.451778   -0.121857
     11          1           0       -2.777557   -0.087440   -0.889285
     12          8           0       -0.769659    0.604612   -1.901109
     13          1           0        0.098725    0.834573   -2.239490
     14          1           0       -0.965336   -0.309994   -2.117418
     15          1           0        1.122081    2.099426    0.221242
     16          1           0       -1.076711    3.058396    0.461841
     17          1           0       -2.814074   -0.023981    0.676500
     18          1           0        0.042204    1.336153    2.011809
     19          1           0       -0.115315   -1.064459    1.083123
 ---------------------------------------------------------------------
                    Distance matrix (angstroms):
                    1          2          3          4          5
     1  Fe   0.000000
     2  O    1.821762   0.000000
     3  H    2.325008   0.959835   0.000000
     4  O    1.821889   2.611767   3.484150   0.000000
     5  H    2.324839   3.415322   4.267739   0.959899   0.000000
     6  O    1.821090   2.611285   3.134947   2.536076   2.560263
     7  H    2.324381   3.450400   3.859988   3.136540   2.937743
     8  O    1.818745   3.640503   4.062050   2.540791   2.405292
     9  H    2.322579   4.062387   4.279649   3.421971   3.362259
    10  O    1.818006   2.536025   2.301533   3.639880   4.060711
    11  H    2.321775   3.136788   2.826442   4.064482   4.499984
    12  O    1.819010   2.540161   2.759827   2.614866   3.298603
    13  H    2.322657   2.875634   3.286750   2.383386   3.107223
    14  H    2.322591   3.387332   3.506977   3.212032   3.703756
    15  H    2.325429   2.444290   3.398642   0.959822   1.567289
    16  H    2.325125   0.959918   1.567358   2.833814   3.510364
    17  H    2.321626   3.225876   3.056824   4.060370   4.288255
    18  H    2.324547   2.949275   3.660724   2.281137   2.137375
    19  H    2.322443   4.061883   4.556733   2.758526   2.328591
                    6          7          8          9         10
     6  O    0.000000
     7  H    0.960021   0.000000
     8  O    2.534622   2.347406   0.000000
     9  H    3.061530   2.718847   0.960108   0.000000
    10  O    2.605257   2.748593   2.606473   2.392848   0.000000
    11  H    3.444886   3.505227   2.750347   2.305222   0.959885
    12  O    3.640099   4.061422   2.609231   2.833582   2.538227
    13  H    4.062670   4.557707   3.028445   3.443229   3.430916
    14  H    4.061572   4.278496   2.441955   2.411193   2.673658
    15  H    2.670492   3.447487   3.387136   4.244531   4.060675
    16  H    2.397039   3.318813   4.061790   4.557738   3.061904
    17  H    2.484803   2.318921   2.642472   2.307685   0.960023
    18  H    0.959858   1.567527   2.953276   3.665802   3.489421
    19  H    2.297892   1.869309   0.959980   1.567353   3.129403
                   11         12         13         14         15
    11  H    0.000000
    12  O    2.352526   0.000000
    13  H    3.308498   0.959935   0.000000
    14  H    2.200452   0.959991   1.567533   0.000000
    15  H    4.606825   3.212091   2.949969   3.953725   0.000000
    16  H    3.822919   3.420362   3.691102   4.243941   2.410850
    17  H    1.567497   3.349453   4.210050   3.362383   4.495491
    18  H    4.288824   4.062660   4.281159   4.558009   2.225950
    19  H    3.454344   3.481323   3.833001   3.396353   3.504877
                   16         17         18         19
    16  H    0.000000
    17  H    3.544793   0.000000
    18  H    2.573032   3.433851   0.000000
    19  H    4.278809   2.920828   2.578800   0.000000
 Stoichiometry    FeH12O6(2+,5)
 Framework group  C1[X(FeH12O6)]
 Deg. of freedom    51
 Full point group                 C1      NOp   1
 Largest Abelian subgroup         C1      NOp   1
 Largest concise Abelian subgroup C1      NOp   1
                         Standard orientation:                         
 ---------------------------------------------------------------------
 Center     Atomic      Atomic             Coordinates (Angstroms)
 Number     Number       Type             X           Y           Z
 ---------------------------------------------------------------------
      1         26           0       -0.020212   -0.029769    0.009758
      2          8           0       -0.320773   -1.687164   -0.684161
      3          1           0       -1.136997   -1.679346   -1.189137
      4          8           0        1.254785   -0.678144    1.138153
      5          1           0        1.943573   -0.019708    1.254074
      6          8           0        1.298505    0.294488   -1.203590
      7          1           0        1.382461    1.241149   -1.339326
      8          8           0        0.280919    1.626834    0.697379
      9          1           0       -0.430846    2.216032    0.436526
     10          8           0       -1.285567    0.616476   -1.124434
     11          1           0       -2.034473    0.939301   -0.618170
     12          8           0       -1.338192   -0.350985    1.221594
     13          1           0       -0.971642   -0.815184    1.977660
     14          1           0       -1.717006    0.482356    1.510774
     15          1           0        1.635434   -1.476912    0.766219
     16          1           0        0.408530   -1.930525   -1.258908
     17          1           0       -0.914804    1.335716   -1.641030
     18          1           0        2.129249   -0.056449   -0.874904
     19          1           0        1.114608    1.965515    0.362985
 ---------------------------------------------------------------------
 Rotational constants (GHZ):           2.0396930           1.9739388           1.9252729
 Leave Link  202 at Wed Mar  5 18:41:51 2025, MaxMem= 13421772800 cpu:               0.6 elap:               0.0
 (Enter /gpfs/fs1/soft/improv/software/custom-built/gaussian/g16/l301.exe)
 Standard basis: 6-31+G(2df,p) (6D, 7F)
 Ernie: Thresh=  0.10000D-02 Tol=  0.10000D-05 Strict=F.
 There are   347 symmetry adapted cartesian basis functions of A   symmetry.
 There are   317 symmetry adapted basis functions of A   symmetry.
   317 basis functions,   514 primitive gaussians,   347 cartesian basis functions
    44 alpha electrons       40 beta electrons
       nuclear repulsion energy       767.7883002195 Hartrees.
 IExCor= 2119 DFT=T Ex+Corr=O3LYP ExCW=0 ScaHFX=  0.116100
 ScaDFX=  1.000000  1.000000  1.000000  0.810000 ScalE2=  1.000000  1.000000
 IRadAn=      5 IRanWt=     -1 IRanGd=            0 ICorTp=0 IEmpDi=  4
 NAtoms=   19 NActive=   19 NUniq=   19 SFac= 1.00D+00 NAtFMM=   60 NAOKFM=F Big=F
 Integral buffers will be    131072 words long.
 Raffenetti 2 integral format.
 Two-electron integral symmetry is turned on.
 R6DIni: Non-standard D2/D3 S6 parameter, value=     1.000000
 R6DIni: Non-standard D2/D3 S8 parameter, value=     1.805800
 R6DIni: Non-standard D2/D3 SR6 parameter, value=     1.406000
 Leave Link  301 at Wed Mar  5 18:41:51 2025, MaxMem= 13421772800 cpu:               0.4 elap:               0.1
 (Enter /gpfs/fs1/soft/improv/software/custom-built/gaussian/g16/l302.exe)
 NPDir=0 NMtPBC=     1 NCelOv=     1 NCel=       1 NClECP=     1 NCelD=      1
         NCelK=      1 NCelE2=     1 NClLst=     1 CellRange=     0.0.
 One-electron integrals computed using PRISM.
 One-electron integral symmetry used in STVInt
 NBasis=   317 RedAO= T EigKep=  1.64D-06  NBF=   317
 NBsUse=   317 1.00D-06 EigRej= -1.00D+00 NBFU=   317
 Precomputing XC quadrature grid using
 IXCGrd= 4 IRadAn=           5 IRanWt=          -1 IRanGd=           0 AccXCQ= 0.00D+00.
 Generated NRdTot=       0 NPtTot=           0 NUsed=           0 NTot=          32
 NSgBfM=   347   346   347   347   347 MxSgAt=    19 MxSgA2=    19.
 Leave Link  302 at Wed Mar  5 18:41:52 2025, MaxMem= 13421772800 cpu:              22.1 elap:               0.3
 (Enter /gpfs/fs1/soft/improv/software/custom-built/gaussian/g16/l303.exe)
 DipDrv:  MaxL=1.
 Leave Link  303 at Wed Mar  5 18:41:52 2025, MaxMem= 13421772800 cpu:               1.1 elap:               0.0
 (Enter /gpfs/fs1/soft/improv/software/custom-built/gaussian/g16/l401.exe)
 ExpMin= 1.26D-02 ExpMax= 6.11D+04 ExpMxC= 9.18D+03 IAcc=3 IRadAn=         5 AccDes= 0.00D+00
 Harris functional with IExCor= 2119 and IRadAn=       5 diagonalized for initial guess.
 HarFok:  IExCor= 2119 AccDes= 0.00D+00 IRadAn=         5 IDoV= 1 UseB2=F ITyADJ=14
 ICtDFT=  3500011 ScaDFX=  1.000000  1.000000  1.000000  1.000000
 FoFCou: FMM=F IPFlag=           0 FMFlag=      100000 FMFlg1=           0
         NFxFlg=           0 DoJE=T BraDBF=F KetDBF=T FulRan=T
         wScrn=  0.000000 ICntrl=       500 IOpCl=  0 I1Cent=   200000004 NGrid=           0
         NMat0=    1 NMatS0=      1 NMatT0=    0 NMatD0=    1 NMtDS0=    0 NMtDT0=    0
 Petite list used in FoFCou.
 Harris En= -1708.76969428906    
 JPrj=0 DoOrth=F DoCkMO=F.
 Initial guess <Sx>= 0.0000 <Sy>= 0.0000 <Sz>= 2.0000 <S**2>= 6.0000 S= 2.0000
 Leave Link  401 at Wed Mar  5 18:41:53 2025, MaxMem= 13421772800 cpu:              40.6 elap:               0.5
 (Enter /gpfs/fs1/soft/improv/software/custom-built/gaussian/g16/l502.exe)
 Integral symmetry usage will be decided dynamically.
 UHF open shell SCF:
 Using DIIS extrapolation, IDIIS=  1040.
 NGot= 13421772800 LenX= 13421483807 LenY= 13421362957
 Requested convergence on RMS density matrix=1.00D-08 within  50 cycles.
 Requested convergence on MAX density matrix=1.00D-06.
 Requested convergence on             energy=1.00D-06.
 No special actions if energy rises.
 Fock matrices will be formed incrementally for  20 cycles.

 Cycle   1  Pass 1  IDiag  1:
 FoFJK:  IHMeth= 1 ICntrl=       0 DoSepK=F KAlg= 0 I1Cent=           0 FoldK=F
 IRaf= 990000000 NMat=       1 IRICut=       1 DoRegI=T DoRafI=F ISym2E= 0 IDoP0=0 IntGTp=1.
 FoFCou: FMM=F IPFlag=           0 FMFlag=      100000 FMFlg1=           0
         NFxFlg=           0 DoJE=F BraDBF=F KetDBF=F FulRan=T
         wScrn=  0.000000 ICntrl=         0 IOpCl=  1 I1Cent=           0 NGrid=           0
         NMat0=    1 NMatS0=      1 NMatT0=    0 NMatD0=    1 NMtDS0=    0 NMtDT0=    0
 Symmetry not used in FoFCou.
 E= -1720.97766286061    
 DIIS: error= 4.83D-02 at cycle   1 NSaved=   1.
 NSaved= 1 IEnMin= 1 EnMin= -1720.97766286061     IErMin= 1 ErrMin= 4.83D-02
 ErrMax= 4.83D-02  0.00D+00 EMaxC= 1.00D-01 BMatC= 4.44D+00 BMatP= 4.44D+00
 IDIUse=3 WtCom= 5.17D-01 WtEn= 4.83D-01
 Coeff-Com:  0.100D+01
 Coeff-En:   0.100D+01
 Coeff:      0.100D+01
 Gap=     0.036 Goal=   None    Shift=    0.000
 Gap=     0.081 Goal=   None    Shift=    0.000
 GapD=    0.036 DampG=0.250 DampE=0.250 DampFc=0.1250 IDamp=-1.
 Damping current iteration by 1.25D-01
 RMSDP=7.64D-01 MaxDP=1.45D+02              OVMax= 8.54D-01

 Cycle   2  Pass 1  IDiag  1:
 RMSU=  1.67D-02    CP:  8.92D-01
 E= -1721.13242218243     Delta-E=       -0.154759321826 Rises=F Damp=T
 DIIS: error= 3.37D-02 at cycle   2 NSaved=   2.
 NSaved= 2 IEnMin= 2 EnMin= -1721.13242218243     IErMin= 2 ErrMin= 3.37D-02
 ErrMax= 3.37D-02  0.00D+00 EMaxC= 1.00D-01 BMatC= 1.31D+00 BMatP= 4.44D+00
 IDIUse=3 WtCom= 6.63D-01 WtEn= 3.37D-01
 Coeff-Com: -0.581D+00 0.158D+01
 Coeff-En:   0.459D-01 0.954D+00
 Coeff:     -0.370D+00 0.137D+01
 Gap=     0.293 Goal=   None    Shift=    0.000
 Gap=     0.066 Goal=   None    Shift=    0.000
 RMSDP=7.24D-01 MaxDP=1.36D+02 DE=-1.55D-01 OVMax= 9.32D-01

 Cycle   3  Pass 1  IDiag  1:
 RMSU=  2.53D-02    CP:  6.29D-02  3.00D+00
 E= -1721.49848586524     Delta-E=       -0.366063682808 Rises=F Damp=F
 DIIS: error= 1.08D-02 at cycle   3 NSaved=   3.
 NSaved= 3 IEnMin= 3 EnMin= -1721.49848586524     IErMin= 3 ErrMin= 1.08D-02
 ErrMax= 1.08D-02  0.00D+00 EMaxC= 1.00D-01 BMatC= 2.72D-01 BMatP= 1.31D+00
 IDIUse=3 WtCom= 8.92D-01 WtEn= 1.08D-01
 Coeff-Com:  0.234D+00-0.116D+00 0.882D+00
 Coeff-En:   0.163D-01 0.000D+00 0.984D+00
 Coeff:      0.211D+00-0.104D+00 0.893D+00
 Gap=     0.051 Goal=   None    Shift=    0.000
 Gap=     0.092 Goal=   None    Shift=    0.000
 RMSDP=1.20D-02 MaxDP=1.46D+00 DE=-3.66D-01 OVMax= 8.80D-02

 Cycle   4  Pass 1  IDiag  1:
 RMSU=  1.02D-02    CP:  5.69D-02  3.00D+00  8.58D-01
 E= -1721.52336116645     Delta-E=       -0.024875301210 Rises=F Damp=F
 DIIS: error= 4.44D-03 at cycle   4 NSaved=   4.
 NSaved= 4 IEnMin= 4 EnMin= -1721.52336116645     IErMin= 4 ErrMin= 4.44D-03
 ErrMax= 4.44D-03  0.00D+00 EMaxC= 1.00D-01 BMatC= 9.90D-02 BMatP= 2.72D-01
 IDIUse=3 WtCom= 9.56D-01 WtEn= 4.44D-02
 Coeff-Com:  0.137D+00-0.125D+00 0.486D+00 0.502D+00
 Coeff-En:   0.000D+00 0.000D+00 0.255D+00 0.745D+00
 Coeff:      0.131D+00-0.119D+00 0.476D+00 0.512D+00
 Gap=     0.085 Goal=   None    Shift=    0.000
 Gap=     0.087 Goal=   None    Shift=    0.000
 RMSDP=3.37D-03 MaxDP=4.29D-01 DE=-2.49D-02 OVMax= 3.16D-02

 Cycle   5  Pass 1  IDiag  1:
 RMSU=  2.68D-03    CP:  5.55D-02  3.00D+00  8.46D-01  8.36D-01
 E= -1721.53897878730     Delta-E=       -0.015617620854 Rises=F Damp=F
 DIIS: error= 1.37D-03 at cycle   5 NSaved=   5.
 NSaved= 5 IEnMin= 5 EnMin= -1721.53897878730     IErMin= 5 ErrMin= 1.37D-03
 ErrMax= 1.37D-03  0.00D+00 EMaxC= 1.00D-01 BMatC= 8.80D-03 BMatP= 9.90D-02
 IDIUse=3 WtCom= 9.86D-01 WtEn= 1.37D-02
 Coeff-Com:  0.232D-01-0.298D-01 0.434D-01 0.234D+00 0.729D+00
 Coeff-En:   0.000D+00 0.000D+00 0.000D+00 0.421D-01 0.958D+00
 Coeff:      0.229D-01-0.294D-01 0.428D-01 0.231D+00 0.732D+00
 Gap=     0.084 Goal=   None    Shift=    0.000
 Gap=     0.079 Goal=   None    Shift=    0.000
 RMSDP=9.16D-04 MaxDP=1.42D-01 DE=-1.56D-02 OVMax= 1.22D-02

 Cycle   6  Pass 1  IDiag  1:
 RMSU=  4.55D-04    CP:  5.62D-02  3.00D+00  8.58D-01  8.53D-01  8.59D-01
 E= -1721.54049284656     Delta-E=       -0.001514059253 Rises=F Damp=F
 DIIS: error= 2.29D-04 at cycle   6 NSaved=   6.
 NSaved= 6 IEnMin= 6 EnMin= -1721.54049284656     IErMin= 6 ErrMin= 2.29D-04
 ErrMax= 2.29D-04  0.00D+00 EMaxC= 1.00D-01 BMatC= 1.86D-04 BMatP= 8.80D-03
 IDIUse=3 WtCom= 9.98D-01 WtEn= 2.29D-03
 Coeff-Com: -0.223D-02 0.342D-02-0.945D-02 0.388D-01 0.200D+00 0.770D+00
 Coeff-En:   0.000D+00 0.000D+00 0.000D+00 0.000D+00 0.000D+00 0.100D+01
 Coeff:     -0.222D-02 0.342D-02-0.943D-02 0.387D-01 0.199D+00 0.770D+00
 Gap=     0.085 Goal=   None    Shift=    0.000
 Gap=     0.080 Goal=   None    Shift=    0.000
 RMSDP=2.84D-04 MaxDP=4.26D-02 DE=-1.51D-03 OVMax= 6.94D-03

 Cycle   7  Pass 1  IDiag  1:
 RMSU=  1.57D-04    CP:  5.60D-02  3.00D+00  8.55D-01  8.58D-01  8.84D-01
                    CP:  8.88D-01
 E= -1721.54053619283     Delta-E=       -0.000043346278 Rises=F Damp=F
 DIIS: error= 6.34D-05 at cycle   7 NSaved=   7.
 NSaved= 7 IEnMin= 7 EnMin= -1721.54053619283     IErMin= 7 ErrMin= 6.34D-05
 ErrMax= 6.34D-05  0.00D+00 EMaxC= 1.00D-01 BMatC= 2.09D-05 BMatP= 1.86D-04
 IDIUse=1 WtCom= 1.00D+00 WtEn= 0.00D+00
 Coeff-Com: -0.683D-03 0.807D-03-0.362D-02-0.310D-02-0.370D-02 0.192D+00
 Coeff-Com:  0.818D+00
 Coeff:     -0.683D-03 0.807D-03-0.362D-02-0.310D-02-0.370D-02 0.192D+00
 Coeff:      0.818D+00
 Gap=     0.085 Goal=   None    Shift=    0.000
 Gap=     0.080 Goal=   None    Shift=    0.000
 RMSDP=5.52D-05 MaxDP=4.97D-03 DE=-4.33D-05 OVMax= 7.06D-03

 Cycle   8  Pass 1  IDiag  1:
 RMSU=  4.33D-05    CP:  5.60D-02  3.00D+00  8.55D-01  8.60D-01  8.81D-01
                    CP:  9.22D-01  1.01D+00
 E= -1721.54054918486     Delta-E=       -0.000012992028 Rises=F Damp=F
 DIIS: error= 5.84D-05 at cycle   8 NSaved=   8.
 NSaved= 8 IEnMin= 8 EnMin= -1721.54054918486     IErMin= 8 ErrMin= 5.84D-05
 ErrMax= 5.84D-05  0.00D+00 EMaxC= 1.00D-01 BMatC= 1.39D-05 BMatP= 2.09D-05
 IDIUse=1 WtCom= 1.00D+00 WtEn= 0.00D+00
 Coeff-Com:  0.215D-03-0.348D-03 0.268D-03-0.701D-02-0.329D-01 0.288D-02
 Coeff-Com:  0.513D+00 0.524D+00
 Coeff:      0.215D-03-0.348D-03 0.268D-03-0.701D-02-0.329D-01 0.288D-02
 Coeff:      0.513D+00 0.524D+00
 Gap=     0.085 Goal=   None    Shift=    0.000
 Gap=     0.080 Goal=   None    Shift=    0.000
 RMSDP=3.94D-05 MaxDP=2.73D-03 DE=-1.30D-05 OVMax= 4.66D-03

 Cycle   9  Pass 1  IDiag  1:
 RMSU=  3.25D-05    CP:  5.60D-02  3.00D+00  8.55D-01  8.59D-01  8.77D-01
                    CP:  9.19D-01  1.11D+00  1.22D+00
 E= -1721.54055777389     Delta-E=       -0.000008589026 Rises=F Damp=F
 DIIS: error= 4.57D-05 at cycle   9 NSaved=   9.
 NSaved= 9 IEnMin= 9 EnMin= -1721.54055777389     IErMin= 9 ErrMin= 4.57D-05
 ErrMax= 4.57D-05  0.00D+00 EMaxC= 1.00D-01 BMatC= 3.67D-06 BMatP= 1.39D-05
 IDIUse=1 WtCom= 1.00D+00 WtEn= 0.00D+00
 Coeff-Com:  0.684D-03-0.733D-03 0.341D-02-0.178D-02-0.166D-01-0.838D-01
 Coeff-Com: -0.923D-01 0.285D-01 0.116D+01
 Coeff:      0.684D-03-0.733D-03 0.341D-02-0.178D-02-0.166D-01-0.838D-01
 Coeff:     -0.923D-01 0.285D-01 0.116D+01
 Gap=     0.085 Goal=   None    Shift=    0.000
 Gap=     0.080 Goal=   None    Shift=    0.000
 RMSDP=4.92D-05 MaxDP=3.01D-03 DE=-8.59D-06 OVMax= 9.07D-03

 Cycle  10  Pass 1  IDiag  1:
 RMSU=  1.83D-05    CP:  5.60D-02  3.00D+00  8.55D-01  8.60D-01  8.75D-01
                    CP:  9.15D-01  1.24D+00  1.91D+00  1.78D+00
 E= -1721.54056974728     Delta-E=       -0.000011973391 Rises=F Damp=F
 DIIS: error= 3.46D-05 at cycle  10 NSaved=  10.
 NSaved=10 IEnMin=10 EnMin= -1721.54056974728     IErMin=10 ErrMin= 3.46D-05
 ErrMax= 3.46D-05  0.00D+00 EMaxC= 1.00D-01 BMatC= 2.50D-06 BMatP= 3.67D-06
 IDIUse=1 WtCom= 1.00D+00 WtEn= 0.00D+00
 Coeff-Com:  0.729D-03-0.759D-03 0.153D-02 0.408D-02 0.114D-01-0.117D-01
 Coeff-Com: -0.294D+00-0.463D+00-0.819D+00 0.257D+01
 Coeff:      0.729D-03-0.759D-03 0.153D-02 0.408D-02 0.114D-01-0.117D-01
 Coeff:     -0.294D+00-0.463D+00-0.819D+00 0.257D+01
 Gap=     0.084 Goal=   None    Shift=    0.000
 Gap=     0.080 Goal=   None    Shift=    0.000
 RMSDP=1.21D-04 MaxDP=7.60D-03 DE=-1.20D-05 OVMax= 2.30D-02

 Cycle  11  Pass 1  IDiag  1:
 RMSU=  4.01D-05    CP:  5.60D-02  3.00D+00  8.55D-01  8.59D-01  8.65D-01
                    CP:  9.09D-01  1.56D+00  3.00D+00  3.00D+00  3.00D+00
 E= -1721.54059166920     Delta-E=       -0.000021921919 Rises=F Damp=F
 DIIS: error= 2.34D-05 at cycle  11 NSaved=  11.
 NSaved=11 IEnMin=11 EnMin= -1721.54059166920     IErMin=11 ErrMin= 2.34D-05
 ErrMax= 2.34D-05  0.00D+00 EMaxC= 1.00D-01 BMatC= 1.29D-06 BMatP= 2.50D-06
 IDIUse=1 WtCom= 1.00D+00 WtEn= 0.00D+00
 Coeff-Com:  0.364D-03-0.434D-03-0.107D-02 0.227D-02 0.922D-02 0.451D-01
 Coeff-Com: -0.272D-01-0.217D+00-0.124D+01 0.134D+01 0.110D+01
 Coeff:      0.364D-03-0.434D-03-0.107D-02 0.227D-02 0.922D-02 0.451D-01
 Coeff:     -0.272D-01-0.217D+00-0.124D+01 0.134D+01 0.110D+01
 Gap=     0.084 Goal=   None    Shift=    0.000
 Gap=     0.080 Goal=   None    Shift=    0.000
 RMSDP=8.88D-05 MaxDP=5.38D-03 DE=-2.19D-05 OVMax= 1.70D-02

 Cycle  12  Pass 1  IDiag  1:
 RMSU=  3.72D-05    CP:  5.60D-02  3.00D+00  8.55D-01  8.59D-01  8.57D-01
                    CP:  9.04D-01  1.77D+00  3.00D+00  3.00D+00  3.00D+00
                    CP:  2.75D+00
 E= -1721.54060061817     Delta-E=       -0.000008948973 Rises=F Damp=F
 DIIS: error= 1.53D-05 at cycle  12 NSaved=  12.
 NSaved=12 IEnMin=12 EnMin= -1721.54060061817     IErMin=12 ErrMin= 1.53D-05
 ErrMax= 1.53D-05  0.00D+00 EMaxC= 1.00D-01 BMatC= 6.79D-07 BMatP= 1.29D-06
 IDIUse=1 WtCom= 1.00D+00 WtEn= 0.00D+00
 Coeff-Com:  0.961D-04-0.116D-03-0.105D-02 0.369D-03 0.280D-02 0.308D-01
 Coeff-Com:  0.455D-01-0.327D-01-0.556D+00 0.245D+00 0.647D+00 0.618D+00
 Coeff:      0.961D-04-0.116D-03-0.105D-02 0.369D-03 0.280D-02 0.308D-01
 Coeff:      0.455D-01-0.327D-01-0.556D+00 0.245D+00 0.647D+00 0.618D+00
 Gap=     0.084 Goal=   None    Shift=    0.000
 Gap=     0.080 Goal=   None    Shift=    0.000
 RMSDP=2.20D-05 MaxDP=1.29D-03 DE=-8.95D-06 OVMax= 4.60D-03

 Cycle  13  Pass 1  IDiag  1:
 RMSU=  1.07D-05    CP:  5.60D-02  3.00D+00  8.55D-01  8.59D-01  8.55D-01
                    CP:  9.06D-01  1.81D+00  3.00D+00  3.00D+00  3.00D+00
                    CP:  3.00D+00  1.25D+00
 E= -1721.54060232775     Delta-E=       -0.000001709581 Rises=F Damp=F
 DIIS: error= 1.24D-05 at cycle  13 NSaved=  13.
 NSaved=13 IEnMin=13 EnMin= -1721.54060232775     IErMin=13 ErrMin= 1.24D-05
 ErrMax= 1.24D-05  0.00D+00 EMaxC= 1.00D-01 BMatC= 3.42D-07 BMatP= 6.79D-07
 IDIUse=1 WtCom= 1.00D+00 WtEn= 0.00D+00
 Coeff-Com: -0.196D-03 0.277D-03 0.301D-04-0.174D-03 0.102D-02-0.918D-02
 Coeff-Com: -0.458D-01 0.770D-02 0.378D+00-0.253D+00-0.439D+00-0.166D-01
 Coeff-Com:  0.138D+01
 Coeff:     -0.196D-03 0.277D-03 0.301D-04-0.174D-03 0.102D-02-0.918D-02
 Coeff:     -0.458D-01 0.770D-02 0.378D+00-0.253D+00-0.439D+00-0.166D-01
 Coeff:      0.138D+01
 Gap=     0.084 Goal=   None    Shift=    0.000
 Gap=     0.080 Goal=   None    Shift=    0.000
 RMSDP=2.27D-05 MaxDP=1.34D-03 DE=-1.71D-06 OVMax= 5.27D-03

 Cycle  14  Pass 1  IDiag  1:
 RMSU=  1.26D-05    CP:  5.60D-02  3.00D+00  8.55D-01  8.59D-01  8.54D-01
                    CP:  9.09D-01  1.83D+00  3.00D+00  3.00D+00  3.00D+00
                    CP:  3.00D+00  1.49D+00  2.50D+00
 E= -1721.54060420289     Delta-E=       -0.000001875143 Rises=F Damp=F
 DIIS: error= 1.26D-05 at cycle  14 NSaved=  14.
 NSaved=14 IEnMin=14 EnMin= -1721.54060420289     IErMin=13 ErrMin= 1.24D-05
 ErrMax= 1.26D-05  0.00D+00 EMaxC= 1.00D-01 BMatC= 2.79D-07 BMatP= 3.42D-07
 IDIUse=1 WtCom= 1.00D+00 WtEn= 0.00D+00
 Coeff-Com: -0.220D-03 0.274D-03-0.989D-04 0.714D-03 0.457D-02-0.389D-02
 Coeff-Com: -0.817D-01-0.519D-01 0.229D+00 0.490D-01-0.360D+00-0.301D+00
 Coeff-Com:  0.474D+00 0.104D+01
 Coeff:     -0.220D-03 0.274D-03-0.989D-04 0.714D-03 0.457D-02-0.389D-02
 Coeff:     -0.817D-01-0.519D-01 0.229D+00 0.490D-01-0.360D+00-0.301D+00
 Coeff:      0.474D+00 0.104D+01
 Gap=     0.084 Goal=   None    Shift=    0.000
 Gap=     0.080 Goal=   None    Shift=    0.000
 RMSDP=1.98D-05 MaxDP=1.22D-03 DE=-1.88D-06 OVMax= 4.49D-03

 Cycle  15  Pass 1  IDiag  1:
 RMSU=  9.82D-06    CP:  5.60D-02  3.00D+00  8.55D-01  8.59D-01  8.53D-01
                    CP:  9.09D-01  1.85D+00  3.00D+00  3.00D+00  3.00D+00
                    CP:  3.00D+00  1.70D+00  3.00D+00  1.79D+00
 E= -1721.54060562712     Delta-E=       -0.000001424224 Rises=F Damp=F
 DIIS: error= 1.37D-05 at cycle  15 NSaved=  15.
 NSaved=15 IEnMin=15 EnMin= -1721.54060562712     IErMin=13 ErrMin= 1.24D-05
 ErrMax= 1.37D-05  0.00D+00 EMaxC= 1.00D-01 BMatC= 2.30D-07 BMatP= 2.79D-07
 IDIUse=1 WtCom= 1.00D+00 WtEn= 0.00D+00
 Coeff-Com: -0.160D-03 0.174D-03-0.831D-03 0.114D-02 0.551D-02 0.218D-01
 Coeff-Com: -0.175D-01-0.587D-01-0.285D+00 0.399D+00 0.421D+00 0.224D-01
 Coeff-Com: -0.185D+01-0.160D+01 0.394D+01
 Coeff:     -0.160D-03 0.174D-03-0.831D-03 0.114D-02 0.551D-02 0.218D-01
 Coeff:     -0.175D-01-0.587D-01-0.285D+00 0.399D+00 0.421D+00 0.224D-01
 Coeff:     -0.185D+01-0.160D+01 0.394D+01
 Gap=     0.084 Goal=   None    Shift=    0.000
 Gap=     0.080 Goal=   None    Shift=    0.000
 RMSDP=6.43D-05 MaxDP=4.50D-03 DE=-1.42D-06 OVMax= 1.41D-02

 Cycle  16  Pass 1  IDiag  1:
 RMSU=  3.93D-05    CP:  5.60D-02  3.00D+00  8.55D-01  8.60D-01  8.54D-01
                    CP:  9.18D-01  1.82D+00  3.00D+00  3.00D+00  3.00D+00
                    CP:  3.00D+00  2.16D+00  3.00D+00  3.00D+00  3.00D+00
 E= -1721.54060948990     Delta-E=       -0.000003862780 Rises=F Damp=F
 DIIS: error= 9.15D-06 at cycle  16 NSaved=  16.
 NSaved=16 IEnMin=16 EnMin= -1721.54060948990     IErMin=16 ErrMin= 9.15D-06
 ErrMax= 9.15D-06  0.00D+00 EMaxC= 1.00D-01 BMatC= 1.34D-07 BMatP= 2.30D-07
 IDIUse=1 WtCom= 1.00D+00 WtEn= 0.00D+00
 Coeff-Com: -0.427D-04 0.203D-04-0.786D-03 0.380D-03 0.185D-02 0.200D-01
 Coeff-Com:  0.369D-01-0.782D-02-0.329D+00 0.280D+00 0.533D+00 0.183D+00
 Coeff-Com: -0.183D+01-0.215D+01 0.321D+01 0.105D+01
 Coeff:     -0.427D-04 0.203D-04-0.786D-03 0.380D-03 0.185D-02 0.200D-01
 Coeff:      0.369D-01-0.782D-02-0.329D+00 0.280D+00 0.533D+00 0.183D+00
 Coeff:     -0.183D+01-0.215D+01 0.321D+01 0.105D+01
 Gap=     0.084 Goal=   None    Shift=    0.000
 Gap=     0.080 Goal=   None    Shift=    0.000
 RMSDP=6.24D-05 MaxDP=4.37D-03 DE=-3.86D-06 OVMax= 1.34D-02

 Cycle  17  Pass 1  IDiag  1:
 RMSU=  1.17D-05    CP:  5.60D-02  3.00D+00  8.55D-01  8.60D-01  8.55D-01
                    CP:  9.28D-01  1.78D+00  3.00D+00  3.00D+00  3.00D+00
                    CP:  3.00D+00  2.54D+00  3.00D+00  3.00D+00  3.00D+00
                    CP:  2.49D+00
 E= -1721.54061139059     Delta-E=       -0.000001900696 Rises=F Damp=F
 DIIS: error= 3.55D-06 at cycle  17 NSaved=  17.
 NSaved=17 IEnMin=17 EnMin= -1721.54061139059     IErMin=17 ErrMin= 3.55D-06
 ErrMax= 3.55D-06  0.00D+00 EMaxC= 1.00D-01 BMatC= 4.64D-08 BMatP= 1.34D-07
 IDIUse=1 WtCom= 1.00D+00 WtEn= 0.00D+00
 Coeff-Com: -0.564D-05 0.958D-05-0.217D-03-0.491D-04 0.180D-03 0.420D-02
 Coeff-Com:  0.117D-01 0.129D-02-0.747D-01 0.745D-01 0.104D+00 0.187D-01
 Coeff-Com: -0.374D+00-0.517D+00 0.379D+00 0.609D+00 0.762D+00
 Coeff:     -0.564D-05 0.958D-05-0.217D-03-0.491D-04 0.180D-03 0.420D-02
 Coeff:      0.117D-01 0.129D-02-0.747D-01 0.745D-01 0.104D+00 0.187D-01
 Coeff:     -0.374D+00-0.517D+00 0.379D+00 0.609D+00 0.762D+00
 Gap=     0.083 Goal=   None    Shift=    0.000
 Gap=     0.080 Goal=   None    Shift=    0.000
 RMSDP=2.25D-05 MaxDP=1.55D-03 DE=-1.90D-06 OVMax= 4.77D-03

 Cycle  18  Pass 1  IDiag  1:
 RMSU=  2.35D-06    CP:  5.60D-02  3.00D+00  8.55D-01  8.60D-01  8.56D-01
                    CP:  9.30D-01  1.77D+00  3.00D+00  3.00D+00  3.00D+00
                    CP:  3.00D+00  2.70D+00  3.00D+00  3.00D+00  3.00D+00
                    CP:  3.00D+00  1.32D+00
 E= -1721.54061162071     Delta-E=       -0.000000230119 Rises=F Damp=F
 DIIS: error= 1.56D-06 at cycle  18 NSaved=  18.
 NSaved=18 IEnMin=18 EnMin= -1721.54061162071     IErMin=18 ErrMin= 1.56D-06
 ErrMax= 1.56D-06  0.00D+00 EMaxC= 1.00D-01 BMatC= 7.49D-09 BMatP= 4.64D-08
 IDIUse=1 WtCom= 1.00D+00 WtEn= 0.00D+00
 Coeff-Com:  0.640D-05-0.221D-05 0.898D-04 0.124D-03 0.416D-03-0.164D-02
 Coeff-Com: -0.178D-01-0.155D-01 0.190D-01 0.425D-01-0.680D-01-0.919D-01
 Coeff-Com:  0.125D+00 0.507D+00-0.218D+00-0.508D+00-0.474D+00 0.170D+01
 Coeff:      0.640D-05-0.221D-05 0.898D-04 0.124D-03 0.416D-03-0.164D-02
 Coeff:     -0.178D-01-0.155D-01 0.190D-01 0.425D-01-0.680D-01-0.919D-01
 Coeff:      0.125D+00 0.507D+00-0.218D+00-0.508D+00-0.474D+00 0.170D+01
 Gap=     0.083 Goal=   None    Shift=    0.000
 Gap=     0.080 Goal=   None    Shift=    0.000
 RMSDP=6.43D-06 MaxDP=3.89D-04 DE=-2.30D-07 OVMax= 1.20D-03

 Cycle  19  Pass 1  IDiag  1:
 RMSU=  5.40D-06    CP:  5.60D-02  3.00D+00  8.55D-01  8.60D-01  8.56D-01
                    CP:  9.32D-01  1.76D+00  3.00D+00  3.00D+00  3.00D+00
                    CP:  3.00D+00  2.72D+00  3.00D+00  3.00D+00  3.00D+00
                    CP:  3.00D+00  1.33D+00  2.02D+00
 E= -1721.54061164436     Delta-E=       -0.000000023651 Rises=F Damp=F
 DIIS: error= 8.31D-07 at cycle  19 NSaved=  19.
 NSaved=19 IEnMin=19 EnMin= -1721.54061164436     IErMin=19 ErrMin= 8.31D-07
 ErrMax= 8.31D-07  0.00D+00 EMaxC= 1.00D-01 BMatC= 2.71D-09 BMatP= 7.49D-09
 IDIUse=1 WtCom= 1.00D+00 WtEn= 0.00D+00
 Coeff-Com:  0.757D-05-0.712D-05 0.598D-04 0.340D-04 0.846D-04-0.115D-02
 Coeff-Com: -0.686D-02-0.530D-02 0.150D-01 0.450D-02-0.372D-01-0.299D-01
 Coeff-Com:  0.123D+00 0.239D+00-0.244D+00-0.188D+00-0.154D+00 0.722D+00
 Coeff-Com:  0.562D+00
 Coeff:      0.757D-05-0.712D-05 0.598D-04 0.340D-04 0.846D-04-0.115D-02
 Coeff:     -0.686D-02-0.530D-02 0.150D-01 0.450D-02-0.372D-01-0.299D-01
 Coeff:      0.123D+00 0.239D+00-0.244D+00-0.188D+00-0.154D+00 0.722D+00
 Coeff:      0.562D+00
 Gap=     0.083 Goal=   None    Shift=    0.000
 Gap=     0.080 Goal=   None    Shift=    0.000
 RMSDP=3.38D-06 MaxDP=2.30D-04 DE=-2.37D-08 OVMax= 7.09D-04

 Cycle  20  Pass 1  IDiag  1:
 RMSU=  1.02D-06    CP:  5.60D-02  3.00D+00  8.55D-01  8.60D-01  8.56D-01
                    CP:  9.32D-01  1.76D+00  3.00D+00  3.00D+00  3.00D+00
                    CP:  3.00D+00  2.74D+00  3.00D+00  3.00D+00  3.00D+00
                    CP:  3.00D+00  1.37D+00  2.50D+00  1.52D+00
 E= -1721.54061164786     Delta-E=       -0.000000003496 Rises=F Damp=F
 DIIS: error= 2.71D-07 at cycle  20 NSaved=  20.
 NSaved=20 IEnMin=20 EnMin= -1721.54061164786     IErMin=20 ErrMin= 2.71D-07
 ErrMax= 2.71D-07  0.00D+00 EMaxC= 1.00D-01 BMatC= 2.30D-10 BMatP= 2.71D-09
 IDIUse=1 WtCom= 1.00D+00 WtEn= 0.00D+00
 Coeff-Com:  0.108D-05 0.448D-06 0.336D-04 0.221D-05-0.694D-06-0.772D-03
 Coeff-Com: -0.284D-02-0.131D-02 0.131D-01-0.537D-02-0.227D-01-0.106D-01
 Coeff-Com:  0.751D-01 0.922D-01-0.144D+00-0.349D-01 0.691D-03 0.147D+00
 Coeff-Com:  0.832D-01 0.811D+00
 Coeff:      0.108D-05 0.448D-06 0.336D-04 0.221D-05-0.694D-06-0.772D-03
 Coeff:     -0.284D-02-0.131D-02 0.131D-01-0.537D-02-0.227D-01-0.106D-01
 Coeff:      0.751D-01 0.922D-01-0.144D+00-0.349D-01 0.691D-03 0.147D+00
 Coeff:      0.832D-01 0.811D+00
 Gap=     0.083 Goal=   None    Shift=    0.000
 Gap=     0.080 Goal=   None    Shift=    0.000
 RMSDP=3.96D-07 MaxDP=2.35D-05 DE=-3.50D-09 OVMax= 7.68D-05

 Cycle  21  Pass 1  IDiag  1:
 Restarting incremental Fock formation.
 E= -1721.54061164795     Delta-E=       -0.000000000093 Rises=F Damp=F
 DIIS: error= 1.30D-07 at cycle  21 NSaved=  20.
 NSaved=20 IEnMin=20 EnMin= -1721.54061164795     IErMin=20 ErrMin= 1.30D-07
 ErrMax= 1.30D-07  0.00D+00 EMaxC= 1.00D-01 BMatC= 1.04D-10 BMatP= 2.30D-10
 IDIUse=1 WtCom= 1.00D+00 WtEn= 0.00D+00
 Coeff-Com:  0.330D-06 0.111D-04-0.702D-05-0.343D-04-0.321D-03-0.449D-03
 Coeff-Com:  0.396D-03 0.583D-02-0.454D-02-0.752D-02-0.157D-02 0.223D-01
 Coeff-Com:  0.141D-01-0.384D-01 0.136D-01 0.336D-01-0.863D-01-0.166D+00
 Coeff-Com:  0.486D+00 0.730D+00
 Coeff:      0.330D-06 0.111D-04-0.702D-05-0.343D-04-0.321D-03-0.449D-03
 Coeff:      0.396D-03 0.583D-02-0.454D-02-0.752D-02-0.157D-02 0.223D-01
 Coeff:      0.141D-01-0.384D-01 0.136D-01 0.336D-01-0.863D-01-0.166D+00
 Coeff:      0.486D+00 0.730D+00
 Gap=     0.083 Goal=   None    Shift=    0.000
 Gap=     0.080 Goal=   None    Shift=    0.000
 RMSDP=1.70D-07 MaxDP=1.08D-05 DE=-9.28D-11 OVMax= 2.61D-05

 Cycle  22  Pass 1  IDiag  1:
 RMSU=  1.56D-07    CP:  1.00D+00
 E= -1721.54061164797     Delta-E=       -0.000000000018 Rises=F Damp=F
 DIIS: error= 3.16D-08 at cycle  22 NSaved=  20.
 NSaved=20 IEnMin=20 EnMin= -1721.54061164797     IErMin=20 ErrMin= 3.16D-08
 ErrMax= 3.16D-08  0.00D+00 EMaxC= 1.00D-01 BMatC= 6.47D-12 BMatP= 1.04D-10
 IDIUse=1 WtCom= 1.00D+00 WtEn= 0.00D+00
 Coeff-Com: -0.210D-05-0.856D-06 0.139D-05 0.411D-04 0.738D-04 0.588D-04
 Coeff-Com: -0.371D-03-0.289D-03 0.265D-03 0.284D-03 0.101D-02 0.980D-03
 Coeff-Com: -0.568D-03 0.184D-02 0.565D-02-0.272D-01-0.619D-01 0.167D-01
 Coeff-Com:  0.213D+00 0.850D+00
 Coeff:     -0.210D-05-0.856D-06 0.139D-05 0.411D-04 0.738D-04 0.588D-04
 Coeff:     -0.371D-03-0.289D-03 0.265D-03 0.284D-03 0.101D-02 0.980D-03
 Coeff:     -0.568D-03 0.184D-02 0.565D-02-0.272D-01-0.619D-01 0.167D-01
 Coeff:      0.213D+00 0.850D+00
 Gap=     0.083 Goal=   None    Shift=    0.000
 Gap=     0.080 Goal=   None    Shift=    0.000
 RMSDP=1.48D-07 MaxDP=1.02D-05 DE=-1.82D-11 OVMax= 3.03D-05

 Cycle  23  Pass 1  IDiag  1:
 RMSU=  1.47D-07    CP:  1.00D+00  1.07D+00
 E= -1721.54061164796     Delta-E=        0.000000000011 Rises=F Damp=F
 DIIS: error= 1.44D-08 at cycle  23 NSaved=  20.
 NSaved=20 IEnMin=19 EnMin= -1721.54061164797     IErMin=20 ErrMin= 1.44D-08
 ErrMax= 1.44D-08  0.00D+00 EMaxC= 1.00D-01 BMatC= 7.76D-13 BMatP= 6.47D-12
 IDIUse=1 WtCom= 1.00D+00 WtEn= 0.00D+00
 Coeff-Com: -0.147D-06 0.766D-06-0.648D-05-0.314D-04-0.649D-06 0.201D-03
 Coeff-Com: -0.829D-04-0.288D-03-0.274D-03 0.577D-03 0.146D-02-0.718D-03
 Coeff-Com: -0.131D-02-0.102D-02 0.352D-02-0.555D-02-0.456D-01-0.888D-02
 Coeff-Com:  0.198D+00 0.860D+00
 Coeff:     -0.147D-06 0.766D-06-0.648D-05-0.314D-04-0.649D-06 0.201D-03
 Coeff:     -0.829D-04-0.288D-03-0.274D-03 0.577D-03 0.146D-02-0.718D-03
 Coeff:     -0.131D-02-0.102D-02 0.352D-02-0.555D-02-0.456D-01-0.888D-02
 Coeff:      0.198D+00 0.860D+00
 Gap=     0.083 Goal=   None    Shift=    0.000
 Gap=     0.080 Goal=   None    Shift=    0.000
 RMSDP=3.52D-08 MaxDP=1.91D-06 DE= 1.09D-11 OVMax= 5.71D-06

 Cycle  24  Pass 1  IDiag  1:
 RMSU=  1.36D-08    CP:  1.00D+00  1.17D+00  8.09D-01
 E= -1721.54061164798     Delta-E=       -0.000000000016 Rises=F Damp=F
 DIIS: error= 4.27D-09 at cycle  24 NSaved=  20.
 NSaved=20 IEnMin=20 EnMin= -1721.54061164798     IErMin=20 ErrMin= 4.27D-09
 ErrMax= 4.27D-09  0.00D+00 EMaxC= 1.00D-01 BMatC= 6.68D-14 BMatP= 7.76D-13
 IDIUse=1 WtCom= 1.00D+00 WtEn= 0.00D+00
 Coeff-Com: -0.174D-06 0.107D-05 0.163D-04 0.123D-04-0.907D-05-0.147D-04
 Coeff-Com:  0.587D-04 0.860D-04-0.474D-04-0.442D-03 0.489D-04 0.129D-03
 Coeff-Com:  0.978D-04 0.150D-02 0.554D-03-0.130D-01-0.142D-01-0.721D-02
 Coeff-Com:  0.207D+00 0.826D+00
 Coeff:     -0.174D-06 0.107D-05 0.163D-04 0.123D-04-0.907D-05-0.147D-04
 Coeff:      0.587D-04 0.860D-04-0.474D-04-0.442D-03 0.489D-04 0.129D-03
 Coeff:      0.978D-04 0.150D-02 0.554D-03-0.130D-01-0.142D-01-0.721D-02
 Coeff:      0.207D+00 0.826D+00
 Gap=     0.083 Goal=   None    Shift=    0.000
 Gap=     0.080 Goal=   None    Shift=    0.000
 RMSDP=1.17D-08 MaxDP=6.88D-07 DE=-1.64D-11 OVMax= 2.07D-06

 Cycle  25  Pass 1  IDiag  1:
 RMSU=  5.54D-09    CP:  1.00D+00  1.20D+00  7.49D-01  1.21D+00
 E= -1721.54061164798     Delta-E=        0.000000000000 Rises=F Damp=F
 DIIS: error= 1.32D-09 at cycle  25 NSaved=  20.
 NSaved=20 IEnMin=19 EnMin= -1721.54061164798     IErMin=20 ErrMin= 1.32D-09
 ErrMax= 1.32D-09  0.00D+00 EMaxC= 1.00D-01 BMatC= 5.94D-15 BMatP= 6.68D-14
 IDIUse=1 WtCom= 1.00D+00 WtEn= 0.00D+00
 Coeff-Com:  0.758D-06 0.438D-05 0.356D-05-0.124D-05-0.230D-04 0.138D-04
 Coeff-Com:  0.464D-04 0.259D-04-0.180D-03 0.174D-04 0.107D-03 0.842D-04
 Coeff-Com: -0.813D-04 0.854D-03 0.290D-02-0.167D-02-0.210D-01-0.278D-01
 Coeff-Com:  0.179D+00 0.868D+00
 Coeff:      0.758D-06 0.438D-05 0.356D-05-0.124D-05-0.230D-04 0.138D-04
 Coeff:      0.464D-04 0.259D-04-0.180D-03 0.174D-04 0.107D-03 0.842D-04
 Coeff:     -0.813D-04 0.854D-03 0.290D-02-0.167D-02-0.210D-01-0.278D-01
 Coeff:      0.179D+00 0.868D+00
 Gap=     0.083 Goal=   None    Shift=    0.000
 Gap=     0.080 Goal=   None    Shift=    0.000
 RMSDP=4.22D-09 MaxDP=2.73D-07 DE= 0.00D+00 OVMax= 8.23D-07

 SCF Done:  E(UO3LYP) =  -1721.54061165     A.U. after   25 cycles
            NFock= 25  Conv=0.42D-08     -V/T= 2.0007
 <Sx>= 0.0000 <Sy>= 0.0000 <Sz>= 2.0000 <S**2>= 6.0103 S= 2.0021
 <L.S>=  0.00000000000    
 KE= 1.720278410852D+03 PE=-5.597530128020D+03 EE= 1.387922805300D+03
 Annihilation of the first spin contaminant:
 S**2 before annihilation     6.0103,   after     6.0000
 Leave Link  502 at Wed Mar  5 18:42:35 2025, MaxMem= 13421772800 cpu:            4789.5 elap:              42.0
 (Enter /gpfs/fs1/soft/improv/software/custom-built/gaussian/g16/l508.exe)
 QCSCF skips out because SCF is already converged.
 Leave Link  508 at Wed Mar  5 18:42:35 2025, MaxMem= 13421772800 cpu:               0.3 elap:               0.0
 (Enter /gpfs/fs1/soft/improv/software/custom-built/gaussian/g16/l801.exe)
 DoSCS=F DFT=T ScalE2(SS,OS)=  1.000000  1.000000
 Range of M.O.s used for correlation:     1   317
 NBasis=   317 NAE=    44 NBE=    40 NFC=     0 NFV=     0
 NROrb=    317 NOA=    44 NOB=    40 NVA=   273 NVB=   277

 **** Warning!!: The largest alpha MO coefficient is  0.25158317D+03


 **** Warning!!: The smallest alpha delta epsilon is  0.83442805D-01


 **** Warning!!: The largest beta MO coefficient is  0.25638244D+03


 **** Warning!!: The smallest beta delta epsilon is  0.79962340D-01

 Leave Link  801 at Wed Mar  5 18:42:36 2025, MaxMem= 13421772800 cpu:               0.4 elap:               0.0
 (Enter /gpfs/fs1/soft/improv/software/custom-built/gaussian/g16/l1101.exe)
 Using compressed storage, NAtomX=    19.
 Will process     20 centers per pass.
 Leave Link 1101 at Wed Mar  5 18:42:36 2025, MaxMem= 13421772800 cpu:              51.1 elap:               0.5
 (Enter /gpfs/fs1/soft/improv/software/custom-built/gaussian/g16/l1102.exe)
 Symmetrizing basis deriv contribution to polar:
 IMax=3 JMax=2 DiffMx= 0.00D+00
 Leave Link 1102 at Wed Mar  5 18:42:37 2025, MaxMem= 13421772800 cpu:               1.0 elap:               0.0
 (Enter /gpfs/fs1/soft/improv/software/custom-built/gaussian/g16/l1110.exe)
 Forming Gx(P) for the SCF density, NAtomX=    19.
 Integral derivatives from FoFJK, PRISM(SPDF).
 Do as many integral derivatives as possible in FoFJK.
 G2DrvN: MDV=   13421770631.
 G2DrvN: will do    20 centers at a time, making    1 passes.
 Calling FoFCou, ICntrl=  3107 FMM=F I1Cent=   0 AccDes= 0.00D+00.
 FoFJK:  IHMeth= 1 ICntrl=    3107 DoSepK=F KAlg= 0 I1Cent=           0 FoldK=F
 IRaf=         0 NMat=       1 IRICut=       1 DoRegI=T DoRafI=F ISym2E= 0 IDoP0=0 IntGTp=1.
 FoFCou: FMM=F IPFlag=           0 FMFlag=      100000 FMFlg1=           0
         NFxFlg=           0 DoJE=F BraDBF=F KetDBF=F FulRan=T
         wScrn=  0.000000 ICntrl=      3107 IOpCl=  1 I1Cent=           0 NGrid=           0
         NMat0=    1 NMatS0=      1 NMatT0=    0 NMatD0=    1 NMtDS0=    0 NMtDT0=    0
 Symmetry not used in FoFCou.
 End of G2Drv F.D. properties file   721 does not exist.
 End of G2Drv F.D. properties file   722 does not exist.
 End of G2Drv F.D. properties file   788 does not exist.
 Leave Link 1110 at Wed Mar  5 18:42:52 2025, MaxMem= 13421772800 cpu:            1863.2 elap:              15.0
 (Enter /gpfs/fs1/soft/improv/software/custom-built/gaussian/g16/l1002.exe)
 Minotr:  UHF open shell wavefunction.
          IDoAtm=1111111111111111111
          Direct CPHF calculation.
          Differentiating once with respect to electric field.
                with respect to dipole field.
          Differentiating once with respect to nuclear coordinates.
          Requested convergence is 1.0D-08 RMS, and 1.0D-07 maximum.
          Secondary convergence is 1.0D-12 RMS, and 1.0D-12 maximum.
          NewPWx=T KeepS1=F KeepF1=F KeepIn=T MapXYZ=F SortEE=F KeepMc=T.
         6034 words used for storage of precomputed grid.
 Two-electron integrals replicated using symmetry.
          MDV=   13421772800 using IRadAn=       1.
          Solving linear equations simultaneously, MaxMat=     384.
 FoF2E skips out because all densities are zero.
 CalDSu exits because no D1Ps are significant.
 FoFJK:  IHMeth= 1 ICntrl=       0 DoSepK=F KAlg= 0 I1Cent=           0 FoldK=F
 IRaf= 990000000 NMat=      57 IRICut=     142 DoRegI=T DoRafI=T ISym2E= 2 IDoP0=3 IntGTp=2.
 FoFCou: FMM=F IPFlag=           0 FMFlag=      100000 FMFlg1=           0
         NFxFlg=           0 DoJE=F BraDBF=F KetDBF=F FulRan=T
         wScrn=  0.000000 ICntrl=         0 IOpCl=  1 I1Cent=           0 NGrid=           0
         NMat0=   57 NMatS0=     57 NMatT0=    0 NMatD0=   57 NMtDS0=    0 NMtDT0=    0
 Integrals replicated using symmetry in FoFCou.
 Raff kept on since  98.39% of shell-pairs survive, threshold=   0.20 IRatSp=98.
          There are    60 degrees of freedom in the 1st order CPHF.  IDoFFX=6 NUNeed=     3.
     57 vectors produced by pass  0 Test12= 3.85D-14 1.67D-09 XBig12= 8.20D+01 2.37D+00.
 AX will form    57 AO Fock derivatives at one time.
     57 vectors produced by pass  1 Test12= 3.85D-14 1.67D-09 XBig12= 6.05D+00 3.44D-01.
     57 vectors produced by pass  2 Test12= 3.85D-14 1.67D-09 XBig12= 6.16D-02 4.35D-02.
     57 vectors produced by pass  3 Test12= 3.85D-14 1.67D-09 XBig12= 6.52D-04 2.93D-03.
     57 vectors produced by pass  4 Test12= 3.85D-14 1.67D-09 XBig12= 7.66D-06 3.17D-04.
     57 vectors produced by pass  5 Test12= 3.85D-14 1.67D-09 XBig12= 3.57D-08 2.00D-05.
     37 vectors produced by pass  6 Test12= 3.85D-14 1.67D-09 XBig12= 1.10D-10 1.01D-06.
      9 vectors produced by pass  7 Test12= 3.85D-14 1.67D-09 XBig12= 2.54D-13 4.20D-08.
      1 vectors produced by pass  8 Test12= 3.85D-14 1.67D-09 XBig12= 7.21D-16 2.26D-09.
 InvSVY:  IOpt=1 It=  1 EMax= 7.11D-15
 Solved reduced A of dimension   389 with    60 vectors.
 FullF1:  Do perturbations      1 to       3.
 Isotropic polarizability for W=    0.000000       55.69 Bohr**3.
 End of Minotr F.D. properties file   721 does not exist.
 End of Minotr F.D. properties file   722 does not exist.
 End of Minotr F.D. properties file   788 does not exist.
 Leave Link 1002 at Wed Mar  5 18:43:57 2025, MaxMem= 13421772800 cpu:            7828.1 elap:              64.9
 (Enter /gpfs/fs1/soft/improv/software/custom-built/gaussian/g16/l601.exe)
 Copying SCF densities to generalized density rwf, IOpCl= 1 IROHF=0.

 **********************************************************************

            Population analysis using the SCF Density.

 **********************************************************************

 Orbital symmetries:
 Alpha Orbitals:
       Occupied  (A) (A) (A) (A) (A) (A) (A) (A) (A) (A) (A) (A)
                 (A) (A) (A) (A) (A) (A) (A) (A) (A) (A) (A) (A)
                 (A) (A) (A) (A) (A) (A) (A) (A) (A) (A) (A) (A)
                 (A) (A) (A) (A) (A) (A) (A) (A)
       Virtual   (A) (A) (A) (A) (A) (A) (A) (A) (A) (A) (A) (A)
                 (A) (A) (A) (A) (A) (A) (A) (A) (A) (A) (A) (A)
                 (A) (A) (A) (A) (A) (A) (A) (A) (A) (A) (A) (A)
                 (A) (A) (A) (A) (A) (A) (A) (A) (A) (A) (A) (A)
                 (A) (A) (A) (A) (A) (A) (A) (A) (A) (A) (A) (A)
                 (A) (A) (A) (A) (A) (A) (A) (A) (A) (A) (A) (A)
                 (A) (A) (A) (A) (A) (A) (A) (A) (A) (A) (A) (A)
                 (A) (A) (A) (A) (A) (A) (A) (A) (A) (A) (A) (A)
                 (A) (A) (A) (A) (A) (A) (A) (A) (A) (A) (A) (A)
                 (A) (A) (A) (A) (A) (A) (A) (A) (A) (A) (A) (A)
                 (A) (A) (A) (A) (A) (A) (A) (A) (A) (A) (A) (A)
                 (A) (A) (A) (A) (A) (A) (A) (A) (A) (A) (A) (A)
                 (A) (A) (A) (A) (A) (A) (A) (A) (A) (A) (A) (A)
                 (A) (A) (A) (A) (A) (A) (A) (A) (A) (A) (A) (A)
                 (A) (A) (A) (A) (A) (A) (A) (A) (A) (A) (A) (A)
                 (A) (A) (A) (A) (A) (A) (A) (A) (A) (A) (A) (A)
                 (A) (A) (A) (A) (A) (A) (A) (A) (A) (A) (A) (A)
                 (A) (A) (A) (A) (A) (A) (A) (A) (A) (A) (A) (A)
                 (A) (A) (A) (A) (A) (A) (A) (A) (A) (A) (A) (A)
                 (A) (A) (A) (A) (A) (A) (A) (A) (A) (A) (A) (A)
                 (A) (A) (A) (A) (A) (A) (A) (A) (A) (A) (A) (A)
                 (A) (A) (A) (A) (A) (A) (A) (A) (A) (A) (A) (A)
                 (A) (A) (A) (A) (A) (A) (A) (A) (A)
 Beta  Orbitals:
       Occupied  (A) (A) (A) (A) (A) (A) (A) (A) (A) (A) (A) (A)
                 (A) (A) (A) (A) (A) (A) (A) (A) (A) (A) (A) (A)
                 (A) (A) (A) (A) (A) (A) (A) (A) (A) (A) (A) (A)
                 (A) (A) (A) (A)
       Virtual   (A) (A) (A) (A) (A) (A) (A) (A) (A) (A) (A) (A)
                 (A) (A) (A) (A) (A) (A) (A) (A) (A) (A) (A) (A)
                 (A) (A) (A) (A) (A) (A) (A) (A) (A) (A) (A) (A)
                 (A) (A) (A) (A) (A) (A) (A) (A) (A) (A) (A) (A)
                 (A) (A) (A) (A) (A) (A) (A) (A) (A) (A) (A) (A)
                 (A) (A) (A) (A) (A) (A) (A) (A) (A) (A) (A) (A)
                 (A) (A) (A) (A) (A) (A) (A) (A) (A) (A) (A) (A)
                 (A) (A) (A) (A) (A) (A) (A) (A) (A) (A) (A) (A)
                 (A) (A) (A) (A) (A) (A) (A) (A) (A) (A) (A) (A)
                 (A) (A) (A) (A) (A) (A) (A) (A) (A) (A) (A) (A)
                 (A) (A) (A) (A) (A) (A) (A) (A) (A) (A) (A) (A)
                 (A) (A) (A) (A) (A) (A) (A) (A) (A) (A) (A) (A)
                 (A) (A) (A) (A) (A) (A) (A) (A) (A) (A) (A) (A)
                 (A) (A) (A) (A) (A) (A) (A) (A) (A) (A) (A) (A)
                 (A) (A) (A) (A) (A) (A) (A) (A) (A) (A) (A) (A)
                 (A) (A) (A) (A) (A) (A) (A) (A) (A) (A) (A) (A)
                 (A) (A) (A) (A) (A) (A) (A) (A) (A) (A) (A) (A)
                 (A) (A) (A) (A) (A) (A) (A) (A) (A) (A) (A) (A)
                 (A) (A) (A) (A) (A) (A) (A) (A) (A) (A) (A) (A)
                 (A) (A) (A) (A) (A) (A) (A) (A) (A) (A) (A) (A)
                 (A) (A) (A) (A) (A) (A) (A) (A) (A) (A) (A) (A)
                 (A) (A) (A) (A) (A) (A) (A) (A) (A) (A) (A) (A)
                 (A) (A) (A) (A) (A) (A) (A) (A) (A) (A) (A) (A)
                 (A)
 The electronic state is 5-A.
 Alpha  occ. eigenvalues -- -255.70097 -30.17567 -26.07976 -26.06604 -26.04901
 Alpha  occ. eigenvalues --  -19.39311 -19.39058 -19.38183 -19.37746 -19.35561
 Alpha  occ. eigenvalues --  -19.35154  -3.77329  -2.59649  -2.56783  -2.53300
 Alpha  occ. eigenvalues --   -1.42673  -1.40354  -1.39834  -1.39281  -1.37206
 Alpha  occ. eigenvalues --   -1.36715  -0.95826  -0.94458  -0.92770  -0.92167
 Alpha  occ. eigenvalues --   -0.90220  -0.89056  -0.85073  -0.83655  -0.83031
 Alpha  occ. eigenvalues --   -0.79867  -0.79539  -0.77078  -0.76500  -0.73209
 Alpha  occ. eigenvalues --   -0.72064  -0.70671  -0.68992  -0.67765  -0.60059
 Alpha  occ. eigenvalues --   -0.58792  -0.55653  -0.47673  -0.46860
 Alpha virt. eigenvalues --   -0.38516  -0.33679  -0.31476  -0.30220  -0.26376
 Alpha virt. eigenvalues --   -0.25336  -0.24569  -0.24311  -0.21558  -0.20192
 Alpha virt. eigenvalues --   -0.19223  -0.19013  -0.18003  -0.16675  -0.16045
 Alpha virt. eigenvalues --   -0.15521  -0.14120  -0.13874  -0.13652  -0.12812
 Alpha virt. eigenvalues --   -0.11033  -0.10325  -0.08984  -0.08684  -0.07546
 Alpha virt. eigenvalues --   -0.07342  -0.05842  -0.04404  -0.03561  -0.03058
 Alpha virt. eigenvalues --   -0.02370  -0.01704  -0.00586   0.00341   0.01669
 Alpha virt. eigenvalues --    0.03306   0.04328   0.05085   0.05824   0.06801
 Alpha virt. eigenvalues --    0.07797   0.08067   0.08676   0.10377   0.10625
 Alpha virt. eigenvalues --    0.14009   0.14297   0.17896   0.19678   0.24844
 Alpha virt. eigenvalues --    0.26504   0.27491   0.28138   0.40419   0.41622
 Alpha virt. eigenvalues --    0.43070   0.44819   0.46525   0.47610   0.49484
 Alpha virt. eigenvalues --    0.50500   0.51599   0.51816   0.52535   0.52885
 Alpha virt. eigenvalues --    0.54857   0.57261   0.58708   0.58968   0.60056
 Alpha virt. eigenvalues --    0.61922   0.63090   0.64047   0.65849   0.69651
 Alpha virt. eigenvalues --    0.70165   0.71274   0.71473   0.72696   0.72807
 Alpha virt. eigenvalues --    0.73527   0.75750   0.78978   0.79652   0.80428
 Alpha virt. eigenvalues --    0.81438   0.85752   0.87230   0.89571   0.92659
 Alpha virt. eigenvalues --    0.94442   0.96218   0.97839   0.99085   1.00342
 Alpha virt. eigenvalues --    1.01709   1.04617   1.05922   1.07338   1.09067
 Alpha virt. eigenvalues --    1.09442   1.10849   1.12664   1.28025   1.28726
 Alpha virt. eigenvalues --    1.37376   1.37893   1.39717   1.40541   1.44940
 Alpha virt. eigenvalues --    1.45519   1.46758   1.47504   1.51051   1.51625
 Alpha virt. eigenvalues --    1.55862   1.56476   1.57983   1.61120   1.64045
 Alpha virt. eigenvalues --    1.68321   1.73619   1.79811   1.86102   1.87974
 Alpha virt. eigenvalues --    1.89912   1.93228   1.93366   1.96942   2.01840
 Alpha virt. eigenvalues --    2.02998   2.03395   2.05808   2.06336   2.13877
 Alpha virt. eigenvalues --    2.18007   2.19390   2.23549   2.26677   2.30154
 Alpha virt. eigenvalues --    2.33131   2.33500   2.38125   2.42981   2.45627
 Alpha virt. eigenvalues --    2.47265   2.52042   2.54522   2.56330   2.57012
 Alpha virt. eigenvalues --    2.58083   2.58903   2.61542   2.61673   2.64243
 Alpha virt. eigenvalues --    2.65134   2.65922   2.68461   2.70072   2.70523
 Alpha virt. eigenvalues --    2.72316   2.72822   2.74366   2.76614   2.79986
 Alpha virt. eigenvalues --    2.84952   2.92842   2.95729   2.98842   3.00617
 Alpha virt. eigenvalues --    3.09210   3.33529   3.65517   3.66603   3.68450
 Alpha virt. eigenvalues --    3.71830   3.73364   3.78895   3.80186   3.81865
 Alpha virt. eigenvalues --    3.85423   3.86634   3.87540   3.87944   3.92752
 Alpha virt. eigenvalues --    3.93357   3.94117   3.95510   3.96445   3.99748
 Alpha virt. eigenvalues --    4.03481   4.04181   4.05939   4.07625   4.10808
 Alpha virt. eigenvalues --    4.12100   4.13658   4.14313   4.17263   4.18705
 Alpha virt. eigenvalues --    4.20035   4.24871   4.31171   4.34177   4.36684
 Alpha virt. eigenvalues --    4.38889   4.41981   4.43030   4.44363   4.45717
 Alpha virt. eigenvalues --    4.51759   4.57387   4.57893   4.59606   4.60829
 Alpha virt. eigenvalues --    4.62810   4.65358   4.69671   4.77050   4.82479
 Alpha virt. eigenvalues --    4.84414   4.85093   4.88329   4.91605   4.98602
 Alpha virt. eigenvalues --    5.01106   5.02194   5.03390   5.03870   5.06099
 Alpha virt. eigenvalues --    5.07256   5.08117   5.09159   5.10916   5.16388
 Alpha virt. eigenvalues --    5.17083   5.23019   5.24402   5.26001   5.27685
 Alpha virt. eigenvalues --    5.30036   5.34292   5.35348   5.36946   5.40454
 Alpha virt. eigenvalues --    5.42471   5.44607   5.46720   5.48258   5.49580
 Alpha virt. eigenvalues --    5.51974   5.53121   5.55323   5.55597   5.58515
 Alpha virt. eigenvalues --    5.62318   5.64108   5.76968   5.78196   6.20001
 Alpha virt. eigenvalues --    7.11376   7.14299   7.15348   7.23389   7.26277
 Alpha virt. eigenvalues --    7.40819  13.51331  13.53662  13.54495  14.09553
 Alpha virt. eigenvalues --   14.14957  14.20048  25.81171
  Beta  occ. eigenvalues -- -255.70008 -30.09964 -26.01313 -26.00624 -25.99739
  Beta  occ. eigenvalues --  -19.39114 -19.38854 -19.37989 -19.37568 -19.35334
  Beta  occ. eigenvalues --  -19.34933  -3.59523  -2.38907  -2.38374  -2.37524
  Beta  occ. eigenvalues --   -1.42171  -1.39860  -1.39314  -1.38791  -1.36642
  Beta  occ. eigenvalues --   -1.36138  -0.95506  -0.93973  -0.92481  -0.91814
  Beta  occ. eigenvalues --   -0.89865  -0.88734  -0.83975  -0.81376  -0.79954
  Beta  occ. eigenvalues --   -0.78650  -0.78275  -0.75457  -0.75286  -0.72062
  Beta  occ. eigenvalues --   -0.70638  -0.69299  -0.67734  -0.66844  -0.46736
  Beta virt. eigenvalues --   -0.38740  -0.37823  -0.36274  -0.33456  -0.31376
  Beta virt. eigenvalues --   -0.30172  -0.28125  -0.27359  -0.25378  -0.24418
  Beta virt. eigenvalues --   -0.23657  -0.22717  -0.21166  -0.19983  -0.19098
  Beta virt. eigenvalues --   -0.18858  -0.17855  -0.16583  -0.15916  -0.15328
  Beta virt. eigenvalues --   -0.13943  -0.13713  -0.13614  -0.12549  -0.10925
  Beta virt. eigenvalues --   -0.10216  -0.08800  -0.08590  -0.07341  -0.07234
  Beta virt. eigenvalues --   -0.05691  -0.04331  -0.03308  -0.02842  -0.02134
  Beta virt. eigenvalues --   -0.01505  -0.00497   0.00522   0.01796   0.03438
  Beta virt. eigenvalues --    0.04531   0.05294   0.06313   0.07164   0.08542
  Beta virt. eigenvalues --    0.08831   0.09121   0.11124   0.11538   0.14920
  Beta virt. eigenvalues --    0.16092   0.19824   0.20881   0.26561   0.27474
  Beta virt. eigenvalues --    0.27823   0.28803   0.40737   0.41903   0.43438
  Beta virt. eigenvalues --    0.45412   0.46885   0.47836   0.49801   0.51182
  Beta virt. eigenvalues --    0.51885   0.52135   0.52987   0.53536   0.55069
  Beta virt. eigenvalues --    0.57504   0.59236   0.59560   0.60366   0.62155
  Beta virt. eigenvalues --    0.63357   0.64335   0.66139   0.70297   0.70666
  Beta virt. eigenvalues --    0.71799   0.71982   0.73163   0.73379   0.74006
  Beta virt. eigenvalues --    0.76369   0.79446   0.80127   0.80941   0.81867
  Beta virt. eigenvalues --    0.86425   0.87771   0.90619   0.93460   0.95364
  Beta virt. eigenvalues --    0.97057   0.99156   1.00115   1.01255   1.02599
  Beta virt. eigenvalues --    1.05194   1.07445   1.08900   1.10541   1.10961
  Beta virt. eigenvalues --    1.12197   1.14691   1.30960   1.31280   1.38858
  Beta virt. eigenvalues --    1.39657   1.41019   1.41895   1.47235   1.47929
  Beta virt. eigenvalues --    1.49260   1.50193   1.53164   1.54026   1.57920
  Beta virt. eigenvalues --    1.59421   1.62104   1.63498   1.66366   1.69057
  Beta virt. eigenvalues --    1.75597   1.81082   1.86458   1.88347   1.90458
  Beta virt. eigenvalues --    1.93654   1.93850   1.97464   2.02463   2.03671
  Beta virt. eigenvalues --    2.04340   2.06296   2.06835   2.14494   2.19406
  Beta virt. eigenvalues --    2.19863   2.24352   2.27249   2.31688   2.34069
  Beta virt. eigenvalues --    2.34981   2.39494   2.44544   2.47092   2.48863
  Beta virt. eigenvalues --    2.53800   2.55944   2.57438   2.58592   2.59506
  Beta virt. eigenvalues --    2.59822   2.62239   2.62707   2.64835   2.66156
  Beta virt. eigenvalues --    2.66669   2.69563   2.70887   2.72914   2.74144
  Beta virt. eigenvalues --    2.74857   2.76112   2.78833   2.81070   2.85515
  Beta virt. eigenvalues --    2.94152   2.96524   3.02587   3.04417   3.12169
  Beta virt. eigenvalues --    3.36404   3.67541   3.68125   3.70571   3.72716
  Beta virt. eigenvalues --    3.74101   3.79574   3.81017   3.82663   3.86505
  Beta virt. eigenvalues --    3.87986   3.88772   3.92500   3.95333   3.95751
  Beta virt. eigenvalues --    3.96040   3.98318   3.99855   4.00981   4.07106
  Beta virt. eigenvalues --    4.07450   4.09991   4.11966   4.12945   4.15459
  Beta virt. eigenvalues --    4.16911   4.18107   4.19790   4.20628   4.22166
  Beta virt. eigenvalues --    4.26200   4.39466   4.40188   4.41078   4.41904
  Beta virt. eigenvalues --    4.46044   4.47035   4.48999   4.50064   4.54715
  Beta virt. eigenvalues --    4.60012   4.60334   4.62163   4.64006   4.66194
  Beta virt. eigenvalues --    4.67879   4.74488   4.78439   4.84531   4.85588
  Beta virt. eigenvalues --    4.86686   4.89606   4.93111   5.00332   5.01641
  Beta virt. eigenvalues --    5.02627   5.04108   5.04388   5.06830   5.07910
  Beta virt. eigenvalues --    5.09345   5.11603   5.13701   5.18660   5.19295
  Beta virt. eigenvalues --    5.24523   5.26000   5.27287   5.29515   5.32837
  Beta virt. eigenvalues --    5.36702   5.37798   5.38933   5.42339   5.44272
  Beta virt. eigenvalues --    5.46057   5.48571   5.49913   5.51427   5.53305
  Beta virt. eigenvalues --    5.54774   5.56985   5.57434   5.59361   5.62987
  Beta virt. eigenvalues --    5.64800   5.78412   5.79503   6.23185   7.12123
  Beta virt. eigenvalues --    7.15040   7.16052   7.24030   7.26925   7.41273
  Beta virt. eigenvalues --   13.51699  13.54029  13.54852  14.09926  14.15366
  Beta virt. eigenvalues --   14.20436  25.89724
          Condensed to atoms (all electrons):
               1          2          3          4          5          6
     1  Fe  25.199202  -0.075396  -0.018185  -0.043345  -0.014098  -0.070493
     2  O   -0.075396   8.474857   0.315830  -0.095649   0.000573  -0.094988
     3  H   -0.018185   0.315830   0.288507   0.000982  -0.000014   0.004639
     4  O   -0.043345  -0.095649   0.000982   8.435490   0.309076  -0.097914
     5  H   -0.014098   0.000573  -0.000014   0.309076   0.314361   0.007372
     6  O   -0.070493  -0.094988   0.004639  -0.097914   0.007372   8.456548
     7  H   -0.019947   0.001959  -0.000012  -0.002450  -0.000402   0.305172
     8  O   -0.087450   0.074991  -0.001293  -0.104924   0.004172  -0.114188
     9  H   -0.011032  -0.001272  -0.000020   0.002284  -0.000104   0.001326
    10  O   -0.032411  -0.087327   0.002330   0.059931  -0.001590  -0.105033
    11  H   -0.018287   0.001691  -0.000689  -0.000681   0.000007  -0.000408
    12  O   -0.067658  -0.102632   0.006324  -0.080759   0.001916   0.077792
    13  H   -0.025360   0.004938  -0.000039   0.003754  -0.000038  -0.001279
    14  H   -0.008211   0.001182  -0.000203   0.001714  -0.000020  -0.001811
    15  H   -0.016602   0.001548  -0.000134   0.321064  -0.026006  -0.005444
    16  H   -0.013436   0.303693  -0.018606   0.003696  -0.000097   0.000402
    17  H   -0.020228   0.001399   0.000203  -0.001519  -0.000012   0.003636
    18  H   -0.019115  -0.000054  -0.000090   0.010229  -0.001431   0.309037
    19  H   -0.019222  -0.001511   0.000019  -0.001688   0.000809   0.007930
               7          8          9         10         11         12
     1  Fe  -0.019947  -0.087450  -0.011032  -0.032411  -0.018287  -0.067658
     2  O    0.001959   0.074991  -0.001272  -0.087327   0.001691  -0.102632
     3  H   -0.000012  -0.001293  -0.000020   0.002330  -0.000689   0.006324
     4  O   -0.002450  -0.104924   0.002284   0.059931  -0.000681  -0.080759
     5  H   -0.000402   0.004172  -0.000104  -0.001590   0.000007   0.001916
     6  O    0.305172  -0.114188   0.001326  -0.105033  -0.000408   0.077792
     7  H    0.341896   0.007701  -0.001297   0.000771  -0.000288  -0.002047
     8  O    0.007701   8.460406   0.309325  -0.062957  -0.006519  -0.095168
     9  H   -0.001297   0.309325   0.307625   0.002311   0.002027  -0.000810
    10  O    0.000771  -0.062957   0.002311   8.419643   0.317643  -0.116664
    11  H   -0.000288  -0.006519   0.002027   0.317643   0.318658   0.001710
    12  O   -0.002047  -0.095168  -0.000810  -0.116664   0.001710   8.472968
    13  H    0.000029   0.004642  -0.000151   0.001789  -0.000376   0.318706
    14  H   -0.000065  -0.000982   0.001896   0.002112   0.004517   0.296464
    15  H   -0.000073  -0.000310  -0.000009  -0.000844   0.000012   0.001835
    16  H   -0.000407  -0.001590   0.000019   0.003007   0.000084   0.000689
    17  H    0.002531   0.004746  -0.002000   0.314558  -0.028608   0.000832
    18  H   -0.026514  -0.000025   0.000141   0.001730   0.000021  -0.001589
    19  H    0.006954   0.307720  -0.022552  -0.001997  -0.000134   0.002863
              13         14         15         16         17         18
     1  Fe  -0.025360  -0.008211  -0.016602  -0.013436  -0.020228  -0.019115
     2  O    0.004938   0.001182   0.001548   0.303693   0.001399  -0.000054
     3  H   -0.000039  -0.000203  -0.000134  -0.018606   0.000203  -0.000090
     4  O    0.003754   0.001714   0.321064   0.003696  -0.001519   0.010229
     5  H   -0.000038  -0.000020  -0.026006  -0.000097  -0.000012  -0.001431
     6  O   -0.001279  -0.001811  -0.005444   0.000402   0.003636   0.309037
     7  H    0.000029  -0.000065  -0.000073  -0.000407   0.002531  -0.026514
     8  O    0.004642  -0.000982  -0.000310  -0.001590   0.004746  -0.000025
     9  H   -0.000151   0.001896  -0.000009   0.000019  -0.002000   0.000141
    10  O    0.001789   0.002112  -0.000844   0.003007   0.314558   0.001730
    11  H   -0.000376   0.004517   0.000012   0.000084  -0.028608   0.000021
    12  O    0.318706   0.296464   0.001835   0.000689   0.000832  -0.001589
    13  H    0.290450  -0.021343  -0.000488  -0.000137  -0.000004  -0.000037
    14  H   -0.021343   0.341227   0.000047   0.000015  -0.000353   0.000031
    15  H   -0.000488   0.000047   0.303054   0.001298   0.000001   0.001864
    16  H   -0.000137   0.000015   0.001298   0.319571  -0.000102   0.001180
    17  H   -0.000004  -0.000353   0.000001  -0.000102   0.317649  -0.000299
    18  H   -0.000037   0.000031   0.001864   0.001180  -0.000299   0.315200
    19  H    0.000004  -0.000427  -0.000132  -0.000055   0.000109  -0.001835
              19
     1  Fe  -0.019222
     2  O   -0.001511
     3  H    0.000019
     4  O   -0.001688
     5  H    0.000809
     6  O    0.007930
     7  H    0.006954
     8  O    0.307720
     9  H   -0.022552
    10  O   -0.001997
    11  H   -0.000134
    12  O    0.002863
    13  H    0.000004
    14  H   -0.000427
    15  H   -0.000132
    16  H   -0.000055
    17  H    0.000109
    18  H   -0.001835
    19  H    0.331567
          Atomic-Atomic Spin Densities.
               1          2          3          4          5          6
     1  Fe   4.109400  -0.071959   0.000715  -0.068279  -0.002916  -0.111999
     2  O   -0.071959   0.268566  -0.012627  -0.037021   0.000083  -0.043855
     3  H    0.000715  -0.012627   0.006889   0.000352   0.000014   0.002856
     4  O   -0.068279  -0.037021   0.000352   0.229320  -0.006651  -0.042251
     5  H   -0.002916   0.000083   0.000014  -0.006651   0.010057   0.004221
     6  O   -0.111999  -0.043855   0.002856  -0.042251   0.004221   0.297881
     7  H    0.011581   0.000727  -0.000067   0.003087  -0.000199  -0.016671
     8  O   -0.101335   0.055325  -0.001352  -0.043462   0.002526  -0.050423
     9  H    0.002583  -0.001018   0.000005   0.000566  -0.000126   0.000823
    10  O   -0.080709  -0.038909   0.002490   0.049311  -0.001183  -0.047325
    11  H    0.006103   0.001297   0.000214  -0.000888   0.000007   0.000933
    12  O   -0.078522  -0.064247   0.004887  -0.039259   0.001376   0.059586
    13  H    0.005150   0.003326  -0.000204   0.001185  -0.000139  -0.001298
    14  H    0.004559   0.001676   0.000017   0.001708  -0.000013  -0.000962
    15  H    0.002322   0.003671  -0.000035  -0.006019  -0.000765   0.001124
    16  H    0.001379  -0.004930   0.001407   0.000491  -0.000038   0.002794
    17  H   -0.000280   0.000847  -0.000248  -0.000818  -0.000004   0.001265
    18  H    0.008000   0.000947   0.000034   0.000874   0.000336  -0.011976
    19  H    0.007469  -0.001556   0.000004   0.003722   0.000136   0.004549
               7          8          9         10         11         12
     1  Fe   0.011581  -0.101335   0.002583  -0.080709   0.006103  -0.078522
     2  O    0.000727   0.055325  -0.001018  -0.038909   0.001297  -0.064247
     3  H   -0.000067  -0.001352   0.000005   0.002490   0.000214   0.004887
     4  O    0.003087  -0.043462   0.000566   0.049311  -0.000888  -0.039259
     5  H   -0.000199   0.002526  -0.000126  -0.001183   0.000007   0.001376
     6  O   -0.016671  -0.050423   0.000823  -0.047325   0.000933   0.059586
     7  H   -0.005888   0.002668   0.000452   0.003453   0.000154  -0.001644
     8  O    0.002668   0.280645  -0.009118  -0.035297   0.001906  -0.051274
     9  H    0.000452  -0.009118   0.006042   0.003546  -0.000901   0.001001
    10  O    0.003453  -0.035297   0.003546   0.247286  -0.007642  -0.043523
    11  H    0.000154   0.001906  -0.000901  -0.007642  -0.003583   0.003294
    12  O   -0.001644  -0.051274   0.001001  -0.043523   0.003294   0.292910
    13  H   -0.000002   0.003206   0.000041   0.000495   0.000059  -0.014954
    14  H    0.000034   0.003290  -0.000784   0.001063  -0.001656  -0.007364
    15  H    0.000116   0.000775   0.000001  -0.000738  -0.000002   0.000874
    16  H    0.000103  -0.000733   0.000000   0.001702  -0.000071   0.000845
    17  H   -0.000828   0.002529   0.000792  -0.004266   0.001573   0.000015
    18  H    0.005524   0.002202  -0.000100   0.000683  -0.000018  -0.001042
    19  H   -0.002467  -0.015431   0.002668   0.001664   0.000169   0.000799
              13         14         15         16         17         18
     1  Fe   0.005150   0.004559   0.002322   0.001379  -0.000280   0.008000
     2  O    0.003326   0.001676   0.003671  -0.004930   0.000847   0.000947
     3  H   -0.000204   0.000017  -0.000035   0.001407  -0.000248   0.000034
     4  O    0.001185   0.001708  -0.006019   0.000491  -0.000818   0.000874
     5  H   -0.000139  -0.000013  -0.000765  -0.000038  -0.000004   0.000336
     6  O   -0.001298  -0.000962   0.001124   0.002794   0.001265  -0.011976
     7  H   -0.000002   0.000034   0.000116   0.000103  -0.000828   0.005524
     8  O    0.003206   0.003290   0.000775  -0.000733   0.002529   0.002202
     9  H    0.000041  -0.000784   0.000001   0.000000   0.000792  -0.000100
    10  O    0.000495   0.001063  -0.000738   0.001702  -0.004266   0.000683
    11  H    0.000059  -0.001656  -0.000002  -0.000071   0.001573  -0.000018
    12  O   -0.014954  -0.007364   0.000874   0.000845   0.000015  -0.001042
    13  H    0.002329   0.003211   0.000142   0.000035   0.000001   0.000017
    14  H    0.003211  -0.004338  -0.000039  -0.000012   0.000086  -0.000008
    15  H    0.000142  -0.000039   0.003005  -0.000552   0.000011  -0.001073
    16  H    0.000035  -0.000012  -0.000552   0.001118   0.000056  -0.000845
    17  H    0.000001   0.000086   0.000011   0.000056   0.004925   0.000017
    18  H    0.000017  -0.000008  -0.001073  -0.000845   0.000017  -0.001721
    19  H   -0.000087   0.000087   0.000062   0.000016  -0.000447   0.000932
              19
     1  Fe   0.007469
     2  O   -0.001556
     3  H    0.000004
     4  O    0.003722
     5  H    0.000136
     6  O    0.004549
     7  H   -0.002467
     8  O   -0.015431
     9  H    0.002668
    10  O    0.001664
    11  H    0.000169
    12  O    0.000799
    13  H   -0.000087
    14  H    0.000087
    15  H    0.000062
    16  H    0.000016
    17  H   -0.000447
    18  H    0.000932
    19  H    0.000005
 Mulliken charges and spin densities:
               1          2
     1  Fe   1.381271   3.643263
     2  O   -0.723832   0.060343
     3  H    0.420450   0.005352
     4  O   -0.719290   0.045968
     5  H    0.405524   0.006719
     6  O   -0.682296   0.049272
     7  H    0.386487   0.000135
     8  O   -0.698298   0.046645
     9  H    0.412295   0.006473
    10  O   -0.717001   0.052102
    11  H    0.409619   0.000949
    12  O   -0.714770   0.063759
    13  H    0.424939   0.002511
    14  H    0.384209   0.000554
    15  H    0.419321   0.002880
    16  H    0.400777   0.002767
    17  H    0.407459   0.005227
    18  H    0.411557   0.002786
    19  H    0.391578   0.002294
 Sum of Mulliken charges =   2.00000   4.00000
 Mulliken charges and spin densities with hydrogens summed into heavy atoms:
               1          2
     1  Fe   1.381271   3.643263
     2  O    0.097395   0.068462
     4  O    0.105556   0.055568
     6  O    0.115748   0.052193
     8  O    0.105575   0.055412
[...]
    14  H   -0.015707   0.309150  -0.000002  -0.000001  -0.000027  -0.000000
    15  H   -0.000020  -0.000002   0.313682  -0.000014  -0.000000  -0.000023
    16  H   -0.000001  -0.000001  -0.000014   0.310060  -0.000002  -0.000024
    17  H   -0.000001  -0.000027  -0.000000  -0.000002   0.313785  -0.000002
    18  H    0.000001  -0.000000  -0.000023  -0.000024  -0.000002   0.309236
    19  H   -0.000002  -0.000002  -0.000000   0.000000  -0.000023  -0.000015
              19
     1  Fe   0.004576
     2  O   -0.000291
     3  H   -0.000000
     4  O    0.000245
     5  H   -0.000023
     6  O    0.001378
     7  H   -0.000016
     8  O    0.295900
     9  H   -0.015561
    10  O    0.000239
    11  H   -0.000000
    12  O    0.000788
    13  H   -0.000002
    14  H   -0.000002
    15  H   -0.000000
    16  H    0.000000
    17  H   -0.000023
    18  H   -0.000015
    19  H    0.310460
          Atomic-Atomic Spin Densities.
               1          2          3          4          5          6
     1  Fe   4.079851  -0.032909   0.001358  -0.039354   0.002248  -0.043010
     2  O   -0.032909   0.075770  -0.002875  -0.006761   0.000157  -0.009778
     3  H    0.001358  -0.002875   0.002208   0.000246  -0.000001   0.000162
     4  O   -0.039354  -0.006761   0.000246   0.085848  -0.003881  -0.008292
     5  H    0.002248   0.000157  -0.000001  -0.003881   0.001688   0.000339
     6  O   -0.043010  -0.009778   0.000162  -0.008292   0.000339   0.097623
     7  H    0.002056   0.000428  -0.000001   0.000164  -0.000001  -0.003770
     8  O   -0.032857   0.006104  -0.000086  -0.006800   0.000395  -0.009257
     9  H    0.001165  -0.000084   0.000000   0.000297  -0.000015   0.000152
    10  O   -0.038712  -0.006576   0.000243   0.006589  -0.000085  -0.008412
    11  H    0.002199   0.000382  -0.000014  -0.000086   0.000000   0.000333
    12  O   -0.043059  -0.009294   0.000578  -0.008310   0.000320   0.007748
    13  H    0.002072   0.000297  -0.000013   0.000439  -0.000008  -0.000105
    14  H    0.002073   0.000298  -0.000014   0.000164  -0.000001  -0.000107
    15  H    0.002247   0.000396  -0.000013  -0.003888   0.000767   0.000319
    16  H    0.001166  -0.002903   0.000527   0.000301  -0.000001   0.000718
    17  H    0.002191   0.000153  -0.000001  -0.000086   0.000000   0.000347
    18  H    0.002086   0.000419  -0.000001   0.000436  -0.000028  -0.003801
    19  H    0.001355  -0.000086   0.000000   0.000248  -0.000014   0.000575
               7          8          9         10         11         12
     1  Fe   0.002056  -0.032857   0.001165  -0.038712   0.002199  -0.043059
     2  O    0.000428   0.006104  -0.000084  -0.006576   0.000382  -0.009294
     3  H   -0.000001  -0.000086   0.000000   0.000243  -0.000014   0.000578
     4  O    0.000164  -0.006800   0.000297   0.006589  -0.000086  -0.008310
     5  H   -0.000001   0.000395  -0.000015  -0.000085   0.000000   0.000320
     6  O   -0.003770  -0.009257   0.000152  -0.008412   0.000333   0.007748
     7  H    0.001498   0.000296  -0.000001   0.000451  -0.000010  -0.000107
     8  O    0.000296   0.075632  -0.002902  -0.006633   0.000154  -0.009704
     9  H   -0.000001  -0.002902   0.002477   0.000290  -0.000001   0.000710
    10  O    0.000451  -0.006633   0.000290   0.084390  -0.003841  -0.008426
    11  H   -0.000010   0.000154  -0.000001  -0.003841   0.001748   0.000345
    12  O   -0.000107  -0.009704   0.000710  -0.008426   0.000345   0.097748
    13  H    0.000000   0.000421  -0.000020   0.000167  -0.000001  -0.003795
    14  H    0.000000   0.000419  -0.000019   0.000452  -0.000029  -0.003778
    15  H   -0.000001   0.000158  -0.000001  -0.000085   0.000000   0.000343
    16  H   -0.000020  -0.000085   0.000000   0.000281  -0.000014   0.000153
    17  H   -0.000029   0.000391  -0.000015  -0.003837   0.000756   0.000332
    18  H    0.000733   0.000296  -0.000001   0.000167  -0.000001  -0.000105
    19  H   -0.000013  -0.002872   0.000528   0.000246  -0.000001   0.000161
              13         14         15         16         17         18
     1  Fe   0.002072   0.002073   0.002247   0.001166   0.002191   0.002086
     2  O    0.000297   0.000298   0.000396  -0.002903   0.000153   0.000419
     3  H   -0.000013  -0.000014  -0.000013   0.000527  -0.000001  -0.000001
     4  O    0.000439   0.000164  -0.003888   0.000301  -0.000086   0.000436
     5  H   -0.000008  -0.000001   0.000767  -0.000001   0.000000  -0.000028
     6  O   -0.000105  -0.000107   0.000319   0.000718   0.000347  -0.003801
     7  H    0.000000   0.000000  -0.000001  -0.000020  -0.000029   0.000733
     8  O    0.000421   0.000419   0.000158  -0.000085   0.000391   0.000296
     9  H   -0.000020  -0.000019  -0.000001   0.000000  -0.000015  -0.000001
    10  O    0.000167   0.000452  -0.000085   0.000281  -0.003837   0.000167
    11  H   -0.000001  -0.000029   0.000000  -0.000014   0.000756  -0.000001
    12  O   -0.003795  -0.003778   0.000343   0.000153   0.000332  -0.000105
    13  H    0.001534   0.000733  -0.000029  -0.000001  -0.000001   0.000000
    14  H    0.000733   0.001498  -0.000001  -0.000001  -0.000009   0.000000
    15  H   -0.000029  -0.000001   0.001687  -0.000016   0.000000  -0.000008
    16  H   -0.000001  -0.000001  -0.000016   0.002476  -0.000001  -0.000019
    17  H   -0.000001  -0.000009   0.000000  -0.000001   0.001724  -0.000001
    18  H    0.000000   0.000000  -0.000008  -0.000019  -0.000001   0.001544
    19  H   -0.000001  -0.000001  -0.000001   0.000000  -0.000014  -0.000014
              19
     1  Fe   0.001355
     2  O   -0.000086
     3  H    0.000000
     4  O    0.000248
     5  H   -0.000014
     6  O    0.000575
     7  H   -0.000013
     8  O   -0.002872
     9  H    0.000528
    10  O    0.000246
    11  H   -0.000001
    12  O    0.000161
    13  H   -0.000001
    14  H   -0.000001
    15  H   -0.000001
    16  H    0.000000
    17  H   -0.000014
    18  H   -0.000014
    19  H    0.002205
 Mulliken charges and spin densities:
               1          2
     1  Fe   1.324949   3.872166
     2  O   -0.694485   0.013137
     3  H    0.402429   0.002303
     4  O   -0.687095   0.017274
     5  H    0.399667   0.001880
     6  O   -0.694532   0.021784
     7  H    0.404461   0.001673
     8  O   -0.694613   0.013069
     9  H    0.403626   0.002560
    10  O   -0.688907   0.016668
    11  H    0.399924   0.001920
    12  O   -0.694474   0.021859
    13  H    0.404580   0.001690
    14  H    0.404405   0.001678
    15  H    0.399675   0.001875
    16  H    0.403778   0.002562
    17  H    0.399715   0.001900
    18  H    0.404548   0.001702
    19  H    0.402348   0.002301
 Sum of Mulliken charges =   2.00000   4.00000
 Mulliken charges and spin densities with hydrogens summed into heavy atoms:
               1          2
     1  Fe   1.324949   3.872166
     2  O    0.111723   0.018003
     4  O    0.112248   0.021029
     6  O    0.114477   0.025159
     8  O    0.111361   0.017929
    10  O    0.110732   0.020488
    12  O    0.114510   0.025226
 Electronic spatial extent (au):  <R**2>=           1198.2021
 Charge=              2.0000 electrons
 Dipole moment (field-independent basis, Debye):
    X=             -0.0178    Y=             -0.0037    Z=             -0.0059  Tot=              0.0191
 Quadrupole moment (field-independent basis, Debye-Ang):
   XX=            -15.9397   YY=            -15.5750   ZZ=            -15.2065
   XY=             -0.1661   XZ=              0.0362   YZ=             -0.1472
 Traceless Quadrupole moment (field-independent basis, Debye-Ang):
   XX=             -0.3660   YY=             -0.0013   ZZ=              0.3672
   XY=             -0.1661   XZ=              0.0362   YZ=             -0.1472
 Octapole moment (field-independent basis, Debye-Ang**2):
  XXX=             -0.0420  YYY=             -0.1490  ZZZ=              0.0416  XYY=             -0.1924
  XXY=              0.0964  XXZ=              0.0464  XZZ=             -0.0426  YZZ=             -0.0052
  YYZ=             -0.1466  XYZ=             -0.0547
 Hexadecapole moment (field-independent basis, Debye-Ang**3):
 XXXX=           -174.4264 YYYY=           -224.5607 ZZZZ=           -195.0485 XXXY=             60.6752
 XXXZ=             -4.2917 YYYX=            -42.7669 YYYZ=             40.7516 ZZZX=             15.3608
 ZZZY=            -47.6336 XXYY=            -84.6704 XXZZ=            -97.0297 YYZZ=            -45.0817
 XXYZ=              8.5927 YYXZ=            -11.6955 ZZXY=            -18.4091
 N-N= 6.460847233161D+02 E-N=-5.354885340696D+03  KE= 1.717959865522D+03
                          Isotropic Fermi Contact Couplings
        Atom                 a.u.       MegaHertz       Gauss      10(-4) cm-1
     1  Fe(57)             0.41259      14.96048       5.33827       4.99028
     2  O(17)              0.07613     -11.53749      -4.11686      -3.84849
     3  H(1)               0.00117       1.31009       0.46747       0.43700
     4  O(17)              0.07887     -11.95259      -4.26498      -3.98695
     5  H(1)               0.00072       0.80471       0.28714       0.26842
     6  O(17)              0.08082     -12.24830      -4.37050      -4.08559
     7  H(1)               0.00065       0.72567       0.25894       0.24206
     8  O(17)              0.07606     -11.52681      -4.11305      -3.84493
     9  H(1)               0.00127       1.42424       0.50820       0.47507
    10  O(17)              0.07827     -11.86224      -4.23274      -3.95682
    11  H(1)               0.00075       0.83989       0.29970       0.28016
    12  O(17)              0.08087     -12.25652      -4.37343      -4.08833
    13  H(1)               0.00066       0.73839       0.26348       0.24630
    14  H(1)               0.00065       0.72853       0.25996       0.24301
    15  H(1)               0.00072       0.79901       0.28511       0.26652
    16  H(1)               0.00127       1.42358       0.50797       0.47485
    17  H(1)               0.00074       0.82475       0.29429       0.27511
    18  H(1)               0.00067       0.74658       0.26640       0.24903
    19  H(1)               0.00117       1.30952       0.46727       0.43681
 --------------------------------------------------------
       Center         ----  Spin Dipole Couplings  ----
                      3XX-RR        3YY-RR        3ZZ-RR
 --------------------------------------------------------
     1   Atom       -0.894519      1.986376     -1.091857
     2   Atom       -0.036224      0.083861     -0.047638
     3   Atom       -0.022907      0.010067      0.012840
     4   Atom        0.121696     -0.046734     -0.074962
     5   Atom        0.026099     -0.004657     -0.021442
     6   Atom       -0.103112     -0.007925      0.111037
     7   Atom       -0.022193     -0.005890      0.028083
     8   Atom       -0.035486      0.082789     -0.047303
     9   Atom       -0.019519      0.041383     -0.021864
    10   Atom        0.122228     -0.048180     -0.074048
    11   Atom        0.026045     -0.004336     -0.021710
    12   Atom       -0.102599     -0.008703      0.111302
    13   Atom       -0.022371     -0.006054      0.028425
    14   Atom       -0.009410     -0.019983      0.029394
    15   Atom        0.045823     -0.023810     -0.022013
    16   Atom       -0.018947      0.040845     -0.021898
    17   Atom        0.045969     -0.023732     -0.022237
    18   Atom       -0.009912     -0.019627      0.029539
    19   Atom       -0.022717      0.009832      0.012885
 --------------------------------------------------------
                        XY            XZ            YZ
 --------------------------------------------------------
     1   Atom       -1.114191      0.216078     -0.808037
     2   Atom       -0.045292     -0.031924      0.091997
     3   Atom       -0.012677     -0.011844      0.034949
     4   Atom        0.064223      0.010541     -0.022579
     5   Atom        0.031565      0.012151      0.009713
     6   Atom       -0.035338      0.015172     -0.058025
     7   Atom        0.008550     -0.011265     -0.034762
     8   Atom       -0.046473     -0.031276      0.092290
     9   Atom       -0.023149     -0.003441      0.010025
    10   Atom        0.064097      0.010014     -0.021308
    11   Atom        0.031563      0.011604      0.009383
    12   Atom       -0.036256      0.017340     -0.057094
    13   Atom        0.008138     -0.010733     -0.034603
    14   Atom       -0.009662      0.029117     -0.021188
    15   Atom        0.006602     -0.014123      0.000471
    16   Atom       -0.023905     -0.003402      0.009945
    17   Atom        0.006089     -0.013600      0.000605
    18   Atom       -0.009638      0.028560     -0.021490
    19   Atom       -0.012897     -0.012205      0.034815
 --------------------------------------------------------


 ---------------------------------------------------------------------------------
              Anisotropic Spin Dipole Couplings in Principal Axis System
 ---------------------------------------------------------------------------------

       Atom             a.u.   MegaHertz   Gauss  10(-4) cm-1        Axes

              Baa    -1.3344   -23.102    -8.243    -7.706  0.5942  0.3728  0.7127
     1 Fe(57) Bbb    -1.2235   -21.182    -7.558    -7.066  0.7413  0.0899 -0.6651
              Bcc     2.5579    44.284    15.802    14.771 -0.3120  0.9235 -0.2229
 
              Baa    -0.0962     6.963     2.484     2.322  0.1617 -0.4164  0.8947
     2 O(17)  Bbb    -0.0514     3.717     1.326     1.240  0.9444  0.3284 -0.0178
              Bcc     0.1476   -10.680    -3.811    -3.562 -0.2864  0.8478  0.4463
 
              Baa    -0.0272   -14.522    -5.182    -4.844  0.9453  0.3262 -0.0051
     3 H(1)   Bbb    -0.0233   -12.432    -4.436    -4.147  0.2316 -0.6603  0.7144
              Bcc     0.0505    26.954     9.618     8.991 -0.2297  0.6765  0.6997
 
              Baa    -0.0967     6.997     2.497     2.334 -0.2191  0.6216  0.7521
     4 O(17)  Bbb    -0.0467     3.382     1.207     1.128 -0.2316  0.7157 -0.6589
              Bcc     0.1434   -10.378    -3.703    -3.462  0.9478  0.3186  0.0128
 
              Baa    -0.0264   -14.072    -5.021    -4.694  0.2185 -0.6451  0.7322
     5 H(1)   Bbb    -0.0228   -12.187    -4.349    -4.065 -0.5203  0.5578  0.6466
              Bcc     0.0492    26.258     9.370     8.759  0.8256  0.5223  0.2138
 
              Baa    -0.1149     8.312     2.966     2.773  0.9461  0.3232  0.0195
     6 O(17)  Bbb    -0.0229     1.660     0.592     0.554 -0.3027  0.8616  0.4074
              Bcc     0.1378    -9.972    -3.558    -3.326  0.1149 -0.3914  0.9130
 
              Baa    -0.0281   -14.987    -5.348    -4.999 -0.3579  0.8244  0.4384
     7 H(1)   Bbb    -0.0244   -12.996    -4.637    -4.335  0.9152  0.2164  0.3401
              Bcc     0.0524    27.982     9.985     9.334 -0.1855 -0.5229  0.8319
 
              Baa    -0.0960     6.949     2.479     2.318  0.1345 -0.4266  0.8944
     8 O(17)  Bbb    -0.0516     3.730     1.331     1.244  0.9472  0.3205  0.0104
              Bcc     0.1476   -10.679    -3.811    -3.562 -0.2911  0.8457  0.4472
 
              Baa    -0.0273   -14.577    -5.201    -4.862  0.9482  0.3173  0.0149
     9 H(1)   Bbb    -0.0234   -12.491    -4.457    -4.167  0.0318 -0.1417  0.9894
              Bcc     0.0507    27.067     9.658     9.029 -0.3161  0.9377  0.1445
 
              Baa    -0.0953     6.898     2.461     2.301 -0.2212  0.6352  0.7400
    10 O(17)  Bbb    -0.0484     3.499     1.248     1.167 -0.2254  0.7050 -0.6724
              Bcc     0.1437   -10.397    -3.710    -3.468  0.9488  0.3156  0.0128
 
              Baa    -0.0263   -14.009    -4.999    -4.673  0.2095 -0.6239  0.7529
    11 H(1)   Bbb    -0.0227   -12.130    -4.328    -4.046 -0.5233  0.5789  0.6253
              Bcc     0.0490    26.139     9.327     8.719  0.8260  0.5250  0.2052
 
              Baa    -0.1150     8.321     2.969     2.775  0.9447  0.3278  0.0103
    12 O(17)  Bbb    -0.0228     1.652     0.590     0.551 -0.3035  0.8619  0.4061
              Bcc     0.1378    -9.973    -3.559    -3.327  0.1242 -0.3868  0.9138
 
              Baa    -0.0280   -14.921    -5.324    -4.977 -0.3600  0.8242  0.4372
    13 H(1)   Bbb    -0.0243   -12.960    -4.624    -4.323  0.9160  0.2234  0.3332
              Bcc     0.0523    27.881     9.949     9.300 -0.1769 -0.5204  0.8354
 
              Baa    -0.0281   -14.985    -5.347    -4.999 -0.2365  0.8667  0.4393
    14 H(1)   Bbb    -0.0244   -12.995    -4.637    -4.335  0.8642  0.3943 -0.3127
              Bcc     0.0524    27.980     9.984     9.333  0.4442 -0.3056  0.8422
 
              Baa    -0.0264   -14.068    -5.020    -4.693  0.2022 -0.6561  0.7270
    15 H(1)   Bbb    -0.0228   -12.185    -4.348    -4.064  0.0634  0.7496  0.6589
              Bcc     0.0492    26.253     9.368     8.757  0.9773  0.0871 -0.1932
 
              Baa    -0.0273   -14.582    -5.203    -4.864  0.9426  0.3334 -0.0201
    16 H(1)   Bbb    -0.0234   -12.494    -4.458    -4.168  0.0665 -0.1284  0.9895
              Bcc     0.0507    27.076     9.662     9.032 -0.3273  0.9340  0.1432
 
              Baa    -0.0263   -14.029    -5.006    -4.679  0.1940 -0.6375  0.7456
    17 H(1)   Bbb    -0.0228   -12.144    -4.333    -4.051  0.0587  0.7663  0.6398
              Bcc     0.0491    26.172     9.339     8.730  0.9792  0.0804 -0.1861
 
              Baa    -0.0279   -14.909    -5.320    -4.973 -0.2346  0.8666  0.4405
    18 H(1)   Bbb    -0.0243   -12.952    -4.622    -4.320  0.8687  0.3903 -0.3052
              Bcc     0.0522    27.861     9.942     9.293  0.4364 -0.3111  0.8443
 
              Baa    -0.0272   -14.517    -5.180    -4.842  0.9474  0.3198  0.0107
    19 H(1)   Bbb    -0.0233   -12.429    -4.435    -4.146  0.2167 -0.6659  0.7139
              Bcc     0.0505    26.946     9.615     8.988 -0.2354  0.6740  0.7002
 

 ---------------------------------------------------------------------------------

 No NMR shielding tensors so no spin-rotation constants.
 Leave Link  601 at Wed Mar  5 20:33:27 2025, MaxMem= 13421772800 cpu:              29.5 elap:               0.4
 (Enter /gpfs/fs1/soft/improv/software/custom-built/gaussian/g16/l9999.exe)

 Test job not archived.
 1\1\GINC-I277\SP\UO3LYP\Gen\Fe1H12O6(2+,5)\HHARB\05-Mar-2025\0\\#p O3L
 YP scrf=(cpcm,solvent=water) geom=allcheck guess=read chkbasis IOp(3/1
 74=1000000) IOp(3/175=1805800) IOp(3/176=1406000)\\Title\\2,5\Fe,-0.78
 16801984,0.7143319175,0.0315779359\O,-1.3609383178,2.8007259573,-0.260
 7788309\H,-1.4910695023,3.2421985469,-1.1084024684\O,1.332787401,1.302
 7354106,0.0486695067\H,2.0790972738,0.7642706457,0.3371346074\O,-0.895
 9108108,1.0288395482,2.1566651265\H,-1.6848154399,0.9391712809,2.70486
 05057\O,-0.203838862,-1.3726712854,0.3258611379\H,-0.0118243297,-2.025
 16569,-0.3577414992\O,-2.8983297573,0.119686919,0.0129265759\H,-3.6490
 910393,0.6637034115,-0.252814922\O,-0.6835499319,0.3984416917,-2.09376
 45611\H,0.0970243656,0.4844805297,-2.6543184017\H,-1.3992789419,0.0793
 682153,-2.6566424624\H,1.6991399139,2.1486368545,-0.2354762085\H,-1.52
 29021736,3.460839284,0.4241999819\H,-3.2594216099,-0.7345980872,0.2768
 021996\H,-0.1897938283,1.347982223,2.7314802201\H,-0.0871217811,-1.816
 897603,1.1738069666\\Version=ES64L-G16RevC.02\State=5-A\HF=-1722.08363
 07\S2=6.005415\S2-1=0.\S2A=6.000007\RMSD=2.323e-09\Dipole=0.0068163,0.
 0020359,0.0024597\Quadrupole=-0.3051452,-0.012352,0.3174972,-0.0681658
 ,-0.0083171,0.0218157\PG=C01 [X(Fe1H12O6)]\\@


 Money is a good servant but a bad master.
                        -- French Proverb
 Job cpu time:       0 days  1 hours 14 minutes  3.9 seconds.
 Elapsed time:       0 days  0 hours  0 minutes 39.9 seconds.
 File lengths (MBytes):  RWF=    122 Int=      0 D2E=      0 Chk=    268 Scr=      1
 Normal termination of Gaussian 16 at Wed Mar  5 20:33:27 2025.
