 Entering Gaussian System, Link 0=g16
 Input=Fe_2_HSE06_secondrun.com
 Output=Fe_2_HSE06_secondrun.log
 Initial command:
 /gpfs/fs1/soft/improv/software/custom-built/gaussian/g16/l1.exe "/scratch/Gau-4101245.inp" -scrdir="/scratch/"
 Default CPUs for threads: 0-127
 Default linda workers: i588.lcrc.anl.gov
 Default is to use 128 SMP processors on each worker.
 Entering Link 1 = /gpfs/fs1/soft/improv/software/custom-built/gaussian/g16/l1.exe PID=   4101246.
  
 Copyright (c) 1988-2021, Gaussian, Inc.  All Rights Reserved.
  
 This is part of the Gaussian(R) 16 program.  It is based on
 the Gaussian(R) 09 system (copyright 2009, Gaussian, Inc.),
 the Gaussian(R) 03 system (copyright 2003, Gaussian, Inc.),
 the Gaussian(R) 98 system (copyright 1998, Gaussian, Inc.),
 the Gaussian(R) 94 system (copyright 1995, Gaussian, Inc.),
 the Gaussian 92(TM) system (copyright 1992, Gaussian, Inc.),
 the Gaussian 90(TM) system (copyright 1990, Gaussian, Inc.),
 the Gaussian 88(TM) system (copyright 1988, Gaussian, Inc.),
 the Gaussian 86(TM) system (copyright 1986, Carnegie Mellon
 University), and the Gaussian 82(TM) system (copyright 1983,
 Carnegie Mellon University). Gaussian is a federally registered
 trademark of Gaussian, Inc.
  
 This software contains proprietary and confidential information,
 including trade secrets, belonging to Gaussian, Inc.
  
 This software is provided under written license and may be
 used, copied, transmitted, or stored only in accord with that
 written license.
  
 The following legend is applicable only to US Government
 contracts under FAR:
  
                    RESTRICTED RIGHTS LEGEND
  
 Use, reproduction and disclosure by the US Government is
 subject to restrictions as set forth in subparagraphs (a)
 and (c) of the Commercial Computer Software - Restricted
 Rights clause in FAR 52.227-19.
  
 Gaussian, Inc.
 340 Quinnipiac St., Bldg. 40, Wallingford CT 06492
  
  
 ---------------------------------------------------------------
 Warning -- This program may not be used in any manner that
 competes with the business of Gaussian, Inc. or will provide
 assistance to any competitor of Gaussian, Inc.  The licensee
 of this program is prohibited from giving any competitor of
 Gaussian, Inc. access to this program.  By using this program,
 the user acknowledges that Gaussian, Inc. is engaged in the
 business of creating and licensing software in the field of
 computational chemistry and represents and warrants to the
 licensee that it is not a competitor of Gaussian, Inc. and that
 it will not use this program in any manner prohibited above.
 ---------------------------------------------------------------
  

 Cite this work as:
 Gaussian 16, Revision C.02,
 M. J. Frisch, G. W. Trucks, H. B. Schlegel, G. E. Scuseria, 
 M. A. Robb, J. R. Cheeseman, G. Scalmani, V. Barone, 
 G. A. Petersson, H. Nakatsuji, X. Li, M. Caricato, A. V. Marenich, 
 J. Bloino, B. G. Janesko, R. Gomperts, B. Mennucci, H. P. Hratchian, 
 J. V. Ortiz, A. F. Izmaylov, J. L. Sonnenberg, D. Williams-Young, 
 F. Ding, F. Lipparini, F. Egidi, J. Goings, B. Peng, A. Petrone, 
 T. Henderson, D. Ranasinghe, V. G. Zakrzewski, J. Gao, N. Rega, 
 G. Zheng, W. Liang, M. Hada, M. Ehara, K. Toyota, R. Fukuda, 
 J. Hasegawa, M. Ishida, T. Nakajima, Y. Honda, O. Kitao, H. Nakai, 
 T. Vreven, K. Throssell, J. A. Montgomery, Jr., J. E. Peralta, 
 F. Ogliaro, M. J. Bearpark, J. J. Heyd, E. N. Brothers, K. N. Kudin, 
 V. N. Staroverov, T. A. Keith, R. Kobayashi, J. Normand, 
 K. Raghavachari, A. P. Rendell, J. C. Burant, S. S. Iyengar, 
 J. Tomasi, M. Cossi, J. M. Millam, M. Klene, C. Adamo, R. Cammi, 
 J. W. Ochterski, R. L. Martin, K. Morokuma, O. Farkas, 
 J. B. Foresman, and D. J. Fox, Gaussian, Inc., Wallingford CT, 2019.
 
 ******************************************
 Gaussian 16:  ES64L-G16RevC.02  7-Dec-2021
                 6-Mar-2025 
 ******************************************
 %chk=Fe_2_HSE06.chk
 SetSPE:  set environment variable "OMP_PROC_BIND" = "true"
 SetSPE:  set environment variable "OMP_PLACES" = "{0},{1},{2},{3},{4},{5},{6},{7},{8},{9},{10},{11},{12},{13},{14},{15},{16},{17},{18},{19},{20},{21},{22},{23},{24},{25},{26},{27},{28},{29},{30},{31},{32},{33},{34},{35},{36},{37},{38},{39},{40},{41},{42},{43},{44},{45},{46},{47},{48},{49},{50},{51},{52},{53},{54},{55},{56},{57},{58},{59},{60},{61},{62},{63},{64},{65},{66},{67},{68},{69},{70},{71},{72},{73},{74},{75},{76},{77},{78},{79},{80},{81},{82},{83},{84},{85},{86},{87},{88},{89},{90},{91},{92},{93},{94},{95},{96},{97},{98},{99},{100},{101},{102},{103},{104},{105},{106},{107},{108},{109},{110},{111},{112},{113},{114},{115},{116},{117},{118},{119},{120},{121},{122},{123},{124},{125},{126},{127}"
 SetLPE:    new flags="-opt 'Tsnet.Node.lindarsharg: ssh'  -nodelist 'i588.lcrc.anl.gov' -env GAUSS_MDEF=13421772800 -env GAUSS_EXEDIR="/gpfs/fs1/soft/improv/software/custom-built/gaussian/g16/bsd:/gpfs/fs1/soft/improv/software/custom-built/gaussian/g16" -env "OMP_PROC_BIND=true" -env "OMP_PLACES={0},{1},{2},{3},{4},{5},{6},{7},{8},{9},{10},{11},{12},{13},{14},{15},{16},{17},{18},{19},{20},{21},{22},{23},{24},{25},{26},{27},{28},{29},{30},{31},{32},{33},{34},{35},{36},{37},{38},{39},{40},{41},{42},{43},{44},{45},{46},{47},{48},{49},{50},{51},{52},{53},{54},{55},{56},{57},{58},{59},{60},{61},{62},{63},{64},{65},{66},{67},{68},{69},{70},{71},{72},{73},{74},{75},{76},{77},{78},{79},{80},{81},{82},{83},{84},{85},{86},{87},{88},{89},{90},{91},{92},{93},{94},{95},{96},{97},{98},{99},{100},{101},{102},{103},{104},{105},{106},{107},{108},{109},{110},{111},{112},{113},{114},{115},{116},{117},{118},{119},{120},{121},{122},{123},{124},{125},{126},{127}" -env GAUSS_ADEF="0,1,2,3,4,5,6,7,8,9,10,11,12,13,14,15,16,17,18,19,20,21,22,23,24,25,26,27,28,29,30,31,32,33,34,35,36,37,38,39,40,41,42,43,44,45,46,47,48,49,50,51,52,53,54,55,56,57,58,59,60,61,62,63,64,65,66,67,68,69,70,71,72,73,74,75,76,77,78,79,80,81,82,83,84,85,86,87,88,89,90,91,92,93,94,95,96,97,98,99,100,101,102,103,104,105,106,107,108,109,110,111,112,113,114,115,116,117,118,119,120,121,122,123,124,125,126,127""
 Will use up to    1 processors via Linda.
 ----------------------------------------------------------------------
 #p HSEH1PBE geom=allcheck guess=read chkbasis opt=(cartesian,calcall,m
 axcycles=500) freq scf=(maxcycles=500,xqc,maxconventional=50) IOp(3/17
 4=1000000) IOp(3/175=109000) IOp(3/176=1129000)
 ----------------------------------------------------------------------
 1/6=500,10=4,18=10,26=3,29=7,38=1/1,3;
 2/12=2,29=2,40=1/2;
 3/5=7,6=2,11=2,14=-4,25=1,30=1,67=1,71=2,74=-51,116=-2,140=1,174=1000000,175=109000,176=1129000/1,2,3;
 4/5=1/1;
 5/5=2,7=500,8=3,13=1,38=6,85=50/2,8;
 8/6=4,10=90,11=11/1;
 11/6=1,8=1,9=11,15=111,16=1/1,2,10;
 10/6=1/2;
 6/7=2,8=2,9=2,10=2,18=1,28=1/1;
 7/7=1,10=1,25=1/1,2,3,16;
 1/6=500,10=4,18=10,26=3/3(3);
 2/29=1/2;
 7/7=1,8=1,9=1,25=1,44=-1/16;
 99/12=1/99;
 2/29=1/2;
 3/5=7,6=1,11=2,14=-2,25=1,30=1,71=2,74=-51,82=7,140=1,174=1000000,175=109000,176=1129000/1,2,3;
 4/5=5,16=3,69=1/1;
 5/5=2,7=500,8=3,13=1,38=5,85=50/2,8;
 8/6=4,10=90,11=11/1;
 11/6=1,8=1,9=11,15=111,16=1/1,2,10;
 10/6=1/2;
 7/7=1,10=1,25=1/1,2,3,16;
 1/6=500,10=4,18=10,26=3/3(-8);
 2/29=1/2;
 6/7=2,8=2,9=2,10=2,18=1,19=2,28=1/1;
 7/7=1,8=1,9=1,25=1,44=-1/16;
 99/12=1/99;
 Leave Link    1 at Thu Mar  6 07:31:43 2025, MaxMem=           0 cpu:               3.1 elap:               0.1
 (Enter /gpfs/fs1/soft/improv/software/custom-built/gaussian/g16/l101.exe)
 Structure from the checkpoint file:  "Fe_2_HSE06.chk"
 -----
 Title
 -----
 Charge =  2 Multiplicity = 5
 No Z-Matrix found in chk file; cartesian coordinates used.
  Fe                                               -0.784953338509      0.712950773186      0.031811337638
  O                                                -1.342957372766      2.758671448327     -0.268554136274
  H                                                -1.457470630281      3.207424637047     -1.114194883162
  O                                                 1.285756030454      1.280982807774      0.051257587096
  H                                                 2.043924594266      0.689081521849     -0.014771893979
  O                                                -0.869171748508      0.950937738252      2.129902517426
  H                                                -1.633465955570      0.782056529662      2.693524522229
  O                                                -0.226957900966     -1.332828093037      0.331954872726
  H                                                -0.042343195378     -1.978218443696     -0.360133549321
  O                                                -2.855517239064      0.144811058784      0.012526102276
  H                                                -3.204074002346     -0.750766978829     -0.064779193848
  O                                                -0.700067673866      0.475169878439     -2.066300382419
  H                                                 0.064558711422      0.644358111757     -2.629382086011
  H                                                -1.434259711692      0.234559916378     -2.643716478894
  H                                                 1.634392906102      2.176588946385      0.127880220623
  H                                                -1.527113782611      3.404313381413      0.423423168514
  H                                                -3.613736908756      0.736561421360      0.079316636077
  H                                                -0.134529419111      1.191459243431      2.706782550776
  H                                                -0.113530932818     -1.782034128480      1.177498498526
 Recover connectivity data from disk.
 ITRead=  0  0  0  0  0  0  0  0  0  0  0  0  0  0  0  0  0  0  0
 MicOpt= -1 -1 -1 -1 -1 -1 -1 -1 -1 -1 -1 -1 -1 -1 -1 -1 -1 -1 -1
 NAtoms=     19 NQM=       19 NQMF=       0 NMMI=      0 NMMIF=      0
                NMic=       0 NMicF=      0.
                    Isotopes and Nuclear Properties:
 (Nuclear quadrupole moments (NQMom) in fm**2, nuclear magnetic moments (NMagM)
  in nuclear magnetons)

  Atom         1           2           3           4           5           6           7           8           9          10
 IAtWgt=          56          16           1          16           1          16           1          16           1          16
 AtmWgt=  55.9349393  15.9949146   1.0078250  15.9949146   1.0078250  15.9949146   1.0078250  15.9949146   1.0078250  15.9949146
 NucSpn=           0           0           1           0           1           0           1           0           1           0
 AtZEff=  25.2200000   5.6000000   1.0000000   5.6000000   1.0000000   5.6000000   1.0000000   5.6000000   1.0000000   5.6000000
 NQMom=    0.0000000   0.0000000   0.0000000   0.0000000   0.0000000   0.0000000   0.0000000   0.0000000   0.0000000   0.0000000
 NMagM=    0.0000000   0.0000000   2.7928460   0.0000000   2.7928460   0.0000000   2.7928460   0.0000000   2.7928460   0.0000000
 AtZNuc=  26.0000000   8.0000000   1.0000000   8.0000000   1.0000000   8.0000000   1.0000000   8.0000000   1.0000000   8.0000000

  Atom        11          12          13          14          15          16          17          18          19
 IAtWgt=           1          16           1           1           1           1           1           1           1
 AtmWgt=   1.0078250  15.9949146   1.0078250   1.0078250   1.0078250   1.0078250   1.0078250   1.0078250   1.0078250
 NucSpn=           1           0           1           1           1           1           1           1           1
 AtZEff=   1.0000000   5.6000000   1.0000000   1.0000000   1.0000000   1.0000000   1.0000000   1.0000000   1.0000000
 NQMom=    0.0000000   0.0000000   0.0000000   0.0000000   0.0000000   0.0000000   0.0000000   0.0000000   0.0000000
 NMagM=    2.7928460   0.0000000   2.7928460   2.7928460   2.7928460   2.7928460   2.7928460   2.7928460   2.7928460
 AtZNuc=   1.0000000   8.0000000   1.0000000   1.0000000   1.0000000   1.0000000   1.0000000   1.0000000   1.0000000
 Leave Link  101 at Thu Mar  6 07:31:43 2025, MaxMem= 13421772800 cpu:               0.4 elap:               0.1
 (Enter /gpfs/fs1/soft/improv/software/custom-built/gaussian/g16/l103.exe)

 GradGradGradGradGradGradGradGradGradGradGradGradGradGradGradGradGradGrad
 Berny optimization.
 Initialization pass.
 No Z-matrix variables, so optimization will use Cartesian coordinates.
 Trust Radius=3.00D-01 FncErr=1.00D-07 GrdErr=1.00D-06 EigMax=2.50D+02 EigMin=1.00D-04
 Number of steps in this run=    114 maximum allowed number of steps=    114.
 GradGradGradGradGradGradGradGradGradGradGradGradGradGradGradGradGradGrad

 Leave Link  103 at Thu Mar  6 07:31:44 2025, MaxMem= 13421772800 cpu:               0.4 elap:               0.2
 (Enter /gpfs/fs1/soft/improv/software/custom-built/gaussian/g16/l202.exe)
                          Input orientation:                          
 ---------------------------------------------------------------------
 Center     Atomic      Atomic             Coordinates (Angstroms)
 Number     Number       Type             X           Y           Z
 ---------------------------------------------------------------------
      1         26           0       -0.784953    0.712951    0.031811
      2          8           0       -1.342957    2.758671   -0.268554
      3          1           0       -1.457471    3.207425   -1.114195
      4          8           0        1.285756    1.280983    0.051258
      5          1           0        2.043925    0.689082   -0.014772
      6          8           0       -0.869172    0.950938    2.129903
      7          1           0       -1.633466    0.782057    2.693525
      8          8           0       -0.226958   -1.332828    0.331955
      9          1           0       -0.042343   -1.978218   -0.360134
     10          8           0       -2.855517    0.144811    0.012526
     11          1           0       -3.204074   -0.750767   -0.064779
     12          8           0       -0.700068    0.475170   -2.066300
     13          1           0        0.064559    0.644358   -2.629382
     14          1           0       -1.434260    0.234560   -2.643716
     15          1           0        1.634393    2.176589    0.127880
     16          1           0       -1.527114    3.404313    0.423423
     17          1           0       -3.613737    0.736561    0.079317
     18          1           0       -0.134529    1.191459    2.706783
     19          1           0       -0.113531   -1.782034    1.177498
 ---------------------------------------------------------------------
                    Distance matrix (angstroms):
                    1          2          3          4          5
     1  Fe   0.000000
     2  O    2.141626   0.000000
     3  H    2.826307   0.964158   0.000000
     4  O    2.147295   3.032487   3.548908   0.000000
     5  H    2.829362   3.977258   4.450905   0.964120   0.000000
     6  O    2.113224   3.040554   3.995247   3.012210   3.626889
     7  H    2.794542   3.572858   4.517977   3.968924   4.568010
     8  O    2.141648   4.283274   4.921322   3.033002   3.060269
     9  H    2.819128   4.913055   5.427899   3.543372   3.403862
    10  O    2.147182   3.033003   3.550160   4.294477   4.929656
    11  H    2.829124   3.977617   4.451873   4.929508   5.442164
    12  O    2.113248   2.976504   2.990883   3.012786   3.432786
    13  H    2.794338   3.467698   3.343901   3.013709   3.279646
    14  H    2.794442   3.467113   3.343337   3.969430   4.383572
    15  H    2.829258   3.059509   3.487835   0.964121   1.549433
    16  H    2.819148   0.964157   1.551736   3.543907   4.507418
    17  H    2.829281   3.060455   3.489859   4.929727   5.658643
    18  H    2.794189   3.573385   4.518203   3.012812   3.522060
    19  H    2.826368   4.921439   5.652675   3.550844   3.490349
                    6          7          8          9         10
     6  O    0.000000
     7  H    0.964539   0.000000
     8  O    2.976683   3.468143   0.000000
     9  H    3.932414   4.413119   0.964156   0.000000
    10  O    3.013087   3.014506   3.032289   3.544020   0.000000
    11  H    3.628250   3.524854   3.059316   3.404470   0.964120
    12  O    4.226473   4.860180   3.040447   3.059856   3.012743
    13  H    4.859695   5.588880   3.572641   3.469701   3.969392
    14  H    4.860037   5.368946   3.573360   3.471105   3.013910
    15  H    3.431931   4.382483   3.977723   4.506886   4.929576
    16  H    3.060067   3.470000   4.913174   5.638276   3.543705
    17  H    3.432710   3.279882   3.976993   4.507549   0.964120
    18  H    0.964542   1.553897   3.467041   4.411500   3.969668
    19  H    2.991187   3.344114   0.964155   1.551731   3.548011
                   11         12         13         14         15
    11  H    0.000000
    12  O    3.432063   0.000000
    13  H    4.382639   0.964541   0.000000
    14  H    3.279334   0.964542   1.553897   0.000000
    15  H    5.658382   3.627528   3.523437   4.568354   0.000000
    16  H    4.507242   3.932253   4.412527   4.411724   3.404376
    17  H    1.549430   3.627874   4.568961   3.523781   5.442325
    18  H    4.569015   4.859550   5.367831   5.588631   3.278766
    19  H    3.486864   3.995150   4.517902   4.518037   4.452823
                   16         17         18         19
    16  H    0.000000
    17  H    3.404307   0.000000
    18  H    3.471274   4.383537   0.000000
    19  H    5.428172   4.449805   3.343772   0.000000
 Stoichiometry    FeH12O6(2+,5)
 Framework group  C1[X(FeH12O6)]
 Deg. of freedom    51
 Full point group                 C1      NOp   1
 RotChk:  IX=1 Diff= 1.17D-13
 Largest Abelian subgroup         C1      NOp   1
 Largest concise Abelian subgroup C1      NOp   1
                         Standard orientation:                         
 ---------------------------------------------------------------------
 Center     Atomic      Atomic             Coordinates (Angstroms)
 Number     Number       Type             X           Y           Z
 ---------------------------------------------------------------------
      1         26           0       -0.000008   -0.000093    0.000023
      2          8           0       -1.880656   -0.045371    1.023582
      3          1           0       -2.756365   -0.070448    0.620957
      4          8           0       -0.057998    2.146391   -0.010861
      5          1           0        0.503047    2.733080   -0.531006
      6          8           0        1.048625    0.038280    1.834311
      7          1           0        1.378218   -0.727253    2.319764
      8          8           0        1.880552    0.045156   -1.023746
      9          1           0        2.006594    0.044750   -1.979628
     10          8           0        0.058189   -2.146458    0.010950
     11          1           0        0.649767   -2.707040   -0.504134
     12          8           0       -1.048694   -0.037769   -1.834277
     13          1           0       -1.378145    0.728177   -2.319177
     14          1           0       -1.337385   -0.825163   -2.310732
     15          1           0       -0.649990    2.707038    0.503677
     16          1           0       -2.006879   -0.044462    1.979441
     17          1           0       -0.502295   -2.733211    0.531628
     18          1           0        1.337147    0.826072    2.310209
     19          1           0        2.756360    0.069066   -0.621273
 ---------------------------------------------------------------------
 Rotational constants (GHZ):           1.4345249           1.4309809           1.4021737
 Leave Link  202 at Thu Mar  6 07:31:44 2025, MaxMem= 13421772800 cpu:               0.5 elap:               0.0
 (Enter /gpfs/fs1/soft/improv/software/custom-built/gaussian/g16/l301.exe)
 Basis read from chk: "Fe_2_HSE06.chk" (6D, 7F)
 No pseudopotential information found on chk file.
 There are   347 symmetry adapted cartesian basis functions of A   symmetry.
 There are   317 symmetry adapted basis functions of A   symmetry.
   317 basis functions,   514 primitive gaussians,   347 cartesian basis functions
    44 alpha electrons       40 beta electrons
       nuclear repulsion energy       657.7208072040 Hartrees.
 IExCor= 3909 DFT=T Ex+Corr=HSEH1PBE ExCW=0 ScaHFX=  0.250000
 ScaDFX=  1.000000  1.000000  1.000000  1.000000 ScalE2=  1.000000  1.000000
 IRadAn=      5 IRanWt=     -1 IRanGd=            0 ICorTp=0 IEmpDi=  4
 HFx  wShort=  0.110000 wLong=  0.000000 cFull=  0.000000 cShort=  1.000000 cLong=  0.000000
 DFx  wShort=  0.110000 wLong=  0.000000 cFull=  0.000000 cShort= -0.250000 cLong=  1.000000
 NAtoms=   19 NActive=   19 NUniq=   19 SFac= 1.00D+00 NAtFMM=   60 NAOKFM=F Big=F
 Integral buffers will be    131072 words long.
 Raffenetti 2 integral format.
 Two-electron integral symmetry is turned on.
 R6DIni: Non-standard D2/D3 S6 parameter, value=     1.000000
 R6DIni: Non-standard D2/D3 S8 parameter, value=     0.109000
 R6DIni: Non-standard D2/D3 SR6 parameter, value=     1.129000
 No density basis found on file  20724.
 Leave Link  301 at Thu Mar  6 07:31:44 2025, MaxMem= 13421772800 cpu:               0.4 elap:               0.1
 (Enter /gpfs/fs1/soft/improv/software/custom-built/gaussian/g16/l302.exe)
 NPDir=0 NMtPBC=     1 NCelOv=     1 NCel=       1 NClECP=     1 NCelD=      1
         NCelK=      1 NCelE2=     1 NClLst=     1 CellRange=     0.0.
 One-electron integrals computed using PRISM.
 One-electron integral symmetry used in STVInt
 NBasis=   317 RedAO= T EigKep=  2.13D-06  NBF=   317
 NBsUse=   317 1.00D-06 EigRej= -1.00D+00 NBFU=   317
 Precomputing XC quadrature grid using
 IXCGrd= 4 IRadAn=           5 IRanWt=          -1 IRanGd=           0 AccXCQ= 0.00D+00.
 Generated NRdTot=       0 NPtTot=           0 NUsed=           0 NTot=          32
 NSgBfM=   346   346   346   346   346 MxSgAt=    19 MxSgA2=    19.
 Leave Link  302 at Thu Mar  6 07:31:45 2025, MaxMem= 13421772800 cpu:              22.4 elap:               0.3
 (Enter /gpfs/fs1/soft/improv/software/custom-built/gaussian/g16/l303.exe)
 DipDrv:  MaxL=1.
 Leave Link  303 at Thu Mar  6 07:31:45 2025, MaxMem= 13421772800 cpu:               1.1 elap:               0.0
 (Enter /gpfs/fs1/soft/improv/software/custom-built/gaussian/g16/l401.exe)
 Initial guess from the checkpoint file:  "Fe_2_HSE06.chk"
 B after Tr=    -0.000000    0.000000    0.000000
         Rot=    1.000000   -0.000000    0.000000    0.000000 Ang=   0.00 deg.
 Guess basis will be translated and rotated to current coordinates.
 JPrj=2 DoOrth=T DoCkMO=T.
 Initial guess <Sx>= 0.0000 <Sy>= 0.0000 <Sz>= 2.0000 <S**2>= 6.0046 S= 2.0009
 Leave Link  401 at Thu Mar  6 07:31:46 2025, MaxMem= 13421772800 cpu:              11.6 elap:               0.2
 (Enter /gpfs/fs1/soft/improv/software/custom-built/gaussian/g16/l502.exe)
 Integral symmetry usage will be decided dynamically.
 UHF open shell SCF:
 Using DIIS extrapolation, IDIIS=  1040.
 NGot= 13421772800 LenX= 13421483807 LenY= 13421362957
 Requested convergence on RMS density matrix=1.00D-08 within  50 cycles.
 Requested convergence on MAX density matrix=1.00D-06.
 Requested convergence on             energy=1.00D-06.
 No special actions if energy rises.
 Fock matrices will be formed incrementally for  20 cycles.

 Cycle   1  Pass 1  IDiag  1:
 FoFJK:  IHMeth= 1 ICntrl=       0 DoSepK=T KAlg= 0 I1Cent=           0 FoldK=F
 IRaf=         1 NMat=       1 IRICut=       1 DoRegI=T DoRafI=F ISym2E= 0 IDoP0=0 IntGTp=1.
 FoFCou: FMM=F IPFlag=           0 FMFlag=      100000 FMFlg1=           0
         NFxFlg=           0 DoJE=T BraDBF=F KetDBF=F FulRan=T
         wScrn=  0.000000 ICntrl=       500 IOpCl=  0 I1Cent=           0 NGrid=           0
         NMat0=    1 NMatS0=      1 NMatT0=    0 NMatD0=    1 NMtDS0=    0 NMtDT0=    0
 Symmetry not used in FoFCou.
 E= -1721.13608462470    
 DIIS: error= 1.94D-08 at cycle   1 NSaved=   1.
 NSaved= 1 IEnMin= 1 EnMin= -1721.13608462470     IErMin= 1 ErrMin= 1.94D-08
 ErrMax= 1.94D-08  0.00D+00 EMaxC= 1.00D-01 BMatC= 1.20D-13 BMatP= 1.20D-13
 IDIUse=1 WtCom= 1.00D+00 WtEn= 0.00D+00
 Coeff-Com:  0.100D+01
 Coeff:      0.100D+01
 Gap=     0.279 Goal=   None    Shift=    0.000
 Gap=     0.158 Goal=   None    Shift=    0.000
 RMSDP=4.06D-09 MaxDP=3.93D-07              OVMax= 7.35D-07

 SCF Done:  E(UHSEH1PBE) =  -1721.13608462     A.U. after    1 cycles
            NFock=  1  Conv=0.41D-08     -V/T= 2.0024
 <Sx>= 0.0000 <Sy>= 0.0000 <Sz>= 2.0000 <S**2>= 6.0046 S= 2.0009
 <L.S>=  0.00000000000    
 KE= 1.716979336998D+03 PE=-5.376789680260D+03 EE= 1.280953451434D+03
 Annihilation of the first spin contaminant:
 S**2 before annihilation     6.0046,   after     6.0000
 Leave Link  502 at Thu Mar  6 07:31:51 2025, MaxMem= 13421772800 cpu:             615.6 elap:               5.4
 (Enter /gpfs/fs1/soft/improv/software/custom-built/gaussian/g16/l508.exe)
 QCSCF skips out because SCF is already converged.
 Leave Link  508 at Thu Mar  6 07:31:52 2025, MaxMem= 13421772800 cpu:               0.3 elap:               0.0
 (Enter /gpfs/fs1/soft/improv/software/custom-built/gaussian/g16/l801.exe)
 DoSCS=F DFT=T ScalE2(SS,OS)=  1.000000  1.000000
 Range of M.O.s used for correlation:     1   317
 NBasis=   317 NAE=    44 NBE=    40 NFC=     0 NFV=     0
 NROrb=    317 NOA=    44 NOB=    40 NVA=   273 NVB=   277

 **** Warning!!: The largest alpha MO coefficient is  0.30015251D+03


 **** Warning!!: The largest beta MO coefficient is  0.28820165D+03

 Leave Link  801 at Thu Mar  6 07:31:52 2025, MaxMem= 13421772800 cpu:               0.4 elap:               0.0
 (Enter /gpfs/fs1/soft/improv/software/custom-built/gaussian/g16/l1101.exe)
 Using compressed storage, NAtomX=    19.
 Will process     20 centers per pass.
 Leave Link 1101 at Thu Mar  6 07:31:53 2025, MaxMem= 13421772800 cpu:              51.3 elap:               0.5
 (Enter /gpfs/fs1/soft/improv/software/custom-built/gaussian/g16/l1102.exe)
 Symmetrizing basis deriv contribution to polar:
 IMax=3 JMax=2 DiffMx= 0.00D+00
 Leave Link 1102 at Thu Mar  6 07:31:53 2025, MaxMem= 13421772800 cpu:               1.1 elap:               0.0
 (Enter /gpfs/fs1/soft/improv/software/custom-built/gaussian/g16/l1110.exe)
 Forming Gx(P) for the SCF density, NAtomX=    19.
 Integral derivatives from FoFJK, PRISM(SPDF).
 Do as many integral derivatives as possible in FoFJK.
 G2DrvN: MDV=   13421770631.
 G2DrvN: will do    20 centers at a time, making    1 passes.
 Calling FoFCou, ICntrl=  3107 FMM=F I1Cent=   0 AccDes= 0.00D+00.
 FoFJK:  IHMeth= 1 ICntrl=    3107 DoSepK=T KAlg= 0 I1Cent=           0 FoldK=F
 IRaf=         1 NMat=       1 IRICut=       1 DoRegI=T DoRafI=F ISym2E= 0 IDoP0=0 IntGTp=1.
 FoFCou: FMM=F IPFlag=           0 FMFlag=      100000 FMFlg1=           0
         NFxFlg=           0 DoJE=F BraDBF=F KetDBF=F FulRan=T
         wScrn=  0.000000 ICntrl=      3507 IOpCl=  0 I1Cent=           0 NGrid=           0
         NMat0=    1 NMatS0=      1 NMatT0=    0 NMatD0=    1 NMtDS0=    0 NMtDT0=    0
 Symmetry not used in FoFCou.
 End of G2Drv F.D. properties file   721 does not exist.
 End of G2Drv F.D. properties file   722 does not exist.
 End of G2Drv F.D. properties file   788 does not exist.
 Leave Link 1110 at Thu Mar  6 07:32:11 2025, MaxMem= 13421772800 cpu:            2145.5 elap:              17.3
 (Enter /gpfs/fs1/soft/improv/software/custom-built/gaussian/g16/l1002.exe)
 Minotr:  UHF open shell wavefunction.
          IDoAtm=1111111111111111111
          Direct CPHF calculation.
          Differentiating once with respect to electric field.
                with respect to dipole field.
          Differentiating once with respect to nuclear coordinates.
          Requested convergence is 1.0D-08 RMS, and 1.0D-07 maximum.
          Secondary convergence is 1.0D-12 RMS, and 1.0D-12 maximum.
          NewPWx=T KeepS1=F KeepF1=F KeepIn=T MapXYZ=F SortEE=F KeepMc=T.
         6034 words used for storage of precomputed grid.
 Two-electron integrals replicated using symmetry.
          MDV=   13421772800 using IRadAn=       1.
          Solving linear equations simultaneously, MaxMat=     384.
 FoF2E skips out because all densities are zero.
 CalDSu exits because no D1Ps are significant.
 FoFJK:  IHMeth= 1 ICntrl=       0 DoSepK=T KAlg= 0 I1Cent=           0 FoldK=F
 IRaf=         1 NMat=      57 IRICut=       1 DoRegI=T DoRafI=F ISym2E= 2 IDoP0=3 IntGTp=2.
 FoFCou: FMM=F IPFlag=           0 FMFlag=      100000 FMFlg1=           0
         NFxFlg=           0 DoJE=F BraDBF=F KetDBF=F FulRan=T
         wScrn=  0.000000 ICntrl=       500 IOpCl=  0 I1Cent=           0 NGrid=           0
         NMat0=   57 NMatS0=     57 NMatT0=    0 NMatD0=   57 NMtDS0=    0 NMtDT0=    0
 Integrals replicated using symmetry in FoFCou.
          There are    60 degrees of freedom in the 1st order CPHF.  IDoFFX=6 NUNeed=     3.
     57 vectors produced by pass  0 Test12= 3.85D-14 1.67D-09 XBig12= 5.44D+01 1.71D+00.
 AX will form    57 AO Fock derivatives at one time.
     57 vectors produced by pass  1 Test12= 3.85D-14 1.67D-09 XBig12= 1.66D+00 1.94D-01.
     57 vectors produced by pass  2 Test12= 3.85D-14 1.67D-09 XBig12= 1.72D-02 2.36D-02.
     57 vectors produced by pass  3 Test12= 3.85D-14 1.67D-09 XBig12= 2.10D-04 2.09D-03.
     57 vectors produced by pass  4 Test12= 3.85D-14 1.67D-09 XBig12= 2.69D-06 2.33D-04.
     57 vectors produced by pass  5 Test12= 3.85D-14 1.67D-09 XBig12= 1.40D-08 1.53D-05.
     42 vectors produced by pass  6 Test12= 3.85D-14 1.67D-09 XBig12= 5.63D-11 9.16D-07.
      9 vectors produced by pass  7 Test12= 3.85D-14 1.67D-09 XBig12= 1.79D-13 4.98D-08.
      3 vectors produced by pass  8 Test12= 3.85D-14 1.67D-09 XBig12= 3.02D-16 2.87D-09.
 InvSVY:  IOpt=1 It=  1 EMax= 1.82D-15
 Solved reduced A of dimension   396 with    60 vectors.
 FullF1:  Do perturbations      1 to       3.
 Isotropic polarizability for W=    0.000000       55.38 Bohr**3.
 End of Minotr F.D. properties file   721 does not exist.
 End of Minotr F.D. properties file   722 does not exist.
 End of Minotr F.D. properties file   788 does not exist.
 Leave Link 1002 at Thu Mar  6 07:33:18 2025, MaxMem= 13421772800 cpu:            7925.4 elap:              67.0
 (Enter /gpfs/fs1/soft/improv/software/custom-built/gaussian/g16/l601.exe)
 Copying SCF densities to generalized density rwf, IOpCl= 1 IROHF=0.

 **********************************************************************

            Population analysis using the SCF Density.

 **********************************************************************

 Orbital symmetries:
 Alpha Orbitals:
       Occupied  (A) (A) (A) (A) (A) (A) (A) (A) (A) (A) (A) (A)
                 (A) (A) (A) (A) (A) (A) (A) (A) (A) (A) (A) (A)
                 (A) (A) (A) (A) (A) (A) (A) (A) (A) (A) (A) (A)
                 (A) (A) (A) (A) (A) (A) (A) (A)
       Virtual   (A) (A) (A) (A) (A) (A) (A) (A) (A) (A) (A) (A)
                 (A) (A) (A) (A) (A) (A) (A) (A) (A) (A) (A) (A)
                 (A) (A) (A) (A) (A) (A) (A) (A) (A) (A) (A) (A)
                 (A) (A) (A) (A) (A) (A) (A) (A) (A) (A) (A) (A)
                 (A) (A) (A) (A) (A) (A) (A) (A) (A) (A) (A) (A)
                 (A) (A) (A) (A) (A) (A) (A) (A) (A) (A) (A) (A)
                 (A) (A) (A) (A) (A) (A) (A) (A) (A) (A) (A) (A)
                 (A) (A) (A) (A) (A) (A) (A) (A) (A) (A) (A) (A)
                 (A) (A) (A) (A) (A) (A) (A) (A) (A) (A) (A) (A)
                 (A) (A) (A) (A) (A) (A) (A) (A) (A) (A) (A) (A)
                 (A) (A) (A) (A) (A) (A) (A) (A) (A) (A) (A) (A)
                 (A) (A) (A) (A) (A) (A) (A) (A) (A) (A) (A) (A)
                 (A) (A) (A) (A) (A) (A) (A) (A) (A) (A) (A) (A)
                 (A) (A) (A) (A) (A) (A) (A) (A) (A) (A) (A) (A)
                 (A) (A) (A) (A) (A) (A) (A) (A) (A) (A) (A) (A)
                 (A) (A) (A) (A) (A) (A) (A) (A) (A) (A) (A) (A)
                 (A) (A) (A) (A) (A) (A) (A) (A) (A) (A) (A) (A)
                 (A) (A) (A) (A) (A) (A) (A) (A) (A) (A) (A) (A)
                 (A) (A) (A) (A) (A) (A) (A) (A) (A) (A) (A) (A)
                 (A) (A) (A) (A) (A) (A) (A) (A) (A) (A) (A) (A)
                 (A) (A) (A) (A) (A) (A) (A) (A) (A) (A) (A) (A)
                 (A) (A) (A) (A) (A) (A) (A) (A) (A) (A) (A) (A)
                 (A) (A) (A) (A) (A) (A) (A) (A) (A)
 Beta  Orbitals:
       Occupied  (A) (A) (A) (A) (A) (A) (A) (A) (A) (A) (A) (A)
                 (A) (A) (A) (A) (A) (A) (A) (A) (A) (A) (A) (A)
                 (A) (A) (A) (A) (A) (A) (A) (A) (A) (A) (A) (A)
                 (A) (A) (A) (A)
       Virtual   (A) (A) (A) (A) (A) (A) (A) (A) (A) (A) (A) (A)
                 (A) (A) (A) (A) (A) (A) (A) (A) (A) (A) (A) (A)
                 (A) (A) (A) (A) (A) (A) (A) (A) (A) (A) (A) (A)
                 (A) (A) (A) (A) (A) (A) (A) (A) (A) (A) (A) (A)
                 (A) (A) (A) (A) (A) (A) (A) (A) (A) (A) (A) (A)
                 (A) (A) (A) (A) (A) (A) (A) (A) (A) (A) (A) (A)
                 (A) (A) (A) (A) (A) (A) (A) (A) (A) (A) (A) (A)
                 (A) (A) (A) (A) (A) (A) (A) (A) (A) (A) (A) (A)
                 (A) (A) (A) (A) (A) (A) (A) (A) (A) (A) (A) (A)
                 (A) (A) (A) (A) (A) (A) (A) (A) (A) (A) (A) (A)
                 (A) (A) (A) (A) (A) (A) (A) (A) (A) (A) (A) (A)
                 (A) (A) (A) (A) (A) (A) (A) (A) (A) (A) (A) (A)
                 (A) (A) (A) (A) (A) (A) (A) (A) (A) (A) (A) (A)
                 (A) (A) (A) (A) (A) (A) (A) (A) (A) (A) (A) (A)
                 (A) (A) (A) (A) (A) (A) (A) (A) (A) (A) (A) (A)
                 (A) (A) (A) (A) (A) (A) (A) (A) (A) (A) (A) (A)
                 (A) (A) (A) (A) (A) (A) (A) (A) (A) (A) (A) (A)
                 (A) (A) (A) (A) (A) (A) (A) (A) (A) (A) (A) (A)
                 (A) (A) (A) (A) (A) (A) (A) (A) (A) (A) (A) (A)
                 (A) (A) (A) (A) (A) (A) (A) (A) (A) (A) (A) (A)
                 (A) (A) (A) (A) (A) (A) (A) (A) (A) (A) (A) (A)
                 (A) (A) (A) (A) (A) (A) (A) (A) (A) (A) (A) (A)
                 (A) (A) (A) (A) (A) (A) (A) (A) (A) (A) (A) (A)
                 (A)
 The electronic state is 5-A.
 Alpha  occ. eigenvalues -- -256.68841 -30.50341 -26.34055 -26.31000 -26.30986
 Alpha  occ. eigenvalues --  -19.55547 -19.55547 -19.55090 -19.55089 -19.54756
 Alpha  occ. eigenvalues --  -19.54755  -3.91711  -2.72005  -2.65632  -2.65606
 Alpha  occ. eigenvalues --   -1.37026  -1.36648  -1.36239  -1.36226  -1.35852
 Alpha  occ. eigenvalues --   -1.35798  -0.87417  -0.87256  -0.87040  -0.86915
 Alpha  occ. eigenvalues --   -0.86532  -0.86462  -0.81133  -0.79572  -0.78677
 Alpha  occ. eigenvalues --   -0.76661  -0.76217  -0.75689  -0.69694  -0.69674
 Alpha  occ. eigenvalues --   -0.66149  -0.66121  -0.65606  -0.65271  -0.63942
 Alpha  occ. eigenvalues --   -0.63590  -0.60875  -0.59935  -0.59574
 Alpha virt. eigenvalues --   -0.31703  -0.27042  -0.26887  -0.26793  -0.21705
 Alpha virt. eigenvalues --   -0.21581  -0.17841  -0.17493  -0.16970  -0.16933
 Alpha virt. eigenvalues --   -0.16908  -0.16824  -0.16409  -0.11356  -0.11012
 Alpha virt. eigenvalues --   -0.10740  -0.10652  -0.10222  -0.10175  -0.09993
 Alpha virt. eigenvalues --   -0.08783  -0.08669  -0.08247  -0.07606  -0.07502
 Alpha virt. eigenvalues --   -0.05403  -0.05142  -0.05131  -0.04509   0.00253
 Alpha virt. eigenvalues --    0.00435   0.01618   0.02661   0.02932   0.03485
 Alpha virt. eigenvalues --    0.04656   0.05036   0.05054   0.05256   0.08357
 Alpha virt. eigenvalues --    0.09243   0.09874   0.13901   0.14617   0.16610
 Alpha virt. eigenvalues --    0.17024   0.17334   0.17838   0.19727   0.20107
 Alpha virt. eigenvalues --    0.20238   0.35571   0.36281   0.42573   0.48535
 Alpha virt. eigenvalues --    0.49406   0.49981   0.51937   0.52413   0.53156
 Alpha virt. eigenvalues --    0.56193   0.56730   0.56809   0.59064   0.60071
 Alpha virt. eigenvalues --    0.60771   0.60927   0.61494   0.62466   0.63326
 Alpha virt. eigenvalues --    0.63342   0.64037   0.64338   0.64463   0.65604
 Alpha virt. eigenvalues --    0.66883   0.68394   0.73435   0.73656   0.74286
 Alpha virt. eigenvalues --    0.74577   0.75116   0.75245   0.78112   0.78737
 Alpha virt. eigenvalues --    0.78999   0.82782   0.84331   0.84625   0.85249
 Alpha virt. eigenvalues --    0.85531   0.85813   0.86351   0.86501   0.87120
 Alpha virt. eigenvalues --    0.96696   0.97877   0.99060   1.00461   1.01369
 Alpha virt. eigenvalues --    1.09934   1.10293   1.24716   1.25679   1.26462
 Alpha virt. eigenvalues --    1.26518   1.28017   1.31236   1.33581   1.33676
 Alpha virt. eigenvalues --    1.35005   1.36191   1.36825   1.38506   1.48912
 Alpha virt. eigenvalues --    1.49175   1.49341   1.51176   1.61516   1.78452
 Alpha virt. eigenvalues --    1.81747   1.84071   1.93773   1.93815   1.94933
 Alpha virt. eigenvalues --    1.96339   1.96479   1.97517   1.97936   1.98214
 Alpha virt. eigenvalues --    1.99220   1.99264   1.99321   2.01340   2.09428
 Alpha virt. eigenvalues --    2.12939   2.14573   2.15456   2.16086   2.18374
 Alpha virt. eigenvalues --    2.19195   2.19849   2.24188   2.24192   2.24808
 Alpha virt. eigenvalues --    2.26568   2.27058   2.27099   2.27422   2.27603
 Alpha virt. eigenvalues --    2.30756   2.65068   2.65309   2.66267   2.67146
 Alpha virt. eigenvalues --    2.69526   2.69636   2.72863   2.74034   2.75015
 Alpha virt. eigenvalues --    2.85376   2.86609   2.87283   2.87567   2.89119
 Alpha virt. eigenvalues --    2.90011   2.91035   2.94772   2.95434   2.96145
 Alpha virt. eigenvalues --    2.96584   2.96985   3.74146   3.77008   3.77964
 Alpha virt. eigenvalues --    3.78018   3.78715   3.79310   3.89099   3.90380
 Alpha virt. eigenvalues --    3.92494   3.93735   3.93890   3.94416   3.98951
 Alpha virt. eigenvalues --    3.99972   4.01398   4.06271   4.07840   4.09243
 Alpha virt. eigenvalues --    4.10401   4.10843   4.11101   4.20898   4.21546
 Alpha virt. eigenvalues --    4.22079   4.22581   4.22940   4.22978   4.23597
 Alpha virt. eigenvalues --    4.23657   4.24479   4.25994   4.26935   4.30371
 Alpha virt. eigenvalues --    4.31012   4.31674   4.32363   4.45899   4.47811
 Alpha virt. eigenvalues --    4.48012   4.50943   4.60494   4.60766   4.61071
 Alpha virt. eigenvalues --    4.61641   4.62005   4.62389   4.71419   4.71571
 Alpha virt. eigenvalues --    4.73002   4.86330   4.87303   4.90379   4.92284
 Alpha virt. eigenvalues --    4.93513   5.04918   5.05228   5.05377   5.05655
 Alpha virt. eigenvalues --    5.05760   5.06099   5.06707   5.08559   5.08700
 Alpha virt. eigenvalues --    5.09530   5.13882   5.13976   5.14084   5.15191
 Alpha virt. eigenvalues --    5.15898   5.16427   5.16435   5.16936   5.17217
 Alpha virt. eigenvalues --    5.31359   5.32723   5.32955   5.49311   5.49359
 Alpha virt. eigenvalues --    5.49808   5.50146   5.50276   5.50738   5.63507
 Alpha virt. eigenvalues --    5.64117   5.69271   5.73513   5.73992   5.75055
 Alpha virt. eigenvalues --    7.21147   7.22608   7.22871   7.24728   7.26064
 Alpha virt. eigenvalues --    7.49421  13.56602  13.58524  13.59515  13.66858
 Alpha virt. eigenvalues --   13.72503  14.14528  20.78537
  Beta  occ. eigenvalues -- -256.68769 -30.42579 -26.26384 -26.25034 -26.25029
  Beta  occ. eigenvalues --  -19.55414 -19.55414 -19.54979 -19.54979 -19.54643
  Beta  occ. eigenvalues --  -19.54643  -3.71482  -2.46373  -2.45979  -2.45942
  Beta  occ. eigenvalues --   -1.36787  -1.36403  -1.36037  -1.36000  -1.35659
  Beta  occ. eigenvalues --   -1.35590  -0.87255  -0.87139  -0.86814  -0.86789
  Beta  occ. eigenvalues --   -0.86364  -0.86358  -0.80233  -0.76084  -0.75830
  Beta  occ. eigenvalues --   -0.75676  -0.75186  -0.75167  -0.66093  -0.66015
  Beta  occ. eigenvalues --   -0.65743  -0.65367  -0.65242  -0.65026  -0.51864
  Beta virt. eigenvalues --   -0.36048  -0.35500  -0.32152  -0.31290  -0.29482
  Beta virt. eigenvalues --   -0.26909  -0.26724  -0.26675  -0.21003  -0.20701
  Beta virt. eigenvalues --   -0.17772  -0.17380  -0.16881  -0.16695  -0.16590
  Beta virt. eigenvalues --   -0.16129  -0.15737  -0.10894  -0.10639  -0.10550
  Beta virt. eigenvalues --   -0.09979  -0.09940  -0.09654  -0.09281  -0.08409
  Beta virt. eigenvalues --   -0.08307  -0.08131  -0.07347  -0.07316  -0.05105
  Beta virt. eigenvalues --   -0.04812  -0.04720  -0.04391   0.00642   0.01751
  Beta virt. eigenvalues --    0.02825   0.03160   0.03292   0.03717   0.05676
  Beta virt. eigenvalues --    0.05983   0.06181   0.06705   0.08554   0.09363
  Beta virt. eigenvalues --    0.10484   0.14279   0.15105   0.17073   0.18214
  Beta virt. eigenvalues --    0.18592   0.18831   0.20412   0.20851   0.21000
  Beta virt. eigenvalues --    0.36521   0.37203   0.43007   0.48654   0.49549
  Beta virt. eigenvalues --    0.50223   0.52677   0.52780   0.53738   0.56209
  Beta virt. eigenvalues --    0.56780   0.57642   0.59271   0.60222   0.60985
  Beta virt. eigenvalues --    0.61881   0.62143   0.62777   0.63356   0.63631
  Beta virt. eigenvalues --    0.64083   0.64589   0.64818   0.66111   0.67326
  Beta virt. eigenvalues --    0.68954   0.73941   0.74021   0.74569   0.74873
  Beta virt. eigenvalues --    0.75221   0.75452   0.78506   0.79114   0.79396
  Beta virt. eigenvalues --    0.84359   0.84411   0.85036   0.85856   0.86690
  Beta virt. eigenvalues --    0.86816   0.87233   0.87437   0.87442   0.97977
  Beta virt. eigenvalues --    0.99207   0.99574   1.01357   1.03253   1.11716
  Beta virt. eigenvalues --    1.12124   1.26557   1.27190   1.28257   1.28492
  Beta virt. eigenvalues --    1.28534   1.31536   1.36163   1.36564   1.38430
  Beta virt. eigenvalues --    1.42051   1.46568   1.47657   1.50046   1.50463
  Beta virt. eigenvalues --    1.50881   1.52207   1.61821   1.80029   1.83525
  Beta virt. eigenvalues --    1.85157   1.94903   1.95369   1.96389   1.97891
  Beta virt. eigenvalues --    1.98013   1.99307   1.99376   1.99446   1.99593
  Beta virt. eigenvalues --    2.00026   2.02171   2.03212   2.14719   2.16031
  Beta virt. eigenvalues --    2.16877   2.17346   2.18252   2.18441   2.19573
  Beta virt. eigenvalues --    2.20675   2.24341   2.24473   2.25053   2.26769
  Beta virt. eigenvalues --    2.27140   2.27292   2.27478   2.27822   2.30948
  Beta virt. eigenvalues --    2.65401   2.65685   2.66517   2.67975   2.69888
  Beta virt. eigenvalues --    2.70242   2.74410   2.75097   2.76154   2.85521
  Beta virt. eigenvalues --    2.87019   2.87646   2.87914   2.89706   2.90519
  Beta virt. eigenvalues --    2.91296   2.96518   2.97497   3.00383   3.00913
  Beta virt. eigenvalues --    3.01447   3.74710   3.77652   3.78212   3.78674
  Beta virt. eigenvalues --    3.78893   3.80105   3.91200   3.92650   3.93213
  Beta virt. eigenvalues --    3.94453   3.95221   3.95617   4.01047   4.01321
  Beta virt. eigenvalues --    4.03010   4.06479   4.08109   4.09567   4.17717
  Beta virt. eigenvalues --    4.18089   4.18205   4.21919   4.22934   4.23278
  Beta virt. eigenvalues --    4.23471   4.26509   4.27458   4.28659   4.28873
  Beta virt. eigenvalues --    4.29106   4.33743   4.34818   4.37520   4.37779
  Beta virt. eigenvalues --    4.38512   4.39495   4.53807   4.54226   4.55076
  Beta virt. eigenvalues --    4.55381   4.62421   4.62489   4.63015   4.63040
  Beta virt. eigenvalues --    4.63218   4.63558   4.72166   4.72690   4.74519
  Beta virt. eigenvalues --    4.89121   4.89831   4.93135   4.93782   4.94460
  Beta virt. eigenvalues --    5.05192   5.05463   5.05615   5.05879   5.05932
  Beta virt. eigenvalues --    5.06219   5.09397   5.09562   5.10214   5.10534
  Beta virt. eigenvalues --    5.14023   5.14127   5.14234   5.15352   5.16043
  Beta virt. eigenvalues --    5.16549   5.16567   5.17053   5.17367   5.35501
  Beta virt. eigenvalues --    5.36025   5.36418   5.49689   5.49848   5.49925
  Beta virt. eigenvalues --    5.50257   5.50586   5.50834   5.63746   5.64348
  Beta virt. eigenvalues --    5.69684   5.75043   5.75520   5.76604   7.21302
  Beta virt. eigenvalues --    7.22746   7.23015   7.24915   7.26263   7.49760
  Beta virt. eigenvalues --   13.56707  13.58607  13.59585  13.66953  13.72609
  Beta virt. eigenvalues --   14.14770  20.89166
          Condensed to atoms (all electrons):
               1          2          3          4          5          6
     1  Fe  24.805734   0.019706  -0.001121   0.019438  -0.001143   0.025674
     2  O    0.019706   8.157966   0.296685  -0.027792   0.000623  -0.027484
     3  H   -0.001121   0.296685   0.295213   0.000510  -0.000002   0.000587
     4  O    0.019438  -0.027792   0.000510   8.151005   0.297283  -0.030653
     5  H   -0.001143   0.000623  -0.000002   0.297283   0.298013   0.000601
     6  O    0.025674  -0.027484   0.000587  -0.030653   0.000601   8.154015
     7  H   -0.002395   0.000440  -0.000000   0.000668  -0.000001   0.298066
     8  O    0.019718   0.022849  -0.000288  -0.027742   0.002336  -0.035959
     9  H   -0.000596  -0.000304   0.000000   0.000439  -0.000047   0.000826
    10  O    0.019394  -0.027758   0.000510   0.022690  -0.000293  -0.030541
    11  H   -0.001152   0.000622  -0.000002  -0.000293   0.000000   0.000599
    12  O    0.025692  -0.035982   0.002991  -0.030586   0.000568   0.026455
    13  H   -0.002397   0.000645  -0.000056   0.002851  -0.000063  -0.000351
    14  H   -0.002398   0.000646  -0.000056   0.000666  -0.000002  -0.000350
    15  H   -0.001147   0.002344  -0.000037   0.297280  -0.013435   0.000571
    16  H   -0.000595   0.297474  -0.013647   0.000442  -0.000000   0.002092
    17  H   -0.001146   0.002337  -0.000037  -0.000293   0.000000   0.000567
    18  H   -0.002403   0.000441  -0.000000   0.002861  -0.000039   0.298068
    19  H   -0.001119  -0.000288   0.000000   0.000510  -0.000037   0.002988
               7          8          9         10         11         12
     1  Fe  -0.002395   0.019718  -0.000596   0.019394  -0.001152   0.025692
     2  O    0.000440   0.022849  -0.000304  -0.027758   0.000622  -0.035982
     3  H   -0.000000  -0.000288   0.000000   0.000510  -0.000002   0.002991
     4  O    0.000668  -0.027742   0.000439   0.022690  -0.000293  -0.030586
     5  H   -0.000001   0.002336  -0.000047  -0.000293   0.000000   0.000568
     6  O    0.298066  -0.035959   0.000826  -0.030541   0.000599   0.026455
     7  H    0.294491   0.000645  -0.000002   0.002845  -0.000039  -0.000350
     8  O    0.000645   8.157975   0.297476  -0.027829   0.002347  -0.027495
     9  H   -0.000002   0.297476   0.295659   0.000443  -0.000047   0.002093
    10  O    0.002845  -0.027829   0.000443   8.150883   0.297297  -0.030585
    11  H   -0.000039   0.002347  -0.000047   0.297297   0.298019   0.000569
    12  O   -0.000350  -0.027495   0.002093  -0.030585   0.000569   8.154029
    13  H    0.000000   0.000441  -0.000035   0.000666  -0.000002   0.298069
    14  H    0.000001   0.000441  -0.000035   0.002852  -0.000063   0.298058
    15  H   -0.000002   0.000621  -0.000000  -0.000293   0.000000   0.000600
    16  H   -0.000035  -0.000304   0.000000   0.000440  -0.000000   0.000826
    17  H   -0.000062   0.000624  -0.000000   0.297296  -0.013436   0.000600
    18  H   -0.013851   0.000645  -0.000003   0.000665  -0.000001  -0.000351
    19  H   -0.000056   0.296681  -0.013647   0.000510  -0.000037   0.000587
              13         14         15         16         17         18
     1  Fe  -0.002397  -0.002398  -0.001147  -0.000595  -0.001146  -0.002403
     2  O    0.000645   0.000646   0.002344   0.297474   0.002337   0.000441
     3  H   -0.000056  -0.000056  -0.000037  -0.013647  -0.000037  -0.000000
     4  O    0.002851   0.000666   0.297280   0.000442  -0.000293   0.002861
     5  H   -0.000063  -0.000002  -0.013435  -0.000000   0.000000  -0.000039
     6  O   -0.000351  -0.000350   0.000571   0.002092   0.000567   0.298068
     7  H    0.000000   0.000001  -0.000002  -0.000035  -0.000062  -0.013851
     8  O    0.000441   0.000441   0.000621  -0.000304   0.000624   0.000645
     9  H   -0.000035  -0.000035  -0.000000   0.000000  -0.000000  -0.000003
    10  O    0.000666   0.002852  -0.000293   0.000440   0.297296   0.000665
    11  H   -0.000002  -0.000063   0.000000  -0.000000  -0.013436  -0.000001
    12  O    0.298069   0.298058   0.000600   0.000826   0.000600  -0.000351
    13  H    0.294492  -0.013851  -0.000039  -0.000002  -0.000001   0.000001
    14  H   -0.013851   0.294494  -0.000001  -0.000003  -0.000039   0.000000
    15  H   -0.000039  -0.000001   0.298017  -0.000047   0.000000  -0.000063
    16  H   -0.000002  -0.000003  -0.000047   0.295657  -0.000047  -0.000035
    17  H   -0.000001  -0.000039   0.000000  -0.000047   0.298013  -0.000002
    18  H    0.000001   0.000000  -0.000063  -0.000035  -0.000002   0.294494
    19  H   -0.000000  -0.000000  -0.000002   0.000000  -0.000002  -0.000056
              19
     1  Fe  -0.001119
     2  O   -0.000288
     3  H    0.000000
     4  O    0.000510
     5  H   -0.000037
     6  O    0.002988
     7  H   -0.000056
     8  O    0.296681
     9  H   -0.013647
    10  O    0.000510
    11  H   -0.000037
    12  O    0.000587
    13  H   -0.000000
    14  H   -0.000000
    15  H   -0.000002
    16  H    0.000000
    17  H   -0.000002
    18  H   -0.000056
    19  H    0.295213
          Atomic-Atomic Spin Densities.
               1          2          3          4          5          6
     1  Fe   4.121903  -0.036748   0.001212  -0.041910   0.002324  -0.045385
     2  O   -0.036748   0.081409  -0.003364  -0.008733   0.000199  -0.010663
     3  H    0.001212  -0.003364   0.003082   0.000358  -0.000001   0.000180
     4  O   -0.041910  -0.008733   0.000358   0.091767  -0.004454  -0.010504
     5  H    0.002324   0.000199  -0.000001  -0.004454   0.002234   0.000379
     6  O   -0.045385  -0.010663   0.000180  -0.010504   0.000379   0.100969
     7  H    0.002025   0.000339  -0.000001   0.000210  -0.000001  -0.004212
     8  O   -0.036744   0.007052  -0.000108  -0.008729   0.000544  -0.011364
     9  H    0.001341  -0.000110   0.000000   0.000312  -0.000018   0.000206
    10  O   -0.041930  -0.008736   0.000358   0.007726  -0.000111  -0.010496
    11  H    0.002325   0.000198  -0.000001  -0.000111   0.000000   0.000378
    12  O   -0.045380  -0.011368   0.000881  -0.010499   0.000420   0.008515
    13  H    0.002024   0.000489  -0.000025   0.000620  -0.000036  -0.000129
    14  H    0.002024   0.000489  -0.000025   0.000210  -0.000001  -0.000129
    15  H    0.002323   0.000545  -0.000020  -0.004454   0.000794   0.000420
    16  H    0.001342  -0.003294   0.000557   0.000312  -0.000001   0.000720
    17  H    0.002326   0.000545  -0.000019  -0.000111   0.000000   0.000420
    18  H    0.002023   0.000339  -0.000001   0.000621  -0.000012  -0.004210
    19  H    0.001212  -0.000108   0.000000   0.000357  -0.000019   0.000881
               7          8          9         10         11         12
     1  Fe   0.002025  -0.036744   0.001341  -0.041930   0.002325  -0.045380
     2  O    0.000339   0.007052  -0.000110  -0.008736   0.000198  -0.011368
     3  H   -0.000001  -0.000108   0.000000   0.000358  -0.000001   0.000881
     4  O    0.000210  -0.008729   0.000312   0.007726  -0.000111  -0.010499
     5  H   -0.000001   0.000544  -0.000018  -0.000111   0.000000   0.000420
     6  O   -0.004212  -0.011364   0.000206  -0.010496   0.000378   0.008515
     7  H    0.002068   0.000489  -0.000002   0.000620  -0.000012  -0.000129
     8  O    0.000489   0.081402  -0.003294  -0.008742   0.000545  -0.010664
     9  H   -0.000002  -0.003294   0.002756   0.000312  -0.000018   0.000721
    10  O    0.000620  -0.008742   0.000312   0.091813  -0.004456  -0.010496
    11  H   -0.000012   0.000545  -0.000018  -0.004456   0.002232   0.000420
    12  O   -0.000129  -0.010664   0.000721  -0.010496   0.000420   0.100959
    13  H    0.000000   0.000339  -0.000017   0.000210  -0.000001  -0.004211
    14  H    0.000000   0.000339  -0.000017   0.000620  -0.000036  -0.004212
    15  H   -0.000001   0.000198  -0.000001  -0.000111   0.000000   0.000379
    16  H   -0.000017  -0.000110   0.000000   0.000312  -0.000001   0.000207
    17  H   -0.000036   0.000199  -0.000001  -0.004456   0.000795   0.000378
    18  H    0.000752   0.000489  -0.000002   0.000209  -0.000001  -0.000129
    19  H   -0.000025  -0.003364   0.000557   0.000359  -0.000020   0.000180
              13         14         15         16         17         18
     1  Fe   0.002024   0.002024   0.002323   0.001342   0.002326   0.002023
     2  O    0.000489   0.000489   0.000545  -0.003294   0.000545   0.000339
     3  H   -0.000025  -0.000025  -0.000020   0.000557  -0.000019  -0.000001
     4  O    0.000620   0.000210  -0.004454   0.000312  -0.000111   0.000621
     5  H   -0.000036  -0.000001   0.000794  -0.000001   0.000000  -0.000012
     6  O   -0.000129  -0.000129   0.000420   0.000720   0.000420  -0.004210
     7  H    0.000000   0.000000  -0.000001  -0.000017  -0.000036   0.000752
     8  O    0.000339   0.000339   0.000198  -0.000110   0.000199   0.000489
     9  H   -0.000017  -0.000017  -0.000001   0.000000  -0.000001  -0.000002
    10  O    0.000210   0.000620  -0.000111   0.000312  -0.004456   0.000209
    11  H   -0.000001  -0.000036   0.000000  -0.000001   0.000795  -0.000001
    12  O   -0.004211  -0.004212   0.000379   0.000207   0.000378  -0.000129
    13  H    0.002066   0.000752  -0.000012  -0.000002  -0.000001   0.000000
    14  H    0.000752   0.002067  -0.000001  -0.000002  -0.000012   0.000000
    15  H   -0.000012  -0.000001   0.002234  -0.000018   0.000000  -0.000036
    16  H   -0.000002  -0.000002  -0.000018   0.002757  -0.000018  -0.000017
    17  H   -0.000001  -0.000012   0.000000  -0.000018   0.002232  -0.000001
    18  H    0.000000   0.000000  -0.000036  -0.000017  -0.000001   0.002065
    19  H   -0.000001  -0.000001  -0.000001   0.000000  -0.000001  -0.000025
              19
     1  Fe   0.001212
     2  O   -0.000108
     3  H    0.000000
     4  O    0.000357
     5  H   -0.000019
     6  O    0.000881
     7  H   -0.000025
     8  O   -0.003364
     9  H    0.000557
    10  O    0.000359
    11  H   -0.000020
    12  O    0.000180
    13  H   -0.000001
    14  H   -0.000001
    15  H   -0.000001
    16  H    0.000000
    17  H   -0.000001
    18  H   -0.000025
    19  H    0.003083
 Mulliken charges and spin densities:
               1          2
     1  Fe   1.082255   3.896308
     2  O   -0.683169   0.008480
     3  H    0.418753   0.003063
     4  O   -0.679281   0.012988
     5  H    0.415638   0.002238
     6  O   -0.685772   0.015976
     7  H    0.419639   0.002067
     8  O   -0.683181   0.008479
     9  H    0.417778   0.002727
    10  O   -0.679190   0.013005
    11  H    0.415618   0.002236
    12  O   -0.685788   0.015972
    13  H    0.419632   0.002066
    14  H    0.419640   0.002066
    15  H    0.415634   0.002238
    16  H    0.417782   0.002727
    17  H    0.415629   0.002237
    18  H    0.419629   0.002064
    19  H    0.418756   0.003063
 Sum of Mulliken charges =   2.00000   4.00000
 Mulliken charges and spin densities with hydrogens summed into heavy atoms:
               1          2
     1  Fe   1.082255   3.896308
     2  O    0.153366   0.014270
     4  O    0.151990   0.017464
     6  O    0.153496   0.020107
     8  O    0.153353   0.014269
    10  O    0.152056   0.017478
    12  O    0.153483   0.020104
 APT charges:
               1
     1  Fe   1.697679
     2  O   -0.638339
     3  H    0.341371
     4  O   -0.619418
     5  H    0.335699
     6  O   -0.627917
     7  H    0.341458
     8  O   -0.638330
     9  H    0.341162
    10  O   -0.619408
    11  H    0.335681
    12  O   -0.627916
    13  H    0.341458
    14  H    0.341450
    15  H    0.335683
    16  H    0.341167
    17  H    0.335699
    18  H    0.341451
    19  H    0.341371
 Sum of APT charges =   2.00000
 APT charges with hydrogens summed into heavy atoms:
               1
     1  Fe   1.697679
     2  O    0.044199
     4  O    0.051964
     6  O    0.054993
     8  O    0.044203
    10  O    0.051971
    12  O    0.054991
 Electronic spatial extent (au):  <R**2>=           1154.0195
 Charge=              2.0000 electrons
 Dipole moment (field-independent basis, Debye):
    X=              0.0000    Y=             -0.0003    Z=             -0.0002  Tot=              0.0003
 Quadrupole moment (field-independent basis, Debye-Ang):
   XX=            -15.0651   YY=            -15.4499   ZZ=            -14.7591
   XY=              0.0072   XZ=              0.1013   YZ=              0.0053
 Traceless Quadrupole moment (field-independent basis, Debye-Ang):
   XX=              0.0263   YY=             -0.3585   ZZ=              0.3323
   XY=              0.0072   XZ=              0.1013   YZ=              0.0053
 Octapole moment (field-independent basis, Debye-Ang**2):
  XXX=             -0.0040  YYY=              0.0010  ZZZ=             -0.0012  XYY=              0.0034
  XXY=             -0.0089  XXZ=             -0.0025  XZZ=              0.0006  YZZ=             -0.0010
  YYZ=              0.0031  XYZ=              0.0055
 Hexadecapole moment (field-independent basis, Debye-Ang**3):
 XXXX=           -184.4872 YYYY=           -114.8283 ZZZZ=           -189.6097 XXXY=              4.2596
 XXXZ=            -42.3526 YYYX=             -6.4476 YYYZ=             -1.1751 ZZZX=             43.6999
 ZZZY=              1.5734 XXYY=           -117.4439 XXZZ=            -27.0541 YYZZ=            -95.6468
 XXYZ=             -0.4715 YYXZ=             -3.4232 ZZXY=              2.1569
 N-N= 6.577208072040D+02 E-N=-5.376789680259D+03  KE= 1.716979336998D+03
  Exact polarizability:      54.718      -0.021      55.496       0.148       0.004      55.934
 Approx polarizability:      66.689      -0.045      68.383      -0.020      -0.002      69.760
                          Isotropic Fermi Contact Couplings
        Atom                 a.u.       MegaHertz       Gauss      10(-4) cm-1
     1  Fe(57)             0.31241      11.32793       4.04209       3.77859
     2  O(17)              0.08414     -12.75169      -4.55012      -4.25351
     3  H(1)               0.00141       1.57195       0.56091       0.52435
     4  O(17)              0.08652     -13.11267      -4.67893      -4.37392
     5  H(1)               0.00078       0.87447       0.31203       0.29169
     6  O(17)              0.08858     -13.42436      -4.79015      -4.47788
     7  H(1)               0.00074       0.82180       0.29324       0.27412
     8  O(17)              0.08414     -12.75146      -4.55004      -4.25343
     9  H(1)               0.00128       1.43219       0.51104       0.47773
    10  O(17)              0.08654     -13.11482      -4.67969      -4.37463
    11  H(1)               0.00078       0.87262       0.31137       0.29107
    12  O(17)              0.08858     -13.42406      -4.79004      -4.47778
    13  H(1)               0.00073       0.82111       0.29299       0.27389
    14  H(1)               0.00073       0.82073       0.29286       0.27377
    15  H(1)               0.00078       0.87398       0.31186       0.29153
    16  H(1)               0.00128       1.43240       0.51112       0.47780
    17  H(1)               0.00078       0.87351       0.31169       0.29137
    18  H(1)               0.00073       0.81986       0.29255       0.27348
    19  H(1)               0.00141       1.57211       0.56097       0.52440
 --------------------------------------------------------
       Center         ----  Spin Dipole Couplings  ----
                      3XX-RR        3YY-RR        3ZZ-RR
 --------------------------------------------------------
     1   Atom        2.457140     -1.287840     -1.169301
     2   Atom        0.094921     -0.056879     -0.038042
     3   Atom        0.050208     -0.028394     -0.021813
     4   Atom       -0.069317      0.151694     -0.082377
     5   Atom       -0.022914      0.045084     -0.022170
     6   Atom        0.009201     -0.116615      0.107414
     7   Atom       -0.009561     -0.017819      0.027381
     8   Atom        0.094895     -0.056887     -0.038008
     9   Atom        0.011297     -0.028228      0.016931
    10   Atom       -0.069272      0.151677     -0.082405
    11   Atom       -0.021197      0.043669     -0.022472
    12   Atom        0.009198     -0.116610      0.107412
    13   Atom       -0.009564     -0.017802      0.027366
    14   Atom       -0.010866     -0.016034      0.026900
    15   Atom       -0.021188      0.043667     -0.022479
    16   Atom        0.011307     -0.028228      0.016921
    17   Atom       -0.022927      0.045087     -0.022160
    18   Atom       -0.010872     -0.016014      0.026886
    19   Atom        0.050203     -0.028395     -0.021808
 --------------------------------------------------------
                        XY            XZ            YZ
 --------------------------------------------------------
     1   Atom        0.101841      0.690228      0.026276
     2   Atom        0.003565     -0.108058     -0.002758
     3   Atom        0.002021     -0.014491     -0.000355
     4   Atom       -0.005866      0.023556     -0.000562
     5   Atom        0.014186     -0.004949     -0.015671
     6   Atom        0.003721      0.070400      0.003195
     7   Atom       -0.012046      0.032927     -0.020010
     8   Atom        0.003606     -0.108073     -0.002729
     9   Atom        0.000888     -0.038463     -0.000835
    10   Atom       -0.005887      0.023598     -0.000561
    11   Atom       -0.017829     -0.005612      0.014730
    12   Atom        0.003673      0.070411      0.003083
    13   Atom       -0.012064      0.032927     -0.020036
    14   Atom        0.012772      0.031682      0.022213
    15   Atom       -0.017832     -0.005608      0.014713
    16   Atom        0.000879     -0.038464     -0.000822
    17   Atom        0.014168     -0.004948     -0.015691
    18   Atom        0.012789      0.031681      0.022240
    19   Atom        0.001982     -0.014499     -0.000353
 --------------------------------------------------------


 ---------------------------------------------------------------------------------
              Anisotropic Spin Dipole Couplings in Principal Axis System
 ---------------------------------------------------------------------------------

       Atom             a.u.   MegaHertz   Gauss  10(-4) cm-1        Axes

              Baa    -1.3014   -22.531    -8.039    -7.515 -0.1335 -0.5698  0.8109
     1 Fe(57) Bbb    -1.2855   -22.256    -7.942    -7.424 -0.1250  0.8214  0.5565
              Bcc     2.5869    44.787    15.981    14.939  0.9831  0.0271  0.1808
 
              Baa    -0.0984     7.123     2.542     2.376  0.4875  0.0161  0.8730
     2 O(17)  Bbb    -0.0570     4.122     1.471     1.375 -0.0262  0.9996 -0.0038
              Bcc     0.1554   -11.245    -4.012    -3.751  0.8727  0.0210 -0.4878
 
              Baa    -0.0284   -15.178    -5.416    -5.063 -0.0265  0.9996 -0.0043
     3 H(1)   Bbb    -0.0246   -13.136    -4.687    -4.382  0.1899  0.0093  0.9818
              Bcc     0.0531    28.313    10.103     9.444  0.9815  0.0252 -0.1901
 
              Baa    -0.1003     7.260     2.590     2.422 -0.6063 -0.0123  0.7951
     4 O(17)  Bbb    -0.0515     3.728     1.330     1.244  0.7948  0.0246  0.6064
              Bcc     0.1519   -10.988    -3.921    -3.665 -0.0271  0.9996 -0.0051
 
              Baa    -0.0275   -14.677    -5.237    -4.896  0.7195  0.0093  0.6945
     5 H(1)   Bbb    -0.0240   -12.827    -4.577    -4.279 -0.6661  0.2923  0.6862
              Bcc     0.0515    27.503     9.814     9.174  0.1966  0.9563 -0.2165
 
              Baa    -0.1167     8.447     3.014     2.817 -0.0262  0.9996 -0.0060
     6 O(17)  Bbb    -0.0275     1.989     0.710     0.664  0.8862  0.0204 -0.4629
              Bcc     0.1442   -10.436    -3.724    -3.481  0.4626  0.0175  0.8864
 
              Baa    -0.0289   -15.401    -5.496    -5.137  0.8719  0.0737 -0.4842
     7 H(1)   Bbb    -0.0254   -13.536    -4.830    -4.515  0.0888  0.9484  0.3043
              Bcc     0.0542    28.937    10.325     9.652  0.4816 -0.3083  0.8203
 
              Baa    -0.0984     7.123     2.542     2.376  0.4877  0.0150  0.8729
     8 O(17)  Bbb    -0.0570     4.122     1.471     1.375 -0.0257  0.9997 -0.0028
              Bcc     0.1554   -11.245    -4.013    -3.751  0.8726  0.0211 -0.4879
 
              Baa    -0.0282   -15.072    -5.378    -5.027 -0.0261  0.9997 -0.0037
     9 H(1)   Bbb    -0.0245   -13.046    -4.655    -4.352  0.7321  0.0216  0.6809
              Bcc     0.0527    28.117    10.033     9.379 -0.6807 -0.0150  0.7324
 
              Baa    -0.1004     7.263     2.592     2.423 -0.6059 -0.0124  0.7954
    10 O(17)  Bbb    -0.0515     3.724     1.329     1.242  0.7951  0.0247  0.6060
              Bcc     0.1518   -10.987    -3.920    -3.665 -0.0272  0.9996 -0.0051
 
              Baa    -0.0275   -14.681    -5.238    -4.897  0.7195  0.0367  0.6935
    11 H(1)   Bbb    -0.0240   -12.830    -4.578    -4.280 -0.6487 -0.3209  0.6901
              Bcc     0.0516    27.511     9.817     9.177 -0.2479  0.9464  0.2071
 
              Baa    -0.1167     8.446     3.014     2.817 -0.0260  0.9996 -0.0056
    12 O(17)  Bbb    -0.0275     1.990     0.710     0.664  0.8861  0.0205 -0.4629
              Bcc     0.1442   -10.436    -3.724    -3.481  0.4627  0.0170  0.8864
 
              Baa    -0.0289   -15.404    -5.497    -5.138  0.8718  0.0737 -0.4842
    13 H(1)   Bbb    -0.0254   -13.537    -4.830    -4.516  0.0890  0.9483  0.3047
              Bcc     0.0542    28.942    10.327     9.654  0.4816 -0.3087  0.8202
 
              Baa    -0.0289   -15.403    -5.496    -5.138  0.8747 -0.0335 -0.4836
    14 H(1)   Bbb    -0.0254   -13.537    -4.830    -4.515 -0.1383  0.9389 -0.3152
              Bcc     0.0542    28.940    10.327     9.653  0.4646  0.3425  0.8166
 
              Baa    -0.0275   -14.679    -5.238    -4.896  0.7189  0.0366  0.6942
    15 H(1)   Bbb    -0.0240   -12.829    -4.578    -4.279 -0.6494 -0.3208  0.6895
              Bcc     0.0516    27.507     9.815     9.175 -0.2479  0.9464  0.2069
 
              Baa    -0.0282   -15.072    -5.378    -5.027 -0.0264  0.9996 -0.0043
    16 H(1)   Bbb    -0.0245   -13.046    -4.655    -4.352  0.7320  0.0223  0.6810
              Bcc     0.0527    28.117    10.033     9.379 -0.6808 -0.0148  0.7323
 
              Baa    -0.0275   -14.678    -5.237    -4.896  0.7201  0.0094  0.6938
    17 H(1)   Bbb    -0.0240   -12.828    -4.577    -4.279 -0.6655  0.2923  0.6868
              Bcc     0.0516    27.506     9.815     9.175  0.1963  0.9563 -0.2167
 
              Baa    -0.0289   -15.407    -5.498    -5.139  0.8747 -0.0335 -0.4836
    18 H(1)   Bbb    -0.0254   -13.539    -4.831    -4.516 -0.1385  0.9388 -0.3156
              Bcc     0.0543    28.947    10.329     9.656  0.4645  0.3430  0.8165
 
              Baa    -0.0284   -15.177    -5.415    -5.062 -0.0258  0.9997 -0.0031
    19 H(1)   Bbb    -0.0246   -13.135    -4.687    -4.381  0.1900  0.0079  0.9817
              Bcc     0.0531    28.312    10.102     9.444  0.9814  0.0247 -0.1902
 

 ---------------------------------------------------------------------------------

 No NMR shielding tensors so no spin-rotation constants.
 Leave Link  601 at Thu Mar  6 07:33:19 2025, MaxMem= 13421772800 cpu:              31.2 elap:               0.4
 (Enter /gpfs/fs1/soft/improv/software/custom-built/gaussian/g16/l701.exe)
 ... and contract with generalized density number  0.
 Compute integral second derivatives.
 Leave Link  701 at Thu Mar  6 07:33:20 2025, MaxMem= 13421772800 cpu:              82.7 elap:               0.7
 (Enter /gpfs/fs1/soft/improv/software/custom-built/gaussian/g16/l702.exe)
 L702 exits ... SP integral derivatives will be done elsewhere.
 Leave Link  702 at Thu Mar  6 07:33:20 2025, MaxMem= 13421772800 cpu:               0.5 elap:               0.1
 (Enter /gpfs/fs1/soft/improv/software/custom-built/gaussian/g16/l703.exe)
 Integral derivatives from FoFJK, PRISM(SPDF).
 Compute integral second derivatives, UseDBF=F ICtDFT=           0.
 Calling FoFJK, ICntrl=    100127 FMM=F ISym2X=0 I1Cent= 0 IOpClX= 1 NMat=1 NMatS=1 NMatT=0.
 FoFJK:  IHMeth= 1 ICntrl=  100127 DoSepK=T KAlg= 0 I1Cent=           0 FoldK=F
 IRaf=         1 NMat=       1 IRICut=       1 DoRegI=T DoRafI=F ISym2E= 0 IDoP0=0 IntGTp=1.
 FoFCou: FMM=F IPFlag=           0 FMFlag=      100000 FMFlg1=         800
         NFxFlg=           0 DoJE=F BraDBF=F KetDBF=F FulRan=T
         wScrn=  0.000000 ICntrl=    100527 IOpCl=  0 I1Cent=           0 NGrid=           0
         NMat0=    1 NMatS0=      1 NMatT0=    0 NMatD0=    1 NMtDS0=    0 NMtDT0=    0
 Symmetry not used in FoFCou.
 Leave Link  703 at Thu Mar  6 07:34:15 2025, MaxMem= 13421772800 cpu:            6940.7 elap:              55.0
 (Enter /gpfs/fs1/soft/improv/software/custom-built/gaussian/g16/l716.exe)
 Dipole        = 1.45643984D-06-9.88157110D-05-6.91101798D-05
 Polarizability= 5.47184726D+01-2.07569051D-02 5.54963328D+01
                 1.48053097D-01 4.11840707D-03 5.59339972D+01
 ***** Axes restored to original set *****
 -------------------------------------------------------------------
 Center     Atomic                   Forces (Hartrees/Bohr)
 Number     Number              X              Y              Z
 -------------------------------------------------------------------
      1       26           0.000000239    0.000000042   -0.000000115
      2        8          -0.000000107    0.000000885   -0.000004824
      3        1           0.000002541   -0.000001751    0.000001852
      4        8           0.000003003   -0.000002137    0.000002217
      5        1          -0.000000139   -0.000000852    0.000000316
      6        8          -0.000007849    0.000003949   -0.000001245
      7        1           0.000000036    0.000002068   -0.000000175
      8        8           0.000000492    0.000000791    0.000003686
      9        1          -0.000000533    0.000000715    0.000004377
     10        8          -0.000002831    0.000002733   -0.000002653
     11        1          -0.000001803    0.000000610    0.000001030
     12        8           0.000007142   -0.000004370    0.000000806
     13        1          -0.000002154   -0.000003408   -0.000000859
     14        1           0.000001839   -0.000001645    0.000001549
     15        1           0.000001783   -0.000000578   -0.000000095
     16        1           0.000000392   -0.000001612   -0.000004745
     17        1           0.000000638    0.000001119   -0.000002215
     18        1          -0.000003368    0.000001592   -0.000000134
     19        1           0.000000679    0.000001850    0.000001226
 -------------------------------------------------------------------
 Cartesian Forces:  Max     0.000007849 RMS     0.000002485
 Leave Link  716 at Thu Mar  6 07:34:16 2025, MaxMem= 13421772800 cpu:               0.4 elap:               0.0
 (Enter /gpfs/fs1/soft/improv/software/custom-built/gaussian/g16/l103.exe)

 GradGradGradGradGradGradGradGradGradGradGradGradGradGradGradGradGradGrad
 Berny optimization.
 Search for a local minimum.
 Step number   1 out of a maximum of  114
 All quantities printed in internal units (Hartrees-Bohrs-Radians)
 Second derivative matrix not updated -- analytic derivatives used.
 ITU=  0
     Eigenvalues ---    0.00072   0.00108   0.00113   0.00123   0.00147
     Eigenvalues ---    0.00171   0.00198   0.00203   0.00216   0.00314
     Eigenvalues ---    0.00363   0.00376   0.00380   0.00404   0.00656
     Eigenvalues ---    0.00662   0.00690   0.00893   0.00963   0.01083
     Eigenvalues ---    0.01170   0.01329   0.01481   0.02091   0.02150
     Eigenvalues ---    0.02168   0.02236   0.02336   0.02339   0.02541
     Eigenvalues ---    0.09474   0.09569   0.09785   0.17976   0.18145
     Eigenvalues ---    0.18254   0.19259   0.19397   0.19727   0.89668
     Eigenvalues ---    0.89919   0.90031   0.91918   0.92675   0.94640
     Eigenvalues ---    1.11659   1.14110   1.16411   1.19015   1.20043
     Eigenvalues ---    1.20989
 RFO step:  Lambda=-2.49658875D-08 EMin= 7.15522718D-04
 Linear search not attempted -- first point.
 B after Tr=     0.000050    0.000016    0.000005
         Rot=    1.000000    0.000000    0.000004   -0.000006 Ang=   0.00 deg.
 Variable       Old X    -DE/DX   Delta X   Delta X   Delta X     New X
                                 (Linear)    (Quad)   (Total)
    X1       -1.48335   0.00000   0.00000   0.00023   0.00026  -1.48309
    Y1        1.34728   0.00000   0.00000   0.00001   0.00000   1.34728
    Z1        0.06011  -0.00000   0.00000  -0.00003  -0.00004   0.06008
    X2       -2.53782  -0.00000   0.00000  -0.00041  -0.00043  -2.53825
    Y2        5.21313   0.00000   0.00000  -0.00021  -0.00022   5.21291
    Z2       -0.50749  -0.00000   0.00000   0.00027   0.00025  -0.50724
    X3       -2.75422   0.00000   0.00000   0.00011   0.00010  -2.75413
    Y3        6.06115  -0.00000   0.00000   0.00016   0.00014   6.06129
    Z3       -2.10552   0.00000   0.00000   0.00040   0.00038  -2.10514
    X4        2.42973   0.00000   0.00000   0.00033   0.00035   2.43008
    Y4        2.42071  -0.00000   0.00000  -0.00031  -0.00026   2.42044
    Z4        0.09686   0.00000   0.00000  -0.00021  -0.00019   0.09667
    X5        3.86246  -0.00000   0.00000   0.00003   0.00006   3.86252
    Y5        1.30218  -0.00000   0.00000  -0.00061  -0.00054   1.30163
    Z5       -0.02791   0.00000   0.00000  -0.00104  -0.00101  -0.02892
    X6       -1.64250  -0.00001   0.00000  -0.00072  -0.00073  -1.64322
    Y6        1.79701   0.00000   0.00000  -0.00014  -0.00014   1.79687
    Z6        4.02493  -0.00000   0.00000  -0.00004  -0.00005   4.02488
    X7       -3.08680   0.00000   0.00000  -0.00089  -0.00090  -3.08770
    Y7        1.47787   0.00000   0.00000  -0.00098  -0.00100   1.47687
    Z7        5.09002  -0.00000   0.00000  -0.00052  -0.00054   5.08948
    X8       -0.42889   0.00000   0.00000   0.00088   0.00096  -0.42793
    Y8       -2.51868   0.00000   0.00000   0.00033   0.00034  -2.51834
    Z8        0.62730   0.00000   0.00000   0.00009   0.00009   0.62740
    X9       -0.08002  -0.00000   0.00000  -0.00043  -0.00033  -0.08034
    Y9       -3.73829   0.00000   0.00000  -0.00008  -0.00007  -3.73836
    Z9       -0.68055   0.00000   0.00000   0.00013   0.00013  -0.68042
   X10       -5.39615  -0.00000   0.00000  -0.00015  -0.00011  -5.39625
   Y10        0.27365   0.00000   0.00000   0.00052   0.00047   0.27412
   Z10        0.02367  -0.00000   0.00000  -0.00015  -0.00019   0.02348
   X11       -6.05482  -0.00000   0.00000  -0.00077  -0.00071  -6.05553
   Y11       -1.41874   0.00000   0.00000   0.00069   0.00063  -1.41811
   Z11       -0.12241   0.00000   0.00000   0.00069   0.00065  -0.12177
   X12       -1.32294   0.00001   0.00000  -0.00009  -0.00002  -1.32296
   Y12        0.89794  -0.00000   0.00000  -0.00024  -0.00025   0.89769
   Z12       -3.90474   0.00000   0.00000   0.00002   0.00001  -3.90473
   X13        0.12200  -0.00000   0.00000  -0.00055  -0.00047   0.12153
   Y13        1.21766  -0.00000   0.00000   0.00002   0.00003   1.21769
   Z13       -4.96881  -0.00000   0.00000  -0.00052  -0.00051  -4.96932
   X14       -2.71036   0.00000   0.00000  -0.00037  -0.00028  -2.71064
   Y14        0.44325  -0.00000   0.00000  -0.00061  -0.00063   0.44263
   Z14       -4.99590   0.00000   0.00000   0.00053   0.00051  -4.99539
   X15        3.08855   0.00000   0.00000   0.00080   0.00080   3.08935
   Y15        4.11316  -0.00000   0.00000  -0.00053  -0.00048   4.11268
   Z15        0.24166  -0.00000   0.00000   0.00024   0.00027   0.24193
   X16       -2.88583   0.00000   0.00000   0.00003  -0.00001  -2.88583
   Y16        6.43322  -0.00000   0.00000  -0.00027  -0.00030   6.43292
   Z16        0.80015  -0.00000   0.00000   0.00045   0.00042   0.80058
   X17       -6.82897   0.00000   0.00000   0.00025   0.00028  -6.82870
   Y17        1.39190   0.00000   0.00000   0.00111   0.00103   1.39293
   Z17        0.14989  -0.00000   0.00000  -0.00076  -0.00081   0.14907
   X18       -0.25422  -0.00000   0.00000  -0.00129  -0.00131  -0.25554
   Y18        2.25153   0.00000   0.00000   0.00039   0.00041   2.25194
   Z18        5.11508  -0.00000   0.00000   0.00047   0.00047   5.11554
   X19       -0.21454   0.00000   0.00000   0.00242   0.00249  -0.21205
   Y19       -3.36756   0.00000   0.00000   0.00082   0.00083  -3.36672
   Z19        2.22515   0.00000   0.00000   0.00014   0.00015   2.22530
         Item               Value     Threshold  Converged?
 Maximum Force            0.000008     0.000450     YES
 RMS     Force            0.000002     0.000300     YES
 Maximum Displacement     0.002491     0.001800     NO 
 RMS     Displacement     0.000604     0.001200     YES
 Predicted change in Energy=-1.296968D-08
 Lowest energy point so far.  Saving SCF results.
 GradGradGradGradGradGradGradGradGradGradGradGradGradGradGradGradGradGrad

 Leave Link  103 at Thu Mar  6 07:34:16 2025, MaxMem= 13421772800 cpu:               0.8 elap:               0.1
 (Enter /gpfs/fs1/soft/improv/software/custom-built/gaussian/g16/l202.exe)
                          Input orientation:                          
 ---------------------------------------------------------------------
 Center     Atomic      Atomic             Coordinates (Angstroms)
 Number     Number       Type             X           Y           Z
 ---------------------------------------------------------------------
      1         26           0       -0.784817    0.712952    0.031792
      2          8           0       -1.343183    2.758553   -0.268421
      3          1           0       -1.457420    3.207497   -1.113994
      4          8           0        1.285941    1.280843    0.051157
      5          1           0        2.043957    0.688795   -0.015304
      6          8           0       -0.869555    0.950864    2.129877
      7          1           0       -1.633942    0.781528    2.693236
      8          8           0       -0.226451   -1.332650    0.332004
      9          1           0       -0.042516   -1.978254   -0.360064
     10          8           0       -2.855574    0.145060    0.012426
     11          1           0       -3.204447   -0.750433   -0.064437
     12          8           0       -0.700078    0.475039   -2.066294
     13          1           0        0.064309    0.644375   -2.629653
     14          1           0       -1.434410    0.234227   -2.643446
     15          1           0        1.634814    2.176336    0.128022
     16          1           0       -1.527118    3.404157    0.423647
     17          1           0       -3.613590    0.737108    0.078887
     18          1           0       -0.135224    1.191676    2.707030
     19          1           0       -0.112213   -1.781593    1.177578
 ---------------------------------------------------------------------
                    Distance matrix (angstroms):
                    1          2          3          4          5
     1  Fe   0.000000
     2  O    2.141585   0.000000
     3  H    2.826300   0.964155   0.000000
     4  O    2.147304   3.032829   3.549028   0.000000
     5  H    2.829269   3.977522   4.450912   0.964119   0.000000
     6  O    2.113231   3.040377   3.995081   3.012661   3.627539
     7  H    2.794460   3.572755   4.517907   3.969334   4.568559
     8  O    2.141585   4.283169   4.921293   3.032581   3.059675
     9  H    2.819068   4.912990   5.427925   3.543390   3.403730
    10  O    2.147304   3.032581   3.549954   4.294607   4.929688
    11  H    2.829376   3.977298   4.451840   4.929810   5.442383
    12  O    2.113231   2.976637   2.991115   3.012838   3.432488
    13  H    2.794460   3.467881   3.344021   3.014004   3.279603
[...]
    15  H   -0.000038  -0.000001   0.298987  -0.000042   0.000000  -0.000053
    16  H   -0.000002  -0.000002  -0.000042   0.295699  -0.000041  -0.000032
    17  H   -0.000001  -0.000038   0.000000  -0.000041   0.298991  -0.000002
    18  H    0.000001   0.000000  -0.000053  -0.000032  -0.000002   0.294801
    19  H   -0.000001  -0.000001  -0.000002   0.000000  -0.000002  -0.000047
              19
     1  Fe  -0.000991
     2  O   -0.000311
     3  H   -0.000000
     4  O    0.000566
     5  H   -0.000034
     6  O    0.002975
     7  H   -0.000047
     8  O    0.297248
     9  H   -0.014522
    10  O    0.000566
    11  H   -0.000034
    12  O    0.000610
    13  H   -0.000001
    14  H   -0.000001
    15  H   -0.000002
    16  H    0.000000
    17  H   -0.000002
    18  H   -0.000047
    19  H    0.295812
          Atomic-Atomic Spin Densities.
               1          2          3          4          5          6
     1  Fe   4.130081  -0.037666   0.001237  -0.043256   0.002347  -0.046738
     2  O   -0.037666   0.084410  -0.003311  -0.009499   0.000201  -0.011463
     3  H    0.001237  -0.003311   0.003005   0.000373  -0.000001   0.000182
     4  O   -0.043256  -0.009499   0.000373   0.095175  -0.004396  -0.011355
     5  H    0.002347   0.000201  -0.000001  -0.004396   0.002148   0.000395
     6  O   -0.046738  -0.011463   0.000182  -0.011355   0.000395   0.104555
     7  H    0.002038   0.000351  -0.000001   0.000209  -0.000001  -0.004135
     8  O   -0.037667   0.007775  -0.000111  -0.009498   0.000539  -0.012179
     9  H    0.001368  -0.000112   0.000000   0.000326  -0.000017   0.000205
    10  O   -0.043253  -0.009497   0.000373   0.008521  -0.000114  -0.011356
    11  H    0.002347   0.000201  -0.000001  -0.000114   0.000000   0.000395
    12  O   -0.046739  -0.012178   0.000872  -0.011355   0.000434   0.009365
    13  H    0.002038   0.000503  -0.000023   0.000609  -0.000034  -0.000132
    14  H    0.002039   0.000503  -0.000023   0.000209  -0.000001  -0.000132
    15  H    0.002347   0.000539  -0.000019  -0.004396   0.000749   0.000434
    16  H    0.001368  -0.003233   0.000511   0.000326  -0.000001   0.000711
    17  H    0.002347   0.000539  -0.000019  -0.000114   0.000000   0.000434
    18  H    0.002039   0.000351  -0.000001   0.000609  -0.000011  -0.004137
    19  H    0.001237  -0.000111   0.000000   0.000374  -0.000019   0.000872
               7          8          9         10         11         12
     1  Fe   0.002038  -0.037667   0.001368  -0.043253   0.002347  -0.046739
     2  O    0.000351   0.007775  -0.000112  -0.009497   0.000201  -0.012178
     3  H   -0.000001  -0.000111   0.000000   0.000373  -0.000001   0.000872
     4  O    0.000209  -0.009498   0.000326   0.008521  -0.000114  -0.011355
     5  H   -0.000001   0.000539  -0.000017  -0.000114   0.000000   0.000434
     6  O   -0.004135  -0.012179   0.000205  -0.011356   0.000395   0.009365
     7  H    0.001996   0.000503  -0.000002   0.000609  -0.000011  -0.000132
     8  O    0.000503   0.084411  -0.003233  -0.009498   0.000539  -0.011463
     9  H   -0.000002  -0.003233   0.002672   0.000326  -0.000017   0.000711
    10  O    0.000609  -0.009498   0.000326   0.095169  -0.004395  -0.011356
    11  H   -0.000011   0.000539  -0.000017  -0.004395   0.002146   0.000434
    12  O   -0.000132  -0.011463   0.000711  -0.011356   0.000434   0.104556
    13  H    0.000000   0.000351  -0.000016   0.000209  -0.000001  -0.004136
    14  H    0.000000   0.000351  -0.000016   0.000609  -0.000034  -0.004137
    15  H   -0.000001   0.000201  -0.000001  -0.000114   0.000000   0.000395
    16  H   -0.000016  -0.000112   0.000000   0.000326  -0.000001   0.000205
    17  H   -0.000034   0.000201  -0.000001  -0.004396   0.000749   0.000395
    18  H    0.000695   0.000503  -0.000002   0.000209  -0.000001  -0.000132
    19  H   -0.000023  -0.003311   0.000511   0.000373  -0.000019   0.000182
              13         14         15         16         17         18
     1  Fe   0.002038   0.002039   0.002347   0.001368   0.002347   0.002039
     2  O    0.000503   0.000503   0.000539  -0.003233   0.000539   0.000351
     3  H   -0.000023  -0.000023  -0.000019   0.000511  -0.000019  -0.000001
     4  O    0.000609   0.000209  -0.004396   0.000326  -0.000114   0.000609
     5  H   -0.000034  -0.000001   0.000749  -0.000001   0.000000  -0.000011
     6  O   -0.000132  -0.000132   0.000434   0.000711   0.000434  -0.004137
     7  H    0.000000   0.000000  -0.000001  -0.000016  -0.000034   0.000695
     8  O    0.000351   0.000351   0.000201  -0.000112   0.000201   0.000503
     9  H   -0.000016  -0.000016  -0.000001   0.000000  -0.000001  -0.000002
    10  O    0.000209   0.000609  -0.000114   0.000326  -0.004396   0.000209
    11  H   -0.000001  -0.000034   0.000000  -0.000001   0.000749  -0.000001
    12  O   -0.004136  -0.004137   0.000395   0.000205   0.000395  -0.000132
    13  H    0.001996   0.000695  -0.000011  -0.000002  -0.000001   0.000000
    14  H    0.000695   0.001998  -0.000001  -0.000002  -0.000011   0.000000
    15  H   -0.000011  -0.000001   0.002146  -0.000017   0.000000  -0.000034
    16  H   -0.000002  -0.000002  -0.000017   0.002672  -0.000017  -0.000016
    17  H   -0.000001  -0.000011   0.000000  -0.000017   0.002148  -0.000001
    18  H    0.000000   0.000000  -0.000034  -0.000016  -0.000001   0.001998
    19  H   -0.000001  -0.000001  -0.000001   0.000000  -0.000001  -0.000023
              19
     1  Fe   0.001237
     2  O   -0.000111
     3  H    0.000000
     4  O    0.000374
     5  H   -0.000019
     6  O    0.000872
     7  H   -0.000023
     8  O   -0.003311
     9  H    0.000511
    10  O    0.000373
    11  H   -0.000019
    12  O    0.000182
    13  H   -0.000001
    14  H   -0.000001
    15  H   -0.000001
    16  H    0.000000
    17  H   -0.000001
    18  H   -0.000023
    19  H    0.003005
 Mulliken charges and spin densities:
               1          2
     1  Fe   1.133126   3.897514
     2  O   -0.691265   0.008304
     3  H    0.418214   0.003044
     4  O   -0.687280   0.012748
     5  H    0.414647   0.002218
     6  O   -0.691160   0.015921
     7  H    0.419117   0.002045
     8  O   -0.691263   0.008304
     9  H    0.417434   0.002703
    10  O   -0.687289   0.012746
    11  H    0.414639   0.002217
    12  O   -0.691159   0.015921
    13  H    0.419118   0.002045
    14  H    0.419093   0.002046
    15  H    0.414638   0.002216
    16  H    0.417434   0.002703
    17  H    0.414648   0.002218
    18  H    0.419094   0.002046
    19  H    0.418214   0.003044
 Sum of Mulliken charges =   2.00000   4.00000
 Mulliken charges and spin densities with hydrogens summed into heavy atoms:
               1          2
     1  Fe   1.133126   3.897514
     2  O    0.144384   0.014050
     4  O    0.142005   0.017182
     6  O    0.147051   0.020011
     8  O    0.144385   0.014050
    10  O    0.141998   0.017180
    12  O    0.147052   0.020012
 Electronic spatial extent (au):  <R**2>=           1155.1863
 Charge=              2.0000 electrons
 Dipole moment (field-independent basis, Debye):
    X=             -0.0000    Y=              0.0001    Z=              0.0000  Tot=              0.0001
 Quadrupole moment (field-independent basis, Debye-Ang):
   XX=            -15.6216   YY=            -16.0443   ZZ=            -15.1758
   XY=              0.0076   XZ=              0.1318   YZ=              0.0049
 Traceless Quadrupole moment (field-independent basis, Debye-Ang):
   XX=             -0.0077   YY=             -0.4304   ZZ=              0.4381
   XY=              0.0076   XZ=              0.1318   YZ=              0.0049
 Octapole moment (field-independent basis, Debye-Ang**2):
  XXX=              0.0005  YYY=             -0.0000  ZZZ=              0.0002  XYY=             -0.0005
  XXY=              0.0011  XXZ=              0.0003  XZZ=             -0.0001  YZZ=              0.0002
  YYZ=             -0.0004  XYZ=             -0.0006
 Hexadecapole moment (field-independent basis, Debye-Ang**3):
 XXXX=           -190.0764 YYYY=           -122.4041 ZZZZ=           -194.1004 XXXY=              2.7626
 XXXZ=            -41.1496 YYYX=             -3.8410 YYYZ=             -0.2672 ZZZX=             42.9815
 ZZZY=              0.7898 XXYY=           -118.6469 XXZZ=            -29.1377 YYZZ=            -96.4971
 XXYZ=             -0.5322 YYXZ=             -3.4427 ZZXY=              1.1148
 N-N= 6.577204970370D+02 E-N=-5.376480206195D+03  KE= 1.716977056137D+03
                          Isotropic Fermi Contact Couplings
        Atom                 a.u.       MegaHertz       Gauss      10(-4) cm-1
     1  Fe(57)             0.31263      11.33579       4.04489       3.78121
     2  O(17)              0.08432     -12.77788      -4.55947      -4.26224
     3  H(1)               0.00140       1.56912       0.55990       0.52340
     4  O(17)              0.08688     -13.16603      -4.69797      -4.39171
     5  H(1)               0.00078       0.86898       0.31008       0.28986
     6  O(17)              0.08854     -13.41838      -4.78801      -4.47589
     7  H(1)               0.00074       0.83020       0.29624       0.27692
     8  O(17)              0.08432     -12.77791      -4.55947      -4.26225
     9  H(1)               0.00128       1.43008       0.51029       0.47702
    10  O(17)              0.08687     -13.16576      -4.69787      -4.39163
    11  H(1)               0.00078       0.86840       0.30987       0.28967
    12  O(17)              0.08854     -13.41841      -4.78802      -4.47590
    13  H(1)               0.00074       0.83028       0.29627       0.27695
    14  H(1)               0.00074       0.83116       0.29658       0.27724
    15  H(1)               0.00078       0.86823       0.30981       0.28961
    16  H(1)               0.00128       1.43005       0.51028       0.47701
    17  H(1)               0.00078       0.86910       0.31012       0.28990
    18  H(1)               0.00074       0.83126       0.29661       0.27728
    19  H(1)               0.00140       1.56910       0.55989       0.52339
 --------------------------------------------------------
       Center         ----  Spin Dipole Couplings  ----
                      3XX-RR        3YY-RR        3ZZ-RR
 --------------------------------------------------------
     1   Atom        2.452425     -1.291281     -1.161144
     2   Atom        0.094313     -0.056962     -0.037352
     3   Atom        0.050170     -0.028368     -0.021802
     4   Atom       -0.069046      0.150263     -0.081217
     5   Atom       -0.022628      0.044964     -0.022336
     6   Atom        0.008888     -0.115633      0.106745
     7   Atom       -0.009751     -0.017442      0.027193
     8   Atom        0.094317     -0.056960     -0.037356
     9   Atom        0.011392     -0.028183      0.016791
    10   Atom       -0.069052      0.150265     -0.081213
    11   Atom       -0.021577      0.043946     -0.022369
    12   Atom        0.008888     -0.115634      0.106746
    13   Atom       -0.009751     -0.017445      0.027195
    14   Atom       -0.010580     -0.016589      0.027169
    15   Atom       -0.021578      0.043946     -0.022368
    16   Atom        0.011391     -0.028183      0.016792
    17   Atom       -0.022627      0.044964     -0.022337
    18   Atom       -0.010580     -0.016591      0.027171
    19   Atom        0.050171     -0.028368     -0.021802
 --------------------------------------------------------
                        XY            XZ            YZ
 --------------------------------------------------------
     1   Atom        0.061993      0.712784      0.010863
     2   Atom        0.002376     -0.107238     -0.001754
     3   Atom        0.001301     -0.014615     -0.000237
     4   Atom       -0.003599      0.023287      0.000274
     5   Atom        0.014878     -0.004970     -0.015270
     6   Atom        0.002098      0.070220      0.001226
     7   Atom       -0.012278      0.032680     -0.020530
     8   Atom        0.002370     -0.107236     -0.001757
     9   Atom        0.000621     -0.038477     -0.000597
    10   Atom       -0.003596      0.023282      0.000274
    11   Atom       -0.017076     -0.005453      0.015033
    12   Atom        0.002104      0.070219      0.001239
    13   Atom       -0.012276      0.032680     -0.020527
    14   Atom        0.012522      0.031965      0.021633
    15   Atom       -0.017076     -0.005454      0.015035
    16   Atom        0.000622     -0.038477     -0.000599
    17   Atom        0.014880     -0.004970     -0.015267
    18   Atom        0.012520      0.031965      0.021629
    19   Atom        0.001305     -0.014614     -0.000237
 --------------------------------------------------------


 ---------------------------------------------------------------------------------
              Anisotropic Spin Dipole Couplings in Principal Axis System
 ---------------------------------------------------------------------------------

       Atom             a.u.   MegaHertz   Gauss  10(-4) cm-1        Axes

              Baa    -1.2968   -22.452    -8.011    -7.489 -0.1863  0.1959  0.9628
     1 Fe(57) Bbb    -1.2921   -22.370    -7.982    -7.462  0.0210  0.9805 -0.1955
              Bcc     2.5890    44.822    15.994    14.951  0.9823  0.0162  0.1867
 
              Baa    -0.0974     7.045     2.514     2.350  0.4882  0.0092  0.8727
     2 O(17)  Bbb    -0.0570     4.124     1.472     1.376 -0.0166  0.9999 -0.0013
              Bcc     0.1544   -11.169    -3.985    -3.726  0.8726  0.0139 -0.4882
 
              Baa    -0.0284   -15.147    -5.405    -5.053 -0.0168  0.9999 -0.0014
     3 H(1)   Bbb    -0.0247   -13.155    -4.694    -4.388  0.1916  0.0046  0.9815
              Bcc     0.0530    28.303    10.099     9.441  0.9813  0.0162 -0.1917
 
              Baa    -0.0992     7.180     2.562     2.395 -0.6116 -0.0097  0.7911
     4 O(17)  Bbb    -0.0511     3.697     1.319     1.233  0.7910  0.0133  0.6117
              Bcc     0.1503   -10.877    -3.881    -3.628 -0.0165  0.9999 -0.0005
 
              Baa    -0.0275   -14.648    -5.227    -4.886  0.7195 -0.0014  0.6945
     5 H(1)   Bbb    -0.0241   -12.854    -4.587    -4.288 -0.6633  0.2950  0.6877
              Bcc     0.0515    27.503     9.814     9.174  0.2058  0.9555 -0.2113
 
              Baa    -0.1157     8.370     2.987     2.792 -0.0167  0.9999 -0.0002
     6 O(17)  Bbb    -0.0278     2.008     0.716     0.670  0.8863  0.0147 -0.4629
              Bcc     0.1434   -10.378    -3.703    -3.462  0.4628  0.0079  0.8864
 
              Baa    -0.0288   -15.386    -5.490    -5.132  0.8725  0.0683 -0.4839
     7 H(1)   Bbb    -0.0254   -13.556    -4.837    -4.522  0.0972  0.9461  0.3089
              Bcc     0.0542    28.941    10.327     9.654  0.4789 -0.3165  0.8188
 
              Baa    -0.0974     7.045     2.514     2.350  0.4881  0.0093  0.8727
     8 O(17)  Bbb    -0.0570     4.124     1.472     1.376 -0.0166  0.9999 -0.0014
              Bcc     0.1544   -11.169    -3.985    -3.726  0.8726  0.0138 -0.4882
 
              Baa    -0.0282   -15.043    -5.368    -5.018 -0.0165  0.9999 -0.0009
     9 H(1)   Bbb    -0.0245   -13.061    -4.661    -4.357  0.7313  0.0127  0.6820
              Bcc     0.0527    28.104    10.028     9.374 -0.6819 -0.0106  0.7314
 
              Baa    -0.0992     7.179     2.562     2.395 -0.6117 -0.0097  0.7911
    10 O(17)  Bbb    -0.0511     3.698     1.320     1.233  0.7909  0.0133  0.6117
              Bcc     0.1503   -10.877    -3.881    -3.628 -0.0164  0.9999 -0.0005
 
              Baa    -0.0275   -14.650    -5.227    -4.887  0.7189  0.0257  0.6947
    11 H(1)   Bbb    -0.0241   -12.855    -4.587    -4.288 -0.6534 -0.3160  0.6879
              Bcc     0.0516    27.505     9.814     9.175 -0.2372  0.9484  0.2104
 
              Baa    -0.1157     8.370     2.987     2.792 -0.0167  0.9999 -0.0003
    12 O(17)  Bbb    -0.0277     2.008     0.716     0.670  0.8863  0.0147 -0.4629
              Bcc     0.1434   -10.378    -3.703    -3.462  0.4628  0.0080  0.8864
 
              Baa    -0.0288   -15.385    -5.490    -5.132  0.8725  0.0683 -0.4838
    13 H(1)   Bbb    -0.0254   -13.555    -4.837    -4.522  0.0972  0.9461  0.3088
              Bcc     0.0542    28.941    10.327     9.654  0.4789 -0.3165  0.8188
 
              Baa    -0.0288   -15.384    -5.489    -5.132  0.8743 -0.0394 -0.4838
    14 H(1)   Bbb    -0.0254   -13.554    -4.837    -4.521 -0.1288  0.9422 -0.3094
              Bcc     0.0542    28.938    10.326     9.653  0.4680  0.3328  0.8187
 
              Baa    -0.0275   -14.650    -5.227    -4.887  0.7190  0.0257  0.6946
    15 H(1)   Bbb    -0.0241   -12.856    -4.587    -4.288 -0.6533 -0.3160  0.6880
              Bcc     0.0516    27.505     9.815     9.175 -0.2371  0.9484  0.2104
 
              Baa    -0.0282   -15.043    -5.368    -5.018 -0.0165  0.9999 -0.0008
    16 H(1)   Bbb    -0.0245   -13.061    -4.661    -4.357  0.7313  0.0126  0.6820
              Bcc     0.0527    28.104    10.028     9.374 -0.6819 -0.0107  0.7314
 
              Baa    -0.0275   -14.648    -5.227    -4.886  0.7194 -0.0014  0.6946
    17 H(1)   Bbb    -0.0241   -12.854    -4.587    -4.288 -0.6634  0.2950  0.6876
              Bcc     0.0515    27.502     9.814     9.174  0.2058  0.9555 -0.2113
 
              Baa    -0.0288   -15.383    -5.489    -5.131  0.8743 -0.0394 -0.4838
    18 H(1)   Bbb    -0.0254   -13.554    -4.836    -4.521 -0.1288  0.9422 -0.3093
              Bcc     0.0542    28.938    10.326     9.653  0.4680  0.3327  0.8187
 
              Baa    -0.0284   -15.148    -5.405    -5.053 -0.0169  0.9999 -0.0016
    19 H(1)   Bbb    -0.0247   -13.155    -4.694    -4.388  0.1916  0.0048  0.9815
              Bcc     0.0530    28.303    10.099     9.441  0.9813  0.0163 -0.1917
 

 ---------------------------------------------------------------------------------

 No NMR shielding tensors so no spin-rotation constants.
 Leave Link  601 at Thu Mar  6 07:46:09 2025, MaxMem= 13421772800 cpu:              29.5 elap:               0.4
 (Enter /gpfs/fs1/soft/improv/software/custom-built/gaussian/g16/l9999.exe)

 Test job not archived.
 1\1\GINC-I588\SP\UHSEH1PBE\Gen\Fe1H12O6(2+,5)\HHARB\06-Mar-2025\0\\#p 
 HSEH1PBE scrf=(cpcm,solvent=water) geom=allcheck guess=read chkbasis I
 Op(3/174=1000000) IOp(3/175=109000) IOp(3/176=1129000)\\Title\\2,5\Fe,
 -0.7847996751,0.7129514027,0.03178943\O,-1.3427325347,2.7586940217,-0.
 268436094\H,-1.4585160665,3.2071946352,-1.1140347409\O,1.2859491623,1.
 2807355862,0.051135079\H,2.0440437028,0.6888032273,-0.0154749136\O,-0.
 8697134349,0.9507670071,2.1298839464\H,-1.6340830423,0.780707371,2.693
 0510795\O,-0.226870895,-1.3327851912,0.3320434218\H,-0.0436446091,-1.9
 786178789,-0.3599994156\O,-2.8555664195,0.1451806419,0.012423583\H,-3.
 2043238298,-0.7503644431,-0.0643486893\O,-0.6999655073,0.4751123617,-2
 .0663027364\H,0.0643638515,0.645137538,-2.6295346351\H,-1.4339940934,0
 .233668546,-2.6435750269\H,1.6346965724,2.1762769895,0.1279952332\H,-1
 .5260157954,3.4044948363,0.4236213318\H,-3.6136544453,0.7371325531,0.0
 789339672\H,-0.1357382433,1.1922193564,2.7072205048\H,-0.1109522684,-1
 .7812287872,1.1776540901\\Version=ES64L-G16RevC.02\State=5-A\HF=-1721.
 4119619\S2=6.004584\S2-1=0.\S2A=6.000006\RMSD=4.892e-09\Dipole=0.00001
 81,0.0000108,0.000007\Quadrupole=-0.296174,-0.0055233,0.3016974,-0.086
 7231,-0.0382899,0.124648\PG=C01 [X(Fe1H12O6)]\\@


 THE MOST BEAUTIFUL EXPERIENCE WE CAN HAVE IS THE MYSTERIOUS.
 IT IS THE FUNDAMENTAL EMOTION WHICH STANDS AT AT THE CRADLE 
 OF TRUE ART AND TRUE SCIENCE.

                                    -- ALBERT EINSTEIN
 Job cpu time:       0 days  3 hours 43 minutes  9.5 seconds.
 Elapsed time:       0 days  0 hours  1 minutes 52.7 seconds.
 File lengths (MBytes):  RWF=    121 Int=      0 D2E=      0 Chk=    268 Scr=      1
 Normal termination of Gaussian 16 at Thu Mar  6 07:46:09 2025.
