 Entering Gaussian System, Link 0=g16
 Input=Fe_2_X3LYP.com
 Output=Fe_2_X3LYP.log
 Initial command:
 /gpfs/fs1/soft/improv/software/custom-built/gaussian/g16/l1.exe "/scratch/Gau-3068747.inp" -scrdir="/scratch/"
 Default CPUs for threads: 0-127
 Default linda workers: i289.lcrc.anl.gov
 Default is to use 128 SMP processors on each worker.
 Entering Link 1 = /gpfs/fs1/soft/improv/software/custom-built/gaussian/g16/l1.exe PID=   3068748.
  
 Copyright (c) 1988-2021, Gaussian, Inc.  All Rights Reserved.
  
 This is part of the Gaussian(R) 16 program.  It is based on
 the Gaussian(R) 09 system (copyright 2009, Gaussian, Inc.),
 the Gaussian(R) 03 system (copyright 2003, Gaussian, Inc.),
 the Gaussian(R) 98 system (copyright 1998, Gaussian, Inc.),
 the Gaussian(R) 94 system (copyright 1995, Gaussian, Inc.),
 the Gaussian 92(TM) system (copyright 1992, Gaussian, Inc.),
 the Gaussian 90(TM) system (copyright 1990, Gaussian, Inc.),
 the Gaussian 88(TM) system (copyright 1988, Gaussian, Inc.),
 the Gaussian 86(TM) system (copyright 1986, Carnegie Mellon
 University), and the Gaussian 82(TM) system (copyright 1983,
 Carnegie Mellon University). Gaussian is a federally registered
 trademark of Gaussian, Inc.
  
 This software contains proprietary and confidential information,
 including trade secrets, belonging to Gaussian, Inc.
  
 This software is provided under written license and may be
 used, copied, transmitted, or stored only in accord with that
 written license.
  
 The following legend is applicable only to US Government
 contracts under FAR:
  
                    RESTRICTED RIGHTS LEGEND
  
 Use, reproduction and disclosure by the US Government is
 subject to restrictions as set forth in subparagraphs (a)
 and (c) of the Commercial Computer Software - Restricted
 Rights clause in FAR 52.227-19.
  
 Gaussian, Inc.
 340 Quinnipiac St., Bldg. 40, Wallingford CT 06492
  
  
 ---------------------------------------------------------------
 Warning -- This program may not be used in any manner that
 competes with the business of Gaussian, Inc. or will provide
 assistance to any competitor of Gaussian, Inc.  The licensee
 of this program is prohibited from giving any competitor of
 Gaussian, Inc. access to this program.  By using this program,
 the user acknowledges that Gaussian, Inc. is engaged in the
 business of creating and licensing software in the field of
 computational chemistry and represents and warrants to the
 licensee that it is not a competitor of Gaussian, Inc. and that
 it will not use this program in any manner prohibited above.
 ---------------------------------------------------------------
  

 Cite this work as:
 Gaussian 16, Revision C.02,
 M. J. Frisch, G. W. Trucks, H. B. Schlegel, G. E. Scuseria, 
 M. A. Robb, J. R. Cheeseman, G. Scalmani, V. Barone, 
 G. A. Petersson, H. Nakatsuji, X. Li, M. Caricato, A. V. Marenich, 
 J. Bloino, B. G. Janesko, R. Gomperts, B. Mennucci, H. P. Hratchian, 
 J. V. Ortiz, A. F. Izmaylov, J. L. Sonnenberg, D. Williams-Young, 
 F. Ding, F. Lipparini, F. Egidi, J. Goings, B. Peng, A. Petrone, 
 T. Henderson, D. Ranasinghe, V. G. Zakrzewski, J. Gao, N. Rega, 
 G. Zheng, W. Liang, M. Hada, M. Ehara, K. Toyota, R. Fukuda, 
 J. Hasegawa, M. Ishida, T. Nakajima, Y. Honda, O. Kitao, H. Nakai, 
 T. Vreven, K. Throssell, J. A. Montgomery, Jr., J. E. Peralta, 
 F. Ogliaro, M. J. Bearpark, J. J. Heyd, E. N. Brothers, K. N. Kudin, 
 V. N. Staroverov, T. A. Keith, R. Kobayashi, J. Normand, 
 K. Raghavachari, A. P. Rendell, J. C. Burant, S. S. Iyengar, 
 J. Tomasi, M. Cossi, J. M. Millam, M. Klene, C. Adamo, R. Cammi, 
 J. W. Ochterski, R. L. Martin, K. Morokuma, O. Farkas, 
 J. B. Foresman, and D. J. Fox, Gaussian, Inc., Wallingford CT, 2019.
 
 ******************************************
 Gaussian 16:  ES64L-G16RevC.02  7-Dec-2021
                 5-Mar-2025 
 ******************************************
 %chk=Fe_2_X3LYP.chk
 SetSPE:  set environment variable "OMP_PROC_BIND" = "true"
 SetSPE:  set environment variable "OMP_PLACES" = "{0},{1},{2},{3},{4},{5},{6},{7},{8},{9},{10},{11},{12},{13},{14},{15},{16},{17},{18},{19},{20},{21},{22},{23},{24},{25},{26},{27},{28},{29},{30},{31},{32},{33},{34},{35},{36},{37},{38},{39},{40},{41},{42},{43},{44},{45},{46},{47},{48},{49},{50},{51},{52},{53},{54},{55},{56},{57},{58},{59},{60},{61},{62},{63},{64},{65},{66},{67},{68},{69},{70},{71},{72},{73},{74},{75},{76},{77},{78},{79},{80},{81},{82},{83},{84},{85},{86},{87},{88},{89},{90},{91},{92},{93},{94},{95},{96},{97},{98},{99},{100},{101},{102},{103},{104},{105},{106},{107},{108},{109},{110},{111},{112},{113},{114},{115},{116},{117},{118},{119},{120},{121},{122},{123},{124},{125},{126},{127}"
 SetLPE:    new flags="-opt 'Tsnet.Node.lindarsharg: ssh'  -nodelist 'i289.lcrc.anl.gov' -env GAUSS_MDEF=13421772800 -env GAUSS_EXEDIR="/gpfs/fs1/soft/improv/software/custom-built/gaussian/g16/bsd:/gpfs/fs1/soft/improv/software/custom-built/gaussian/g16" -env "OMP_PROC_BIND=true" -env "OMP_PLACES={0},{1},{2},{3},{4},{5},{6},{7},{8},{9},{10},{11},{12},{13},{14},{15},{16},{17},{18},{19},{20},{21},{22},{23},{24},{25},{26},{27},{28},{29},{30},{31},{32},{33},{34},{35},{36},{37},{38},{39},{40},{41},{42},{43},{44},{45},{46},{47},{48},{49},{50},{51},{52},{53},{54},{55},{56},{57},{58},{59},{60},{61},{62},{63},{64},{65},{66},{67},{68},{69},{70},{71},{72},{73},{74},{75},{76},{77},{78},{79},{80},{81},{82},{83},{84},{85},{86},{87},{88},{89},{90},{91},{92},{93},{94},{95},{96},{97},{98},{99},{100},{101},{102},{103},{104},{105},{106},{107},{108},{109},{110},{111},{112},{113},{114},{115},{116},{117},{118},{119},{120},{121},{122},{123},{124},{125},{126},{127}" -env GAUSS_ADEF="0,1,2,3,4,5,6,7,8,9,10,11,12,13,14,15,16,17,18,19,20,21,22,23,24,25,26,27,28,29,30,31,32,33,34,35,36,37,38,39,40,41,42,43,44,45,46,47,48,49,50,51,52,53,54,55,56,57,58,59,60,61,62,63,64,65,66,67,68,69,70,71,72,73,74,75,76,77,78,79,80,81,82,83,84,85,86,87,88,89,90,91,92,93,94,95,96,97,98,99,100,101,102,103,104,105,106,107,108,109,110,111,112,113,114,115,116,117,118,119,120,121,122,123,124,125,126,127""
 Will use up to    1 processors via Linda.
 ----------------------------------------------------------------------
 #p X3LYP 6-31+G(2df,p) opt=(cartesian,calcall,maxcycles=500,loose) fre
 q scf=(maxcycles=500,xqc,maxconventional=50) IOp(3/174=1000000) IOp(3/
 175=299000) IOp(3/176=1000000)
 ----------------------------------------------------------------------
 1/6=500,7=-1,10=4,18=10,26=3,38=1/1,3;
 2/12=2,17=6,18=5,29=2,40=1/2;
 3/5=1,6=6,7=114,11=2,25=1,30=1,71=2,74=-33,140=1,174=1000000,175=299000,176=1000000/1,2,3;
 4//1;
 5/5=2,7=500,8=3,13=1,38=5,85=50/2,8;
 8/6=4,10=90,11=11/1;
 11/6=1,8=1,9=11,15=111,16=1/1,2,10;
 10/6=1/2;
 6/7=2,8=2,9=2,10=2,18=1,28=1/1;
 7/7=1,10=1,25=1/1,2,3,16;
 1/6=500,7=-1,10=4,18=10,26=3/3(3);
 2/29=1/2;
 7/7=1,8=1,9=1,25=1,44=-1/16;
 99/12=1/99;
 2/29=1/2;
 3/5=1,6=6,7=114,11=2,25=1,30=1,71=2,74=-33,140=1,174=1000000,175=299000,176=1000000/1,2,3;
 4/5=5,16=3,69=1/1;
 5/5=2,7=500,8=3,13=1,38=5,85=50/2,8;
 8/6=4,10=90,11=11/1;
 11/6=1,8=1,9=11,15=111,16=1/1,2,10;
 10/6=1/2;
 7/7=1,10=1,25=1/1,2,3,16;
 1/6=500,7=-1,10=4,18=10,26=3/3(-8);
 2/29=1/2;
 6/7=2,8=2,9=2,10=2,18=1,19=2,28=1/1;
 7/7=1,8=1,9=1,25=1,44=-1/16;
 99/12=1/99;
 Leave Link    1 at Wed Mar  5 18:41:50 2025, MaxMem=           0 cpu:               3.6 elap:               0.1
 (Enter /gpfs/fs1/soft/improv/software/custom-built/gaussian/g16/l101.exe)
 -----
 Title
 -----
 Symbolic Z-matrix:
 Charge =  2 Multiplicity = 5
 Fe                   -0.79304   0.81881  -0.09491 
 O                    -1.20497   2.57394  -0.35687 
 H                    -2.12106   2.64974  -0.63312 
 O                     0.99012   1.19063  -0.05794 
 H                     1.42696   0.5998    0.55971 
 O                    -0.81752   1.03069   1.71365 
 H                    -1.02108   0.1906    2.13133 
 O                    -0.38507  -0.93351   0.17118 
 H                    -1.15682  -1.47369  -0.01433 
 O                    -2.57341   0.45178  -0.12186 
 H                    -2.77756  -0.08744  -0.88929 
 O                    -0.76966   0.60461  -1.90111 
 H                     0.09872   0.83457  -2.23949 
 H                    -0.96534  -0.30999  -2.11742 
 H                     1.12208   2.09943   0.22124 
 H                    -1.07671   3.0584    0.46184 
 H                    -2.81407  -0.02398   0.6765 
 H                     0.0422    1.33615   2.01181 
 H                    -0.11532  -1.06446   1.08312 
 
 ITRead=  0  0  0  0  0  0  0  0  0  0  0  0  0  0  0  0  0  0  0
 MicOpt= -1 -1 -1 -1 -1 -1 -1 -1 -1 -1 -1 -1 -1 -1 -1 -1 -1 -1 -1
 NAtoms=     19 NQM=       19 NQMF=       0 NMMI=      0 NMMIF=      0
                NMic=       0 NMicF=      0.
                    Isotopes and Nuclear Properties:
 (Nuclear quadrupole moments (NQMom) in fm**2, nuclear magnetic moments (NMagM)
  in nuclear magnetons)

  Atom         1           2           3           4           5           6           7           8           9          10
 IAtWgt=          56          16           1          16           1          16           1          16           1          16
 AtmWgt=  55.9349393  15.9949146   1.0078250  15.9949146   1.0078250  15.9949146   1.0078250  15.9949146   1.0078250  15.9949146
 NucSpn=           0           0           1           0           1           0           1           0           1           0
 AtZEff=  -0.0000000  -0.0000000  -0.0000000  -0.0000000  -0.0000000  -0.0000000  -0.0000000  -0.0000000  -0.0000000  -0.0000000
 NQMom=    0.0000000   0.0000000   0.0000000   0.0000000   0.0000000   0.0000000   0.0000000   0.0000000   0.0000000   0.0000000
 NMagM=    0.0000000   0.0000000   2.7928460   0.0000000   2.7928460   0.0000000   2.7928460   0.0000000   2.7928460   0.0000000
 AtZNuc=  26.0000000   8.0000000   1.0000000   8.0000000   1.0000000   8.0000000   1.0000000   8.0000000   1.0000000   8.0000000

  Atom        11          12          13          14          15          16          17          18          19
 IAtWgt=           1          16           1           1           1           1           1           1           1
 AtmWgt=   1.0078250  15.9949146   1.0078250   1.0078250   1.0078250   1.0078250   1.0078250   1.0078250   1.0078250
 NucSpn=           1           0           1           1           1           1           1           1           1
 AtZEff=  -0.0000000  -0.0000000  -0.0000000  -0.0000000  -0.0000000  -0.0000000  -0.0000000  -0.0000000  -0.0000000
 NQMom=    0.0000000   0.0000000   0.0000000   0.0000000   0.0000000   0.0000000   0.0000000   0.0000000   0.0000000
 NMagM=    2.7928460   0.0000000   2.7928460   2.7928460   2.7928460   2.7928460   2.7928460   2.7928460   2.7928460
 AtZNuc=   1.0000000   8.0000000   1.0000000   1.0000000   1.0000000   1.0000000   1.0000000   1.0000000   1.0000000
 Leave Link  101 at Wed Mar  5 18:41:51 2025, MaxMem= 13421772800 cpu:               0.4 elap:               0.1
 (Enter /gpfs/fs1/soft/improv/software/custom-built/gaussian/g16/l103.exe)

 GradGradGradGradGradGradGradGradGradGradGradGradGradGradGradGradGradGrad
 Berny optimization.
 Initialization pass.
 No Z-matrix variables, so optimization will use Cartesian coordinates.
 Trust Radius=3.00D-01 FncErr=1.00D-07 GrdErr=1.00D-06 EigMax=2.50D+02 EigMin=1.00D-04
 Number of steps in this run=    114 maximum allowed number of steps=    114.
 GradGradGradGradGradGradGradGradGradGradGradGradGradGradGradGradGradGrad

 Leave Link  103 at Wed Mar  5 18:41:51 2025, MaxMem= 13421772800 cpu:               0.4 elap:               0.0
 (Enter /gpfs/fs1/soft/improv/software/custom-built/gaussian/g16/l202.exe)
 ---------------------------------------------------------------------------------------------------
                            Z-MATRIX (ANGSTROMS AND DEGREES)
   CD    Cent   Atom    N1       Length/X        N2       Alpha/Y        N3        Beta/Z          J
 ---------------------------------------------------------------------------------------------------
      1      1  Fe       0  -0.793037          0.818805         -0.094905
      2      2  O        0  -1.204971          2.573941         -0.356874
      3      3  H        0  -2.121063          2.649743         -0.633122
      4      4  O        0   0.990122          1.190635         -0.057941
      5      5  H        0   1.426962          0.599798          0.559707
      6      6  O        0  -0.817519          1.030691          1.713650
      7      7  H        0  -1.021079          0.190602          2.131326
      8      8  O        0  -0.385068         -0.933506          0.171177
      9      9  H        0  -1.156817         -1.473692         -0.014327
     10     10  O        0  -2.573405          0.451778         -0.121857
     11     11  H        0  -2.777557         -0.087440         -0.889285
     12     12  O        0  -0.769659          0.604612         -1.901109
     13     13  H        0   0.098725          0.834573         -2.239490
     14     14  H        0  -0.965336         -0.309994         -2.117418
     15     15  H        0   1.122081          2.099426          0.221242
     16     16  H        0  -1.076711          3.058396          0.461841
     17     17  H        0  -2.814074         -0.023981          0.676500
     18     18  H        0   0.042204          1.336153          2.011809
     19     19  H        0  -0.115315         -1.064459          1.083123
 ---------------------------------------------------------------------------------------------------
                         Z-Matrix orientation:                         
 ---------------------------------------------------------------------
 Center     Atomic      Atomic             Coordinates (Angstroms)
 Number     Number       Type             X           Y           Z
 ---------------------------------------------------------------------
      1         26           0       -0.793037    0.818805   -0.094905
      2          8           0       -1.204971    2.573941   -0.356874
      3          1           0       -2.121063    2.649743   -0.633122
      4          8           0        0.990122    1.190635   -0.057941
      5          1           0        1.426962    0.599798    0.559707
      6          8           0       -0.817519    1.030691    1.713650
      7          1           0       -1.021079    0.190602    2.131326
      8          8           0       -0.385068   -0.933506    0.171177
      9          1           0       -1.156817   -1.473692   -0.014327
     10          8           0       -2.573405    0.451778   -0.121857
     11          1           0       -2.777557   -0.087440   -0.889285
     12          8           0       -0.769659    0.604612   -1.901109
     13          1           0        0.098725    0.834573   -2.239490
     14          1           0       -0.965336   -0.309994   -2.117418
     15          1           0        1.122081    2.099426    0.221242
     16          1           0       -1.076711    3.058396    0.461841
     17          1           0       -2.814074   -0.023981    0.676500
     18          1           0        0.042204    1.336153    2.011809
     19          1           0       -0.115315   -1.064459    1.083123
 ---------------------------------------------------------------------
                    Distance matrix (angstroms):
                    1          2          3          4          5
     1  Fe   0.000000
     2  O    1.821762   0.000000
     3  H    2.325008   0.959835   0.000000
     4  O    1.821889   2.611767   3.484150   0.000000
     5  H    2.324839   3.415322   4.267739   0.959899   0.000000
     6  O    1.821090   2.611285   3.134947   2.536076   2.560263
     7  H    2.324381   3.450400   3.859988   3.136540   2.937743
     8  O    1.818745   3.640503   4.062050   2.540791   2.405292
     9  H    2.322579   4.062387   4.279649   3.421971   3.362259
    10  O    1.818006   2.536025   2.301533   3.639880   4.060711
    11  H    2.321775   3.136788   2.826442   4.064482   4.499984
    12  O    1.819010   2.540161   2.759827   2.614866   3.298603
    13  H    2.322657   2.875634   3.286750   2.383386   3.107223
    14  H    2.322591   3.387332   3.506977   3.212032   3.703756
    15  H    2.325429   2.444290   3.398642   0.959822   1.567289
    16  H    2.325125   0.959918   1.567358   2.833814   3.510364
    17  H    2.321626   3.225876   3.056824   4.060370   4.288255
    18  H    2.324547   2.949275   3.660724   2.281137   2.137375
    19  H    2.322443   4.061883   4.556733   2.758526   2.328591
                    6          7          8          9         10
     6  O    0.000000
     7  H    0.960021   0.000000
     8  O    2.534622   2.347406   0.000000
     9  H    3.061530   2.718847   0.960108   0.000000
    10  O    2.605257   2.748593   2.606473   2.392848   0.000000
    11  H    3.444886   3.505227   2.750347   2.305222   0.959885
    12  O    3.640099   4.061422   2.609231   2.833582   2.538227
    13  H    4.062670   4.557707   3.028445   3.443229   3.430916
    14  H    4.061572   4.278496   2.441955   2.411193   2.673658
    15  H    2.670492   3.447487   3.387136   4.244531   4.060675
    16  H    2.397039   3.318813   4.061790   4.557738   3.061904
    17  H    2.484803   2.318921   2.642472   2.307685   0.960023
    18  H    0.959858   1.567527   2.953276   3.665802   3.489421
    19  H    2.297892   1.869309   0.959980   1.567353   3.129403
                   11         12         13         14         15
    11  H    0.000000
    12  O    2.352526   0.000000
    13  H    3.308498   0.959935   0.000000
    14  H    2.200452   0.959991   1.567533   0.000000
    15  H    4.606825   3.212091   2.949969   3.953725   0.000000
    16  H    3.822919   3.420362   3.691102   4.243941   2.410850
    17  H    1.567497   3.349453   4.210050   3.362383   4.495491
    18  H    4.288824   4.062660   4.281159   4.558009   2.225950
    19  H    3.454344   3.481323   3.833001   3.396353   3.504877
                   16         17         18         19
    16  H    0.000000
    17  H    3.544793   0.000000
    18  H    2.573032   3.433851   0.000000
    19  H    4.278809   2.920828   2.578800   0.000000
 Stoichiometry    FeH12O6(2+,5)
 Framework group  C1[X(FeH12O6)]
 Deg. of freedom    51
 Full point group                 C1      NOp   1
 Largest Abelian subgroup         C1      NOp   1
 Largest concise Abelian subgroup C1      NOp   1
                         Standard orientation:                         
 ---------------------------------------------------------------------
 Center     Atomic      Atomic             Coordinates (Angstroms)
 Number     Number       Type             X           Y           Z
 ---------------------------------------------------------------------
      1         26           0       -0.020212   -0.029769    0.009758
      2          8           0       -0.320773   -1.687164   -0.684161
      3          1           0       -1.136997   -1.679346   -1.189137
      4          8           0        1.254785   -0.678144    1.138153
      5          1           0        1.943573   -0.019708    1.254074
      6          8           0        1.298505    0.294488   -1.203590
      7          1           0        1.382461    1.241149   -1.339326
      8          8           0        0.280919    1.626834    0.697379
      9          1           0       -0.430846    2.216032    0.436526
     10          8           0       -1.285567    0.616476   -1.124434
     11          1           0       -2.034473    0.939301   -0.618170
     12          8           0       -1.338192   -0.350985    1.221594
     13          1           0       -0.971642   -0.815184    1.977660
     14          1           0       -1.717006    0.482356    1.510774
     15          1           0        1.635434   -1.476912    0.766219
     16          1           0        0.408530   -1.930525   -1.258908
     17          1           0       -0.914804    1.335716   -1.641030
     18          1           0        2.129249   -0.056449   -0.874904
     19          1           0        1.114608    1.965515    0.362985
 ---------------------------------------------------------------------
 Rotational constants (GHZ):           2.0396930           1.9739388           1.9252729
 Leave Link  202 at Wed Mar  5 18:41:51 2025, MaxMem= 13421772800 cpu:               0.5 elap:               0.0
 (Enter /gpfs/fs1/soft/improv/software/custom-built/gaussian/g16/l301.exe)
 Standard basis: 6-31+G(2df,p) (6D, 7F)
 Ernie: Thresh=  0.10000D-02 Tol=  0.10000D-05 Strict=F.
 There are   347 symmetry adapted cartesian basis functions of A   symmetry.
 There are   317 symmetry adapted basis functions of A   symmetry.
   317 basis functions,   514 primitive gaussians,   347 cartesian basis functions
    44 alpha electrons       40 beta electrons
       nuclear repulsion energy       767.7883002195 Hartrees.
 IExCor= 3102 DFT=T Ex+Corr=X3LYP ExCW=0 ScaHFX=  0.218000
 ScaDFX=  0.782000  0.709000  1.000000  0.871000 ScalE2=  1.000000  1.000000
 IRadAn=      5 IRanWt=     -1 IRanGd=            0 ICorTp=0 IEmpDi=  4
 NAtoms=   19 NActive=   19 NUniq=   19 SFac= 1.00D+00 NAtFMM=   60 NAOKFM=F Big=F
 Integral buffers will be    131072 words long.
 Raffenetti 2 integral format.
 Two-electron integral symmetry is turned on.
 R6DIni: Non-standard D2/D3 S6 parameter, value=     1.000000
 R6DIni: Non-standard D2/D3 S8 parameter, value=     0.299000
 R6DIni: Non-standard D2/D3 SR6 parameter, value=     1.000000
 Leave Link  301 at Wed Mar  5 18:41:51 2025, MaxMem= 13421772800 cpu:               0.5 elap:               0.1
 (Enter /gpfs/fs1/soft/improv/software/custom-built/gaussian/g16/l302.exe)
 NPDir=0 NMtPBC=     1 NCelOv=     1 NCel=       1 NClECP=     1 NCelD=      1
         NCelK=      1 NCelE2=     1 NClLst=     1 CellRange=     0.0.
 One-electron integrals computed using PRISM.
 One-electron integral symmetry used in STVInt
 NBasis=   317 RedAO= T EigKep=  1.64D-06  NBF=   317
 NBsUse=   317 1.00D-06 EigRej= -1.00D+00 NBFU=   317
 Precomputing XC quadrature grid using
 IXCGrd= 4 IRadAn=           5 IRanWt=          -1 IRanGd=           0 AccXCQ= 0.00D+00.
 Generated NRdTot=       0 NPtTot=           0 NUsed=           0 NTot=          32
 NSgBfM=   347   346   347   347   347 MxSgAt=    19 MxSgA2=    19.
 Leave Link  302 at Wed Mar  5 18:41:51 2025, MaxMem= 13421772800 cpu:              22.2 elap:               0.3
 (Enter /gpfs/fs1/soft/improv/software/custom-built/gaussian/g16/l303.exe)
 DipDrv:  MaxL=1.
 Leave Link  303 at Wed Mar  5 18:41:52 2025, MaxMem= 13421772800 cpu:               1.1 elap:               0.0
 (Enter /gpfs/fs1/soft/improv/software/custom-built/gaussian/g16/l401.exe)
 ExpMin= 1.26D-02 ExpMax= 6.11D+04 ExpMxC= 9.18D+03 IAcc=3 IRadAn=         5 AccDes= 0.00D+00
 Harris functional with IExCor= 3102 and IRadAn=       5 diagonalized for initial guess.
 HarFok:  IExCor= 3102 AccDes= 0.00D+00 IRadAn=         5 IDoV= 1 UseB2=F ITyADJ=14
 ICtDFT=  3500011 ScaDFX=  1.000000  1.000000  1.000000  1.000000
 FoFCou: FMM=F IPFlag=           0 FMFlag=      100000 FMFlg1=           0
         NFxFlg=           0 DoJE=T BraDBF=F KetDBF=T FulRan=T
         wScrn=  0.000000 ICntrl=       500 IOpCl=  0 I1Cent=   200000004 NGrid=           0
         NMat0=    1 NMatS0=      1 NMatT0=    0 NMatD0=    1 NMtDS0=    0 NMtDT0=    0
 Petite list used in FoFCou.
 Harris En= -1721.80311978116    
 JPrj=0 DoOrth=F DoCkMO=F.
 Initial guess <Sx>= 0.0000 <Sy>= 0.0000 <Sz>= 2.0000 <S**2>= 6.0000 S= 2.0000
 Leave Link  401 at Wed Mar  5 18:41:53 2025, MaxMem= 13421772800 cpu:              40.6 elap:               0.5
 (Enter /gpfs/fs1/soft/improv/software/custom-built/gaussian/g16/l502.exe)
 Integral symmetry usage will be decided dynamically.
 UHF open shell SCF:
 Using DIIS extrapolation, IDIIS=  1040.
 NGot= 13421772800 LenX= 13421483807 LenY= 13421362957
 Requested convergence on RMS density matrix=1.00D-08 within  50 cycles.
 Requested convergence on MAX density matrix=1.00D-06.
 Requested convergence on             energy=1.00D-06.
 No special actions if energy rises.
 Fock matrices will be formed incrementally for  20 cycles.

 Cycle   1  Pass 1  IDiag  1:
 FoFJK:  IHMeth= 1 ICntrl=       0 DoSepK=F KAlg= 0 I1Cent=           0 FoldK=F
 IRaf= 990000000 NMat=       1 IRICut=       1 DoRegI=T DoRafI=F ISym2E= 0 IDoP0=0 IntGTp=1.
 FoFCou: FMM=F IPFlag=           0 FMFlag=      100000 FMFlg1=           0
         NFxFlg=           0 DoJE=F BraDBF=F KetDBF=F FulRan=T
         wScrn=  0.000000 ICntrl=         0 IOpCl=  1 I1Cent=           0 NGrid=           0
         NMat0=    1 NMatS0=      1 NMatT0=    0 NMatD0=    1 NMtDS0=    0 NMtDT0=    0
 Symmetry not used in FoFCou.
 E= -1720.96197056409    
 DIIS: error= 2.89D-02 at cycle   1 NSaved=   1.
 NSaved= 1 IEnMin= 1 EnMin= -1720.96197056409     IErMin= 1 ErrMin= 2.89D-02
 ErrMax= 2.89D-02  0.00D+00 EMaxC= 1.00D-01 BMatC= 2.08D+00 BMatP= 2.08D+00
 IDIUse=3 WtCom= 7.11D-01 WtEn= 2.89D-01
 Coeff-Com:  0.100D+01
 Coeff-En:   0.100D+01
 Coeff:      0.100D+01
 Gap=     0.011 Goal=   None    Shift=    0.000
 Gap=     0.161 Goal=   None    Shift=    0.000
 GapD=    0.011 DampG=0.250 DampE=0.250 DampFc=0.1250 IDamp=-1.
 Damping current iteration by 1.25D-01
 RMSDP=5.43D-02 MaxDP=7.15D+00              OVMax= 8.10D-01

 Cycle   2  Pass 1  IDiag  1:
 RMSU=  6.79D-03    CP:  9.99D-01
 E= -1721.03863228298     Delta-E=       -0.076661718891 Rises=F Damp=T
 DIIS: error= 1.94D-02 at cycle   2 NSaved=   2.
 NSaved= 2 IEnMin= 2 EnMin= -1721.03863228298     IErMin= 2 ErrMin= 1.94D-02
 ErrMax= 1.94D-02  0.00D+00 EMaxC= 1.00D-01 BMatC= 1.05D+00 BMatP= 2.08D+00
 IDIUse=3 WtCom= 8.06D-01 WtEn= 1.94D-01
 Coeff-Com: -0.192D+01 0.292D+01
 Coeff-En:   0.000D+00 0.100D+01
 Coeff:     -0.155D+01 0.255D+01
 Gap=    -0.024 Goal=   None    Shift=    0.000
 Gap=     0.247 Goal=   None    Shift=    0.000
 RMSDP=1.53D-02 MaxDP=1.29D+00 DE=-7.67D-02 OVMax= 9.81D-01

 Cycle   3  Pass 1  IDiag  1:
 RMSU=  1.25D-02    CP:  8.97D-01  8.23D-01
 E= -1721.17730974872     Delta-E=       -0.138677465739 Rises=F Damp=F
 DIIS: error= 2.28D-02 at cycle   3 NSaved=   3.
 NSaved= 3 IEnMin= 3 EnMin= -1721.17730974872     IErMin= 2 ErrMin= 1.94D-02
 ErrMax= 2.28D-02  0.00D+00 EMaxC= 1.00D-01 BMatC= 1.04D+00 BMatP= 1.05D+00
 IDIUse=3 WtCom= 7.72D-01 WtEn= 2.28D-01
 EnCoef did    30 forward-backward iterations
 Coeff-Com: -0.134D+01 0.202D+01 0.316D+00
 Coeff-En:   0.100D-01 0.180D+00 0.810D+00
 Coeff:     -0.103D+01 0.160D+01 0.429D+00
 Gap=     0.076 Goal=   None    Shift=    0.000
 Gap=     0.165 Goal=   None    Shift=    0.000
 RMSDP=1.78D-02 MaxDP=1.99D+00 DE=-1.39D-01 OVMax= 1.10D-01

 Cycle   4  Pass 1  IDiag  1:
 RMSU=  7.29D-03    CP:  7.15D-01  6.16D-01  6.92D-01
 E= -1721.30355077227     Delta-E=       -0.126241023549 Rises=F Damp=F
 DIIS: error= 6.60D-03 at cycle   4 NSaved=   4.
 NSaved= 4 IEnMin= 4 EnMin= -1721.30355077227     IErMin= 4 ErrMin= 6.60D-03
 ErrMax= 6.60D-03  0.00D+00 EMaxC= 1.00D-01 BMatC= 8.39D-02 BMatP= 1.04D+00
 IDIUse=3 WtCom= 9.34D-01 WtEn= 6.60D-02
 Coeff-Com: -0.138D+00 0.151D+00 0.215D+00 0.772D+00
 Coeff-En:   0.000D+00 0.000D+00 0.524D-01 0.948D+00
 Coeff:     -0.129D+00 0.141D+00 0.204D+00 0.784D+00
 Gap=     0.117 Goal=   None    Shift=    0.000
 Gap=     0.128 Goal=   None    Shift=    0.000
 RMSDP=4.46D-03 MaxDP=4.84D-01 DE=-1.26D-01 OVMax= 3.13D-02

 Cycle   5  Pass 1  IDiag  1:
 RMSU=  1.57D-03    CP:  7.55D-01  7.19D-01  7.94D-01  7.52D-01
 E= -1721.31421444223     Delta-E=       -0.010663669958 Rises=F Damp=F
 DIIS: error= 9.30D-04 at cycle   5 NSaved=   5.
 NSaved= 5 IEnMin= 5 EnMin= -1721.31421444223     IErMin= 5 ErrMin= 9.30D-04
 ErrMax= 9.30D-04  0.00D+00 EMaxC= 1.00D-01 BMatC= 2.71D-03 BMatP= 8.39D-02
 IDIUse=3 WtCom= 9.91D-01 WtEn= 9.30D-03
 Coeff-Com: -0.249D-01 0.170D-01 0.389D-01 0.248D+00 0.721D+00
 Coeff-En:   0.000D+00 0.000D+00 0.000D+00 0.000D+00 0.100D+01
 Coeff:     -0.247D-01 0.169D-01 0.385D-01 0.246D+00 0.723D+00
 Gap=     0.120 Goal=   None    Shift=    0.000
 Gap=     0.126 Goal=   None    Shift=    0.000
 RMSDP=9.95D-04 MaxDP=1.33D-01 DE=-1.07D-02 OVMax= 5.34D-03

 Cycle   6  Pass 1  IDiag  1:
 RMSU=  4.21D-04    CP:  7.45D-01  7.27D-01  7.89D-01  7.81D-01  1.07D+00
 E= -1721.31450309323     Delta-E=       -0.000288651004 Rises=F Damp=F
 DIIS: error= 4.74D-04 at cycle   6 NSaved=   6.
 NSaved= 6 IEnMin= 6 EnMin= -1721.31450309323     IErMin= 6 ErrMin= 4.74D-04
 ErrMax= 4.74D-04  0.00D+00 EMaxC= 1.00D-01 BMatC= 7.38D-04 BMatP= 2.71D-03
 IDIUse=3 WtCom= 9.95D-01 WtEn= 4.74D-03
 Coeff-Com: -0.376D-02 0.229D-02-0.134D-01 0.109D-01 0.413D+00 0.591D+00
 Coeff-En:   0.000D+00 0.000D+00 0.000D+00 0.000D+00 0.179D+00 0.821D+00
 Coeff:     -0.374D-02 0.228D-02-0.134D-01 0.108D-01 0.412D+00 0.592D+00
 Gap=     0.121 Goal=   None    Shift=    0.000
 Gap=     0.126 Goal=   None    Shift=    0.000
 RMSDP=2.60D-04 MaxDP=2.17D-02 DE=-2.89D-04 OVMax= 2.93D-03

 Cycle   7  Pass 1  IDiag  1:
 RMSU=  2.18D-04    CP:  7.45D-01  7.17D-01  7.86D-01  7.82D-01  1.04D+00
                    CP:  7.18D-01
 E= -1721.31462878769     Delta-E=       -0.000125694453 Rises=F Damp=F
 DIIS: error= 7.96D-05 at cycle   7 NSaved=   7.
 NSaved= 7 IEnMin= 7 EnMin= -1721.31462878769     IErMin= 7 ErrMin= 7.96D-05
 ErrMax= 7.96D-05  0.00D+00 EMaxC= 1.00D-01 BMatC= 2.77D-05 BMatP= 7.38D-04
 IDIUse=1 WtCom= 1.00D+00 WtEn= 0.00D+00
 Coeff-Com: -0.250D-02 0.259D-02-0.792D-02-0.116D-01 0.760D-01 0.191D+00
 Coeff-Com:  0.752D+00
 Coeff:     -0.250D-02 0.259D-02-0.792D-02-0.116D-01 0.760D-01 0.191D+00
 Coeff:      0.752D+00
 Gap=     0.121 Goal=   None    Shift=    0.000
 Gap=     0.125 Goal=   None    Shift=    0.000
 RMSDP=8.80D-05 MaxDP=8.24D-03 DE=-1.26D-04 OVMax= 2.31D-03

 Cycle   8  Pass 1  IDiag  1:
 RMSU=  5.59D-05    CP:  7.45D-01  7.21D-01  7.88D-01  7.81D-01  1.07D+00
                    CP:  7.86D-01  9.38D-01
 E= -1721.31463660293     Delta-E=       -0.000007815246 Rises=F Damp=F
 DIIS: error= 3.23D-05 at cycle   8 NSaved=   8.
 NSaved= 8 IEnMin= 8 EnMin= -1721.31463660293     IErMin= 8 ErrMin= 3.23D-05
 ErrMax= 3.23D-05  0.00D+00 EMaxC= 1.00D-01 BMatC= 2.17D-06 BMatP= 2.77D-05
 IDIUse=1 WtCom= 1.00D+00 WtEn= 0.00D+00
 Coeff-Com: -0.171D-02 0.210D-02-0.969D-03-0.367D-02-0.152D-01-0.314D-02
 Coeff-Com:  0.176D+00 0.846D+00
 Coeff:     -0.171D-02 0.210D-02-0.969D-03-0.367D-02-0.152D-01-0.314D-02
 Coeff:      0.176D+00 0.846D+00
 Gap=     0.121 Goal=   None    Shift=    0.000
 Gap=     0.125 Goal=   None    Shift=    0.000
 RMSDP=2.89D-05 MaxDP=2.29D-03 DE=-7.82D-06 OVMax= 2.40D-03

 Cycle   9  Pass 1  IDiag  1:
 RMSU=  1.29D-05    CP:  7.45D-01  7.21D-01  7.88D-01  7.81D-01  1.08D+00
                    CP:  8.00D-01  1.03D+00  1.12D+00
 E= -1721.31463904125     Delta-E=       -0.000002438320 Rises=F Damp=F
 DIIS: error= 3.44D-05 at cycle   9 NSaved=   9.
 NSaved= 9 IEnMin= 9 EnMin= -1721.31463904125     IErMin= 8 ErrMin= 3.23D-05
 ErrMax= 3.44D-05  0.00D+00 EMaxC= 1.00D-01 BMatC= 8.30D-07 BMatP= 2.17D-06
 IDIUse=1 WtCom= 1.00D+00 WtEn= 0.00D+00
 Coeff-Com: -0.464D-03 0.627D-03 0.694D-04-0.632D-03-0.732D-02-0.102D-01
 Coeff-Com: -0.561D-02 0.154D+00 0.869D+00
 Coeff:     -0.464D-03 0.627D-03 0.694D-04-0.632D-03-0.732D-02-0.102D-01
 Coeff:     -0.561D-02 0.154D+00 0.869D+00
 Gap=     0.121 Goal=   None    Shift=    0.000
 Gap=     0.125 Goal=   None    Shift=    0.000
 RMSDP=1.40D-05 MaxDP=1.22D-03 DE=-2.44D-06 OVMax= 2.35D-03

 Cycle  10  Pass 1  IDiag  1:
 RMSU=  6.67D-06    CP:  7.45D-01  7.22D-01  7.88D-01  7.81D-01  1.08D+00
                    CP:  8.05D-01  1.06D+00  1.24D+00  1.49D+00
 E= -1721.31464106400     Delta-E=       -0.000002022746 Rises=F Damp=F
 DIIS: error= 3.27D-05 at cycle  10 NSaved=  10.
 NSaved=10 IEnMin=10 EnMin= -1721.31464106400     IErMin= 8 ErrMin= 3.23D-05
 ErrMax= 3.27D-05  0.00D+00 EMaxC= 1.00D-01 BMatC= 7.45D-07 BMatP= 8.30D-07
 IDIUse=1 WtCom= 1.00D+00 WtEn= 0.00D+00
 Coeff-Com:  0.172D-03-0.162D-03 0.134D-03 0.361D-03 0.193D-02-0.794D-03
 Coeff-Com: -0.448D-01-0.182D+00 0.390D+00 0.835D+00
 Coeff:      0.172D-03-0.162D-03 0.134D-03 0.361D-03 0.193D-02-0.794D-03
 Coeff:     -0.448D-01-0.182D+00 0.390D+00 0.835D+00
 Gap=     0.121 Goal=   None    Shift=    0.000
 Gap=     0.125 Goal=   None    Shift=    0.000
 RMSDP=1.39D-05 MaxDP=1.12D-03 DE=-2.02D-06 OVMax= 2.71D-03

 Cycle  11  Pass 1  IDiag  1:
 RMSU=  4.72D-06    CP:  7.45D-01  7.22D-01  7.87D-01  7.81D-01  1.08D+00
                    CP:  8.08D-01  1.09D+00  1.34D+00  2.05D+00  2.02D+00
 E= -1721.31464330744     Delta-E=       -0.000002243444 Rises=F Damp=F
 DIIS: error= 3.10D-05 at cycle  11 NSaved=  11.
 NSaved=11 IEnMin=11 EnMin= -1721.31464330744     IErMin=11 ErrMin= 3.10D-05
 ErrMax= 3.10D-05  0.00D+00 EMaxC= 1.00D-01 BMatC= 6.59D-07 BMatP= 7.45D-07
 IDIUse=1 WtCom= 1.00D+00 WtEn= 0.00D+00
 Coeff-Com:  0.575D-03-0.702D-03-0.394D-03 0.118D-03 0.130D-01 0.204D-01
 Coeff-Com:  0.137D-01-0.297D+00-0.110D+01 0.209D+00 0.214D+01
 Coeff:      0.575D-03-0.702D-03-0.394D-03 0.118D-03 0.130D-01 0.204D-01
 Coeff:      0.137D-01-0.297D+00-0.110D+01 0.209D+00 0.214D+01
 Gap=     0.121 Goal=   None    Shift=    0.000
 Gap=     0.125 Goal=   None    Shift=    0.000
 RMSDP=3.98D-05 MaxDP=2.75D-03 DE=-2.24D-06 OVMax= 8.87D-03

 Cycle  12  Pass 1  IDiag  1:
 RMSU=  2.19D-05    CP:  7.45D-01  7.22D-01  7.87D-01  7.81D-01  1.08D+00
                    CP:  8.16D-01  1.14D+00  1.55D+00  3.00D+00  3.00D+00
                    CP:  3.00D+00
 E= -1721.31465008325     Delta-E=       -0.000006775808 Rises=F Damp=F
 DIIS: error= 2.60D-05 at cycle  12 NSaved=  12.
 NSaved=12 IEnMin=12 EnMin= -1721.31465008325     IErMin=12 ErrMin= 2.60D-05
 ErrMax= 2.60D-05  0.00D+00 EMaxC= 1.00D-01 BMatC= 5.23D-07 BMatP= 6.59D-07
 IDIUse=1 WtCom= 1.00D+00 WtEn= 0.00D+00
 Coeff-Com: -0.351D-03 0.457D-03-0.870D-03-0.192D-02 0.534D-02 0.207D-01
 Coeff-Com:  0.133D+00 0.160D+00-0.150D+01-0.167D+01 0.945D+00 0.291D+01
 Coeff:     -0.351D-03 0.457D-03-0.870D-03-0.192D-02 0.534D-02 0.207D-01
 Coeff:      0.133D+00 0.160D+00-0.150D+01-0.167D+01 0.945D+00 0.291D+01
 Gap=     0.121 Goal=   None    Shift=    0.000
 Gap=     0.125 Goal=   None    Shift=    0.000
 RMSDP=1.21D-04 MaxDP=8.67D-03 DE=-6.78D-06 OVMax= 2.75D-02

 Cycle  13  Pass 1  IDiag  1:
 RMSU=  7.30D-05    CP:  7.45D-01  7.23D-01  7.87D-01  7.80D-01  1.08D+00
                    CP:  8.33D-01  1.28D+00  2.12D+00  3.00D+00  3.00D+00
                    CP:  3.00D+00  3.00D+00
 E= -1721.31466580687     Delta-E=       -0.000015723619 Rises=F Damp=F
 DIIS: error= 1.29D-05 at cycle  13 NSaved=  13.
 NSaved=13 IEnMin=13 EnMin= -1721.31466580687     IErMin=13 ErrMin= 1.29D-05
 ErrMax= 1.29D-05  0.00D+00 EMaxC= 1.00D-01 BMatC= 3.42D-07 BMatP= 5.23D-07
 IDIUse=1 WtCom= 1.00D+00 WtEn= 0.00D+00
 Coeff-Com: -0.555D-03 0.745D-03-0.544D-03-0.102D-02 0.330D-02 0.116D-01
 Coeff-Com:  0.629D-01 0.217D-01-0.632D+00-0.717D+00 0.144D+00 0.134D+01
 Coeff-Com:  0.770D+00
 Coeff:     -0.555D-03 0.745D-03-0.544D-03-0.102D-02 0.330D-02 0.116D-01
 Coeff:      0.629D-01 0.217D-01-0.632D+00-0.717D+00 0.144D+00 0.134D+01
 Coeff:      0.770D+00
 Gap=     0.120 Goal=   None    Shift=    0.000
 Gap=     0.125 Goal=   None    Shift=    0.000
 RMSDP=3.73D-05 MaxDP=2.81D-03 DE=-1.57D-05 OVMax= 8.69D-03

 Cycle  14  Pass 1  IDiag  1:
 RMSU=  8.97D-06    CP:  7.45D-01  7.23D-01  7.86D-01  7.80D-01  1.08D+00
                    CP:  8.35D-01  1.32D+00  2.24D+00  3.00D+00  3.00D+00
                    CP:  3.00D+00  3.00D+00  1.47D+00
 E= -1721.31466917256     Delta-E=       -0.000003365685 Rises=F Damp=F
 DIIS: error= 1.14D-05 at cycle  14 NSaved=  14.
 NSaved=14 IEnMin=14 EnMin= -1721.31466917256     IErMin=14 ErrMin= 1.14D-05
 ErrMax= 1.14D-05  0.00D+00 EMaxC= 1.00D-01 BMatC= 2.35D-07 BMatP= 3.42D-07
 IDIUse=1 WtCom= 1.00D+00 WtEn= 0.00D+00
 Coeff-Com: -0.288D-03 0.432D-03-0.213D-03-0.277D-04 0.462D-02 0.565D-02
 Coeff-Com: -0.181D-01-0.186D+00 0.109D-02 0.399D+00 0.962D-01-0.522D+00
 Coeff-Com: -0.109D+00 0.133D+01
 Coeff:     -0.288D-03 0.432D-03-0.213D-03-0.277D-04 0.462D-02 0.565D-02
 Coeff:     -0.181D-01-0.186D+00 0.109D-02 0.399D+00 0.962D-01-0.522D+00
 Coeff:     -0.109D+00 0.133D+01
 Gap=     0.120 Goal=   None    Shift=    0.000
 Gap=     0.125 Goal=   None    Shift=    0.000
 RMSDP=3.04D-05 MaxDP=2.43D-03 DE=-3.37D-06 OVMax= 7.38D-03

 Cycle  15  Pass 1  IDiag  1:
 RMSU=  3.56D-06    CP:  7.45D-01  7.23D-01  7.86D-01  7.80D-01  1.08D+00
                    CP:  8.38D-01  1.34D+00  2.32D+00  3.00D+00  3.00D+00
                    CP:  3.00D+00  3.00D+00  1.86D+00  1.74D+00
 E= -1721.31467150861     Delta-E=       -0.000002336054 Rises=F Damp=F
 DIIS: error= 1.07D-05 at cycle  15 NSaved=  15.
 NSaved=15 IEnMin=15 EnMin= -1721.31467150861     IErMin=15 ErrMin= 1.07D-05
 ErrMax= 1.07D-05  0.00D+00 EMaxC= 1.00D-01 BMatC= 1.52D-07 BMatP= 2.35D-07
 IDIUse=1 WtCom= 1.00D+00 WtEn= 0.00D+00
 Coeff-Com:  0.817D-04-0.541D-04-0.156D-03-0.237D-03 0.418D-02 0.350D-02
 Coeff-Com: -0.258D-01-0.143D+00 0.978D-01 0.497D+00 0.189D+00-0.855D+00
 Coeff-Com: -0.103D+01 0.107D+01 0.119D+01
 Coeff:      0.817D-04-0.541D-04-0.156D-03-0.237D-03 0.418D-02 0.350D-02
 Coeff:     -0.258D-01-0.143D+00 0.978D-01 0.497D+00 0.189D+00-0.855D+00
 Coeff:     -0.103D+01 0.107D+01 0.119D+01
 Gap=     0.120 Goal=   None    Shift=    0.000
 Gap=     0.125 Goal=   None    Shift=    0.000
 RMSDP=5.42D-05 MaxDP=4.26D-03 DE=-2.34D-06 OVMax= 1.30D-02

 Cycle  16  Pass 1  IDiag  1:
 RMSU=  3.88D-06    CP:  7.45D-01  7.23D-01  7.86D-01  7.80D-01  1.08D+00
                    CP:  8.40D-01  1.39D+00  2.48D+00  3.00D+00  3.00D+00
                    CP:  3.00D+00  3.00D+00  2.55D+00  3.00D+00  1.94D+00
 E= -1721.31467422316     Delta-E=       -0.000002714550 Rises=F Damp=F
 DIIS: error= 7.85D-06 at cycle  16 NSaved=  16.
 NSaved=16 IEnMin=16 EnMin= -1721.31467422316     IErMin=16 ErrMin= 7.85D-06
 ErrMax= 7.85D-06  0.00D+00 EMaxC= 1.00D-01 BMatC= 7.39D-08 BMatP= 1.52D-07
 IDIUse=1 WtCom= 1.00D+00 WtEn= 0.00D+00
 Coeff-Com:  0.191D-03-0.227D-03-0.236D-03-0.545D-03 0.309D-02 0.760D-02
 Coeff-Com:  0.326D-01 0.308D-02-0.376D+00-0.229D+00 0.431D+00 0.461D+00
 Coeff-Com:  0.256D+00-0.974D+00-0.510D+00 0.190D+01
 Coeff:      0.191D-03-0.227D-03-0.236D-03-0.545D-03 0.309D-02 0.760D-02
 Coeff:      0.326D-01 0.308D-02-0.376D+00-0.229D+00 0.431D+00 0.461D+00
 Coeff:      0.256D+00-0.974D+00-0.510D+00 0.190D+01
 Gap=     0.120 Goal=   None    Shift=    0.000
 Gap=     0.125 Goal=   None    Shift=    0.000
 RMSDP=1.56D-05 MaxDP=1.24D-03 DE=-2.71D-06 OVMax= 4.11D-03

 Cycle  17  Pass 1  IDiag  1:
 RMSU=  4.70D-06    CP:  7.45D-01  7.23D-01  7.86D-01  7.80D-01  1.08D+00
                    CP:  8.38D-01  1.41D+00  2.49D+00  3.00D+00  3.00D+00
                    CP:  3.00D+00  3.00D+00  2.71D+00  3.00D+00  3.00D+00
                    CP:  2.64D+00
 E= -1721.31467500638     Delta-E=       -0.000000783218 Rises=F Damp=F
 DIIS: error= 7.44D-06 at cycle  17 NSaved=  17.
 NSaved=17 IEnMin=17 EnMin= -1721.31467500638     IErMin=17 ErrMin= 7.44D-06
 ErrMax= 7.44D-06  0.00D+00 EMaxC= 1.00D-01 BMatC= 5.89D-08 BMatP= 7.39D-08
 IDIUse=1 WtCom= 1.00D+00 WtEn= 0.00D+00
 Coeff-Com: -0.938D-04 0.101D-03-0.243D-03-0.657D-03-0.247D-03 0.373D-02
 Coeff-Com:  0.339D-01 0.523D-01-0.868D-01-0.194D+00-0.202D+00 0.384D+00
 Coeff-Com:  0.117D+01-0.747D+00-0.121D+01 0.139D+00 0.166D+01
 Coeff:     -0.938D-04 0.101D-03-0.243D-03-0.657D-03-0.247D-03 0.373D-02
 Coeff:      0.339D-01 0.523D-01-0.868D-01-0.194D+00-0.202D+00 0.384D+00
 Coeff:      0.117D+01-0.747D+00-0.121D+01 0.139D+00 0.166D+01
 Gap=     0.120 Goal=   None    Shift=    0.000
 Gap=     0.125 Goal=   None    Shift=    0.000
 RMSDP=1.72D-05 MaxDP=1.25D-03 DE=-7.83D-07 OVMax= 4.45D-03

 Cycle  18  Pass 1  IDiag  1:
 RMSU=  7.47D-06    CP:  7.45D-01  7.23D-01  7.86D-01  7.80D-01  1.08D+00
                    CP:  8.38D-01  1.43D+00  2.53D+00  3.00D+00  3.00D+00
                    CP:  3.00D+00  3.00D+00  2.88D+00  3.00D+00  3.00D+00
                    CP:  3.00D+00  2.38D+00
 E= -1721.31467565194     Delta-E=       -0.000000645563 Rises=F Damp=F
 DIIS: error= 5.30D-06 at cycle  18 NSaved=  18.
 NSaved=18 IEnMin=18 EnMin= -1721.31467565194     IErMin=18 ErrMin= 5.30D-06
 ErrMax= 5.30D-06  0.00D+00 EMaxC= 1.00D-01 BMatC= 3.51D-08 BMatP= 5.89D-08
 IDIUse=1 WtCom= 1.00D+00 WtEn= 0.00D+00
 Coeff-Com: -0.254D-03 0.312D-03-0.115D-03-0.492D-04 0.144D-03 0.288D-03
 Coeff-Com: -0.994D-02-0.620D-01 0.203D+00 0.322D+00-0.229D+00-0.453D+00
 Coeff-Com:  0.446D+00 0.364D+00-0.433D+00-0.174D+01 0.723D+00 0.187D+01
 Coeff:     -0.254D-03 0.312D-03-0.115D-03-0.492D-04 0.144D-03 0.288D-03
 Coeff:     -0.994D-02-0.620D-01 0.203D+00 0.322D+00-0.229D+00-0.453D+00
 Coeff:      0.446D+00 0.364D+00-0.433D+00-0.174D+01 0.723D+00 0.187D+01
 Gap=     0.120 Goal=   None    Shift=    0.000
 Gap=     0.125 Goal=   None    Shift=    0.000
 RMSDP=2.42D-05 MaxDP=1.55D-03 DE=-6.46D-07 OVMax= 6.04D-03

 Cycle  19  Pass 1  IDiag  1:
 RMSU=  1.12D-05    CP:  7.45D-01  7.23D-01  7.86D-01  7.80D-01  1.08D+00
                    CP:  8.34D-01  1.45D+00  2.49D+00  3.00D+00  3.00D+00
                    CP:  3.00D+00  3.00D+00  3.00D+00  3.00D+00  3.00D+00
                    CP:  3.00D+00  3.00D+00  3.00D+00
 E= -1721.31467628839     Delta-E=       -0.000000636448 Rises=F Damp=F
 DIIS: error= 2.08D-06 at cycle  19 NSaved=  19.
 NSaved=19 IEnMin=19 EnMin= -1721.31467628839     IErMin=19 ErrMin= 2.08D-06
 ErrMax= 2.08D-06  0.00D+00 EMaxC= 1.00D-01 BMatC= 1.61D-08 BMatP= 3.51D-08
 IDIUse=1 WtCom= 1.00D+00 WtEn= 0.00D+00
 Coeff-Com: -0.166D-03 0.207D-03-0.658D-04 0.148D-03 0.126D-02 0.654D-03
 Coeff-Com: -0.145D-01-0.648D-01 0.751D-01 0.230D+00 0.332D-01-0.355D+00
 Coeff-Com: -0.224D+00 0.446D+00 0.234D+00-0.815D+00-0.414D+00 0.101D+01
 Coeff-Com:  0.858D+00
 Coeff:     -0.166D-03 0.207D-03-0.658D-04 0.148D-03 0.126D-02 0.654D-03
 Coeff:     -0.145D-01-0.648D-01 0.751D-01 0.230D+00 0.332D-01-0.355D+00
 Coeff:     -0.224D+00 0.446D+00 0.234D+00-0.815D+00-0.414D+00 0.101D+01
 Coeff:      0.858D+00
 Gap=     0.120 Goal=   None    Shift=    0.000
 Gap=     0.125 Goal=   None    Shift=    0.000
 RMSDP=9.23D-06 MaxDP=5.84D-04 DE=-6.36D-07 OVMax= 2.27D-03

 Cycle  20  Pass 1  IDiag  1:
 RMSU=  6.54D-06    CP:  7.45D-01  7.23D-01  7.86D-01  7.80D-01  1.08D+00
                    CP:  8.33D-01  1.46D+00  2.48D+00  3.00D+00  3.00D+00
                    CP:  3.00D+00  3.00D+00  3.00D+00  3.00D+00  3.00D+00
                    CP:  3.00D+00  3.00D+00  3.00D+00  1.54D+00
 E= -1721.31467638712     Delta-E=       -0.000000098731 Rises=F Damp=F
 DIIS: error= 1.35D-06 at cycle  20 NSaved=  20.
 NSaved=20 IEnMin=20 EnMin= -1721.31467638712     IErMin=20 ErrMin= 1.35D-06
 ErrMax= 1.35D-06  0.00D+00 EMaxC= 1.00D-01 BMatC= 4.21D-09 BMatP= 1.61D-08
 IDIUse=1 WtCom= 1.00D+00 WtEn= 0.00D+00
 Coeff-Com: -0.243D-04 0.293D-04-0.315D-04 0.133D-04 0.746D-03 0.624D-03
 Coeff-Com: -0.928D-03-0.231D-02-0.592D-01-0.479D-01 0.857D-01 0.494D-01
 Coeff-Com: -0.272D+00 0.962D-01 0.310D+00 0.290D+00-0.431D+00-0.393D+00
 Coeff-Com:  0.325D+00 0.105D+01
 Coeff:     -0.243D-04 0.293D-04-0.315D-04 0.133D-04 0.746D-03 0.624D-03
 Coeff:     -0.928D-03-0.231D-02-0.592D-01-0.479D-01 0.857D-01 0.494D-01
 Coeff:     -0.272D+00 0.962D-01 0.310D+00 0.290D+00-0.431D+00-0.393D+00
 Coeff:      0.325D+00 0.105D+01
 Gap=     0.120 Goal=   None    Shift=    0.000
 Gap=     0.125 Goal=   None    Shift=    0.000
 RMSDP=5.08D-06 MaxDP=3.07D-04 DE=-9.87D-08 OVMax= 1.29D-03

 Cycle  21  Pass 1  IDiag  1:
 Restarting incremental Fock formation.
 E= -1721.31467640759     Delta-E=       -0.000000020468 Rises=F Damp=F
 DIIS: error= 7.44D-07 at cycle  21 NSaved=  20.
 NSaved=20 IEnMin=20 EnMin= -1721.31467640759     IErMin=20 ErrMin= 7.44D-07
 ErrMax= 7.44D-07  0.00D+00 EMaxC= 1.00D-01 BMatC= 1.86D-09 BMatP= 4.21D-09
 IDIUse=1 WtCom= 1.00D+00 WtEn= 0.00D+00
 Coeff-Com:  0.138D-04 0.541D-05-0.906D-04-0.666D-04 0.213D-03 0.439D-02
 Coeff-Com:  0.139D-01-0.414D-01-0.595D-01 0.324D-01 0.891D-01-0.502D-01
 Coeff-Com: -0.715D-01 0.462D-01 0.139D+00 0.162D+00-0.356D+00-0.165D+00
 Coeff-Com:  0.285D+00 0.971D+00
 Coeff:      0.138D-04 0.541D-05-0.906D-04-0.666D-04 0.213D-03 0.439D-02
 Coeff:      0.139D-01-0.414D-01-0.595D-01 0.324D-01 0.891D-01-0.502D-01
 Coeff:     -0.715D-01 0.462D-01 0.139D+00 0.162D+00-0.356D+00-0.165D+00
 Coeff:      0.285D+00 0.971D+00
 Gap=     0.120 Goal=   None    Shift=    0.000
 Gap=     0.125 Goal=   None    Shift=    0.000
 RMSDP=9.80D-07 MaxDP=5.43D-05 DE=-2.05D-08 OVMax= 2.02D-04

 Cycle  22  Pass 1  IDiag  1:
 RMSU=  9.74D-07    CP:  1.00D+00
 E= -1721.31467640916     Delta-E=       -0.000000001575 Rises=F Damp=F
 DIIS: error= 2.96D-07 at cycle  22 NSaved=  20.
 NSaved=20 IEnMin=20 EnMin= -1721.31467640916     IErMin=20 ErrMin= 2.96D-07
 ErrMax= 2.96D-07  0.00D+00 EMaxC= 1.00D-01 BMatC= 1.86D-10 BMatP= 1.86D-09
 IDIUse=1 WtCom= 1.00D+00 WtEn= 0.00D+00
 Coeff-Com: -0.697D-06-0.399D-04-0.968D-04 0.109D-04 0.143D-02 0.349D-02
 Coeff-Com: -0.750D-02-0.159D-01-0.667D-02 0.255D-01 0.748D-02-0.860D-02
 Coeff-Com:  0.309D-02-0.282D-01 0.119D+00-0.889D-01-0.826D-01-0.606D-01
 Coeff-Com:  0.716D-01 0.107D+01
 Coeff:     -0.697D-06-0.399D-04-0.968D-04 0.109D-04 0.143D-02 0.349D-02
 Coeff:     -0.750D-02-0.159D-01-0.667D-02 0.255D-01 0.748D-02-0.860D-02
 Coeff:      0.309D-02-0.282D-01 0.119D+00-0.889D-01-0.826D-01-0.606D-01
 Coeff:      0.716D-01 0.107D+01
 Gap=     0.120 Goal=   None    Shift=    0.000
 Gap=     0.125 Goal=   None    Shift=    0.000
 RMSDP=7.13D-07 MaxDP=4.08D-05 DE=-1.58D-09 OVMax= 1.77D-04

 Cycle  23  Pass 1  IDiag  1:
 RMSU=  5.38D-07    CP:  1.00D+00  1.47D+00
 E= -1721.31467640946     Delta-E=       -0.000000000299 Rises=F Damp=F
 DIIS: error= 1.40D-07 at cycle  23 NSaved=  20.
 NSaved=20 IEnMin=20 EnMin= -1721.31467640946     IErMin=20 ErrMin= 1.40D-07
 ErrMax= 1.40D-07  0.00D+00 EMaxC= 1.00D-01 BMatC= 6.99D-11 BMatP= 1.86D-10
 IDIUse=1 WtCom= 1.00D+00 WtEn= 0.00D+00
 Coeff-Com:  0.233D-05 0.212D-04 0.267D-04-0.141D-03-0.152D-02-0.272D-02
 Coeff-Com:  0.100D-02 0.454D-02-0.541D-03-0.519D-02 0.443D-02 0.541D-02
 Coeff-Com: -0.187D-01 0.208D-01-0.374D-02 0.205D-02-0.197D-01-0.131D+00
 Coeff-Com:  0.234D+00 0.911D+00
 Coeff:      0.233D-05 0.212D-04 0.267D-04-0.141D-03-0.152D-02-0.272D-02
 Coeff:      0.100D-02 0.454D-02-0.541D-03-0.519D-02 0.443D-02 0.541D-02
 Coeff:     -0.187D-01 0.208D-01-0.374D-02 0.205D-02-0.197D-01-0.131D+00
 Coeff:      0.234D+00 0.911D+00
 Gap=     0.120 Goal=   None    Shift=    0.000
 Gap=     0.125 Goal=   None    Shift=    0.000
 RMSDP=1.36D-07 MaxDP=1.17D-05 DE=-2.99D-10 OVMax= 2.33D-05

 Cycle  24  Pass 1  IDiag  1:
 RMSU=  8.48D-08    CP:  1.00D+00  1.51D+00  8.14D-01
 E= -1721.31467640950     Delta-E=       -0.000000000042 Rises=F Damp=F
 DIIS: error= 2.98D-08 at cycle  24 NSaved=  20.
 NSaved=20 IEnMin=20 EnMin= -1721.31467640950     IErMin=20 ErrMin= 2.98D-08
 ErrMax= 2.98D-08  0.00D+00 EMaxC= 1.00D-01 BMatC= 3.40D-12 BMatP= 6.99D-11
 IDIUse=1 WtCom= 1.00D+00 WtEn= 0.00D+00
 Coeff-Com: -0.137D-04-0.105D-04 0.149D-04-0.239D-04-0.548D-03-0.429D-03
 Coeff-Com:  0.651D-03 0.783D-03 0.194D-03 0.155D-03-0.632D-03-0.779D-02
 Coeff-Com:  0.828D-02 0.160D-02 0.288D-02-0.652D-02-0.615D-01 0.387D-01
 Coeff-Com:  0.422D+00 0.603D+00
 Coeff:     -0.137D-04-0.105D-04 0.149D-04-0.239D-04-0.548D-03-0.429D-03
 Coeff:      0.651D-03 0.783D-03 0.194D-03 0.155D-03-0.632D-03-0.779D-02
 Coeff:      0.828D-02 0.160D-02 0.288D-02-0.652D-02-0.615D-01 0.387D-01
 Coeff:      0.422D+00 0.603D+00
 Gap=     0.120 Goal=   None    Shift=    0.000
 Gap=     0.125 Goal=   None    Shift=    0.000
 RMSDP=4.98D-08 MaxDP=3.62D-06 DE=-4.23D-11 OVMax= 1.24D-05

 Cycle  25  Pass 1  IDiag  1:
 RMSU=  1.71D-08    CP:  1.00D+00  1.53D+00  8.83D-01  8.40D-01
 E= -1721.31467640950     Delta-E=        0.000000000001 Rises=F Damp=F
 DIIS: error= 9.84D-09 at cycle  25 NSaved=  20.
 NSaved=20 IEnMin=19 EnMin= -1721.31467640950     IErMin=20 ErrMin= 9.84D-09
 ErrMax= 9.84D-09  0.00D+00 EMaxC= 1.00D-01 BMatC= 5.24D-13 BMatP= 3.40D-12
 IDIUse=1 WtCom= 1.00D+00 WtEn= 0.00D+00
 Coeff-Com:  0.292D-05 0.243D-04 0.184D-03 0.344D-03-0.393D-03-0.102D-02
 Coeff-Com:  0.391D-03 0.544D-03 0.567D-03 0.292D-04-0.590D-03-0.347D-03
 Coeff-Com: -0.603D-03 0.126D-04 0.301D-02 0.815D-02-0.228D-01-0.545D-01
 Coeff-Com:  0.239D+00 0.828D+00
 Coeff:      0.292D-05 0.243D-04 0.184D-03 0.344D-03-0.393D-03-0.102D-02
 Coeff:      0.391D-03 0.544D-03 0.567D-03 0.292D-04-0.590D-03-0.347D-03
 Coeff:     -0.603D-03 0.126D-04 0.301D-02 0.815D-02-0.228D-01-0.545D-01
 Coeff:      0.239D+00 0.828D+00
 Gap=     0.120 Goal=   None    Shift=    0.000
 Gap=     0.125 Goal=   None    Shift=    0.000
 RMSDP=2.37D-08 MaxDP=1.65D-06 DE= 1.36D-12 OVMax= 4.76D-06

 Cycle  26  Pass 1  IDiag  1:
 RMSU=  8.52D-09    CP:  1.00D+00  1.54D+00  9.23D-01  8.49D-01  9.42D-01
 E= -1721.31467640951     Delta-E=       -0.000000000005 Rises=F Damp=F
 DIIS: error= 7.61D-09 at cycle  26 NSaved=  20.
 NSaved=20 IEnMin=20 EnMin= -1721.31467640951     IErMin=20 ErrMin= 7.61D-09
 ErrMax= 7.61D-09  0.00D+00 EMaxC= 1.00D-01 BMatC= 1.87D-13 BMatP= 5.24D-13
 IDIUse=1 WtCom= 1.00D+00 WtEn= 0.00D+00
 Coeff-Com: -0.617D-05 0.118D-04 0.186D-03 0.577D-04-0.265D-03-0.130D-03
 Coeff-Com:  0.703D-04 0.335D-03 0.288D-04-0.402D-03-0.506D-03 0.558D-03
 Coeff-Com:  0.449D-03 0.147D-02 0.353D-02-0.140D-01-0.487D-01 0.525D-01
 Coeff-Com:  0.330D+00 0.675D+00
 Coeff:     -0.617D-05 0.118D-04 0.186D-03 0.577D-04-0.265D-03-0.130D-03
 Coeff:      0.703D-04 0.335D-03 0.288D-04-0.402D-03-0.506D-03 0.558D-03
 Coeff:      0.449D-03 0.147D-02 0.353D-02-0.140D-01-0.487D-01 0.525D-01
 Coeff:      0.330D+00 0.675D+00
 Gap=     0.120 Goal=   None    Shift=    0.000
 Gap=     0.125 Goal=   None    Shift=    0.000
 RMSDP=1.38D-08 MaxDP=1.02D-06 DE=-5.46D-12 OVMax= 3.44D-06

 Cycle  27  Pass 1  IDiag  1:
 RMSU=  1.86D-09    CP:  1.00D+00  1.53D+00  9.02D-01  9.05D-01  9.68D-01
                    CP:  8.82D-01
 E= -1721.31467640949     Delta-E=        0.000000000022 Rises=F Damp=F
 DIIS: error= 1.04D-09 at cycle  27 NSaved=  20.
 NSaved=20 IEnMin=19 EnMin= -1721.31467640951     IErMin=20 ErrMin= 1.04D-09
 ErrMax= 1.04D-09  0.00D+00 EMaxC= 1.00D-01 BMatC= 3.45D-15 BMatP= 1.87D-13
 IDIUse=1 WtCom= 1.00D+00 WtEn= 0.00D+00
 Coeff-Com: -0.710D-05-0.168D-04 0.496D-05 0.220D-04 0.119D-04-0.196D-04
 Coeff-Com: -0.952D-05 0.309D-04-0.140D-03 0.393D-03-0.152D-03-0.255D-03
 Coeff-Com: -0.309D-03 0.219D-03 0.407D-02-0.413D-02-0.250D-01-0.533D-01
 Coeff-Com:  0.322D-01 0.105D+01
 Coeff:     -0.710D-05-0.168D-04 0.496D-05 0.220D-04 0.119D-04-0.196D-04
 Coeff:     -0.952D-05 0.309D-04-0.140D-03 0.393D-03-0.152D-03-0.255D-03
 Coeff:     -0.309D-03 0.219D-03 0.407D-02-0.413D-02-0.250D-01-0.533D-01
 Coeff:      0.322D-01 0.105D+01
 Gap=     0.120 Goal=   None    Shift=    0.000
 Gap=     0.125 Goal=   None    Shift=    0.000
 RMSDP=3.75D-09 MaxDP=2.75D-07 DE= 2.23D-11 OVMax= 9.54D-07

 SCF Done:  E(UX3LYP) =  -1721.31467641     A.U. after   27 cycles
            NFock= 27  Conv=0.38D-08     -V/T= 2.0010
 <Sx>= 0.0000 <Sy>= 0.0000 <Sz>= 2.0000 <S**2>= 6.0073 S= 2.0015
 <L.S>=  0.00000000000    
 KE= 1.719588347968D+03 PE=-5.596088472042D+03 EE= 1.387397147444D+03
 Annihilation of the first spin contaminant:
 S**2 before annihilation     6.0073,   after     6.0000
 Leave Link  502 at Wed Mar  5 18:42:38 2025, MaxMem= 13421772800 cpu:            5136.9 elap:              45.0
 (Enter /gpfs/fs1/soft/improv/software/custom-built/gaussian/g16/l508.exe)
 QCSCF skips out because SCF is already converged.
 Leave Link  508 at Wed Mar  5 18:42:38 2025, MaxMem= 13421772800 cpu:               0.3 elap:               0.0
 (Enter /gpfs/fs1/soft/improv/software/custom-built/gaussian/g16/l801.exe)
 DoSCS=F DFT=T ScalE2(SS,OS)=  1.000000  1.000000
 Range of M.O.s used for correlation:     1   317
 NBasis=   317 NAE=    44 NBE=    40 NFC=     0 NFV=     0
 NROrb=    317 NOA=    44 NOB=    40 NVA=   273 NVB=   277

 **** Warning!!: The largest alpha MO coefficient is  0.23556899D+03


 **** Warning!!: The largest beta MO coefficient is  0.24994051D+03

 Leave Link  801 at Wed Mar  5 18:42:38 2025, MaxMem= 13421772800 cpu:               0.4 elap:               0.0
 (Enter /gpfs/fs1/soft/improv/software/custom-built/gaussian/g16/l1101.exe)
 Using compressed storage, NAtomX=    19.
 Will process     20 centers per pass.
 Leave Link 1101 at Wed Mar  5 18:42:39 2025, MaxMem= 13421772800 cpu:              51.8 elap:               0.5
 (Enter /gpfs/fs1/soft/improv/software/custom-built/gaussian/g16/l1102.exe)
 Symmetrizing basis deriv contribution to polar:
 IMax=3 JMax=2 DiffMx= 0.00D+00
 Leave Link 1102 at Wed Mar  5 18:42:39 2025, MaxMem= 13421772800 cpu:               1.0 elap:               0.0
 (Enter /gpfs/fs1/soft/improv/software/custom-built/gaussian/g16/l1110.exe)
 Forming Gx(P) for the SCF density, NAtomX=    19.
 Integral derivatives from FoFJK, PRISM(SPDF).
 Do as many integral derivatives as possible in FoFJK.
 G2DrvN: MDV=   13421770631.
 G2DrvN: will do    20 centers at a time, making    1 passes.
 Calling FoFCou, ICntrl=  3107 FMM=F I1Cent=   0 AccDes= 0.00D+00.
 FoFJK:  IHMeth= 1 ICntrl=    3107 DoSepK=F KAlg= 0 I1Cent=           0 FoldK=F
 IRaf=         0 NMat=       1 IRICut=       1 DoRegI=T DoRafI=F ISym2E= 0 IDoP0=0 IntGTp=1.
 FoFCou: FMM=F IPFlag=           0 FMFlag=      100000 FMFlg1=           0
         NFxFlg=           0 DoJE=F BraDBF=F KetDBF=F FulRan=T
         wScrn=  0.000000 ICntrl=      3107 IOpCl=  1 I1Cent=           0 NGrid=           0
         NMat0=    1 NMatS0=      1 NMatT0=    0 NMatD0=    1 NMtDS0=    0 NMtDT0=    0
 Symmetry not used in FoFCou.
 End of G2Drv F.D. properties file   721 does not exist.
 End of G2Drv F.D. properties file   722 does not exist.
 End of G2Drv F.D. properties file   788 does not exist.
 Leave Link 1110 at Wed Mar  5 18:42:54 2025, MaxMem= 13421772800 cpu:            1874.3 elap:              15.0
 (Enter /gpfs/fs1/soft/improv/software/custom-built/gaussian/g16/l1002.exe)
 Minotr:  UHF open shell wavefunction.
          IDoAtm=1111111111111111111
          Direct CPHF calculation.
          Differentiating once with respect to electric field.
                with respect to dipole field.
          Differentiating once with respect to nuclear coordinates.
          Requested convergence is 1.0D-08 RMS, and 1.0D-07 maximum.
          Secondary convergence is 1.0D-12 RMS, and 1.0D-12 maximum.
          NewPWx=T KeepS1=F KeepF1=F KeepIn=T MapXYZ=F SortEE=F KeepMc=T.
         6034 words used for storage of precomputed grid.
 Two-electron integrals replicated using symmetry.
          MDV=   13421772800 using IRadAn=       1.
          Solving linear equations simultaneously, MaxMat=     384.
 FoF2E skips out because all densities are zero.
 CalDSu exits because no D1Ps are significant.
 FoFJK:  IHMeth= 1 ICntrl=       0 DoSepK=F KAlg= 0 I1Cent=           0 FoldK=F
 IRaf= 990000000 NMat=      57 IRICut=     142 DoRegI=T DoRafI=T ISym2E= 2 IDoP0=3 IntGTp=2.
 FoFCou: FMM=F IPFlag=           0 FMFlag=      100000 FMFlg1=           0
         NFxFlg=           0 DoJE=F BraDBF=F KetDBF=F FulRan=T
         wScrn=  0.000000 ICntrl=         0 IOpCl=  1 I1Cent=           0 NGrid=           0
         NMat0=   57 NMatS0=     57 NMatT0=    0 NMatD0=   57 NMtDS0=    0 NMtDT0=    0
 Integrals replicated using symmetry in FoFCou.
 Raff kept on since  98.39% of shell-pairs survive, threshold=   0.20 IRatSp=98.
          There are    60 degrees of freedom in the 1st order CPHF.  IDoFFX=6 NUNeed=     3.
     57 vectors produced by pass  0 Test12= 3.85D-14 1.67D-09 XBig12= 6.15D+01 1.41D+00.
 AX will form    57 AO Fock derivatives at one time.
     57 vectors produced by pass  1 Test12= 3.85D-14 1.67D-09 XBig12= 4.74D+00 2.89D-01.
     57 vectors produced by pass  2 Test12= 3.85D-14 1.67D-09 XBig12= 6.67D-02 3.85D-02.
     57 vectors produced by pass  3 Test12= 3.85D-14 1.67D-09 XBig12= 6.30D-04 2.64D-03.
     57 vectors produced by pass  4 Test12= 3.85D-14 1.67D-09 XBig12= 8.23D-06 3.00D-04.
     57 vectors produced by pass  5 Test12= 3.85D-14 1.67D-09 XBig12= 6.60D-08 2.29D-05.
     51 vectors produced by pass  6 Test12= 3.85D-14 1.67D-09 XBig12= 2.76D-10 2.16D-06.
     12 vectors produced by pass  7 Test12= 3.85D-14 1.67D-09 XBig12= 6.92D-13 7.75D-08.
      3 vectors produced by pass  8 Test12= 3.85D-14 1.67D-09 XBig12= 1.99D-15 3.52D-09.
 InvSVY:  IOpt=1 It=  1 EMax= 2.62D-15
 Solved reduced A of dimension   408 with    60 vectors.
 FullF1:  Do perturbations      1 to       3.
 Isotropic polarizability for W=    0.000000       53.55 Bohr**3.
 End of Minotr F.D. properties file   721 does not exist.
 End of Minotr F.D. properties file   722 does not exist.
 End of Minotr F.D. properties file   788 does not exist.
 Leave Link 1002 at Wed Mar  5 18:44:01 2025, MaxMem= 13421772800 cpu:            8042.9 elap:              66.5
 (Enter /gpfs/fs1/soft/improv/software/custom-built/gaussian/g16/l601.exe)
 Copying SCF densities to generalized density rwf, IOpCl= 1 IROHF=0.

 **********************************************************************

            Population analysis using the SCF Density.

 **********************************************************************

 Orbital symmetries:
 Alpha Orbitals:
       Occupied  (A) (A) (A) (A) (A) (A) (A) (A) (A) (A) (A) (A)
                 (A) (A) (A) (A) (A) (A) (A) (A) (A) (A) (A) (A)
                 (A) (A) (A) (A) (A) (A) (A) (A) (A) (A) (A) (A)
                 (A) (A) (A) (A) (A) (A) (A) (A)
       Virtual   (A) (A) (A) (A) (A) (A) (A) (A) (A) (A) (A) (A)
                 (A) (A) (A) (A) (A) (A) (A) (A) (A) (A) (A) (A)
                 (A) (A) (A) (A) (A) (A) (A) (A) (A) (A) (A) (A)
                 (A) (A) (A) (A) (A) (A) (A) (A) (A) (A) (A) (A)
                 (A) (A) (A) (A) (A) (A) (A) (A) (A) (A) (A) (A)
                 (A) (A) (A) (A) (A) (A) (A) (A) (A) (A) (A) (A)
                 (A) (A) (A) (A) (A) (A) (A) (A) (A) (A) (A) (A)
                 (A) (A) (A) (A) (A) (A) (A) (A) (A) (A) (A) (A)
                 (A) (A) (A) (A) (A) (A) (A) (A) (A) (A) (A) (A)
                 (A) (A) (A) (A) (A) (A) (A) (A) (A) (A) (A) (A)
                 (A) (A) (A) (A) (A) (A) (A) (A) (A) (A) (A) (A)
                 (A) (A) (A) (A) (A) (A) (A) (A) (A) (A) (A) (A)
                 (A) (A) (A) (A) (A) (A) (A) (A) (A) (A) (A) (A)
                 (A) (A) (A) (A) (A) (A) (A) (A) (A) (A) (A) (A)
                 (A) (A) (A) (A) (A) (A) (A) (A) (A) (A) (A) (A)
                 (A) (A) (A) (A) (A) (A) (A) (A) (A) (A) (A) (A)
                 (A) (A) (A) (A) (A) (A) (A) (A) (A) (A) (A) (A)
                 (A) (A) (A) (A) (A) (A) (A) (A) (A) (A) (A) (A)
                 (A) (A) (A) (A) (A) (A) (A) (A) (A) (A) (A) (A)
                 (A) (A) (A) (A) (A) (A) (A) (A) (A) (A) (A) (A)
                 (A) (A) (A) (A) (A) (A) (A) (A) (A) (A) (A) (A)
                 (A) (A) (A) (A) (A) (A) (A) (A) (A) (A) (A) (A)
                 (A) (A) (A) (A) (A) (A) (A) (A) (A)
 Beta  Orbitals:
       Occupied  (A) (A) (A) (A) (A) (A) (A) (A) (A) (A) (A) (A)
                 (A) (A) (A) (A) (A) (A) (A) (A) (A) (A) (A) (A)
                 (A) (A) (A) (A) (A) (A) (A) (A) (A) (A) (A) (A)
                 (A) (A) (A) (A)
       Virtual   (A) (A) (A) (A) (A) (A) (A) (A) (A) (A) (A) (A)
                 (A) (A) (A) (A) (A) (A) (A) (A) (A) (A) (A) (A)
                 (A) (A) (A) (A) (A) (A) (A) (A) (A) (A) (A) (A)
                 (A) (A) (A) (A) (A) (A) (A) (A) (A) (A) (A) (A)
                 (A) (A) (A) (A) (A) (A) (A) (A) (A) (A) (A) (A)
                 (A) (A) (A) (A) (A) (A) (A) (A) (A) (A) (A) (A)
                 (A) (A) (A) (A) (A) (A) (A) (A) (A) (A) (A) (A)
                 (A) (A) (A) (A) (A) (A) (A) (A) (A) (A) (A) (A)
                 (A) (A) (A) (A) (A) (A) (A) (A) (A) (A) (A) (A)
                 (A) (A) (A) (A) (A) (A) (A) (A) (A) (A) (A) (A)
                 (A) (A) (A) (A) (A) (A) (A) (A) (A) (A) (A) (A)
                 (A) (A) (A) (A) (A) (A) (A) (A) (A) (A) (A) (A)
                 (A) (A) (A) (A) (A) (A) (A) (A) (A) (A) (A) (A)
                 (A) (A) (A) (A) (A) (A) (A) (A) (A) (A) (A) (A)
                 (A) (A) (A) (A) (A) (A) (A) (A) (A) (A) (A) (A)
                 (A) (A) (A) (A) (A) (A) (A) (A) (A) (A) (A) (A)
                 (A) (A) (A) (A) (A) (A) (A) (A) (A) (A) (A) (A)
                 (A) (A) (A) (A) (A) (A) (A) (A) (A) (A) (A) (A)
                 (A) (A) (A) (A) (A) (A) (A) (A) (A) (A) (A) (A)
                 (A) (A) (A) (A) (A) (A) (A) (A) (A) (A) (A) (A)
                 (A) (A) (A) (A) (A) (A) (A) (A) (A) (A) (A) (A)
                 (A) (A) (A) (A) (A) (A) (A) (A) (A) (A) (A) (A)
                 (A) (A) (A) (A) (A) (A) (A) (A) (A) (A) (A) (A)
                 (A)
 The electronic state is 5-A.
 Alpha  occ. eigenvalues -- -256.45787 -30.38622 -26.24837 -26.23546 -26.21691
 Alpha  occ. eigenvalues --  -19.59054 -19.58796 -19.57829 -19.57398 -19.55110
 Alpha  occ. eigenvalues --  -19.54686  -3.85449  -2.66090  -2.63372  -2.59565
 Alpha  occ. eigenvalues --   -1.46839  -1.44418  -1.43828  -1.43265  -1.41089
 Alpha  occ. eigenvalues --   -1.40555  -0.98813  -0.97398  -0.95585  -0.94932
 Alpha  occ. eigenvalues --   -0.92924  -0.91667  -0.88108  -0.86832  -0.86224
 Alpha  occ. eigenvalues --   -0.82848  -0.82451  -0.79901  -0.79608  -0.76272
 Alpha  occ. eigenvalues --   -0.75068  -0.73630  -0.71906  -0.70659  -0.62888
 Alpha  occ. eigenvalues --   -0.61664  -0.58282  -0.50566  -0.49805
 Alpha virt. eigenvalues --   -0.37809  -0.32646  -0.30394  -0.29096  -0.25321
 Alpha virt. eigenvalues --   -0.24276  -0.23337  -0.23103  -0.20227  -0.18805
 Alpha virt. eigenvalues --   -0.18143  -0.17892  -0.16815  -0.15420  -0.14882
 Alpha virt. eigenvalues --   -0.14475  -0.13058  -0.12626  -0.12417  -0.11655
 Alpha virt. eigenvalues --   -0.09730  -0.09439  -0.07702  -0.07375  -0.06759
 Alpha virt. eigenvalues --   -0.06273  -0.04479  -0.03014  -0.02148  -0.01901
 Alpha virt. eigenvalues --   -0.01063  -0.00417   0.00642   0.01464   0.02762
 Alpha virt. eigenvalues --    0.04631   0.05469   0.06612   0.07088   0.08095
 Alpha virt. eigenvalues --    0.09129   0.09443   0.10015   0.11530   0.11643
 Alpha virt. eigenvalues --    0.15095   0.15403   0.19014   0.21215   0.26094
 Alpha virt. eigenvalues --    0.27850   0.28616   0.29302   0.42162   0.43540
 Alpha virt. eigenvalues --    0.45114   0.46850   0.48844   0.49895   0.51859
 Alpha virt. eigenvalues --    0.52719   0.53888   0.54140   0.54825   0.55217
 Alpha virt. eigenvalues --    0.57307   0.59691   0.60904   0.61314   0.62281
 Alpha virt. eigenvalues --    0.64273   0.65242   0.66164   0.67804   0.71792
 Alpha virt. eigenvalues --    0.72171   0.73594   0.73795   0.74936   0.74990
 Alpha virt. eigenvalues --    0.75867   0.78112   0.81046   0.81712   0.82506
 Alpha virt. eigenvalues --    0.83706   0.87873   0.89174   0.91879   0.94426
 Alpha virt. eigenvalues --    0.96369   0.98184   1.00003   1.01145   1.02511
 Alpha virt. eigenvalues --    1.03731   1.06913   1.08087   1.09780   1.11294
 Alpha virt. eigenvalues --    1.11756   1.13044   1.14681   1.30698   1.31369
 Alpha virt. eigenvalues --    1.39855   1.39954   1.42076   1.43018   1.47490
 Alpha virt. eigenvalues --    1.48194   1.49328   1.50049   1.53732   1.54599
 Alpha virt. eigenvalues --    1.58694   1.59220   1.61122   1.64191   1.66680
 Alpha virt. eigenvalues --    1.70763   1.76486   1.82516   1.89657   1.91514
 Alpha virt. eigenvalues --    1.93533   1.96611   1.96998   2.00352   2.05324
 Alpha virt. eigenvalues --    2.06344   2.06770   2.09293   2.09752   2.17474
 Alpha virt. eigenvalues --    2.21551   2.23072   2.27216   2.30514   2.33919
 Alpha virt. eigenvalues --    2.36815   2.37118   2.41843   2.46687   2.49222
 Alpha virt. eigenvalues --    2.50778   2.55623   2.58221   2.59920   2.60633
 Alpha virt. eigenvalues --    2.61616   2.62363   2.65023   2.65174   2.67800
 Alpha virt. eigenvalues --    2.68514   2.69408   2.72010   2.73651   2.74321
 Alpha virt. eigenvalues --    2.76101   2.76429   2.78194   2.80280   2.83633
 Alpha virt. eigenvalues --    2.88473   2.96506   2.99305   3.02638   3.04484
 Alpha virt. eigenvalues --    3.13091   3.36845   3.70699   3.72142   3.73996
 Alpha virt. eigenvalues --    3.77734   3.79344   3.84854   3.86032   3.87796
 Alpha virt. eigenvalues --    3.91135   3.92355   3.92653   3.93708   3.98471
 Alpha virt. eigenvalues --    3.99221   3.99918   4.00433   4.02130   4.05440
 Alpha virt. eigenvalues --    4.08047   4.08783   4.11004   4.12480   4.16094
 Alpha virt. eigenvalues --    4.17201   4.18958   4.19398   4.22600   4.24576
 Alpha virt. eigenvalues --    4.25567   4.30652   4.37595   4.40414   4.42314
 Alpha virt. eigenvalues --    4.44792   4.47956   4.49039   4.50592   4.51617
 Alpha virt. eigenvalues --    4.57651   4.63685   4.63762   4.65810   4.66831
 Alpha virt. eigenvalues --    4.68798   4.70984   4.75705   4.83647   4.89176
 Alpha virt. eigenvalues --    4.91241   4.91853   4.95138   4.98478   5.05229
 Alpha virt. eigenvalues --    5.07831   5.08952   5.10182   5.10736   5.12903
 Alpha virt. eigenvalues --    5.14163   5.14873   5.15909   5.17522   5.23067
 Alpha virt. eigenvalues --    5.23793   5.29658   5.31088   5.32648   5.34425
 Alpha virt. eigenvalues --    5.36696   5.40755   5.41834   5.43425   5.46921
 Alpha virt. eigenvalues --    5.48965   5.51097   5.53322   5.54708   5.56030
 Alpha virt. eigenvalues --    5.58461   5.59609   5.62057   5.62317   5.64760
 Alpha virt. eigenvalues --    5.68490   5.70265   5.83332   5.84486   6.25838
 Alpha virt. eigenvalues --    7.16980   7.19869   7.20906   7.28909   7.31828
 Alpha virt. eigenvalues --    7.46126  13.56284  13.58610  13.59433  14.14510
 Alpha virt. eigenvalues --   14.19946  14.25039  25.91637
  Beta  occ. eigenvalues -- -256.45683 -30.31101 -26.17752 -26.17187 -26.16330
  Beta  occ. eigenvalues --  -19.58817 -19.58557 -19.57598 -19.57183 -19.54844
  Beta  occ. eigenvalues --  -19.54422  -3.66835  -2.43722  -2.43516  -2.43055
  Beta  occ. eigenvalues --   -1.46343  -1.43914  -1.43300  -1.42763  -1.40518
  Beta  occ. eigenvalues --   -1.39968  -0.98522  -0.96892  -0.95311  -0.94583
  Beta  occ. eigenvalues --   -0.92596  -0.91368  -0.87087  -0.84314  -0.82742
  Beta  occ. eigenvalues --   -0.81539  -0.81073  -0.78363  -0.78109  -0.75083
  Beta  occ. eigenvalues --   -0.73563  -0.72185  -0.70568  -0.69666  -0.50427
  Beta virt. eigenvalues --   -0.37886  -0.35155  -0.33514  -0.32231  -0.30226
  Beta virt. eigenvalues --   -0.28995  -0.26151  -0.25445  -0.23836  -0.23070
  Beta virt. eigenvalues --   -0.21535  -0.20317  -0.19575  -0.18426  -0.17983
  Beta virt. eigenvalues --   -0.17696  -0.16599  -0.15283  -0.14713  -0.14255
  Beta virt. eigenvalues --   -0.12893  -0.12387  -0.12225  -0.11231  -0.09515
  Beta virt. eigenvalues --   -0.09273  -0.07391  -0.07217  -0.06546  -0.05976
  Beta virt. eigenvalues --   -0.04258  -0.02883  -0.01888  -0.01623  -0.00736
  Beta virt. eigenvalues --   -0.00161   0.00755   0.01648   0.02945   0.04800
  Beta virt. eigenvalues --    0.05753   0.06838   0.07536   0.08446   0.09738
  Beta virt. eigenvalues --    0.10050   0.10445   0.12230   0.12529   0.16255
  Beta virt. eigenvalues --    0.17048   0.20916   0.22328   0.27657   0.28610
  Beta virt. eigenvalues --    0.29034   0.29898   0.42405   0.43774   0.45427
  Beta virt. eigenvalues --    0.47367   0.49187   0.50126   0.52217   0.53361
  Beta virt. eigenvalues --    0.54213   0.54466   0.55303   0.55880   0.57518
  Beta virt. eigenvalues --    0.59981   0.61412   0.61908   0.62562   0.64498
  Beta virt. eigenvalues --    0.65490   0.66417   0.68035   0.72335   0.72600
  Beta virt. eigenvalues --    0.74007   0.74190   0.75220   0.75537   0.76242
  Beta virt. eigenvalues --    0.78611   0.81433   0.82106   0.82944   0.84057
  Beta virt. eigenvalues --    0.88458   0.89640   0.92745   0.95058   0.97221
  Beta virt. eigenvalues --    0.99051   1.01016   1.02189   1.03167   1.04435
  Beta virt. eigenvalues --    1.07347   1.09433   1.11186   1.12466   1.13442
  Beta virt. eigenvalues --    1.14293   1.16389   1.33736   1.34006   1.40775
  Beta virt. eigenvalues --    1.41712   1.43227   1.44289   1.49556   1.50224
  Beta virt. eigenvalues --    1.51472   1.52302   1.55564   1.56531   1.60649
  Beta virt. eigenvalues --    1.61677   1.64956   1.66237   1.69022   1.71413
  Beta virt. eigenvalues --    1.78247   1.83805   1.89953   1.91818   1.93991
  Beta virt. eigenvalues --    1.97073   1.97308   2.00809   2.05889   2.06920
  Beta virt. eigenvalues --    2.07634   2.09715   2.10204   2.18053   2.22720
  Beta virt. eigenvalues --    2.23429   2.27887   2.30960   2.35196   2.37598
  Beta virt. eigenvalues --    2.38402   2.42992   2.47892   2.50408   2.52056
  Beta virt. eigenvalues --    2.57179   2.59345   2.60776   2.62036   2.62856
  Beta virt. eigenvalues --    2.63089   2.65577   2.66093   2.68277   2.69393
  Beta virt. eigenvalues --    2.69964   2.72903   2.74309   2.76334   2.77514
  Beta virt. eigenvalues --    2.78458   2.79751   2.82278   2.84613   2.88929
  Beta virt. eigenvalues --    2.97604   2.99997   3.05624   3.07552   3.15477
  Beta virt. eigenvalues --    3.39275   3.72757   3.73566   3.75432   3.78427
  Beta virt. eigenvalues --    3.79895   3.85447   3.86726   3.88507   3.92130
  Beta virt. eigenvalues --    3.93501   3.94523   3.96680   4.00865   4.01361
  Beta virt. eigenvalues --    4.01701   4.03644   4.04070   4.06421   4.11795
  Beta virt. eigenvalues --    4.11979   4.13872   4.15707   4.17885   4.19855
  Beta virt. eigenvalues --    4.21188   4.22318   4.24430   4.25678   4.27323
  Beta virt. eigenvalues --    4.31740   4.44609   4.45479   4.46702   4.47391
  Beta virt. eigenvalues --    4.51748   4.52577   4.54636   4.55958   4.60084
  Beta virt. eigenvalues --    4.65656   4.66083   4.68179   4.70032   4.71931
  Beta virt. eigenvalues --    4.73373   4.80329   4.84857   4.91030   4.92283
  Beta virt. eigenvalues --    4.93288   4.96248   4.99788   5.06652   5.08313
  Beta virt. eigenvalues --    5.09334   5.10858   5.11110   5.13613   5.14694
  Beta virt. eigenvalues --    5.15884   5.18013   5.19833   5.25028   5.25658
  Beta virt. eigenvalues --    5.30982   5.32504   5.33805   5.36132   5.39302
  Beta virt. eigenvalues --    5.42788   5.43982   5.45063   5.48411   5.50532
  Beta virt. eigenvalues --    5.52348   5.54951   5.56102   5.57769   5.59644
  Beta virt. eigenvalues --    5.61125   5.63566   5.64075   5.65498   5.69088
  Beta virt. eigenvalues --    5.70892   5.84545   5.85601   6.28468   7.17589
  Beta virt. eigenvalues --    7.20467   7.21460   7.29381   7.32303   7.46457
  Beta virt. eigenvalues --   13.56556  13.58875  13.59694  14.14797  14.20245
  Beta virt. eigenvalues --   14.25321  25.98877
          Condensed to atoms (all electrons):
               1          2          3          4          5          6
     1  Fe  25.304308  -0.040421  -0.024534  -0.030919  -0.021341  -0.045443
     2  O   -0.040421   8.358746   0.320272  -0.078608   0.000117  -0.084690
     3  H   -0.024534   0.320272   0.290234   0.000753  -0.000016   0.004049
     4  O   -0.030919  -0.078608   0.000753   8.346460   0.314672  -0.080758
     5  H   -0.021341   0.000117  -0.000016   0.314672   0.316694   0.005963
     6  O   -0.045443  -0.084690   0.004049  -0.080758   0.005963   8.357052
     7  H   -0.026580   0.001045  -0.000001  -0.002273  -0.000351   0.311942
     8  O   -0.065106   0.065424  -0.001244  -0.087764   0.004738  -0.104984
     9  H   -0.019449  -0.001169  -0.000020   0.001197  -0.000099   0.001340
    10  O   -0.026446  -0.083257   0.003128   0.048231  -0.001579  -0.087259
    11  H   -0.022784   0.001938  -0.000719  -0.000750   0.000010  -0.000588
    12  O   -0.043372  -0.080687   0.005678  -0.073271   0.001587   0.066505
    13  H   -0.030653   0.003966  -0.000005   0.004879  -0.000068  -0.001162
    14  H   -0.014398   0.000855  -0.000162   0.001325  -0.000008  -0.001625
    15  H   -0.021855   0.001822  -0.000149   0.322822  -0.026916  -0.005196
    16  H   -0.019672   0.308277  -0.019567   0.003104  -0.000066   0.000385
    17  H   -0.025753   0.001030   0.000146  -0.001409  -0.000009   0.003872
    18  H   -0.025626   0.001013  -0.000077   0.008353  -0.001372   0.314801
    19  H   -0.025291  -0.001530   0.000021   0.000277   0.000423   0.006039
               7          8          9         10         11         12
     1  Fe  -0.026580  -0.065106  -0.019449  -0.026446  -0.022784  -0.043372
     2  O    0.001045   0.065424  -0.001169  -0.083257   0.001938  -0.080687
     3  H   -0.000001  -0.001244  -0.000020   0.003128  -0.000719   0.005678
     4  O   -0.002273  -0.087764   0.001197   0.048231  -0.000750  -0.073271
     5  H   -0.000351   0.004738  -0.000099  -0.001579   0.000010   0.001587
     6  O    0.311942  -0.104984   0.001340  -0.087259  -0.000588   0.066505
     7  H    0.344336   0.004383  -0.001263   0.002482  -0.000252  -0.001992
     8  O    0.004383   8.361620   0.315870  -0.047049  -0.005598  -0.079610
     9  H   -0.001263   0.315870   0.310411   0.001842   0.001779   0.000647
    10  O    0.002482  -0.047049   0.001842   8.340077   0.318798  -0.096744
    11  H   -0.000252  -0.005598   0.001779   0.318798   0.320515   0.001965
    12  O   -0.001992  -0.079610   0.000647  -0.096744   0.001965   8.360998
    13  H    0.000029   0.003797  -0.000135   0.001724  -0.000393   0.322234
    14  H   -0.000061  -0.000678   0.001572   0.001048   0.004095   0.302023
    15  H   -0.000025  -0.000496  -0.000011  -0.000828   0.000011   0.001862
    16  H   -0.000408  -0.001423   0.000020   0.002988   0.000078   0.000295
    17  H    0.001917   0.003082  -0.001837   0.319295  -0.029030   0.000569
    18  H   -0.027564   0.000997   0.000160   0.000610   0.000016  -0.001352
    19  H    0.007163   0.312253  -0.024138  -0.001817  -0.000086   0.001599
              13         14         15         16         17         18
     1  Fe  -0.030653  -0.014398  -0.021855  -0.019672  -0.025753  -0.025626
     2  O    0.003966   0.000855   0.001822   0.308277   0.001030   0.001013
     3  H   -0.000005  -0.000162  -0.000149  -0.019567   0.000146  -0.000077
     4  O    0.004879   0.001325   0.322822   0.003104  -0.001409   0.008353
     5  H   -0.000068  -0.000008  -0.026916  -0.000066  -0.000009  -0.001372
     6  O   -0.001162  -0.001625  -0.005196   0.000385   0.003872   0.314801
     7  H    0.000029  -0.000061  -0.000025  -0.000408   0.001917  -0.027564
     8  O    0.003797  -0.000678  -0.000496  -0.001423   0.003082   0.000997
     9  H   -0.000135   0.001572  -0.000011   0.000020  -0.001837   0.000160
    10  O    0.001724   0.001048  -0.000828   0.002988   0.319295   0.000610
    11  H   -0.000393   0.004095   0.000011   0.000078  -0.029030   0.000016
    12  O    0.322234   0.302023   0.001862   0.000295   0.000569  -0.001352
    13  H    0.291836  -0.022178  -0.000529  -0.000112  -0.000010  -0.000039
    14  H   -0.022178   0.343353   0.000043   0.000006  -0.000274   0.000030
    15  H   -0.000529   0.000043   0.305487   0.001132   0.000005   0.001774
    16  H   -0.000112   0.000006   0.001132   0.322800  -0.000081   0.000947
    17  H   -0.000010  -0.000274   0.000005  -0.000081   0.318803  -0.000265
    18  H   -0.000039   0.000030   0.001774   0.000947  -0.000265   0.318970
    19  H    0.000022  -0.000417  -0.000117  -0.000055   0.000078  -0.001847
              19
     1  Fe  -0.025291
     2  O   -0.001530
     3  H    0.000021
     4  O    0.000277
     5  H    0.000423
     6  O    0.006039
     7  H    0.007163
     8  O    0.312253
     9  H   -0.024138
    10  O   -0.001817
    11  H   -0.000086
    12  O    0.001599
    13  H    0.000022
    14  H   -0.000417
    15  H   -0.000117
    16  H   -0.000055
    17  H    0.000078
    18  H   -0.001847
    19  H    0.336350
          Atomic-Atomic Spin Densities.
               1          2          3          4          5          6
     1  Fe   4.126063  -0.073998   0.000524  -0.068721  -0.002606  -0.107680
     2  O   -0.073998   0.253716  -0.011762  -0.033486   0.000118  -0.038219
     3  H    0.000524  -0.011762   0.007281   0.000499   0.000012   0.002363
     4  O   -0.068721  -0.033486   0.000499   0.215071  -0.006491  -0.036615
     5  H   -0.002606   0.000118   0.000012  -0.006491   0.010820   0.003728
     6  O   -0.107680  -0.038219   0.002363  -0.036615   0.003728   0.275645
     7  H    0.009620   0.000842  -0.000061   0.002104  -0.000178  -0.015129
     8  O   -0.101603   0.045690  -0.001167  -0.038808   0.002445  -0.042414
     9  H    0.002684  -0.000880   0.000003   0.000775  -0.000138   0.000345
    10  O   -0.079697  -0.032100   0.002544   0.040448  -0.001052  -0.042638
    11  H    0.005027   0.000845   0.000195  -0.000737   0.000007   0.000832
    12  O   -0.077808  -0.055690   0.004299  -0.032029   0.001153   0.048908
    13  H    0.004219   0.002883  -0.000189   0.001226  -0.000139  -0.001110
    14  H    0.003855   0.001423   0.000014   0.001486  -0.000009  -0.000891
    15  H    0.001870   0.003689  -0.000049  -0.005230  -0.000800   0.000823
    16  H    0.001369  -0.005910   0.001389   0.000687  -0.000038   0.003068
    17  H   -0.000650   0.000780  -0.000233  -0.000797  -0.000004   0.001601
    18  H    0.007087   0.000662   0.000037   0.001670   0.000388  -0.011760
    19  H    0.006591  -0.001339   0.000004   0.002758   0.000150   0.004410
               7          8          9         10         11         12
     1  Fe   0.009620  -0.101603   0.002684  -0.079697   0.005027  -0.077808
     2  O    0.000842   0.045690  -0.000880  -0.032100   0.000845  -0.055690
     3  H   -0.000061  -0.001167   0.000003   0.002544   0.000195   0.004299
     4  O    0.002104  -0.038808   0.000775   0.040448  -0.000737  -0.032029
     5  H   -0.000178   0.002445  -0.000138  -0.001052   0.000007   0.001153
     6  O   -0.015129  -0.042414   0.000345  -0.042638   0.000832   0.048908
     7  H   -0.003350   0.003263   0.000400   0.002648   0.000121  -0.001404
     8  O    0.003263   0.264623  -0.009257  -0.030969   0.001292  -0.044480
     9  H    0.000400  -0.009257   0.006964   0.003581  -0.000769   0.000663
    10  O    0.002648  -0.030969   0.003581   0.231316  -0.006614  -0.038747
    11  H    0.000121   0.001292  -0.000769  -0.006614  -0.001810   0.003422
    12  O   -0.001404  -0.044480   0.000663  -0.038747   0.003422   0.270587
    13  H   -0.000001   0.002696   0.000046   0.000602   0.000027  -0.013259
    14  H    0.000027   0.003132  -0.000682   0.001284  -0.001403  -0.007817
    15  H    0.000110   0.000725   0.000001  -0.000640  -0.000001   0.000474
    16  H    0.000058  -0.000711   0.000001   0.001426  -0.000060   0.000811
    17  H   -0.000607   0.002531   0.000710  -0.004929   0.001044   0.000047
    18  H    0.004672   0.001246  -0.000084   0.000879  -0.000014  -0.000930
    19  H   -0.002023  -0.014163   0.002338   0.001117   0.000154   0.000916
              13         14         15         16         17         18
     1  Fe   0.004219   0.003855   0.001870   0.001369  -0.000650   0.007087
     2  O    0.002883   0.001423   0.003689  -0.005910   0.000780   0.000662
     3  H   -0.000189   0.000014  -0.000049   0.001389  -0.000233   0.000037
     4  O    0.001226   0.001486  -0.005230   0.000687  -0.000797   0.001670
     5  H   -0.000139  -0.000009  -0.000800  -0.000038  -0.000004   0.000388
     6  O   -0.001110  -0.000891   0.000823   0.003068   0.001601  -0.011760
     7  H   -0.000001   0.000027   0.000110   0.000058  -0.000607   0.004672
     8  O    0.002696   0.003132   0.000725  -0.000711   0.002531   0.001246
     9  H    0.000046  -0.000682   0.000001   0.000001   0.000710  -0.000084
    10  O    0.000602   0.001284  -0.000640   0.001426  -0.004929   0.000879
[...]
    14  H   -0.016068   0.307769  -0.000002  -0.000001  -0.000038   0.000000
    15  H   -0.000061  -0.000002   0.312398  -0.000040   0.000000  -0.000043
    16  H   -0.000001  -0.000001  -0.000040   0.308408  -0.000002  -0.000055
    17  H   -0.000000  -0.000038   0.000000  -0.000002   0.312402  -0.000002
    18  H    0.000001   0.000000  -0.000043  -0.000055  -0.000002   0.307790
    19  H   -0.000003  -0.000002  -0.000000   0.000000  -0.000045  -0.000038
              19
     1  Fe  -0.002188
     2  O   -0.000324
     3  H    0.000000
     4  O    0.000630
     5  H   -0.000047
     6  O    0.002273
     7  H   -0.000036
     8  O    0.297509
     9  H   -0.015903
    10  O    0.000653
    11  H   -0.000000
    12  O    0.000905
    13  H   -0.000003
    14  H   -0.000002
    15  H   -0.000000
    16  H    0.000000
    17  H   -0.000045
    18  H   -0.000038
    19  H    0.308177
          Atomic-Atomic Spin Densities.
               1          2          3          4          5          6
     1  Fe   4.085996  -0.040212   0.001719  -0.043108   0.002580  -0.048864
     2  O   -0.040212   0.094263  -0.003778  -0.008569   0.000180  -0.011132
     3  H    0.001719  -0.003778   0.002945   0.000318  -0.000001   0.000186
     4  O   -0.043108  -0.008569   0.000318   0.097842  -0.004725  -0.010327
     5  H    0.002580   0.000180  -0.000001  -0.004725   0.002364   0.000404
     6  O   -0.048864  -0.011132   0.000186  -0.010327   0.000404   0.113305
     7  H    0.002460   0.000494  -0.000002   0.000196  -0.000001  -0.004748
     8  O   -0.040218   0.007670  -0.000111  -0.008546   0.000509  -0.010632
     9  H    0.001583  -0.000111   0.000000   0.000354  -0.000017   0.000161
    10  O   -0.043721  -0.008584   0.000313   0.007911  -0.000108  -0.010354
    11  H    0.002637   0.000506  -0.000017  -0.000108   0.000000   0.000374
    12  O   -0.048867  -0.010660   0.000721  -0.010334   0.000383   0.009097
    13  H    0.002450   0.000349  -0.000016   0.000580  -0.000011  -0.000130
    14  H    0.002474   0.000348  -0.000017   0.000197  -0.000001  -0.000129
    15  H    0.002576   0.000517  -0.000016  -0.004739   0.000857   0.000380
    16  H    0.001590  -0.003873   0.000623   0.000368  -0.000001   0.000862
    17  H    0.002632   0.000183  -0.000001  -0.000108   0.000000   0.000414
    18  H    0.002469   0.000488  -0.000002   0.000577  -0.000034  -0.004735
    19  H    0.001724  -0.000111   0.000000   0.000317  -0.000017   0.000718
               7          8          9         10         11         12
     1  Fe   0.002460  -0.040218   0.001583  -0.043721   0.002637  -0.048867
     2  O    0.000494   0.007670  -0.000111  -0.008584   0.000506  -0.010660
     3  H   -0.000002  -0.000111   0.000000   0.000313  -0.000017   0.000721
     4  O    0.000196  -0.008546   0.000354   0.007911  -0.000108  -0.010334
     5  H   -0.000001   0.000509  -0.000017  -0.000108   0.000000   0.000383
     6  O   -0.004748  -0.010632   0.000161  -0.010354   0.000374   0.009097
     7  H    0.002163   0.000346  -0.000001   0.000579  -0.000010  -0.000129
     8  O    0.000346   0.094297  -0.003872  -0.008639   0.000184  -0.011130
     9  H   -0.000001  -0.003872   0.003200   0.000376  -0.000001   0.000864
    10  O    0.000579  -0.008639   0.000376   0.099189  -0.004779  -0.010310
    11  H   -0.000010   0.000184  -0.000001  -0.004779   0.002322   0.000406
    12  O   -0.000129  -0.011130   0.000864  -0.010310   0.000406   0.113306
    13  H    0.000000   0.000498  -0.000025   0.000194  -0.000001  -0.004734
    14  H    0.000000   0.000484  -0.000023   0.000575  -0.000034  -0.004745
    15  H   -0.000001   0.000179  -0.000001  -0.000108   0.000000   0.000411
    16  H   -0.000024  -0.000110   0.000000   0.000360  -0.000017   0.000161
    17  H   -0.000035   0.000517  -0.000019  -0.004790   0.000872   0.000368
    18  H    0.000850   0.000348  -0.000001   0.000196  -0.000001  -0.000130
    19  H   -0.000016  -0.003785   0.000623   0.000316  -0.000001   0.000186
              13         14         15         16         17         18
     1  Fe   0.002450   0.002474   0.002576   0.001590   0.002632   0.002469
     2  O    0.000349   0.000348   0.000517  -0.003873   0.000183   0.000488
     3  H   -0.000016  -0.000017  -0.000016   0.000623  -0.000001  -0.000002
     4  O    0.000580   0.000197  -0.004739   0.000368  -0.000108   0.000577
     5  H   -0.000011  -0.000001   0.000857  -0.000001   0.000000  -0.000034
     6  O   -0.000130  -0.000129   0.000380   0.000862   0.000414  -0.004735
     7  H    0.000000   0.000000  -0.000001  -0.000024  -0.000035   0.000850
     8  O    0.000498   0.000484   0.000179  -0.000110   0.000517   0.000348
     9  H   -0.000025  -0.000023  -0.000001   0.000000  -0.000019  -0.000001
    10  O    0.000194   0.000575  -0.000108   0.000360  -0.004790   0.000196
    11  H   -0.000001  -0.000034   0.000000  -0.000017   0.000872  -0.000001
    12  O   -0.004734  -0.004745   0.000411   0.000161   0.000368  -0.000130
    13  H    0.002129   0.000850  -0.000034  -0.000001  -0.000001   0.000000
    14  H    0.000850   0.002159  -0.000001  -0.000001  -0.000010   0.000000
    15  H   -0.000034  -0.000001   0.002370  -0.000019   0.000000  -0.000011
    16  H   -0.000001  -0.000001  -0.000019   0.003202  -0.000001  -0.000023
    17  H   -0.000001  -0.000010   0.000000  -0.000001   0.002303  -0.000001
    18  H    0.000000   0.000000  -0.000011  -0.000023  -0.000001   0.002128
    19  H   -0.000002  -0.000002  -0.000001   0.000000  -0.000016  -0.000017
              19
     1  Fe   0.001724
     2  O   -0.000111
     3  H    0.000000
     4  O    0.000317
     5  H   -0.000017
     6  O    0.000718
     7  H   -0.000016
     8  O   -0.003785
     9  H    0.000623
    10  O    0.000316
    11  H   -0.000001
    12  O    0.000186
    13  H   -0.000002
    14  H   -0.000002
    15  H   -0.000001
    16  H    0.000000
    17  H   -0.000016
    18  H   -0.000017
    19  H    0.002953
 Mulliken charges and spin densities:
               1          2
     1  Fe   1.180313   3.847900
     2  O   -0.679981   0.017968
     3  H    0.408401   0.002863
     4  O   -0.677310   0.018097
     5  H    0.405066   0.002360
     6  O   -0.680184   0.024850
     7  H    0.409724   0.002120
     8  O   -0.680067   0.017989
     9  H    0.408976   0.003091
    10  O   -0.675943   0.018616
    11  H    0.405105   0.002330
    12  O   -0.680252   0.024863
    13  H    0.409608   0.002095
    14  H    0.409711   0.002125
    15  H    0.404949   0.002359
    16  H    0.408911   0.003094
    17  H    0.404905   0.002307
    18  H    0.409629   0.002103
    19  H    0.408439   0.002870
 Sum of Mulliken charges =   2.00000   4.00000
 Mulliken charges and spin densities with hydrogens summed into heavy atoms:
               1          2
     1  Fe   1.180313   3.847900
     2  O    0.137331   0.023925
     4  O    0.132705   0.022817
     6  O    0.139169   0.029073
     8  O    0.137348   0.023950
    10  O    0.134066   0.023252
    12  O    0.139067   0.029083
 Electronic spatial extent (au):  <R**2>=           1169.4012
 Charge=              2.0000 electrons
 Dipole moment (field-independent basis, Debye):
    X=             -0.0121    Y=              0.0199    Z=              0.0077  Tot=              0.0245
 Quadrupole moment (field-independent basis, Debye-Ang):
   XX=            -16.1603   YY=            -16.0536   ZZ=            -15.4514
   XY=              0.2096   XZ=              0.0422   YZ=              0.1369
 Traceless Quadrupole moment (field-independent basis, Debye-Ang):
   XX=             -0.2719   YY=             -0.1651   ZZ=              0.4370
   XY=              0.2096   XZ=              0.0422   YZ=              0.1369
 Octapole moment (field-independent basis, Debye-Ang**2):
  XXX=              0.0230  YYY=              0.0793  ZZZ=             -0.0253  XYY=             -0.0781
  XXY=              0.0825  XXZ=              0.0512  XZZ=             -0.1236  YZZ=              0.0934
  YYZ=              0.0607  XYZ=             -0.0372
 Hexadecapole moment (field-independent basis, Debye-Ang**3):
 XXXX=           -241.8692 YYYY=           -271.9489 ZZZZ=           -210.0264 XXXY=            -49.8768
 XXXZ=             -9.1100 YYYX=             13.6892 YYYZ=            -17.3328 ZZZX=             18.5131
 ZZZY=             29.2385 XXYY=            -34.5222 XXZZ=            -75.0113 YYZZ=            -44.7320
 XXYZ=            -13.0846 YYXZ=            -10.4719 ZZXY=             35.8800
 N-N= 6.538594295385D+02 E-N=-5.368830623671D+03  KE= 1.717019820598D+03
                          Isotropic Fermi Contact Couplings
        Atom                 a.u.       MegaHertz       Gauss      10(-4) cm-1
     1  Fe(57)             0.35305      12.80143       4.56787       4.27010
     2  O(17)              0.09043     -13.70508      -4.89031      -4.57152
     3  H(1)               0.00140       1.56515       0.55848       0.52208
     4  O(17)              0.09006     -13.64782      -4.86988      -4.55242
     5  H(1)               0.00089       0.99523       0.35512       0.33197
     6  O(17)              0.09373     -14.20453      -5.06853      -4.73812
     7  H(1)               0.00079       0.88624       0.31623       0.29562
     8  O(17)              0.09044     -13.70630      -4.89075      -4.57193
     9  H(1)               0.00146       1.63489       0.58337       0.54534
    10  O(17)              0.09052     -13.71749      -4.89474      -4.57566
    11  H(1)               0.00086       0.96436       0.34411       0.32168
    12  O(17)              0.09373     -14.20503      -5.06871      -4.73829
    13  H(1)               0.00078       0.86798       0.30972       0.28953
    14  H(1)               0.00080       0.89090       0.31789       0.29717
    15  H(1)               0.00089       0.99137       0.35374       0.33068
    16  H(1)               0.00147       1.63962       0.58506       0.54692
    17  H(1)               0.00085       0.94454       0.33704       0.31506
    18  H(1)               0.00078       0.87356       0.31171       0.29139
    19  H(1)               0.00140       1.56974       0.56012       0.52361
 --------------------------------------------------------
       Center         ----  Spin Dipole Couplings  ----
                      3XX-RR        3YY-RR        3ZZ-RR
 --------------------------------------------------------
     1   Atom       -0.010001      1.296472     -1.286471
     2   Atom       -0.007554      0.033602     -0.026047
     3   Atom       -0.015953     -0.006139      0.022091
     4   Atom        0.081186      0.004109     -0.085295
     5   Atom        0.007651      0.012667     -0.020318
     6   Atom       -0.075543     -0.024961      0.100504
     7   Atom       -0.025959      0.005404      0.020556
     8   Atom       -0.009457      0.035687     -0.026230
     9   Atom       -0.002307      0.021908     -0.019601
    10   Atom        0.081749      0.004862     -0.086610
    11   Atom        0.007951      0.011992     -0.019943
    12   Atom       -0.076663     -0.023843      0.100506
    13   Atom       -0.026013      0.005393      0.020620
    14   Atom       -0.002188     -0.021490      0.023678
    15   Atom        0.036924     -0.014711     -0.022213
    16   Atom       -0.002725      0.022290     -0.019565
    17   Atom        0.036330     -0.014498     -0.021832
    18   Atom       -0.002004     -0.021713      0.023717
    19   Atom       -0.016260     -0.005803      0.022063
 --------------------------------------------------------
                        XY            XZ            YZ
 --------------------------------------------------------
     1   Atom        1.825997      0.114553      0.353457
     2   Atom        0.065771     -0.069832     -0.097437
     3   Atom        0.016413     -0.022435     -0.029731
     4   Atom       -0.103839      0.018707      0.013663
     5   Atom       -0.035401      0.011171     -0.014771
     6   Atom        0.065392      0.037444      0.067101
     7   Atom       -0.000714      0.001870      0.039761
     8   Atom        0.065112     -0.069624     -0.097555
     9   Atom        0.036281     -0.010689     -0.014849
    10   Atom       -0.102429      0.019597      0.014403
    11   Atom       -0.035420      0.011673     -0.015093
    12   Atom        0.064940      0.036718      0.067585
    13   Atom       -0.001008      0.001526      0.039889
    14   Atom        0.009822      0.035042      0.017526
    15   Atom       -0.025843     -0.014009      0.003786
    16   Atom        0.036109     -0.010730     -0.014878
    17   Atom       -0.026271     -0.014599      0.004194
    18   Atom        0.009673      0.035285      0.017271
    19   Atom        0.016322     -0.022063     -0.029998
 --------------------------------------------------------


 ---------------------------------------------------------------------------------
              Anisotropic Spin Dipole Couplings in Principal Axis System
 ---------------------------------------------------------------------------------

       Atom             a.u.   MegaHertz   Gauss  10(-4) cm-1        Axes

              Baa    -1.4174   -24.540    -8.757    -8.186  0.5097 -0.4393  0.7397
     1 Fe(57) Bbb    -1.1974   -20.731    -7.397    -6.915 -0.6432  0.3764  0.6668
              Bcc     2.6149    45.271    16.154    15.101  0.5714  0.8157  0.0907
 
              Baa    -0.1036     7.493     2.674     2.499  0.3010  0.4521  0.8396
     2 O(17)  Bbb    -0.0559     4.042     1.442     1.348  0.8154 -0.5785  0.0192
              Bcc     0.1594   -11.535    -4.116    -3.848  0.4944  0.6789 -0.5428
 
              Baa    -0.0282   -15.037    -5.365    -5.016  0.8171 -0.5760  0.0240
     3 H(1)   Bbb    -0.0240   -12.806    -4.570    -4.272  0.4360  0.6446  0.6280
              Bcc     0.0522    27.843     9.935     9.287 -0.3772 -0.5027  0.7778
 
              Baa    -0.1004     7.264     2.592     2.423 -0.3408 -0.4468  0.8272
     4 O(17)  Bbb    -0.0533     3.854     1.375     1.286  0.4557  0.6911  0.5610
              Bcc     0.1536   -11.118    -3.967    -3.709  0.8223 -0.5681  0.0319
 
              Baa    -0.0271   -14.439    -5.152    -4.816  0.4178  0.6194  0.6647
     5 H(1)   Bbb    -0.0234   -12.478    -4.452    -4.162 -0.6296 -0.3301  0.7033
              Bcc     0.0504    26.917     9.605     8.978 -0.6550  0.7123 -0.2521
 
              Baa    -0.1206     8.730     3.115     2.912  0.8119 -0.5824  0.0392
     6 O(17)  Bbb    -0.0262     1.894     0.676     0.632  0.5159  0.6845 -0.5151
              Bcc     0.1468   -10.623    -3.791    -3.543  0.2731  0.4385  0.8562
 
              Baa    -0.0286   -15.279    -5.452    -5.097  0.5473  0.6406 -0.5386
     7 H(1)   Bbb    -0.0248   -13.249    -4.728    -4.419  0.8369 -0.4284  0.3408
              Bcc     0.0535    28.528    10.180     9.516  0.0124  0.6373  0.7706
 
              Baa    -0.1036     7.497     2.675     2.501  0.3168  0.4403  0.8401
     8 O(17)  Bbb    -0.0558     4.038     1.441     1.347  0.8137 -0.5813 -0.0021
              Bcc     0.1594   -11.535    -4.116    -3.848  0.4875  0.6842 -0.5424
 
              Baa    -0.0284   -15.178    -5.416    -5.063  0.8111 -0.5849 -0.0018
     9 H(1)   Bbb    -0.0242   -12.929    -4.613    -4.313  0.1449  0.1980  0.9694
              Bcc     0.0527    28.107    10.029     9.376  0.5667  0.7865 -0.2454
 
              Baa    -0.1017     7.360     2.626     2.455 -0.3303 -0.4310  0.8397
    10 O(17)  Bbb    -0.0513     3.709     1.324     1.237  0.4612  0.7026  0.5420
              Bcc     0.1530   -11.069    -3.950    -3.692  0.8235 -0.5663  0.0333
 
              Baa    -0.0271   -14.465    -5.161    -4.825  0.4299  0.6366  0.6403
    11 H(1)   Bbb    -0.0235   -12.514    -4.465    -4.174 -0.6179 -0.3097  0.7227
              Bcc     0.0506    26.979     9.627     8.999 -0.6583  0.7063 -0.2602
 
              Baa    -0.1207     8.730     3.115     2.912  0.8165 -0.5759  0.0404
    12 O(17)  Bbb    -0.0262     1.897     0.677     0.633  0.5110  0.6882 -0.5151
              Bcc     0.1469   -10.627    -3.792    -3.545  0.2688  0.4412  0.8562
 
              Baa    -0.0287   -15.329    -5.470    -5.113  0.5417  0.6455 -0.5385
    13 H(1)   Bbb    -0.0249   -13.280    -4.738    -4.430  0.8405 -0.4211  0.3409
              Bcc     0.0536    28.609    10.208     9.543  0.0067  0.6373  0.7706
 
              Baa    -0.0286   -15.269    -5.448    -5.093  0.4585  0.7035 -0.5430
    14 H(1)   Bbb    -0.0248   -13.242    -4.725    -4.417  0.7002 -0.6622 -0.2666
              Bcc     0.0534    28.511    10.173     9.510  0.5472  0.2580  0.7963
 
              Baa    -0.0271   -14.451    -5.156    -4.820  0.4011  0.6361  0.6592
    15 H(1)   Bbb    -0.0234   -12.487    -4.456    -4.165 -0.1211 -0.6765  0.7264
              Bcc     0.0505    26.937     9.612     8.985  0.9080 -0.3712 -0.1943
 
              Baa    -0.0284   -15.171    -5.414    -5.061  0.8179 -0.5748  0.0252
    16 H(1)   Bbb    -0.0242   -12.923    -4.611    -4.311  0.1216  0.2155  0.9689
              Bcc     0.0527    28.094    10.025     9.371  0.5624  0.7894 -0.2462
 
              Baa    -0.0271   -14.477    -5.166    -4.829  0.4167  0.6585  0.6267
    17 H(1)   Bbb    -0.0235   -12.525    -4.469    -4.178 -0.1024 -0.6510  0.7521
              Bcc     0.0506    27.002     9.635     9.007  0.9032 -0.3776 -0.2039
 
              Baa    -0.0287   -15.313    -5.464    -5.108  0.4643  0.6997 -0.5431
    18 H(1)   Bbb    -0.0249   -13.269    -4.735    -4.426  0.6946 -0.6681 -0.2669
              Bcc     0.0536    28.582    10.199     9.534  0.5496  0.2533  0.7961
 
              Baa    -0.0282   -15.031    -5.364    -5.014  0.8167 -0.5769  0.0142
    19 H(1)   Bbb    -0.0240   -12.803    -4.568    -4.271  0.4414  0.6404  0.6285
              Bcc     0.0522    27.834     9.932     9.285 -0.3717 -0.5071  0.7777
 

 ---------------------------------------------------------------------------------

 No NMR shielding tensors so no spin-rotation constants.
 Leave Link  601 at Wed Mar  5 20:53:15 2025, MaxMem= 13421772800 cpu:              29.6 elap:               0.4
 (Enter /gpfs/fs1/soft/improv/software/custom-built/gaussian/g16/l9999.exe)

 Test job not archived.
 1\1\GINC-I289\SP\UX3LYP\Gen\Fe1H12O6(2+,5)\HHARB\05-Mar-2025\0\\#p X3L
 YP scrf=(cpcm,solvent=water) geom=allcheck guess=read chkbasis IOp(3/1
 74=1000000) IOp(3/175=299000) IOp(3/176=1000000)\\Title\\2,5\Fe,-0.787
 657008,0.7119844627,0.0317973982\O,-1.3416526753,2.7681799479,-0.27028
 63789\H,-1.4585692894,3.2084618282,-1.1233746695\O,1.3021274505,1.2872
 012362,0.0537921495\H,2.0477219229,0.7371446832,0.3308652765\O,-0.8999
 34676,1.0463021212,2.1279805767\H,-1.6895177764,0.96508262,2.681346024
 7\O,-0.2246088971,-1.3417506684,0.333020364\H,-0.0643868484,-2.0018138
 343,-0.3558020022\O,-2.8745447148,0.136765894,0.0087613231\H,-3.618019
 0292,0.6782195055,-0.2921738032\O,-0.6685170188,0.3805189093,-2.064342
 6916\H,0.1241766777,0.4700820585,-2.6117553336\H,-1.3818916636,0.06820
 71164,-2.6384231894\H,1.6668462128,2.1410431599,-0.2165708469\H,-1.522
 0791984,3.4236042456,0.4175623027\H,-3.2424534588,-0.7061598646,0.3098
 368319\H,-0.1797049353,1.3536964956,2.6962063898\H,-0.0988526444,-1.78
 06901471,1.1856056883\\Version=ES64L-G16RevC.02\State=5-A\HF=-1721.854
 3588\S2=6.004466\S2-1=0.\S2A=6.000005\RMSD=9.194e-09\Dipole=-0.0085637
 ,-0.0002412,0.0044513\Quadrupole=-0.3149128,-0.0315146,0.3464273,-0.05
 57661,0.0057387,-0.0560719\PG=C01 [X(Fe1H12O6)]\\@


 IT IS NOT EASY TO DESCRIBE
     THE SEA WITH THE MOUTH

                   -- KOKYU
 Job cpu time:       0 days  1 hours 24 minutes 52.6 seconds.
 Elapsed time:       0 days  0 hours  0 minutes 45.5 seconds.
 File lengths (MBytes):  RWF=    121 Int=      0 D2E=      0 Chk=    268 Scr=      1
 Normal termination of Gaussian 16 at Wed Mar  5 20:53:15 2025.
