 Entering Gaussian System, Link 0=g16
 Input=Fe_2_n12.com
 Output=Fe_2_n12.log
 Initial command:
 /gpfs/fs1/soft/improv/software/custom-built/gaussian/g16/l1.exe "/scratch/Gau-3741110.inp" -scrdir="/scratch/"
 Default CPUs for threads: 0-127
 Default linda workers: i802.lcrc.anl.gov
 Default is to use 128 SMP processors on each worker.
 Entering Link 1 = /gpfs/fs1/soft/improv/software/custom-built/gaussian/g16/l1.exe PID=   3741111.
  
 Copyright (c) 1988-2021, Gaussian, Inc.  All Rights Reserved.
  
 This is part of the Gaussian(R) 16 program.  It is based on
 the Gaussian(R) 09 system (copyright 2009, Gaussian, Inc.),
 the Gaussian(R) 03 system (copyright 2003, Gaussian, Inc.),
 the Gaussian(R) 98 system (copyright 1998, Gaussian, Inc.),
 the Gaussian(R) 94 system (copyright 1995, Gaussian, Inc.),
 the Gaussian 92(TM) system (copyright 1992, Gaussian, Inc.),
 the Gaussian 90(TM) system (copyright 1990, Gaussian, Inc.),
 the Gaussian 88(TM) system (copyright 1988, Gaussian, Inc.),
 the Gaussian 86(TM) system (copyright 1986, Carnegie Mellon
 University), and the Gaussian 82(TM) system (copyright 1983,
 Carnegie Mellon University). Gaussian is a federally registered
 trademark of Gaussian, Inc.
  
 This software contains proprietary and confidential information,
 including trade secrets, belonging to Gaussian, Inc.
  
 This software is provided under written license and may be
 used, copied, transmitted, or stored only in accord with that
 written license.
  
 The following legend is applicable only to US Government
 contracts under FAR:
  
                    RESTRICTED RIGHTS LEGEND
  
 Use, reproduction and disclosure by the US Government is
 subject to restrictions as set forth in subparagraphs (a)
 and (c) of the Commercial Computer Software - Restricted
 Rights clause in FAR 52.227-19.
  
 Gaussian, Inc.
 340 Quinnipiac St., Bldg. 40, Wallingford CT 06492
  
  
 ---------------------------------------------------------------
 Warning -- This program may not be used in any manner that
 competes with the business of Gaussian, Inc. or will provide
 assistance to any competitor of Gaussian, Inc.  The licensee
 of this program is prohibited from giving any competitor of
 Gaussian, Inc. access to this program.  By using this program,
 the user acknowledges that Gaussian, Inc. is engaged in the
 business of creating and licensing software in the field of
 computational chemistry and represents and warrants to the
 licensee that it is not a competitor of Gaussian, Inc. and that
 it will not use this program in any manner prohibited above.
 ---------------------------------------------------------------
  

 Cite this work as:
 Gaussian 16, Revision C.02,
 M. J. Frisch, G. W. Trucks, H. B. Schlegel, G. E. Scuseria, 
 M. A. Robb, J. R. Cheeseman, G. Scalmani, V. Barone, 
 G. A. Petersson, H. Nakatsuji, X. Li, M. Caricato, A. V. Marenich, 
 J. Bloino, B. G. Janesko, R. Gomperts, B. Mennucci, H. P. Hratchian, 
 J. V. Ortiz, A. F. Izmaylov, J. L. Sonnenberg, D. Williams-Young, 
 F. Ding, F. Lipparini, F. Egidi, J. Goings, B. Peng, A. Petrone, 
 T. Henderson, D. Ranasinghe, V. G. Zakrzewski, J. Gao, N. Rega, 
 G. Zheng, W. Liang, M. Hada, M. Ehara, K. Toyota, R. Fukuda, 
 J. Hasegawa, M. Ishida, T. Nakajima, Y. Honda, O. Kitao, H. Nakai, 
 T. Vreven, K. Throssell, J. A. Montgomery, Jr., J. E. Peralta, 
 F. Ogliaro, M. J. Bearpark, J. J. Heyd, E. N. Brothers, K. N. Kudin, 
 V. N. Staroverov, T. A. Keith, R. Kobayashi, J. Normand, 
 K. Raghavachari, A. P. Rendell, J. C. Burant, S. S. Iyengar, 
 J. Tomasi, M. Cossi, J. M. Millam, M. Klene, C. Adamo, R. Cammi, 
 J. W. Ochterski, R. L. Martin, K. Morokuma, O. Farkas, 
 J. B. Foresman, and D. J. Fox, Gaussian, Inc., Wallingford CT, 2019.
 
 ******************************************
 Gaussian 16:  ES64L-G16RevC.02  7-Dec-2021
                 5-Mar-2025 
 ******************************************
 %chk=Fe_2_n12.chk
 SetSPE:  set environment variable "OMP_PROC_BIND" = "true"
 SetSPE:  set environment variable "OMP_PLACES" = "{0},{1},{2},{3},{4},{5},{6},{7},{8},{9},{10},{11},{12},{13},{14},{15},{16},{17},{18},{19},{20},{21},{22},{23},{24},{25},{26},{27},{28},{29},{30},{31},{32},{33},{34},{35},{36},{37},{38},{39},{40},{41},{42},{43},{44},{45},{46},{47},{48},{49},{50},{51},{52},{53},{54},{55},{56},{57},{58},{59},{60},{61},{62},{63},{64},{65},{66},{67},{68},{69},{70},{71},{72},{73},{74},{75},{76},{77},{78},{79},{80},{81},{82},{83},{84},{85},{86},{87},{88},{89},{90},{91},{92},{93},{94},{95},{96},{97},{98},{99},{100},{101},{102},{103},{104},{105},{106},{107},{108},{109},{110},{111},{112},{113},{114},{115},{116},{117},{118},{119},{120},{121},{122},{123},{124},{125},{126},{127}"
 SetLPE:    new flags="-opt 'Tsnet.Node.lindarsharg: ssh'  -nodelist 'i802.lcrc.anl.gov' -env GAUSS_MDEF=13421772800 -env GAUSS_EXEDIR="/gpfs/fs1/soft/improv/software/custom-built/gaussian/g16/bsd:/gpfs/fs1/soft/improv/software/custom-built/gaussian/g16" -env "OMP_PROC_BIND=true" -env "OMP_PLACES={0},{1},{2},{3},{4},{5},{6},{7},{8},{9},{10},{11},{12},{13},{14},{15},{16},{17},{18},{19},{20},{21},{22},{23},{24},{25},{26},{27},{28},{29},{30},{31},{32},{33},{34},{35},{36},{37},{38},{39},{40},{41},{42},{43},{44},{45},{46},{47},{48},{49},{50},{51},{52},{53},{54},{55},{56},{57},{58},{59},{60},{61},{62},{63},{64},{65},{66},{67},{68},{69},{70},{71},{72},{73},{74},{75},{76},{77},{78},{79},{80},{81},{82},{83},{84},{85},{86},{87},{88},{89},{90},{91},{92},{93},{94},{95},{96},{97},{98},{99},{100},{101},{102},{103},{104},{105},{106},{107},{108},{109},{110},{111},{112},{113},{114},{115},{116},{117},{118},{119},{120},{121},{122},{123},{124},{125},{126},{127}" -env GAUSS_ADEF="0,1,2,3,4,5,6,7,8,9,10,11,12,13,14,15,16,17,18,19,20,21,22,23,24,25,26,27,28,29,30,31,32,33,34,35,36,37,38,39,40,41,42,43,44,45,46,47,48,49,50,51,52,53,54,55,56,57,58,59,60,61,62,63,64,65,66,67,68,69,70,71,72,73,74,75,76,77,78,79,80,81,82,83,84,85,86,87,88,89,90,91,92,93,94,95,96,97,98,99,100,101,102,103,104,105,106,107,108,109,110,111,112,113,114,115,116,117,118,119,120,121,122,123,124,125,126,127""
 Will use up to    1 processors via Linda.
 ----------------------------------------------------------------------
 #p n12 6-31+G(2df,p) opt=(cartesian,calcall,maxcycles=500) freq scf=(m
 axcycles=500,xqc,maxconventional=50) IOp(3/174=1000000) IOp(3/175=2391
 600) IOp(3/176=1349300)
 ----------------------------------------------------------------------
 1/6=500,10=4,18=10,26=3,38=1/1,3;
 2/12=2,17=6,18=5,29=2,40=1/2;
 3/5=1,6=6,7=114,11=2,25=1,30=1,71=2,74=-67,140=1,174=1000000,175=2391600,176=1349300/1,2,3;
 4//1;
 5/5=2,7=500,8=3,13=1,38=5,85=50/2,8;
 8/6=4,10=90,11=11/1;
 11/6=1,8=1,9=11,15=111,16=1/1,2,10;
 10/6=1/2;
 6/7=2,8=2,9=2,10=2,18=1,28=1/1;
 7/7=1,10=1,25=1/1,2,3,16;
 1/6=500,10=4,18=10,26=3/3(3);
 2/29=1/2;
 7/7=1,8=1,9=1,25=1,44=-1/16;
 99/12=1/99;
 2/29=1/2;
 3/5=1,6=6,7=114,11=2,25=1,30=1,71=2,74=-67,140=1,174=1000000,175=2391600,176=1349300/1,2,3;
 4/5=5,16=3,69=1/1;
 5/5=2,7=500,8=3,13=1,38=5,85=50/2,8;
 8/6=4,10=90,11=11/1;
 11/6=1,8=1,9=11,15=111,16=1/1,2,10;
 10/6=1/2;
 7/7=1,10=1,25=1/1,2,3,16;
 1/6=500,10=4,18=10,26=3/3(-8);
 2/29=1/2;
 6/7=2,8=2,9=2,10=2,18=1,19=2,28=1/1;
 7/7=1,8=1,9=1,25=1,44=-1/16;
 99/12=1/99;
 Leave Link    1 at Wed Mar  5 18:41:49 2025, MaxMem=           0 cpu:               3.1 elap:               0.1
 (Enter /gpfs/fs1/soft/improv/software/custom-built/gaussian/g16/l101.exe)
 -----
 Title
 -----
 Symbolic Z-matrix:
 Charge =  2 Multiplicity = 5
 Fe                   -0.79304   0.81881  -0.09491 
 O                    -1.20497   2.57394  -0.35687 
 H                    -2.12106   2.64974  -0.63312 
 O                     0.99012   1.19063  -0.05794 
 H                     1.42696   0.5998    0.55971 
 O                    -0.81752   1.03069   1.71365 
 H                    -1.02108   0.1906    2.13133 
 O                    -0.38507  -0.93351   0.17118 
 H                    -1.15682  -1.47369  -0.01433 
 O                    -2.57341   0.45178  -0.12186 
 H                    -2.77756  -0.08744  -0.88929 
 O                    -0.76966   0.60461  -1.90111 
 H                     0.09872   0.83457  -2.23949 
 H                    -0.96534  -0.30999  -2.11742 
 H                     1.12208   2.09943   0.22124 
 H                    -1.07671   3.0584    0.46184 
 H                    -2.81407  -0.02398   0.6765 
 H                     0.0422    1.33615   2.01181 
 H                    -0.11532  -1.06446   1.08312 
 
 ITRead=  0  0  0  0  0  0  0  0  0  0  0  0  0  0  0  0  0  0  0
 MicOpt= -1 -1 -1 -1 -1 -1 -1 -1 -1 -1 -1 -1 -1 -1 -1 -1 -1 -1 -1
 NAtoms=     19 NQM=       19 NQMF=       0 NMMI=      0 NMMIF=      0
                NMic=       0 NMicF=      0.
                    Isotopes and Nuclear Properties:
 (Nuclear quadrupole moments (NQMom) in fm**2, nuclear magnetic moments (NMagM)
  in nuclear magnetons)

  Atom         1           2           3           4           5           6           7           8           9          10
 IAtWgt=          56          16           1          16           1          16           1          16           1          16
 AtmWgt=  55.9349393  15.9949146   1.0078250  15.9949146   1.0078250  15.9949146   1.0078250  15.9949146   1.0078250  15.9949146
 NucSpn=           0           0           1           0           1           0           1           0           1           0
 AtZEff=  -0.0000000  -0.0000000  -0.0000000  -0.0000000  -0.0000000  -0.0000000  -0.0000000  -0.0000000  -0.0000000  -0.0000000
 NQMom=    0.0000000   0.0000000   0.0000000   0.0000000   0.0000000   0.0000000   0.0000000   0.0000000   0.0000000   0.0000000
 NMagM=    0.0000000   0.0000000   2.7928460   0.0000000   2.7928460   0.0000000   2.7928460   0.0000000   2.7928460   0.0000000
 AtZNuc=  26.0000000   8.0000000   1.0000000   8.0000000   1.0000000   8.0000000   1.0000000   8.0000000   1.0000000   8.0000000

  Atom        11          12          13          14          15          16          17          18          19
 IAtWgt=           1          16           1           1           1           1           1           1           1
 AtmWgt=   1.0078250  15.9949146   1.0078250   1.0078250   1.0078250   1.0078250   1.0078250   1.0078250   1.0078250
 NucSpn=           1           0           1           1           1           1           1           1           1
 AtZEff=  -0.0000000  -0.0000000  -0.0000000  -0.0000000  -0.0000000  -0.0000000  -0.0000000  -0.0000000  -0.0000000
 NQMom=    0.0000000   0.0000000   0.0000000   0.0000000   0.0000000   0.0000000   0.0000000   0.0000000   0.0000000
 NMagM=    2.7928460   0.0000000   2.7928460   2.7928460   2.7928460   2.7928460   2.7928460   2.7928460   2.7928460
 AtZNuc=   1.0000000   8.0000000   1.0000000   1.0000000   1.0000000   1.0000000   1.0000000   1.0000000   1.0000000
 Leave Link  101 at Wed Mar  5 18:41:49 2025, MaxMem= 13421772800 cpu:               0.4 elap:               0.1
 (Enter /gpfs/fs1/soft/improv/software/custom-built/gaussian/g16/l103.exe)

 GradGradGradGradGradGradGradGradGradGradGradGradGradGradGradGradGradGrad
 Berny optimization.
 Initialization pass.
 No Z-matrix variables, so optimization will use Cartesian coordinates.
 Trust Radius=3.00D-01 FncErr=1.00D-07 GrdErr=1.00D-06 EigMax=2.50D+02 EigMin=1.00D-04
 Number of steps in this run=    114 maximum allowed number of steps=    114.
 GradGradGradGradGradGradGradGradGradGradGradGradGradGradGradGradGradGrad

 Leave Link  103 at Wed Mar  5 18:41:49 2025, MaxMem= 13421772800 cpu:               0.4 elap:               0.2
 (Enter /gpfs/fs1/soft/improv/software/custom-built/gaussian/g16/l202.exe)
 ---------------------------------------------------------------------------------------------------
                            Z-MATRIX (ANGSTROMS AND DEGREES)
   CD    Cent   Atom    N1       Length/X        N2       Alpha/Y        N3        Beta/Z          J
 ---------------------------------------------------------------------------------------------------
      1      1  Fe       0  -0.793037          0.818805         -0.094905
      2      2  O        0  -1.204971          2.573941         -0.356874
      3      3  H        0  -2.121063          2.649743         -0.633122
      4      4  O        0   0.990122          1.190635         -0.057941
      5      5  H        0   1.426962          0.599798          0.559707
      6      6  O        0  -0.817519          1.030691          1.713650
      7      7  H        0  -1.021079          0.190602          2.131326
      8      8  O        0  -0.385068         -0.933506          0.171177
      9      9  H        0  -1.156817         -1.473692         -0.014327
     10     10  O        0  -2.573405          0.451778         -0.121857
     11     11  H        0  -2.777557         -0.087440         -0.889285
     12     12  O        0  -0.769659          0.604612         -1.901109
     13     13  H        0   0.098725          0.834573         -2.239490
     14     14  H        0  -0.965336         -0.309994         -2.117418
     15     15  H        0   1.122081          2.099426          0.221242
     16     16  H        0  -1.076711          3.058396          0.461841
     17     17  H        0  -2.814074         -0.023981          0.676500
     18     18  H        0   0.042204          1.336153          2.011809
     19     19  H        0  -0.115315         -1.064459          1.083123
 ---------------------------------------------------------------------------------------------------
                         Z-Matrix orientation:                         
 ---------------------------------------------------------------------
 Center     Atomic      Atomic             Coordinates (Angstroms)
 Number     Number       Type             X           Y           Z
 ---------------------------------------------------------------------
      1         26           0       -0.793037    0.818805   -0.094905
      2          8           0       -1.204971    2.573941   -0.356874
      3          1           0       -2.121063    2.649743   -0.633122
      4          8           0        0.990122    1.190635   -0.057941
      5          1           0        1.426962    0.599798    0.559707
      6          8           0       -0.817519    1.030691    1.713650
      7          1           0       -1.021079    0.190602    2.131326
      8          8           0       -0.385068   -0.933506    0.171177
      9          1           0       -1.156817   -1.473692   -0.014327
     10          8           0       -2.573405    0.451778   -0.121857
     11          1           0       -2.777557   -0.087440   -0.889285
     12          8           0       -0.769659    0.604612   -1.901109
     13          1           0        0.098725    0.834573   -2.239490
     14          1           0       -0.965336   -0.309994   -2.117418
     15          1           0        1.122081    2.099426    0.221242
     16          1           0       -1.076711    3.058396    0.461841
     17          1           0       -2.814074   -0.023981    0.676500
     18          1           0        0.042204    1.336153    2.011809
     19          1           0       -0.115315   -1.064459    1.083123
 ---------------------------------------------------------------------
                    Distance matrix (angstroms):
                    1          2          3          4          5
     1  Fe   0.000000
     2  O    1.821762   0.000000
     3  H    2.325008   0.959835   0.000000
     4  O    1.821889   2.611767   3.484150   0.000000
     5  H    2.324839   3.415322   4.267739   0.959899   0.000000
     6  O    1.821090   2.611285   3.134947   2.536076   2.560263
     7  H    2.324381   3.450400   3.859988   3.136540   2.937743
     8  O    1.818745   3.640503   4.062050   2.540791   2.405292
     9  H    2.322579   4.062387   4.279649   3.421971   3.362259
    10  O    1.818006   2.536025   2.301533   3.639880   4.060711
    11  H    2.321775   3.136788   2.826442   4.064482   4.499984
    12  O    1.819010   2.540161   2.759827   2.614866   3.298603
    13  H    2.322657   2.875634   3.286750   2.383386   3.107223
    14  H    2.322591   3.387332   3.506977   3.212032   3.703756
    15  H    2.325429   2.444290   3.398642   0.959822   1.567289
    16  H    2.325125   0.959918   1.567358   2.833814   3.510364
    17  H    2.321626   3.225876   3.056824   4.060370   4.288255
    18  H    2.324547   2.949275   3.660724   2.281137   2.137375
    19  H    2.322443   4.061883   4.556733   2.758526   2.328591
                    6          7          8          9         10
     6  O    0.000000
     7  H    0.960021   0.000000
     8  O    2.534622   2.347406   0.000000
     9  H    3.061530   2.718847   0.960108   0.000000
    10  O    2.605257   2.748593   2.606473   2.392848   0.000000
    11  H    3.444886   3.505227   2.750347   2.305222   0.959885
    12  O    3.640099   4.061422   2.609231   2.833582   2.538227
    13  H    4.062670   4.557707   3.028445   3.443229   3.430916
    14  H    4.061572   4.278496   2.441955   2.411193   2.673658
    15  H    2.670492   3.447487   3.387136   4.244531   4.060675
    16  H    2.397039   3.318813   4.061790   4.557738   3.061904
    17  H    2.484803   2.318921   2.642472   2.307685   0.960023
    18  H    0.959858   1.567527   2.953276   3.665802   3.489421
    19  H    2.297892   1.869309   0.959980   1.567353   3.129403
                   11         12         13         14         15
    11  H    0.000000
    12  O    2.352526   0.000000
    13  H    3.308498   0.959935   0.000000
    14  H    2.200452   0.959991   1.567533   0.000000
    15  H    4.606825   3.212091   2.949969   3.953725   0.000000
    16  H    3.822919   3.420362   3.691102   4.243941   2.410850
    17  H    1.567497   3.349453   4.210050   3.362383   4.495491
    18  H    4.288824   4.062660   4.281159   4.558009   2.225950
    19  H    3.454344   3.481323   3.833001   3.396353   3.504877
                   16         17         18         19
    16  H    0.000000
    17  H    3.544793   0.000000
    18  H    2.573032   3.433851   0.000000
    19  H    4.278809   2.920828   2.578800   0.000000
 Stoichiometry    FeH12O6(2+,5)
 Framework group  C1[X(FeH12O6)]
 Deg. of freedom    51
 Full point group                 C1      NOp   1
 Largest Abelian subgroup         C1      NOp   1
 Largest concise Abelian subgroup C1      NOp   1
                         Standard orientation:                         
 ---------------------------------------------------------------------
 Center     Atomic      Atomic             Coordinates (Angstroms)
 Number     Number       Type             X           Y           Z
 ---------------------------------------------------------------------
      1         26           0       -0.020212   -0.029769    0.009758
      2          8           0       -0.320773   -1.687164   -0.684161
      3          1           0       -1.136997   -1.679346   -1.189137
      4          8           0        1.254785   -0.678144    1.138153
      5          1           0        1.943573   -0.019708    1.254074
      6          8           0        1.298505    0.294488   -1.203590
      7          1           0        1.382461    1.241149   -1.339326
      8          8           0        0.280919    1.626834    0.697379
      9          1           0       -0.430846    2.216032    0.436526
     10          8           0       -1.285567    0.616476   -1.124434
     11          1           0       -2.034473    0.939301   -0.618170
     12          8           0       -1.338192   -0.350985    1.221594
     13          1           0       -0.971642   -0.815184    1.977660
     14          1           0       -1.717006    0.482356    1.510774
     15          1           0        1.635434   -1.476912    0.766219
     16          1           0        0.408530   -1.930525   -1.258908
     17          1           0       -0.914804    1.335716   -1.641030
     18          1           0        2.129249   -0.056449   -0.874904
     19          1           0        1.114608    1.965515    0.362985
 ---------------------------------------------------------------------
 Rotational constants (GHZ):           2.0396930           1.9739388           1.9252729
 Leave Link  202 at Wed Mar  5 18:41:49 2025, MaxMem= 13421772800 cpu:               0.6 elap:               0.0
 (Enter /gpfs/fs1/soft/improv/software/custom-built/gaussian/g16/l301.exe)
 Standard basis: 6-31+G(2df,p) (6D, 7F)
 Ernie: Thresh=  0.10000D-02 Tol=  0.10000D-05 Strict=F.
 There are   347 symmetry adapted cartesian basis functions of A   symmetry.
 There are   317 symmetry adapted basis functions of A   symmetry.
   317 basis functions,   514 primitive gaussians,   347 cartesian basis functions
    44 alpha electrons       40 beta electrons
       nuclear repulsion energy       767.7883002195 Hartrees.
 IExCor= 5345 DFT=T Ex+Corr=N12 ExCW=0 ScaHFX=  0.000000
 ScaDFX=  1.000000  1.000000  1.000000  1.000000 ScalE2=  1.000000  1.000000
 IRadAn=      5 IRanWt=     -1 IRanGd=            0 ICorTp=0 IEmpDi=  4
 NAtoms=   19 NActive=   19 NUniq=   19 SFac= 1.00D+00 NAtFMM=   60 NAOKFM=F Big=F
 Integral buffers will be    131072 words long.
 Raffenetti 2 integral format.
 Two-electron integral symmetry is turned on.
 R6DIni: Non-standard D2/D3 S6 parameter, value=     1.000000
 R6DIni: Non-standard D2/D3 S8 parameter, value=     2.391600
 R6DIni: Non-standard D2/D3 SR6 parameter, value=     1.349300
 Leave Link  301 at Wed Mar  5 18:41:49 2025, MaxMem= 13421772800 cpu:               0.4 elap:               0.0
 (Enter /gpfs/fs1/soft/improv/software/custom-built/gaussian/g16/l302.exe)
 NPDir=0 NMtPBC=     1 NCelOv=     1 NCel=       1 NClECP=     1 NCelD=      1
         NCelK=      1 NCelE2=     1 NClLst=     1 CellRange=     0.0.
 One-electron integrals computed using PRISM.
 One-electron integral symmetry used in STVInt
 NBasis=   317 RedAO= T EigKep=  1.64D-06  NBF=   317
 NBsUse=   317 1.00D-06 EigRej= -1.00D+00 NBFU=   317
 Precomputing XC quadrature grid using
 IXCGrd= 4 IRadAn=           5 IRanWt=          -1 IRanGd=           0 AccXCQ= 0.00D+00.
 Generated NRdTot=       0 NPtTot=           0 NUsed=           0 NTot=          32
 NSgBfM=   347   346   347   347   347 MxSgAt=    19 MxSgA2=    19.
 Leave Link  302 at Wed Mar  5 18:41:50 2025, MaxMem= 13421772800 cpu:              22.1 elap:               0.3
 (Enter /gpfs/fs1/soft/improv/software/custom-built/gaussian/g16/l303.exe)
 DipDrv:  MaxL=1.
 Leave Link  303 at Wed Mar  5 18:41:50 2025, MaxMem= 13421772800 cpu:               1.1 elap:               0.0
 (Enter /gpfs/fs1/soft/improv/software/custom-built/gaussian/g16/l401.exe)
 ExpMin= 1.26D-02 ExpMax= 6.11D+04 ExpMxC= 9.18D+03 IAcc=3 IRadAn=         5 AccDes= 0.00D+00
 Harris functional with IExCor= 5345 and IRadAn=       5 diagonalized for initial guess.
 HarFok:  IExCor= 5345 AccDes= 0.00D+00 IRadAn=         5 IDoV= 1 UseB2=F ITyADJ=14
 ICtDFT=  3500011 ScaDFX=  1.000000  1.000000  1.000000  1.000000
 FoFCou: FMM=F IPFlag=           0 FMFlag=      100000 FMFlg1=           0
         NFxFlg=           0 DoJE=T BraDBF=F KetDBF=T FulRan=T
         wScrn=  0.000000 ICntrl=       500 IOpCl=  0 I1Cent=   200000004 NGrid=           0
         NMat0=    1 NMatS0=      1 NMatT0=    0 NMatD0=    1 NMtDS0=    0 NMtDT0=    0
 Petite list used in FoFCou.
 Harris En= -1722.07414413607    
 JPrj=0 DoOrth=F DoCkMO=F.
 Initial guess <Sx>= 0.0000 <Sy>= 0.0000 <Sz>= 2.0000 <S**2>= 6.0000 S= 2.0000
 Leave Link  401 at Wed Mar  5 18:41:50 2025, MaxMem= 13421772800 cpu:              39.8 elap:               0.4
 (Enter /gpfs/fs1/soft/improv/software/custom-built/gaussian/g16/l502.exe)
 Integral symmetry usage will be decided dynamically.
 UHF open shell SCF:
 Using DIIS extrapolation, IDIIS=  1040.
 NGot= 13421772800 LenX= 13421483807 LenY= 13421362957
 Requested convergence on RMS density matrix=1.00D-08 within  50 cycles.
 Requested convergence on MAX density matrix=1.00D-06.
 Requested convergence on             energy=1.00D-06.
 No special actions if energy rises.
 Fock matrices will be formed incrementally for  20 cycles.

 Cycle   1  Pass 1  IDiag  1:
 FoFJK:  IHMeth= 1 ICntrl=     500 DoSepK=F KAlg= 0 I1Cent=           0 FoldK=F
 IRaf= 990000000 NMat=       1 IRICut=       1 DoRegI=T DoRafI=F ISym2E= 0 IDoP0=0 IntGTp=1.
 FoFCou: FMM=F IPFlag=           0 FMFlag=      100000 FMFlg1=           0
         NFxFlg=           0 DoJE=T BraDBF=F KetDBF=F FulRan=T
         wScrn=  0.000000 ICntrl=       500 IOpCl=  0 I1Cent=           0 NGrid=           0
         NMat0=    1 NMatS0=      1 NMatT0=    0 NMatD0=    1 NMtDS0=    0 NMtDT0=    0
 Symmetry not used in FoFCou.
 E= -1721.16891609649    
 DIIS: error= 3.52D-02 at cycle   1 NSaved=   1.
 NSaved= 1 IEnMin= 1 EnMin= -1721.16891609649     IErMin= 1 ErrMin= 3.52D-02
 ErrMax= 3.52D-02  0.00D+00 EMaxC= 1.00D-01 BMatC= 2.69D+00 BMatP= 2.69D+00
 IDIUse=3 WtCom= 6.48D-01 WtEn= 3.52D-01
 Coeff-Com:  0.100D+01
 Coeff-En:   0.100D+01
 Coeff:      0.100D+01
 Gap=    -0.258 Goal=   None    Shift=    0.000
 Gap=     0.008 Goal=   None    Shift=    0.000
 GapD=   -0.258 DampG=0.250 DampE=0.250 DampFc=0.1250 IDamp=-1.
 Damping current iteration by 1.25D-01
 RMSDP=1.28D+00 MaxDP=1.58D+02              OVMax= 9.70D-01

 Cycle   2  Pass 1  IDiag  1:
 RMSU=  1.34D-01    CP:  1.61D+00
 E= -1721.22100659400     Delta-E=       -0.052090497508 Rises=F Damp=T
 DIIS: error= 2.13D-02 at cycle   2 NSaved=   2.
 NSaved= 2 IEnMin= 2 EnMin= -1721.22100659400     IErMin= 2 ErrMin= 2.13D-02
 ErrMax= 2.13D-02  0.00D+00 EMaxC= 1.00D-01 BMatC= 1.02D+00 BMatP= 2.69D+00
 IDIUse=3 WtCom= 7.87D-01 WtEn= 2.13D-01
 Coeff-Com: -0.233D+00 0.123D+01
 Coeff-En:   0.384D+00 0.616D+00
 Coeff:     -0.101D+00 0.110D+01
 Gap=     0.107 Goal=   None    Shift=    0.000
 Gap=     0.072 Goal=   None    Shift=    0.000
 RMSDP=1.55D-01 MaxDP=1.67D+01 DE=-5.21D-02 OVMax= 8.20D-01

 Cycle   3  Pass 1  IDiag  1:
 RMSU=  3.88D-02    CP:  1.28D+00 -5.80D-02
 E= -1718.22353273676     Delta-E=        2.997473857240 Rises=F Damp=F
 DIIS: error= 9.71D-02 at cycle   3 NSaved=   3.
 NSaved= 3 IEnMin= 2 EnMin= -1721.22100659400     IErMin= 2 ErrMin= 2.13D-02
 ErrMax= 9.71D-02  0.00D+00 EMaxC= 1.00D-01 BMatC= 2.42D+01 BMatP= 1.02D+00
 IDIUse=2 WtCom= 0.00D+00 WtEn= 1.00D+00
 EnCoef did     4 forward-backward iterations
 Coeff-En:   0.199D+00 0.717D+00 0.832D-01
 Coeff:      0.199D+00 0.717D+00 0.832D-01
 Gap=     0.027 Goal=   None    Shift=    0.000
 Gap=    -0.002 Goal=   None    Shift=    0.000
 RMSDP=6.83D-02 MaxDP=7.30D+00 DE= 3.00D+00 OVMax= 9.96D-01

 Cycle   4  Pass 1  IDiag  1:
 RMSU=  3.12D-02    CP:  8.74D-01 -3.49D-02  5.22D-01
 E= -1720.86325573149     Delta-E=       -2.639722994731 Rises=F Damp=F
 DIIS: error= 3.43D-02 at cycle   4 NSaved=   4.
 NSaved= 4 IEnMin= 2 EnMin= -1721.22100659400     IErMin= 2 ErrMin= 2.13D-02
 ErrMax= 3.43D-02  0.00D+00 EMaxC= 1.00D-01 BMatC= 4.30D+00 BMatP= 1.02D+00
 IDIUse=2 WtCom= 0.00D+00 WtEn= 1.00D+00
 EnCoef did   100 forward-backward iterations
 Coeff-En:   0.575D+00 0.107D-01 0.653D-02 0.408D+00
 Coeff:      0.575D+00 0.107D-01 0.653D-02 0.408D+00
 Gap=     0.001 Goal=   None    Shift=    0.000
 Gap=     0.095 Goal=   None    Shift=    0.000
 RMSDP=4.00D-02 MaxDP=5.97D+00 DE=-2.64D+00 OVMax= 7.55D-01

 Cycle   5  Pass 1  IDiag  1:
 RMSU=  1.04D-02    CP:  1.04D+00 -6.18D-02  3.67D-01  5.83D-02
 E= -1721.44166492362     Delta-E=       -0.578409192128 Rises=F Damp=F
 DIIS: error= 2.69D-02 at cycle   5 NSaved=   5.
 NSaved= 5 IEnMin= 5 EnMin= -1721.44166492362     IErMin= 2 ErrMin= 2.13D-02
 ErrMax= 2.69D-02  0.00D+00 EMaxC= 1.00D-01 BMatC= 1.59D+00 BMatP= 1.02D+00
 IDIUse=2 WtCom= 0.00D+00 WtEn= 1.00D+00
 EnCoef did   100 forward-backward iterations
 Coeff-En:   0.253D+00 0.574D-02 0.000D+00 0.258D+00 0.484D+00
 Coeff:      0.253D+00 0.574D-02 0.000D+00 0.258D+00 0.484D+00
 Gap=    -0.002 Goal=   None    Shift=    0.000
 Gap=     0.011 Goal=   None    Shift=    0.000
 RMSDP=5.13D-02 MaxDP=5.42D+00 DE=-5.78D-01 OVMax= 9.98D-01

 Cycle   6  Pass 1  IDiag  1:
 RMSU=  2.84D-02    CP:  7.97D-01  1.78D-02 -3.36D-02  5.48D-01  6.28D-01
 E= -1721.01598397241     Delta-E=        0.425680951205 Rises=F Damp=F
 DIIS: error= 4.70D-02 at cycle   6 NSaved=   6.
 NSaved= 6 IEnMin= 5 EnMin= -1721.44166492362     IErMin= 2 ErrMin= 2.13D-02
 ErrMax= 4.70D-02  0.00D+00 EMaxC= 1.00D-01 BMatC= 3.80D+00 BMatP= 1.02D+00
 IDIUse=2 WtCom= 0.00D+00 WtEn= 1.00D+00
 Coeff-En:   0.000D+00 0.000D+00 0.000D+00 0.000D+00 0.661D+00 0.339D+00
 Coeff:      0.000D+00 0.000D+00 0.000D+00 0.000D+00 0.661D+00 0.339D+00
 Gap=     0.012 Goal=   None    Shift=    0.000
 Gap=     0.066 Goal=   None    Shift=    0.000
 RMSDP=3.42D-02 MaxDP=4.95D+00 DE= 4.26D-01 OVMax= 9.92D-01

 Cycle   7  Pass 1  IDiag  1:
 RMSU=  7.37D-03    CP:  8.41D-01 -2.75D-02  1.21D-01  8.73D-02  7.44D-01
                    CP:  1.00D-02
 E= -1721.62611013220     Delta-E=       -0.610126159785 Rises=F Damp=F
 DIIS: error= 9.16D-03 at cycle   7 NSaved=   7.
 NSaved= 7 IEnMin= 7 EnMin= -1721.62611013220     IErMin= 7 ErrMin= 9.16D-03
 ErrMax= 9.16D-03  0.00D+00 EMaxC= 1.00D-01 BMatC= 1.75D-01 BMatP= 1.02D+00
 IDIUse=3 WtCom= 9.08D-01 WtEn= 9.16D-02
 EnCoef did     3 forward-backward iterations
 Coeff-Com: -0.274D+00 0.367D+00-0.426D-02 0.435D-01 0.253D+00-0.157D-01
 Coeff-Com:  0.631D+00
 Coeff-En:   0.000D+00 0.000D+00 0.000D+00 0.520D-01 0.527D-01 0.112D-04
 Coeff-En:   0.895D+00
 Coeff:     -0.249D+00 0.333D+00-0.387D-02 0.443D-01 0.234D+00-0.142D-01
 Coeff:      0.655D+00
 Gap=     0.057 Goal=   None    Shift=    0.000
 Gap=     0.015 Goal=   None    Shift=    0.000
 RMSDP=8.15D-03 MaxDP=1.00D+00 DE=-6.10D-01 OVMax= 1.09D-01

 Cycle   8  Pass 1  IDiag  1:
 RMSU=  5.56D-03    CP:  8.60D-01 -7.55D-03  1.38D-01  9.39D-02  3.39D-01
                    CP:  1.03D-02  7.72D-01
 E= -1721.64502675489     Delta-E=       -0.018916622697 Rises=F Damp=F
 DIIS: error= 6.52D-03 at cycle   8 NSaved=   8.
 NSaved= 8 IEnMin= 8 EnMin= -1721.64502675489     IErMin= 8 ErrMin= 6.52D-03
 ErrMax= 6.52D-03  0.00D+00 EMaxC= 1.00D-01 BMatC= 8.90D-02 BMatP= 1.75D-01
 IDIUse=3 WtCom= 9.35D-01 WtEn= 6.52D-02
 EnCoef did   100 forward-backward iterations
 Coeff-Com: -0.188D+00 0.196D+00 0.785D-04 0.314D-01 0.195D-01-0.100D-01
 Coeff-Com:  0.411D+00 0.540D+00
 Coeff-En:   0.000D+00 0.000D+00 0.000D+00 0.000D+00 0.000D+00 0.684D-01
 Coeff-En:   0.205D-01 0.911D+00
 Coeff:     -0.176D+00 0.183D+00 0.733D-04 0.294D-01 0.182D-01-0.492D-02
 Coeff:      0.386D+00 0.564D+00
 Gap=     0.041 Goal=   None    Shift=    0.000
 Gap=     0.014 Goal=   None    Shift=    0.000
 RMSDP=5.85D-03 MaxDP=9.47D-01 DE=-1.89D-02 OVMax= 5.92D-02

 Cycle   9  Pass 1  IDiag  1:
 RMSU=  1.43D-03    CP:  8.28D-01  6.56D-04  6.17D-02  1.06D-01  3.61D-01
                    CP:  1.51D-02  8.96D-01  1.12D+00
 E= -1721.65662303738     Delta-E=       -0.011596282487 Rises=F Damp=F
 DIIS: error= 2.81D-03 at cycle   9 NSaved=   9.
 NSaved= 9 IEnMin= 9 EnMin= -1721.65662303738     IErMin= 9 ErrMin= 2.81D-03
 ErrMax= 2.81D-03  0.00D+00 EMaxC= 1.00D-01 BMatC= 1.60D-02 BMatP= 8.90D-02
 IDIUse=3 WtCom= 9.72D-01 WtEn= 2.81D-02
 Coeff-Com: -0.105D+00 0.123D+00 0.141D-02 0.544D-02-0.393D-01 0.625D-02
 Coeff-Com:  0.648D-01 0.251D+00 0.693D+00
 Coeff-En:   0.000D+00 0.000D+00 0.000D+00 0.000D+00 0.000D+00 0.000D+00
 Coeff-En:   0.000D+00 0.000D+00 0.100D+01
 Coeff:     -0.102D+00 0.119D+00 0.137D-02 0.529D-02-0.382D-01 0.607D-02
 Coeff:      0.629D-01 0.244D+00 0.702D+00
 Gap=     0.037 Goal=   None    Shift=    0.000
 Gap=     0.015 Goal=   None    Shift=    0.000
 RMSDP=2.24D-03 MaxDP=2.97D-01 DE=-1.16D-02 OVMax= 1.23D-02

 Cycle  10  Pass 1  IDiag  1:
 RMSU=  6.75D-04    CP:  8.19D-01  5.37D-03  2.85D-02  1.09D-01  3.29D-01
                    CP:  1.29D-02  9.30D-01  1.24D+00  1.26D+00
 E= -1721.65794569994     Delta-E=       -0.001322662558 Rises=F Damp=F
 DIIS: error= 2.02D-03 at cycle  10 NSaved=  10.
 NSaved=10 IEnMin=10 EnMin= -1721.65794569994     IErMin=10 ErrMin= 2.02D-03
 ErrMax= 2.02D-03  0.00D+00 EMaxC= 1.00D-01 BMatC= 7.71D-03 BMatP= 1.60D-02
 IDIUse=3 WtCom= 9.80D-01 WtEn= 2.02D-02
 Coeff-Com: -0.438D-01 0.643D-01 0.552D-03-0.499D-02-0.315D-01 0.933D-02
 Coeff-Com: -0.817D-01-0.607D-01 0.377D+00 0.771D+00
 Coeff-En:   0.000D+00 0.000D+00 0.000D+00 0.000D+00 0.000D+00 0.000D+00
 Coeff-En:   0.000D+00 0.000D+00 0.000D+00 0.100D+01
 Coeff:     -0.429D-01 0.630D-01 0.541D-03-0.488D-02-0.309D-01 0.915D-02
 Coeff:     -0.801D-01-0.595D-01 0.369D+00 0.776D+00
 Gap=     0.033 Goal=   None    Shift=    0.000
 Gap=     0.014 Goal=   None    Shift=    0.000
 RMSDP=1.83D-03 MaxDP=2.55D-01 DE=-1.32D-03 OVMax= 1.14D-02

 Cycle  11  Pass 1  IDiag  1:
 RMSU=  2.63D-04    CP:  8.12D-01  8.50D-03 -1.98D-03  1.12D-01  3.24D-01
                    CP:  1.23D-02  9.38D-01  1.34D+00  1.59D+00  1.65D+00
 E= -1721.65882405918     Delta-E=       -0.000878359242 Rises=F Damp=F
 DIIS: error= 1.06D-03 at cycle  11 NSaved=  11.
 NSaved=11 IEnMin=11 EnMin= -1721.65882405918     IErMin=11 ErrMin= 1.06D-03
 ErrMax= 1.06D-03  0.00D+00 EMaxC= 1.00D-01 BMatC= 2.35D-03 BMatP= 7.71D-03
 IDIUse=3 WtCom= 9.89D-01 WtEn= 1.06D-02
 Coeff-Com:  0.136D-02 0.318D-02 0.510D-03-0.908D-03-0.489D-02 0.214D-02
 Coeff-Com: -0.417D-01-0.169D+00-0.204D+00 0.396D+00 0.102D+01
 Coeff-En:   0.000D+00 0.000D+00 0.000D+00 0.000D+00 0.000D+00 0.000D+00
 Coeff-En:   0.000D+00 0.000D+00 0.000D+00 0.000D+00 0.100D+01
 Coeff:      0.134D-02 0.315D-02 0.505D-03-0.898D-03-0.483D-02 0.212D-02
 Coeff:     -0.413D-01-0.168D+00-0.202D+00 0.392D+00 0.102D+01
 Gap=     0.027 Goal=   None    Shift=    0.000
 Gap=     0.014 Goal=   None    Shift=    0.000
 RMSDP=1.84D-03 MaxDP=2.36D-01 DE=-8.78D-04 OVMax= 9.59D-03

 Cycle  12  Pass 1  IDiag  1:
 RMSU=  2.74D-04    CP:  8.07D-01  1.13D-02 -3.49D-02  1.14D-01  3.35D-01
                    CP:  1.06D-02  9.29D-01  1.44D+00  1.90D+00  2.66D+00
                    CP:  1.93D+00
 E= -1721.65922420915     Delta-E=       -0.000400149972 Rises=F Damp=F
 DIIS: error= 6.72D-05 at cycle  12 NSaved=  12.
 NSaved=12 IEnMin=12 EnMin= -1721.65922420915     IErMin=12 ErrMin= 6.72D-05
 ErrMax= 6.72D-05  0.00D+00 EMaxC= 1.00D-01 BMatC= 2.18D-05 BMatP= 2.35D-03
 IDIUse=1 WtCom= 1.00D+00 WtEn= 0.00D+00
 Coeff-Com:  0.193D-02-0.100D-02-0.348D-04-0.343D-03 0.363D-02 0.211D-03
 Coeff-Com: -0.743D-02-0.640D-01-0.129D+00 0.815D-01 0.472D+00 0.643D+00
 Coeff:      0.193D-02-0.100D-02-0.348D-04-0.343D-03 0.363D-02 0.211D-03
 Coeff:     -0.743D-02-0.640D-01-0.129D+00 0.815D-01 0.472D+00 0.643D+00
 Gap=     0.027 Goal=   None    Shift=    0.000
 Gap=     0.014 Goal=   None    Shift=    0.000
 RMSDP=2.82D-04 MaxDP=2.00D-02 DE=-4.00D-04 OVMax= 1.93D-03

 Cycle  13  Pass 1  IDiag  1:
 RMSU=  1.14D-04    CP:  8.07D-01  1.14D-02 -3.91D-02  1.14D-01  3.36D-01
                    CP:  9.61D-03  9.15D-01  1.45D+00  1.93D+00  2.85D+00
                    CP:  2.21D+00  1.08D+00
 E= -1721.65922763479     Delta-E=       -0.000003425635 Rises=F Damp=F
 DIIS: error= 3.47D-05 at cycle  13 NSaved=  13.
 NSaved=13 IEnMin=13 EnMin= -1721.65922763479     IErMin=13 ErrMin= 3.47D-05
 ErrMax= 3.47D-05  0.00D+00 EMaxC= 1.00D-01 BMatC= 5.15D-06 BMatP= 2.18D-05
 IDIUse=1 WtCom= 1.00D+00 WtEn= 0.00D+00
 Coeff-Com:  0.690D-03-0.330D-03-0.530D-04-0.130D-03 0.223D-02 0.169D-04
 Coeff-Com: -0.190D-02-0.265D-01-0.547D-01 0.319D-01 0.203D+00 0.343D+00
 Coeff-Com:  0.503D+00
 Coeff:      0.690D-03-0.330D-03-0.530D-04-0.130D-03 0.223D-02 0.169D-04
 Coeff:     -0.190D-02-0.265D-01-0.547D-01 0.319D-01 0.203D+00 0.343D+00
 Coeff:      0.503D+00
 Gap=     0.027 Goal=   None    Shift=    0.000
 Gap=     0.014 Goal=   None    Shift=    0.000
 RMSDP=6.78D-05 MaxDP=6.32D-03 DE=-3.43D-06 OVMax= 3.93D-04

 Cycle  14  Pass 1  IDiag  1:
 RMSU=  2.46D-05    CP:  8.07D-01  1.14D-02 -3.96D-02  1.14D-01  3.36D-01
                    CP:  9.41D-03  9.11D-01  1.45D+00  1.92D+00  2.88D+00
                    CP:  2.24D+00  1.11D+00  1.21D+00
 E= -1721.65922842225     Delta-E=       -0.000000787468 Rises=F Damp=F
 DIIS: error= 1.24D-05 at cycle  14 NSaved=  14.
 NSaved=14 IEnMin=14 EnMin= -1721.65922842225     IErMin=14 ErrMin= 1.24D-05
 ErrMax= 1.24D-05  0.00D+00 EMaxC= 1.00D-01 BMatC= 7.34D-07 BMatP= 5.15D-06
 IDIUse=1 WtCom= 1.00D+00 WtEn= 0.00D+00
 Coeff-Com:  0.180D-04 0.122D-04-0.172D-04-0.421D-04 0.594D-03-0.334D-05
 Coeff-Com:  0.641D-04-0.461D-02-0.477D-02 0.915D-02 0.254D-01 0.586D-01
 Coeff-Com:  0.277D+00 0.639D+00
 Coeff:      0.180D-04 0.122D-04-0.172D-04-0.421D-04 0.594D-03-0.334D-05
 Coeff:      0.641D-04-0.461D-02-0.477D-02 0.915D-02 0.254D-01 0.586D-01
 Coeff:      0.277D+00 0.639D+00
 Gap=     0.027 Goal=   None    Shift=    0.000
 Gap=     0.014 Goal=   None    Shift=    0.000
 RMSDP=6.24D-05 MaxDP=6.90D-03 DE=-7.87D-07 OVMax= 6.36D-04

 Cycle  15  Pass 1  IDiag  1:
 RMSU=  1.27D-05    CP:  8.07D-01  1.14D-02 -4.03D-02  1.14D-01  3.37D-01
                    CP:  9.21D-03  9.07D-01  1.46D+00  1.92D+00  2.91D+00
                    CP:  2.28D+00  1.13D+00  1.41D+00  1.64D+00
 E= -1721.65922856535     Delta-E=       -0.000000143092 Rises=F Damp=F
 DIIS: error= 5.52D-06 at cycle  15 NSaved=  15.
 NSaved=15 IEnMin=15 EnMin= -1721.65922856535     IErMin=15 ErrMin= 5.52D-06
 ErrMax= 5.52D-06  0.00D+00 EMaxC= 1.00D-01 BMatC= 7.83D-08 BMatP= 7.34D-07
 IDIUse=1 WtCom= 1.00D+00 WtEn= 0.00D+00
 Coeff-Com: -0.729D-04 0.117D-03-0.745D-05-0.937D-04 0.306D-04 0.563D-04
 Coeff-Com: -0.341D-03 0.471D-03 0.745D-02 0.279D-02-0.271D-01-0.635D-01
 Coeff-Com: -0.613D-01 0.140D+00 0.100D+01
 Coeff:     -0.729D-04 0.117D-03-0.745D-05-0.937D-04 0.306D-04 0.563D-04
 Coeff:     -0.341D-03 0.471D-03 0.745D-02 0.279D-02-0.271D-01-0.635D-01
 Coeff:     -0.613D-01 0.140D+00 0.100D+01
 Gap=     0.027 Goal=   None    Shift=    0.000
 Gap=     0.014 Goal=   None    Shift=    0.000
 RMSDP=5.29D-05 MaxDP=4.81D-03 DE=-1.43D-07 OVMax= 7.88D-04

 Cycle  16  Pass 1  IDiag  1:
 RMSU=  4.07D-06    CP:  8.07D-01  1.14D-02 -4.09D-02  1.14D-01  3.38D-01
                    CP:  9.03D-03  9.03D-01  1.46D+00  1.93D+00  2.94D+00
                    CP:  2.32D+00  1.16D+00  1.60D+00  2.21D+00  1.67D+00
 E= -1721.65922859585     Delta-E=       -0.000000030505 Rises=F Damp=F
 DIIS: error= 4.41D-06 at cycle  16 NSaved=  16.
 NSaved=16 IEnMin=16 EnMin= -1721.65922859585     IErMin=16 ErrMin= 4.41D-06
 ErrMax= 4.41D-06  0.00D+00 EMaxC= 1.00D-01 BMatC= 5.07D-08 BMatP= 7.83D-08
 IDIUse=1 WtCom= 1.00D+00 WtEn= 0.00D+00
 Coeff-Com:  0.337D-04 0.667D-05-0.394D-05-0.597D-04 0.475D-04 0.431D-04
 Coeff-Com: -0.450D-03-0.927D-03 0.203D-02 0.245D-02-0.128D-01-0.476D-01
 Coeff-Com: -0.111D+00-0.112D+00 0.319D+00 0.961D+00
 Coeff:      0.337D-04 0.667D-05-0.394D-05-0.597D-04 0.475D-04 0.431D-04
 Coeff:     -0.450D-03-0.927D-03 0.203D-02 0.245D-02-0.128D-01-0.476D-01
 Coeff:     -0.111D+00-0.112D+00 0.319D+00 0.961D+00
 Gap=     0.027 Goal=   None    Shift=    0.000
 Gap=     0.014 Goal=   None    Shift=    0.000
 RMSDP=2.63D-05 MaxDP=2.26D-03 DE=-3.05D-08 OVMax= 6.10D-04

 Cycle  17  Pass 1  IDiag  1:
 RMSU=  1.95D-06    CP:  8.07D-01  1.14D-02 -4.13D-02  1.14D-01  3.38D-01
                    CP:  8.95D-03  9.02D-01  1.46D+00  1.93D+00  2.95D+00
                    CP:  2.33D+00  1.17D+00  1.68D+00  2.47D+00  2.04D+00
                    CP:  1.56D+00
 E= -1721.65922861247     Delta-E=       -0.000000016623 Rises=F Damp=F
 DIIS: error= 2.11D-06 at cycle  17 NSaved=  17.
 NSaved=17 IEnMin=17 EnMin= -1721.65922861247     IErMin=17 ErrMin= 2.11D-06
 ErrMax= 2.11D-06  0.00D+00 EMaxC= 1.00D-01 BMatC= 1.12D-08 BMatP= 5.07D-08
 IDIUse=1 WtCom= 1.00D+00 WtEn= 0.00D+00
 Coeff-Com:  0.398D-04-0.329D-04-0.205D-05-0.193D-04 0.708D-04 0.158D-04
 Coeff-Com: -0.202D-03-0.121D-02-0.582D-03 0.241D-02 0.472D-03-0.109D-01
 Coeff-Com: -0.262D-01-0.308D-01-0.473D-01 0.564D-01 0.106D+01
 Coeff:      0.398D-04-0.329D-04-0.205D-05-0.193D-04 0.708D-04 0.158D-04
 Coeff:     -0.202D-03-0.121D-02-0.582D-03 0.241D-02 0.472D-03-0.109D-01
 Coeff:     -0.262D-01-0.308D-01-0.473D-01 0.564D-01 0.106D+01
 Gap=     0.027 Goal=   None    Shift=    0.000
 Gap=     0.014 Goal=   None    Shift=    0.000
 RMSDP=3.35D-06 MaxDP=2.76D-04 DE=-1.66D-08 OVMax= 4.09D-04

 Cycle  18  Pass 1  IDiag  1:
 RMSU=  1.51D-06    CP:  8.07D-01  1.14D-02 -4.13D-02  1.14D-01  3.38D-01
                    CP:  8.95D-03  9.01D-01  1.46D+00  1.93D+00  2.95D+00
                    CP:  2.33D+00  1.17D+00  1.68D+00  2.49D+00  2.10D+00
                    CP:  1.82D+00  1.60D+00
 E= -1721.65922861698     Delta-E=       -0.000000004504 Rises=F Damp=F
 DIIS: error= 1.49D-06 at cycle  18 NSaved=  18.
 NSaved=18 IEnMin=18 EnMin= -1721.65922861698     IErMin=18 ErrMin= 1.49D-06
 ErrMax= 1.49D-06  0.00D+00 EMaxC= 1.00D-01 BMatC= 8.60D-09 BMatP= 1.12D-08
 IDIUse=1 WtCom= 1.00D+00 WtEn= 0.00D+00
 Coeff-Com:  0.123D-04-0.942D-05-0.118D-05 0.166D-05 0.687D-04-0.233D-05
 Coeff-Com: -0.253D-04-0.858D-03-0.112D-02 0.194D-02 0.602D-02 0.100D-01
 Coeff-Com:  0.329D-01 0.525D-01-0.149D+00-0.607D+00 0.937D+00 0.718D+00
 Coeff:      0.123D-04-0.942D-05-0.118D-05 0.166D-05 0.687D-04-0.233D-05
 Coeff:     -0.253D-04-0.858D-03-0.112D-02 0.194D-02 0.602D-02 0.100D-01
 Coeff:      0.329D-01 0.525D-01-0.149D+00-0.607D+00 0.937D+00 0.718D+00
 Gap=     0.027 Goal=   None    Shift=    0.000
 Gap=     0.014 Goal=   None    Shift=    0.000
 RMSDP=4.68D-06 MaxDP=3.90D-04 DE=-4.50D-09 OVMax= 3.43D-04

 Cycle  19  Pass 1  IDiag  1:
 RMSU=  6.98D-07    CP:  8.07D-01  1.14D-02 -4.12D-02  1.14D-01  3.38D-01
                    CP:  8.96D-03  9.02D-01  1.46D+00  1.93D+00  2.95D+00
                    CP:  2.33D+00  1.17D+00  1.67D+00  2.46D+00  2.09D+00
                    CP:  1.93D+00  2.19D+00  1.81D+00
 E= -1721.65922862004     Delta-E=       -0.000000003064 Rises=F Damp=F
 DIIS: error= 9.39D-07 at cycle  19 NSaved=  19.
 NSaved=19 IEnMin=19 EnMin= -1721.65922862004     IErMin=19 ErrMin= 9.39D-07
 ErrMax= 9.39D-07  0.00D+00 EMaxC= 1.00D-01 BMatC= 1.70D-09 BMatP= 8.60D-09
 IDIUse=1 WtCom= 1.00D+00 WtEn= 0.00D+00
 Coeff-Com: -0.501D-05 0.124D-04-0.896D-06-0.671D-05 0.231D-04 0.313D-05
 Coeff-Com: -0.251D-04-0.158D-03-0.761D-04 0.725D-03 0.195D-02 0.463D-02
 Coeff-Com:  0.203D-01 0.396D-01-0.356D-01-0.386D+00 0.112D+00 0.266D+00
 Coeff-Com:  0.978D+00
 Coeff:     -0.501D-05 0.124D-04-0.896D-06-0.671D-05 0.231D-04 0.313D-05
 Coeff:     -0.251D-04-0.158D-03-0.761D-04 0.725D-03 0.195D-02 0.463D-02
 Coeff:      0.203D-01 0.396D-01-0.356D-01-0.386D+00 0.112D+00 0.266D+00
 Coeff:      0.978D+00
 Gap=     0.027 Goal=   None    Shift=    0.000
 Gap=     0.014 Goal=   None    Shift=    0.000
 RMSDP=3.68D-06 MaxDP=2.54D-04 DE=-3.06D-09 OVMax= 2.35D-04

 Cycle  20  Pass 1  IDiag  1:
 RMSU=  5.76D-07    CP:  8.07D-01  1.14D-02 -4.12D-02  1.14D-01  3.38D-01
                    CP:  8.97D-03  9.02D-01  1.46D+00  1.93D+00  2.95D+00
                    CP:  2.33D+00  1.16D+00  1.67D+00  2.43D+00  2.09D+00
                    CP:  1.96D+00  2.44D+00  2.44D+00  1.89D+00
 E= -1721.65922862075     Delta-E=       -0.000000000704 Rises=F Damp=F
 DIIS: error= 2.14D-07 at cycle  20 NSaved=  20.
 NSaved=20 IEnMin=20 EnMin= -1721.65922862075     IErMin=20 ErrMin= 2.14D-07
 ErrMax= 2.14D-07  0.00D+00 EMaxC= 1.00D-01 BMatC= 2.10D-10 BMatP= 1.70D-09
 IDIUse=1 WtCom= 1.00D+00 WtEn= 0.00D+00
 Coeff-Com: -0.219D-06 0.306D-06 0.107D-07-0.161D-05-0.243D-05 0.967D-06
 Coeff-Com: -0.675D-05 0.795D-05 0.275D-03 0.777D-04-0.155D-02-0.443D-02
 Coeff-Com: -0.580D-02 0.214D-02 0.470D-01 0.648D-01-0.559D-01-0.668D-01
 Coeff-Com: -0.212D+00 0.123D+01
 Coeff:     -0.219D-06 0.306D-06 0.107D-07-0.161D-05-0.243D-05 0.967D-06
 Coeff:     -0.675D-05 0.795D-05 0.275D-03 0.777D-04-0.155D-02-0.443D-02
 Coeff:     -0.580D-02 0.214D-02 0.470D-01 0.648D-01-0.559D-01-0.668D-01
 Coeff:     -0.212D+00 0.123D+01
 Gap=     0.027 Goal=   None    Shift=    0.000
 Gap=     0.014 Goal=   None    Shift=    0.000
 RMSDP=2.34D-06 MaxDP=2.18D-04 DE=-7.04D-10 OVMax= 3.35D-05

 Cycle  21  Pass 1  IDiag  1:
 Restarting incremental Fock formation.
 E= -1721.65922862086     Delta-E=       -0.000000000113 Rises=F Damp=F
 DIIS: error= 2.22D-07 at cycle  21 NSaved=  20.
 NSaved=20 IEnMin=20 EnMin= -1721.65922862086     IErMin=19 ErrMin= 2.14D-07
 ErrMax= 2.22D-07  0.00D+00 EMaxC= 1.00D-01 BMatC= 9.76D-11 BMatP= 2.10D-10
 IDIUse=1 WtCom= 1.00D+00 WtEn= 0.00D+00
 Coeff-Com:  0.878D-06-0.135D-05 0.722D-07-0.275D-06-0.258D-07-0.239D-05
 Coeff-Com: -0.101D-04 0.324D-04 0.913D-05-0.551D-03-0.201D-02-0.378D-02
 Coeff-Com: -0.301D-02 0.119D-01 0.471D-01-0.248D-02-0.365D-01-0.346D+00
 Coeff-Com:  0.426D+00 0.909D+00
 Coeff:      0.878D-06-0.135D-05 0.722D-07-0.275D-06-0.258D-07-0.239D-05
 Coeff:     -0.101D-04 0.324D-04 0.913D-05-0.551D-03-0.201D-02-0.378D-02
 Coeff:     -0.301D-02 0.119D-01 0.471D-01-0.248D-02-0.365D-01-0.346D+00
 Coeff:      0.426D+00 0.909D+00
 Gap=     0.027 Goal=   None    Shift=    0.000
 Gap=     0.014 Goal=   None    Shift=    0.000
 RMSDP=3.63D-07 MaxDP=2.67D-05 DE=-1.13D-10 OVMax= 4.48D-05

 Cycle  22  Pass 1  IDiag  1:
 RMSU=  3.54D-07    CP:  1.00D+00
 E= -1721.65922862084     Delta-E=        0.000000000022 Rises=F Damp=F
 DIIS: error= 7.56D-08 at cycle  22 NSaved=  20.
 NSaved=20 IEnMin=19 EnMin= -1721.65922862086     IErMin=20 ErrMin= 7.56D-08
 ErrMax= 7.56D-08  0.00D+00 EMaxC= 1.00D-01 BMatC= 1.24D-11 BMatP= 9.76D-11
 IDIUse=1 WtCom= 1.00D+00 WtEn= 0.00D+00
 Coeff-Com:  0.520D-06-0.643D-06 0.146D-05-0.563D-07-0.230D-05-0.209D-04
 Coeff-Com: -0.552D-04 0.268D-04 0.120D-03-0.645D-04-0.425D-03-0.139D-02
 Coeff-Com: -0.596D-02 0.377D-02 0.284D-01 0.663D-02-0.162D+00-0.891D-01
 Coeff-Com:  0.312D+00 0.908D+00
 Coeff:      0.520D-06-0.643D-06 0.146D-05-0.563D-07-0.230D-05-0.209D-04
 Coeff:     -0.552D-04 0.268D-04 0.120D-03-0.645D-04-0.425D-03-0.139D-02
 Coeff:     -0.596D-02 0.377D-02 0.284D-01 0.663D-02-0.162D+00-0.891D-01
 Coeff:      0.312D+00 0.908D+00
 Gap=     0.027 Goal=   None    Shift=    0.000
 Gap=     0.014 Goal=   None    Shift=    0.000
 RMSDP=1.37D-07 MaxDP=1.04D-05 DE= 2.18D-11 OVMax= 1.80D-05

 Cycle  23  Pass 1  IDiag  1:
 RMSU=  1.01D-07    CP:  1.00D+00  1.26D+00
 E= -1721.65922862087     Delta-E=       -0.000000000028 Rises=F Damp=F
 DIIS: error= 2.58D-08 at cycle  23 NSaved=  20.
 NSaved=20 IEnMin=20 EnMin= -1721.65922862087     IErMin=20 ErrMin= 2.58D-08
 ErrMax= 2.58D-08  0.00D+00 EMaxC= 1.00D-01 BMatC= 2.99D-12 BMatP= 1.24D-11
 IDIUse=1 WtCom= 1.00D+00 WtEn= 0.00D+00
 Coeff-Com:  0.206D-06-0.938D-07 0.113D-05-0.134D-05-0.144D-04-0.335D-04
 Coeff-Com:  0.304D-04 0.167D-03 0.273D-03 0.524D-03 0.205D-03-0.520D-02
 Coeff-Com: -0.845D-02 0.216D-01 0.138D-01-0.303D-01-0.112D+00-0.492D-01
 Coeff-Com:  0.562D+00 0.607D+00
 Coeff:      0.206D-06-0.938D-07 0.113D-05-0.134D-05-0.144D-04-0.335D-04
 Coeff:      0.304D-04 0.167D-03 0.273D-03 0.524D-03 0.205D-03-0.520D-02
 Coeff:     -0.845D-02 0.216D-01 0.138D-01-0.303D-01-0.112D+00-0.492D-01
 Coeff:      0.562D+00 0.607D+00
 Gap=     0.027 Goal=   None    Shift=    0.000
 Gap=     0.014 Goal=   None    Shift=    0.000
 RMSDP=7.00D-08 MaxDP=8.77D-06 DE=-2.82D-11 OVMax= 2.45D-06

 Cycle  24  Pass 1  IDiag  1:
 RMSU=  3.63D-08    CP:  1.00D+00  1.17D+00  1.48D+00
 E= -1721.65922862088     Delta-E=       -0.000000000017 Rises=F Damp=F
 DIIS: error= 9.09D-09 at cycle  24 NSaved=  20.
 NSaved=20 IEnMin=20 EnMin= -1721.65922862088     IErMin=20 ErrMin= 9.09D-09
 ErrMax= 9.09D-09  0.00D+00 EMaxC= 1.00D-01 BMatC= 3.98D-13 BMatP= 2.99D-12
 IDIUse=1 WtCom= 1.00D+00 WtEn= 0.00D+00
 Coeff-Com:  0.510D-07-0.109D-07-0.296D-07-0.383D-06 0.527D-06 0.688D-05
 Coeff-Com:  0.393D-04 0.125D-03 0.356D-03 0.502D-03-0.729D-03-0.511D-02
 Coeff-Com:  0.131D-02 0.405D-02 0.246D-01-0.155D-01-0.961D-01-0.787D-02
 Coeff-Com:  0.282D+00 0.813D+00
 Coeff:      0.510D-07-0.109D-07-0.296D-07-0.383D-06 0.527D-06 0.688D-05
 Coeff:      0.393D-04 0.125D-03 0.356D-03 0.502D-03-0.729D-03-0.511D-02
 Coeff:      0.131D-02 0.405D-02 0.246D-01-0.155D-01-0.961D-01-0.787D-02
 Coeff:      0.282D+00 0.813D+00
 Gap=     0.027 Goal=   None    Shift=    0.000
 Gap=     0.014 Goal=   None    Shift=    0.000
 RMSDP=5.65D-08 MaxDP=5.45D-06 DE=-1.68D-11 OVMax= 2.01D-06

 Cycle  25  Pass 1  IDiag  1:
 RMSU=  2.22D-08    CP:  1.00D+00  1.10D+00  1.84D+00  1.72D+00
 E= -1721.65922862086     Delta-E=        0.000000000027 Rises=F Damp=F
 DIIS: error= 1.57D-09 at cycle  25 NSaved=  20.
 NSaved=20 IEnMin=19 EnMin= -1721.65922862088     IErMin=20 ErrMin= 1.57D-09
 ErrMax= 1.57D-09  0.00D+00 EMaxC= 1.00D-01 BMatC= 1.36D-14 BMatP= 3.98D-13
 IDIUse=1 WtCom= 1.00D+00 WtEn= 0.00D+00
 Coeff-Com: -0.660D-07 0.825D-07 0.364D-06 0.279D-05 0.129D-05-0.571D-05
 Coeff-Com: -0.194D-05 0.368D-04 0.131D-03 0.316D-03-0.449D-03-0.860D-03
 Coeff-Com:  0.219D-03 0.749D-02 0.521D-02-0.199D-01-0.452D-01 0.286D-01
 Coeff-Com:  0.197D+00 0.828D+00
 Coeff:     -0.660D-07 0.825D-07 0.364D-06 0.279D-05 0.129D-05-0.571D-05
 Coeff:     -0.194D-05 0.368D-04 0.131D-03 0.316D-03-0.449D-03-0.860D-03
 Coeff:      0.219D-03 0.749D-02 0.521D-02-0.199D-01-0.452D-01 0.286D-01
 Coeff:      0.197D+00 0.828D+00
 Gap=     0.027 Goal=   None    Shift=    0.000
 Gap=     0.014 Goal=   None    Shift=    0.000
 RMSDP=1.01D-08 MaxDP=1.09D-06 DE= 2.68D-11 OVMax= 5.44D-07

 Cycle  26  Pass 1  IDiag  1:
 RMSU=  4.27D-09    CP:  1.00D+00  1.08D+00  1.89D+00  1.78D+00  1.03D+00
 E= -1721.65922862084     Delta-E=        0.000000000018 Rises=F Damp=F
 DIIS: error= 9.12D-10 at cycle  26 NSaved=  20.
 NSaved=20 IEnMin=18 EnMin= -1721.65922862088     IErMin=20 ErrMin= 9.12D-10
 ErrMax= 9.12D-10  0.00D+00 EMaxC= 1.00D-01 BMatC= 2.14D-15 BMatP= 1.36D-14
 IDIUse=1 WtCom= 1.00D+00 WtEn= 0.00D+00
 Large coefficients: NSaved= 20 BigCof=    0.00 CofMax=   10.00 Det=-5.97D-15
 Inversion failed.  Reducing to 19 matrices.
 Large coefficients: NSaved= 19 BigCof=    0.00 CofMax=   10.00 Det=-6.36D-15
 Inversion failed.  Reducing to 18 matrices.
 Large coefficients: NSaved= 18 BigCof=    0.00 CofMax=   10.00 Det=-8.30D-15
 Inversion failed.  Reducing to 17 matrices.
 Large coefficients: NSaved= 17 BigCof=    0.00 CofMax=   10.00 Det=-9.34D-15
 Inversion failed.  Reducing to 16 matrices.
 Large coefficients: NSaved= 16 BigCof=    0.00 CofMax=   10.00 Det=-9.50D-15
 Inversion failed.  Reducing to 15 matrices.
 Coeff-Com:  0.134D-05 0.532D-05 0.889D-05-0.704D-05-0.429D-04-0.379D-04
 Coeff-Com:  0.195D-04 0.184D-03 0.186D-04-0.624D-03-0.632D-02-0.567D-02
 Coeff-Com: -0.432D-02 0.190D+00 0.827D+00
 Coeff:      0.134D-05 0.532D-05 0.889D-05-0.704D-05-0.429D-04-0.379D-04
 Coeff:      0.195D-04 0.184D-03 0.186D-04-0.624D-03-0.632D-02-0.567D-02
 Coeff:     -0.432D-02 0.190D+00 0.827D+00
 Gap=     0.027 Goal=   None    Shift=    0.000
 Gap=     0.014 Goal=   None    Shift=    0.000
 RMSDP=2.74D-09 MaxDP=2.18D-07 DE= 1.82D-11 OVMax= 2.80D-07

 SCF Done:  E(UN12) =  -1721.65922862     A.U. after   26 cycles
            NFock= 26  Conv=0.27D-08     -V/T= 2.0012
 <Sx>= 0.0000 <Sy>= 0.0000 <Sz>= 2.0000 <S**2>= 6.0055 S= 2.0011
 <L.S>=  0.00000000000    
 KE= 1.719566616386D+03 PE=-5.599802257816D+03 EE= 1.390788112590D+03
 Annihilation of the first spin contaminant:
 S**2 before annihilation     6.0055,   after     6.0000
 Leave Link  502 at Wed Mar  5 18:43:19 2025, MaxMem= 13421772800 cpu:           10752.9 elap:              89.2
 (Enter /gpfs/fs1/soft/improv/software/custom-built/gaussian/g16/l508.exe)
 QCSCF skips out because SCF is already converged.
 Leave Link  508 at Wed Mar  5 18:43:20 2025, MaxMem= 13421772800 cpu:               0.4 elap:               0.0
 (Enter /gpfs/fs1/soft/improv/software/custom-built/gaussian/g16/l801.exe)
 DoSCS=F DFT=T ScalE2(SS,OS)=  1.000000  1.000000
 Range of M.O.s used for correlation:     1   317
 NBasis=   317 NAE=    44 NBE=    40 NFC=     0 NFV=     0
 NROrb=    317 NOA=    44 NOB=    40 NVA=   273 NVB=   277

 **** Warning!!: The largest alpha MO coefficient is  0.19840483D+03


 **** Warning!!: The smallest alpha delta epsilon is  0.26790417D-01


 **** Warning!!: The largest beta MO coefficient is  0.25386911D+03


 **** Warning!!: The smallest beta delta epsilon is  0.14020750D-01

 Leave Link  801 at Wed Mar  5 18:43:20 2025, MaxMem= 13421772800 cpu:               0.4 elap:               0.0
 (Enter /gpfs/fs1/soft/improv/software/custom-built/gaussian/g16/l1101.exe)
 Using compressed storage, NAtomX=    19.
 Will process     20 centers per pass.
 Leave Link 1101 at Wed Mar  5 18:43:20 2025, MaxMem= 13421772800 cpu:              51.7 elap:               0.5
 (Enter /gpfs/fs1/soft/improv/software/custom-built/gaussian/g16/l1102.exe)
 Symmetrizing basis deriv contribution to polar:
 IMax=3 JMax=2 DiffMx= 0.00D+00
 Leave Link 1102 at Wed Mar  5 18:43:20 2025, MaxMem= 13421772800 cpu:               1.0 elap:               0.0
 (Enter /gpfs/fs1/soft/improv/software/custom-built/gaussian/g16/l1110.exe)
 Forming Gx(P) for the SCF density, NAtomX=    19.
 Integral derivatives from FoFJK, PRISM(SPDF).
 Do as many integral derivatives as possible in FoFJK.
 G2DrvN: MDV=   13421770631.
 G2DrvN: will do    20 centers at a time, making    1 passes.
 Calling FoFCou, ICntrl=  3507 FMM=F I1Cent=   0 AccDes= 0.00D+00.
 FoFJK:  IHMeth= 1 ICntrl=    3507 DoSepK=F KAlg= 0 I1Cent=           0 FoldK=F
 IRaf=         0 NMat=       1 IRICut=       1 DoRegI=T DoRafI=F ISym2E= 0 IDoP0=0 IntGTp=1.
 FoFCou: FMM=F IPFlag=           0 FMFlag=      100000 FMFlg1=           0
         NFxFlg=           0 DoJE=F BraDBF=F KetDBF=F FulRan=T
         wScrn=  0.000000 ICntrl=      3507 IOpCl=  0 I1Cent=           0 NGrid=           0
         NMat0=    1 NMatS0=      1 NMatT0=    0 NMatD0=    1 NMtDS0=    0 NMtDT0=    0
 Symmetry not used in FoFCou.
 End of G2Drv F.D. properties file   721 does not exist.
 End of G2Drv F.D. properties file   722 does not exist.
 End of G2Drv F.D. properties file   788 does not exist.
 Leave Link 1110 at Wed Mar  5 18:43:34 2025, MaxMem= 13421772800 cpu:            1765.9 elap:              14.1
 (Enter /gpfs/fs1/soft/improv/software/custom-built/gaussian/g16/l1002.exe)
 Minotr:  UHF open shell wavefunction.
          IDoAtm=1111111111111111111
          Direct CPHF calculation.
          Differentiating once with respect to electric field.
                with respect to dipole field.
          Differentiating once with respect to nuclear coordinates.
          Requested convergence is 1.0D-08 RMS, and 1.0D-07 maximum.
          Secondary convergence is 1.0D-12 RMS, and 1.0D-12 maximum.
          NewPWx=T KeepS1=F KeepF1=F KeepIn=T MapXYZ=F SortEE=F KeepMc=T.
         6034 words used for storage of precomputed grid.
 Two-electron integrals replicated using symmetry.
          MDV=   13421772800 using IRadAn=       1.
          Solving linear equations simultaneously, MaxMat=     384.
 FoF2E skips out because all densities are zero.
 CalDSu exits because no D1Ps are significant.
 FoFJK:  IHMeth= 1 ICntrl=     500 DoSepK=F KAlg= 0 I1Cent=           0 FoldK=F
 IRaf= 990000000 NMat=      57 IRICut=       1 DoRegI=T DoRafI=F ISym2E= 2 IDoP0=3 IntGTp=2.
 FoFCou: FMM=F IPFlag=           0 FMFlag=      100000 FMFlg1=           0
         NFxFlg=           0 DoJE=F BraDBF=F KetDBF=F FulRan=T
         wScrn=  0.000000 ICntrl=       500 IOpCl=  0 I1Cent=           0 NGrid=           0
         NMat0=   57 NMatS0=     57 NMatT0=    0 NMatD0=   57 NMtDS0=    0 NMtDT0=    0
 Integrals replicated using symmetry in FoFCou.
          There are    60 degrees of freedom in the 1st order CPHF.  IDoFFX=6 NUNeed=     3.
     57 vectors produced by pass  0 Test12= 3.85D-14 1.67D-09 XBig12= 1.45D+02 3.93D+00.
 AX will form    57 AO Fock derivatives at one time.
     57 vectors produced by pass  1 Test12= 3.85D-14 1.67D-09 XBig12= 1.06D+01 4.43D-01.
     57 vectors produced by pass  2 Test12= 3.85D-14 1.67D-09 XBig12= 1.15D-01 4.60D-02.
     57 vectors produced by pass  3 Test12= 3.85D-14 1.67D-09 XBig12= 1.18D-03 4.20D-03.
     57 vectors produced by pass  4 Test12= 3.85D-14 1.67D-09 XBig12= 5.62D-06 2.56D-04.
     57 vectors produced by pass  5 Test12= 3.85D-14 1.67D-09 XBig12= 1.06D-08 1.31D-05.
     29 vectors produced by pass  6 Test12= 3.85D-14 1.67D-09 XBig12= 2.39D-11 4.02D-07.
      3 vectors produced by pass  7 Test12= 3.85D-14 1.67D-09 XBig12= 4.46D-14 2.51D-08.
 InvSVY:  IOpt=1 It=  1 EMax= 5.33D-15
 Solved reduced A of dimension   374 with    60 vectors.
 FullF1:  Do perturbations      1 to       3.
 Isotropic polarizability for W=    0.000000       59.39 Bohr**3.
 End of Minotr F.D. properties file   721 does not exist.
 End of Minotr F.D. properties file   722 does not exist.
 End of Minotr F.D. properties file   788 does not exist.
 Leave Link 1002 at Wed Mar  5 18:44:19 2025, MaxMem= 13421772800 cpu:            5354.0 elap:              44.8
 (Enter /gpfs/fs1/soft/improv/software/custom-built/gaussian/g16/l601.exe)
 Copying SCF densities to generalized density rwf, IOpCl= 1 IROHF=0.

 **********************************************************************

            Population analysis using the SCF Density.

 **********************************************************************

 Orbital symmetries:
 Alpha Orbitals:
       Occupied  (A) (A) (A) (A) (A) (A) (A) (A) (A) (A) (A) (A)
                 (A) (A) (A) (A) (A) (A) (A) (A) (A) (A) (A) (A)
                 (A) (A) (A) (A) (A) (A) (A) (A) (A) (A) (A) (A)
                 (A) (A) (A) (A) (A) (A) (A) (A)
       Virtual   (A) (A) (A) (A) (A) (A) (A) (A) (A) (A) (A) (A)
                 (A) (A) (A) (A) (A) (A) (A) (A) (A) (A) (A) (A)
                 (A) (A) (A) (A) (A) (A) (A) (A) (A) (A) (A) (A)
                 (A) (A) (A) (A) (A) (A) (A) (A) (A) (A) (A) (A)
                 (A) (A) (A) (A) (A) (A) (A) (A) (A) (A) (A) (A)
                 (A) (A) (A) (A) (A) (A) (A) (A) (A) (A) (A) (A)
                 (A) (A) (A) (A) (A) (A) (A) (A) (A) (A) (A) (A)
                 (A) (A) (A) (A) (A) (A) (A) (A) (A) (A) (A) (A)
                 (A) (A) (A) (A) (A) (A) (A) (A) (A) (A) (A) (A)
                 (A) (A) (A) (A) (A) (A) (A) (A) (A) (A) (A) (A)
                 (A) (A) (A) (A) (A) (A) (A) (A) (A) (A) (A) (A)
                 (A) (A) (A) (A) (A) (A) (A) (A) (A) (A) (A) (A)
                 (A) (A) (A) (A) (A) (A) (A) (A) (A) (A) (A) (A)
                 (A) (A) (A) (A) (A) (A) (A) (A) (A) (A) (A) (A)
                 (A) (A) (A) (A) (A) (A) (A) (A) (A) (A) (A) (A)
                 (A) (A) (A) (A) (A) (A) (A) (A) (A) (A) (A) (A)
                 (A) (A) (A) (A) (A) (A) (A) (A) (A) (A) (A) (A)
                 (A) (A) (A) (A) (A) (A) (A) (A) (A) (A) (A) (A)
                 (A) (A) (A) (A) (A) (A) (A) (A) (A) (A) (A) (A)
                 (A) (A) (A) (A) (A) (A) (A) (A) (A) (A) (A) (A)
                 (A) (A) (A) (A) (A) (A) (A) (A) (A) (A) (A) (A)
                 (A) (A) (A) (A) (A) (A) (A) (A) (A) (A) (A) (A)
                 (A) (A) (A) (A) (A) (A) (A) (A) (A)
 Beta  Orbitals:
       Occupied  (A) (A) (A) (A) (A) (A) (A) (A) (A) (A) (A) (A)
                 (A) (A) (A) (A) (A) (A) (A) (A) (A) (A) (A) (A)
                 (A) (A) (A) (A) (A) (A) (A) (A) (A) (A) (A) (A)
                 (A) (A) (A) (A)
       Virtual   (A) (A) (A) (A) (A) (A) (A) (A) (A) (A) (A) (A)
                 (A) (A) (A) (A) (A) (A) (A) (A) (A) (A) (A) (A)
                 (A) (A) (A) (A) (A) (A) (A) (A) (A) (A) (A) (A)
                 (A) (A) (A) (A) (A) (A) (A) (A) (A) (A) (A) (A)
                 (A) (A) (A) (A) (A) (A) (A) (A) (A) (A) (A) (A)
                 (A) (A) (A) (A) (A) (A) (A) (A) (A) (A) (A) (A)
                 (A) (A) (A) (A) (A) (A) (A) (A) (A) (A) (A) (A)
                 (A) (A) (A) (A) (A) (A) (A) (A) (A) (A) (A) (A)
                 (A) (A) (A) (A) (A) (A) (A) (A) (A) (A) (A) (A)
                 (A) (A) (A) (A) (A) (A) (A) (A) (A) (A) (A) (A)
                 (A) (A) (A) (A) (A) (A) (A) (A) (A) (A) (A) (A)
                 (A) (A) (A) (A) (A) (A) (A) (A) (A) (A) (A) (A)
                 (A) (A) (A) (A) (A) (A) (A) (A) (A) (A) (A) (A)
                 (A) (A) (A) (A) (A) (A) (A) (A) (A) (A) (A) (A)
                 (A) (A) (A) (A) (A) (A) (A) (A) (A) (A) (A) (A)
                 (A) (A) (A) (A) (A) (A) (A) (A) (A) (A) (A) (A)
                 (A) (A) (A) (A) (A) (A) (A) (A) (A) (A) (A) (A)
                 (A) (A) (A) (A) (A) (A) (A) (A) (A) (A) (A) (A)
                 (A) (A) (A) (A) (A) (A) (A) (A) (A) (A) (A) (A)
                 (A) (A) (A) (A) (A) (A) (A) (A) (A) (A) (A) (A)
                 (A) (A) (A) (A) (A) (A) (A) (A) (A) (A) (A) (A)
                 (A) (A) (A) (A) (A) (A) (A) (A) (A) (A) (A) (A)
                 (A) (A) (A) (A) (A) (A) (A) (A) (A) (A) (A) (A)
                 (A)
 The electronic state is 5-A.
 Alpha  occ. eigenvalues -- -254.66099 -29.90354 -26.09116 -26.07678 -26.06007
 Alpha  occ. eigenvalues --  -19.17933 -19.17639 -19.16756 -19.16272 -19.14142
 Alpha  occ. eigenvalues --  -19.13794  -3.60964  -2.49720  -2.46782  -2.43464
 Alpha  occ. eigenvalues --   -1.35792  -1.33523  -1.32960  -1.32386  -1.30338
 Alpha  occ. eigenvalues --   -1.29879  -0.92267  -0.90880  -0.89307  -0.88663
 Alpha  occ. eigenvalues --   -0.86726  -0.85632  -0.81217  -0.79574  -0.78760
 Alpha  occ. eigenvalues --   -0.76130  -0.75838  -0.73460  -0.72960  -0.69844
 Alpha  occ. eigenvalues --   -0.68638  -0.67305  -0.65706  -0.64687  -0.55353
 Alpha  occ. eigenvalues --   -0.54134  -0.51064  -0.43718  -0.42854
 Alpha virt. eigenvalues --   -0.40175  -0.35318  -0.33058  -0.31860  -0.28260
 Alpha virt. eigenvalues --   -0.27235  -0.26178  -0.26045  -0.23322  -0.21922
 Alpha virt. eigenvalues --   -0.20973  -0.20889  -0.19890  -0.18549  -0.17635
 Alpha virt. eigenvalues --   -0.17451  -0.15801  -0.15513  -0.15325  -0.14496
 Alpha virt. eigenvalues --   -0.12593  -0.11856  -0.10603  -0.10066  -0.09314
 Alpha virt. eigenvalues --   -0.09122  -0.07519  -0.05982  -0.05016  -0.04643
 Alpha virt. eigenvalues --   -0.04018  -0.03463  -0.02419  -0.01509  -0.00118
 Alpha virt. eigenvalues --    0.01478   0.02529   0.03408   0.03509   0.04711
 Alpha virt. eigenvalues --    0.05722   0.06018   0.06667   0.08144   0.08452
 Alpha virt. eigenvalues --    0.11706   0.12214   0.15974   0.17625   0.22980
 Alpha virt. eigenvalues --    0.24615   0.25544   0.26123   0.38305   0.39629
 Alpha virt. eigenvalues --    0.41123   0.43223   0.44255   0.45060   0.46915
 Alpha virt. eigenvalues --    0.48253   0.48594   0.49743   0.50059   0.50728
 Alpha virt. eigenvalues --    0.52119   0.54604   0.56405   0.56534   0.57504
 Alpha virt. eigenvalues --    0.58497   0.59949   0.60370   0.62851   0.66457
 Alpha virt. eigenvalues --    0.67106   0.68427   0.68851   0.69342   0.69944
 Alpha virt. eigenvalues --    0.70957   0.72954   0.75733   0.76494   0.76745
 Alpha virt. eigenvalues --    0.78401   0.82820   0.83996   0.87041   0.88597
 Alpha virt. eigenvalues --    0.90957   0.93101   0.94088   0.95122   0.96655
 Alpha virt. eigenvalues --    0.97937   1.00822   1.02076   1.03668   1.04991
 Alpha virt. eigenvalues --    1.05519   1.06802   1.09092   1.24002   1.24854
 Alpha virt. eigenvalues --    1.34422   1.34638   1.36174   1.37353   1.42276
 Alpha virt. eigenvalues --    1.42776   1.43935   1.44639   1.47820   1.48169
 Alpha virt. eigenvalues --    1.52026   1.53448   1.54542   1.57377   1.60305
 Alpha virt. eigenvalues --    1.64836   1.69871   1.75885   1.83002   1.84650
 Alpha virt. eigenvalues --    1.86716   1.89803   1.90064   1.93640   1.98385
 Alpha virt. eigenvalues --    1.99185   1.99387   2.01829   2.02343   2.10086
 Alpha virt. eigenvalues --    2.14300   2.16248   2.20174   2.23409   2.26642
 Alpha virt. eigenvalues --    2.29547   2.30053   2.34719   2.39152   2.41947
 Alpha virt. eigenvalues --    2.43388   2.47713   2.50342   2.51590   2.52419
 Alpha virt. eigenvalues --    2.53437   2.54363   2.57448   2.57787   2.59416
 Alpha virt. eigenvalues --    2.60783   2.61832   2.64547   2.65867   2.66408
 Alpha virt. eigenvalues --    2.67517   2.68409   2.69966   2.72359   2.75841
 Alpha virt. eigenvalues --    2.80701   2.88315   2.91193   2.94541   2.96418
 Alpha virt. eigenvalues --    3.04965   3.30096   3.60938   3.61793   3.63713
 Alpha virt. eigenvalues --    3.66876   3.68339   3.73890   3.75165   3.76852
 Alpha virt. eigenvalues --    3.80479   3.81775   3.82839   3.84200   3.88136
 Alpha virt. eigenvalues --    3.88561   3.89302   3.91542   3.91886   3.94710
 Alpha virt. eigenvalues --    3.99354   3.99972   4.01384   4.03275   4.06065
 Alpha virt. eigenvalues --    4.07601   4.08885   4.09890   4.12479   4.13719
 Alpha virt. eigenvalues --    4.15498   4.20000   4.28726   4.31018   4.32234
 Alpha virt. eigenvalues --    4.34101   4.37723   4.38884   4.40299   4.41388
 Alpha virt. eigenvalues --    4.47330   4.53156   4.53432   4.55336   4.56377
 Alpha virt. eigenvalues --    4.58584   4.60627   4.65889   4.73192   4.78802
 Alpha virt. eigenvalues --    4.80686   4.81396   4.84587   4.87882   4.94646
 Alpha virt. eigenvalues --    4.97102   4.98208   4.99462   4.99937   5.02162
 Alpha virt. eigenvalues --    5.03310   5.04143   5.05365   5.06995   5.12421
 Alpha virt. eigenvalues --    5.13150   5.18897   5.20286   5.21839   5.23566
 Alpha virt. eigenvalues --    5.26078   5.30229   5.31324   5.32742   5.36157
 Alpha virt. eigenvalues --    5.38184   5.40205   5.42473   5.43860   5.45193
 Alpha virt. eigenvalues --    5.47619   5.48750   5.51177   5.51553   5.53873
 Alpha virt. eigenvalues --    5.57629   5.59327   5.72163   5.73336   6.15326
 Alpha virt. eigenvalues --    7.03258   7.06152   7.07162   7.14892   7.17768
 Alpha virt. eigenvalues --    7.32046  13.44937  13.47277  13.48167  14.03353
 Alpha virt. eigenvalues --   14.08777  14.13915  25.73624
  Beta  occ. eigenvalues -- -254.65738 -29.82438 -26.02062 -26.01297 -26.00303
  Beta  occ. eigenvalues --  -19.17651 -19.17356 -19.16477 -19.16015 -19.13808
  Beta  occ. eigenvalues --  -19.13459  -3.46618  -2.33783  -2.32967  -2.31796
  Beta  occ. eigenvalues --   -1.35390  -1.33121  -1.32536  -1.31986  -1.29853
  Beta  occ. eigenvalues --   -1.29379  -0.91966  -0.90507  -0.89015  -0.88344
  Beta  occ. eigenvalues --   -0.86382  -0.85309  -0.80450  -0.78082  -0.76728
  Beta  occ. eigenvalues --   -0.75252  -0.74915  -0.72249  -0.72062  -0.68994
  Beta  occ. eigenvalues --   -0.67609  -0.66295  -0.64719  -0.63891  -0.45072
  Beta virt. eigenvalues --   -0.43670  -0.42533  -0.39172  -0.34428  -0.32808
  Beta virt. eigenvalues --   -0.32073  -0.31248  -0.31032  -0.26976  -0.25646
  Beta virt. eigenvalues --   -0.25177  -0.24823  -0.22675  -0.21468  -0.20884
  Beta virt. eigenvalues --   -0.20378  -0.19306  -0.18095  -0.17880  -0.17484
  Beta virt. eigenvalues --   -0.15762  -0.14251  -0.13849  -0.13586  -0.11789
  Beta virt. eigenvalues --   -0.11377  -0.09349  -0.09022  -0.08259  -0.07912
  Beta virt. eigenvalues --   -0.06806  -0.05066  -0.04359  -0.03759  -0.03271
  Beta virt. eigenvalues --   -0.02675  -0.01692  -0.00791   0.00707   0.02124
  Beta virt. eigenvalues --    0.03302   0.03916   0.04420   0.05318   0.06422
  Beta virt. eigenvalues --    0.06652   0.07314   0.08819   0.09068   0.12783
  Beta virt. eigenvalues --    0.13053   0.17387   0.18599   0.24174   0.25773
  Beta virt. eigenvalues --    0.25852   0.26528   0.38696   0.40074   0.41622
  Beta virt. eigenvalues --    0.43867   0.45106   0.45972   0.47775   0.49105
  Beta virt. eigenvalues --    0.49327   0.50327   0.50658   0.51442   0.53047
  Beta virt. eigenvalues --    0.55487   0.56898   0.57288   0.57838   0.59282
  Beta virt. eigenvalues --    0.60638   0.60936   0.63174   0.67277   0.67929
  Beta virt. eigenvalues --    0.69170   0.69542   0.69890   0.70750   0.71618
  Beta virt. eigenvalues --    0.73768   0.76199   0.77183   0.77515   0.79137
  Beta virt. eigenvalues --    0.83482   0.84759   0.87805   0.89427   0.91757
  Beta virt. eigenvalues --    0.93915   0.94918   0.96018   0.97206   0.98659
  Beta virt. eigenvalues --    1.01350   1.03203   1.04880   1.06291   1.06731
  Beta virt. eigenvalues --    1.07885   1.10387   1.26171   1.26613   1.35352
  Beta virt. eigenvalues --    1.35832   1.37044   1.38349   1.43637   1.44453
  Beta virt. eigenvalues --    1.45595   1.46356   1.49390   1.49520   1.53583
  Beta virt. eigenvalues --    1.55522   1.56510   1.59185   1.61428   1.65335
  Beta virt. eigenvalues --    1.70998   1.76690   1.83284   1.84916   1.87079
  Beta virt. eigenvalues --    1.90199   1.90331   1.94044   1.98900   1.99642
  Beta virt. eigenvalues --    1.99985   2.02230   2.02711   2.10616   2.15146
  Beta virt. eigenvalues --    2.16549   2.20680   2.23807   2.27559   2.30478
  Beta virt. eigenvalues --    2.30745   2.35593   2.40053   2.42882   2.44406
  Beta virt. eigenvalues --    2.49026   2.51371   2.52541   2.54061   2.54480
  Beta virt. eigenvalues --    2.55197   2.58100   2.58541   2.59961   2.61380
  Beta virt. eigenvalues --    2.62530   2.65504   2.66740   2.67757   2.69115
  Beta virt. eigenvalues --    2.69459   2.71167   2.73765   2.76550   2.81134
  Beta virt. eigenvalues --    2.89263   2.91808   2.96945   2.98909   3.06912
  Beta virt. eigenvalues --    3.32585   3.62444   3.62852   3.65258   3.67631
  Beta virt. eigenvalues --    3.68981   3.74550   3.75891   3.77563   3.81334
  Beta virt. eigenvalues --    3.82800   3.83651   3.87437   3.90174   3.90501
  Beta virt. eigenvalues --    3.90831   3.93117   3.94776   3.95737   4.01873
  Beta virt. eigenvalues --    4.02036   4.04154   4.06203   4.07682   4.09823
  Beta virt. eigenvalues --    4.11140   4.12519   4.14477   4.14966   4.17099
  Beta virt. eigenvalues --    4.21093   4.34152   4.34761   4.36614   4.37022
  Beta virt. eigenvalues --    4.41128   4.41978   4.43983   4.45592   4.49510
  Beta virt. eigenvalues --    4.54963   4.55368   4.57524   4.59764   4.61541
  Beta virt. eigenvalues --    4.62971   4.70169   4.74385   4.80567   4.81702
  Beta virt. eigenvalues --    4.82790   4.85661   4.89149   4.95934   4.97614
  Beta virt. eigenvalues --    4.98638   5.00101   5.00357   5.02819   5.03885
  Beta virt. eigenvalues --    5.05120   5.07274   5.09104   5.14208   5.14803
  Beta virt. eigenvalues --    5.20121   5.21609   5.22907   5.25135   5.28446
  Beta virt. eigenvalues --    5.32015   5.33277   5.34213   5.37472   5.39787
  Beta virt. eigenvalues --    5.41400   5.44010   5.45214   5.46763   5.48817
  Beta virt. eigenvalues --    5.50207   5.52683   5.53228   5.54631   5.58288
  Beta virt. eigenvalues --    5.60000   5.73191   5.74319   6.17560   7.03996
  Beta virt. eigenvalues --    7.06878   7.07853   7.15525   7.18424   7.32568
  Beta virt. eigenvalues --   13.45492  13.47830  13.48666  14.03981  14.09365
  Beta virt. eigenvalues --   14.14480  25.80440
          Condensed to atoms (all electrons):
               1          2          3          4          5          6
     1  Fe  25.709473  -0.037976  -0.026829  -0.036409  -0.023925  -0.059531
     2  O   -0.037976   8.276139   0.321744  -0.069934   0.000201  -0.083247
     3  H   -0.026829   0.321744   0.296553   0.000412  -0.000011   0.004809
     4  O   -0.036409  -0.069934   0.000412   8.274282   0.316413  -0.081219
     5  H   -0.023925   0.000201  -0.000011   0.316413   0.321464   0.004912
     6  O   -0.059531  -0.083247   0.004809  -0.081219   0.004912   8.277523
     7  H   -0.029881   0.000621   0.000001  -0.002585  -0.000402   0.314300
     8  O   -0.077477   0.068948  -0.001379  -0.078405   0.003214  -0.091716
     9  H   -0.020215  -0.001519  -0.000017   0.001128  -0.000087   0.001341
    10  O   -0.023059  -0.081758   0.001438   0.050982  -0.001749  -0.080016
    11  H   -0.025451   0.001865  -0.000732  -0.000806   0.000012  -0.000803
    12  O   -0.035097  -0.083951   0.006289  -0.073170   0.001336   0.070708
    13  H   -0.034778   0.004540  -0.000020   0.003486  -0.000048  -0.001245
    14  H   -0.018550   0.001156  -0.000176   0.001409   0.000006  -0.001939
    15  H   -0.023666   0.000214  -0.000129   0.323468  -0.026936  -0.005506
    16  H   -0.021047   0.308834  -0.019574   0.003214  -0.000067  -0.001554
    17  H   -0.030039   0.000704   0.000200  -0.001628  -0.000009   0.002525
    18  H   -0.025623   0.001057  -0.000103   0.008241  -0.001110   0.312847
    19  H   -0.026681  -0.001722   0.000022  -0.000780   0.000376   0.003934
               7          8          9         10         11         12
     1  Fe  -0.029881  -0.077477  -0.020215  -0.023059  -0.025451  -0.035097
     2  O    0.000621   0.068948  -0.001519  -0.081758   0.001865  -0.083951
     3  H    0.000001  -0.001379  -0.000017   0.001438  -0.000732   0.006289
     4  O   -0.002585  -0.078405   0.001128   0.050982  -0.000806  -0.073170
     5  H   -0.000402   0.003214  -0.000087  -0.001749   0.000012   0.001336
     6  O    0.314300  -0.091716   0.001341  -0.080016  -0.000803   0.070708
     7  H    0.352807   0.002894  -0.001331   0.001777  -0.000277  -0.002234
     8  O    0.002894   8.278734   0.315579  -0.049575  -0.005822  -0.077039
     9  H   -0.001331   0.315579   0.317144   0.000770   0.001742   0.000914
    10  O    0.001777  -0.049575   0.000770   8.252315   0.319768  -0.083459
    11  H   -0.000277  -0.005822   0.001742   0.319768   0.328355   0.000313
    12  O   -0.002234  -0.077039   0.000914  -0.083459   0.000313   8.264844
    13  H    0.000032   0.004331  -0.000152   0.001616  -0.000399   0.325456
    14  H   -0.000065  -0.002236   0.001541   0.000712   0.004354   0.304832
    15  H   -0.000031  -0.000584  -0.000007  -0.000968   0.000011   0.001762
    16  H   -0.000407  -0.001691   0.000021   0.003090   0.000070   0.000676
    17  H    0.002199   0.002456  -0.001706   0.322035  -0.029695   0.000642
    18  H   -0.028435   0.000378   0.000145   0.000474   0.000028  -0.001784
    19  H    0.008623   0.313115  -0.023968  -0.001467  -0.000115   0.001190
              13         14         15         16         17         18
     1  Fe  -0.034778  -0.018550  -0.023666  -0.021047  -0.030039  -0.025623
     2  O    0.004540   0.001156   0.000214   0.308834   0.000704   0.001057
     3  H   -0.000020  -0.000176  -0.000129  -0.019574   0.000200  -0.000103
     4  O    0.003486   0.001409   0.323468   0.003214  -0.001628   0.008241
     5  H   -0.000048   0.000006  -0.026936  -0.000067  -0.000009  -0.001110
     6  O   -0.001245  -0.001939  -0.005506  -0.001554   0.002525   0.312847
     7  H    0.000032  -0.000065  -0.000031  -0.000407   0.002199  -0.028435
     8  O    0.004331  -0.002236  -0.000584  -0.001691   0.002456   0.000378
     9  H   -0.000152   0.001541  -0.000007   0.000021  -0.001706   0.000145
    10  O    0.001616   0.000712  -0.000968   0.003090   0.322035   0.000474
    11  H   -0.000399   0.004354   0.000011   0.000070  -0.029695   0.000028
    12  O    0.325456   0.304832   0.001762   0.000676   0.000642  -0.001784
    13  H    0.298298  -0.022413  -0.000508  -0.000119  -0.000003  -0.000039
    14  H   -0.022413   0.349192   0.000031   0.000011  -0.000300   0.000034
    15  H   -0.000508   0.000031   0.312120   0.001076   0.000005   0.001832
    16  H   -0.000119   0.000011   0.001076   0.328104  -0.000074   0.001058
    17  H   -0.000003  -0.000300   0.000005  -0.000074   0.324206  -0.000288
    18  H   -0.000039   0.000034   0.001832   0.001058  -0.000288   0.329178
    19  H    0.000025  -0.000424  -0.000110  -0.000056   0.000107  -0.002037
              19
     1  Fe  -0.026681
     2  O   -0.001722
     3  H    0.000022
     4  O   -0.000780
     5  H    0.000376
     6  O    0.003934
     7  H    0.008623
     8  O    0.313115
     9  H   -0.023968
    10  O   -0.001467
    11  H   -0.000115
    12  O    0.001190
    13  H    0.000025
    14  H   -0.000424
    15  H   -0.000110
    16  H   -0.000056
    17  H    0.000107
    18  H   -0.002037
    19  H    0.344214
          Atomic-Atomic Spin Densities.
               1          2          3          4          5          6
     1  Fe   3.968460  -0.071747  -0.000142  -0.066796  -0.002507  -0.116850
     2  O   -0.071747   0.292320  -0.013779  -0.035119   0.000109  -0.042747
     3  H   -0.000142  -0.013779   0.010598   0.000376   0.000017   0.003470
     4  O   -0.066796  -0.035119   0.000376   0.242594  -0.007939  -0.039953
     5  H   -0.002507   0.000109   0.000017  -0.007939   0.013637   0.004520
     6  O   -0.116850  -0.042747   0.003470  -0.039953   0.004520   0.321297
     7  H    0.012994   0.000999  -0.000066   0.002661  -0.000228  -0.018538
     8  O   -0.106877   0.048295  -0.001298  -0.039860   0.002638  -0.046457
     9  H    0.003348  -0.000999   0.000001   0.001015  -0.000165   0.000619
    10  O   -0.074786  -0.033664   0.002119   0.041109  -0.001116  -0.045224
    11  H    0.004320   0.001049   0.000178  -0.000749   0.000007   0.000875
    12  O   -0.075562  -0.063779   0.005940  -0.035241   0.001542   0.053056
    13  H    0.003640   0.004170  -0.000222   0.000897  -0.000130  -0.001241
    14  H    0.002832   0.001523  -0.000010   0.001840  -0.000016  -0.000937
    15  H    0.000924   0.004054  -0.000069  -0.005587  -0.001467   0.001224
    16  H    0.000173  -0.006103   0.000822   0.001175  -0.000056   0.003151
    17  H   -0.000609   0.001081  -0.000221  -0.000735  -0.000006   0.001377
    18  H    0.009002   0.000831   0.000018   0.000737   0.000361  -0.013551
    19  H    0.009339  -0.001428   0.000006   0.003024   0.000192   0.003885
               7          8          9         10         11         12
     1  Fe   0.012994  -0.106877   0.003348  -0.074786   0.004320  -0.075562
     2  O    0.000999   0.048295  -0.000999  -0.033664   0.001049  -0.063779
     3  H   -0.000066  -0.001298   0.000001   0.002119   0.000178   0.005940
     4  O    0.002661  -0.039860   0.001015   0.041109  -0.000749  -0.035241
     5  H   -0.000228   0.002638  -0.000165  -0.001116   0.000007   0.001542
     6  O   -0.018538  -0.046457   0.000619  -0.045224   0.000875   0.053056
     7  H   -0.002203   0.002512   0.000306   0.002662   0.000119  -0.001495
     8  O    0.002512   0.306460  -0.011670  -0.031801   0.001565  -0.050153
     9  H    0.000306  -0.011670   0.010518   0.003916  -0.000702   0.000779
    10  O    0.002662  -0.031801   0.003916   0.255639  -0.005658  -0.040748
    11  H    0.000119   0.001565  -0.000702  -0.005658  -0.002060   0.003079
    12  O   -0.001495  -0.050153   0.000779  -0.040748   0.003079   0.310713
    13  H    0.000000   0.003827   0.000008   0.000410   0.000018  -0.015029
    14  H    0.000026   0.003652  -0.000597   0.001955  -0.001397  -0.008589
    15  H    0.000087   0.000738   0.000007  -0.000634  -0.000000   0.000607
    16  H    0.000043  -0.000689   0.000003   0.001929  -0.000063   0.000665
    17  H   -0.000614   0.002854   0.000665  -0.005056   0.000402   0.000085
    18  H    0.004439   0.001690  -0.000095   0.001077  -0.000011  -0.001075
    19  H   -0.001842  -0.017296   0.001869   0.001227   0.000151   0.001179
              13         14         15         16         17         18
     1  Fe   0.003640   0.002832   0.000924   0.000173  -0.000609   0.009002
     2  O    0.004170   0.001523   0.004054  -0.006103   0.001081   0.000831
     3  H   -0.000222  -0.000010  -0.000069   0.000822  -0.000221   0.000018
     4  O    0.000897   0.001840  -0.005587   0.001175  -0.000735   0.000737
     5  H   -0.000130  -0.000016  -0.001467  -0.000056  -0.000006   0.000361
     6  O   -0.001241  -0.000937   0.001224   0.003151   0.001377  -0.013551
     7  H    0.000000   0.000026   0.000087   0.000043  -0.000614   0.004439
     8  O    0.003827   0.003652   0.000738  -0.000689   0.002854   0.001690
     9  H    0.000008  -0.000597   0.000007   0.000003   0.000665  -0.000095
    10  O    0.000410   0.001955  -0.000634   0.001929  -0.005056   0.001077
    11  H    0.000018  -0.001397  -0.000000  -0.000063   0.000402  -0.000011
    12  O   -0.015029  -0.008589   0.000607   0.000665   0.000085  -0.001075
[...]
    14  H   -0.016158   0.313053  -0.000004  -0.000001  -0.000056   0.000000
    15  H   -0.000073  -0.000004   0.317852  -0.000041   0.000000  -0.000057
    16  H   -0.000001  -0.000001  -0.000041   0.312906  -0.000003  -0.000067
    17  H    0.000000  -0.000056   0.000000  -0.000003   0.317844  -0.000004
    18  H    0.000001   0.000000  -0.000057  -0.000067  -0.000004   0.313054
    19  H   -0.000004  -0.000004  -0.000001   0.000000  -0.000061  -0.000048
              19
     1  Fe  -0.007581
     2  O   -0.000444
     3  H    0.000000
     4  O    0.001110
     5  H   -0.000062
     6  O    0.003277
     7  H   -0.000048
     8  O    0.302853
     9  H   -0.015686
    10  O    0.001104
    11  H   -0.000001
    12  O    0.001273
    13  H   -0.000004
    14  H   -0.000004
    15  H   -0.000001
    16  H    0.000000
    17  H   -0.000061
    18  H   -0.000048
    19  H    0.312158
          Atomic-Atomic Spin Densities.
               1          2          3          4          5          6
     1  Fe   4.025944  -0.062047   0.003057  -0.063172   0.004210  -0.072390
     2  O   -0.062047   0.172958  -0.006483  -0.016019   0.000280  -0.019166
     3  H    0.003057  -0.006483   0.004331   0.000611  -0.000002   0.000291
     4  O   -0.063172  -0.016019   0.000611   0.168270  -0.007609  -0.019570
     5  H    0.004210   0.000280  -0.000002  -0.007609   0.003481   0.000764
     6  O   -0.072390  -0.019166   0.000291  -0.019570   0.000764   0.198098
     7  H    0.004188   0.000834  -0.000003   0.000324  -0.000002  -0.007809
     8  O   -0.062052   0.014789  -0.000193  -0.016037   0.000892  -0.019168
     9  H    0.003116  -0.000196   0.000000   0.000698  -0.000025   0.000240
    10  O   -0.063243  -0.016066   0.000611   0.014810  -0.000186  -0.019544
    11  H    0.004216   0.000894  -0.000025  -0.000186   0.000000   0.000670
    12  O   -0.072389  -0.019165   0.001269  -0.019557   0.000673   0.017569
    13  H    0.004184   0.000662  -0.000027   0.000991  -0.000014  -0.000230
    14  H    0.004186   0.000660  -0.000026   0.000323  -0.000002  -0.000230
    15  H    0.004208   0.000890  -0.000025  -0.007614   0.000978   0.000675
    16  H    0.003116  -0.006826   0.000664   0.000694  -0.000003   0.001304
    17  H    0.004214   0.000283  -0.000002  -0.000186   0.000000   0.000762
    18  H    0.004182   0.000837  -0.000003   0.000991  -0.000051  -0.007809
    19  H    0.003057  -0.000193   0.000000   0.000611  -0.000025   0.001269
               7          8          9         10         11         12
     1  Fe   0.004188  -0.062052   0.003116  -0.063243   0.004216  -0.072389
     2  O    0.000834   0.014789  -0.000196  -0.016066   0.000894  -0.019165
     3  H   -0.000003  -0.000193   0.000000   0.000611  -0.000025   0.001269
     4  O    0.000324  -0.016037   0.000698   0.014810  -0.000186  -0.019557
     5  H   -0.000002   0.000892  -0.000025  -0.000186   0.000000   0.000673
     6  O   -0.007809  -0.019168   0.000240  -0.019544   0.000670   0.017569
     7  H    0.002954   0.000662  -0.000002   0.000989  -0.000013  -0.000230
     8  O    0.000662   0.172972  -0.006826  -0.016039   0.000280  -0.019174
     9  H   -0.000002  -0.006826   0.004737   0.000696  -0.000003   0.001305
    10  O    0.000989  -0.016039   0.000696   0.168450  -0.007613  -0.019551
    11  H   -0.000013   0.000280  -0.000003  -0.007613   0.003473   0.000763
    12  O   -0.000230  -0.019174   0.001305  -0.019551   0.000763   0.198091
    13  H    0.000000   0.000835  -0.000033   0.000324  -0.000002  -0.007807
    14  H    0.000000   0.000837  -0.000033   0.000989  -0.000051  -0.007811
    15  H   -0.000002   0.000282  -0.000003  -0.000186   0.000000   0.000762
    16  H   -0.000033  -0.000196   0.000000   0.000700  -0.000025   0.000240
    17  H   -0.000051   0.000890  -0.000025  -0.007619   0.000980   0.000672
    18  H    0.001010   0.000661  -0.000002   0.000323  -0.000002  -0.000230
    19  H   -0.000027  -0.006483   0.000664   0.000611  -0.000002   0.000291
              13         14         15         16         17         18
     1  Fe   0.004184   0.004186   0.004208   0.003116   0.004214   0.004182
     2  O    0.000662   0.000660   0.000890  -0.006826   0.000283   0.000837
     3  H   -0.000027  -0.000026  -0.000025   0.000664  -0.000002  -0.000003
     4  O    0.000991   0.000323  -0.007614   0.000694  -0.000186   0.000991
     5  H   -0.000014  -0.000002   0.000978  -0.000003   0.000000  -0.000051
     6  O   -0.000230  -0.000230   0.000675   0.001304   0.000762  -0.007809
     7  H    0.000000   0.000000  -0.000002  -0.000033  -0.000051   0.001010
     8  O    0.000835   0.000837   0.000282  -0.000196   0.000890   0.000661
     9  H   -0.000033  -0.000033  -0.000003   0.000000  -0.000025  -0.000002
    10  O    0.000324   0.000989  -0.000186   0.000700  -0.007619   0.000323
    11  H   -0.000002  -0.000051   0.000000  -0.000025   0.000980  -0.000002
    12  O   -0.007807  -0.007811   0.000762   0.000240   0.000672  -0.000230
    13  H    0.002948   0.001010  -0.000051  -0.000002  -0.000002   0.000000
    14  H    0.001010   0.002953  -0.000002  -0.000002  -0.000014   0.000000
    15  H   -0.000051  -0.000002   0.003494  -0.000025   0.000000  -0.000014
    16  H   -0.000002  -0.000002  -0.000025   0.004737  -0.000003  -0.000034
    17  H   -0.000002  -0.000014   0.000000  -0.000003   0.003487  -0.000002
    18  H    0.000000   0.000000  -0.000014  -0.000034  -0.000002   0.002947
    19  H   -0.000003  -0.000003  -0.000002   0.000000  -0.000025  -0.000026
              19
     1  Fe   0.003057
     2  O   -0.000193
     3  H    0.000000
     4  O    0.000611
     5  H   -0.000025
     6  O    0.001269
     7  H   -0.000027
     8  O   -0.006483
     9  H    0.000664
    10  O    0.000611
    11  H   -0.000002
    12  O    0.000291
    13  H   -0.000003
    14  H   -0.000003
    15  H   -0.000002
    16  H    0.000000
    17  H   -0.000025
    18  H   -0.000026
    19  H    0.004331
 Mulliken charges and spin densities:
               1          2
     1  Fe   0.979822   3.676585
     2  O   -0.632578   0.046925
     3  H    0.402161   0.004045
     4  O   -0.630306   0.038372
     5  H    0.397121   0.003359
     6  O   -0.632027   0.055726
     7  H    0.403037   0.002790
     8  O   -0.632564   0.046932
     9  H    0.402394   0.004309
    10  O   -0.630103   0.038455
    11  H    0.397097   0.003353
    12  O   -0.632031   0.055721
    13  H    0.403018   0.002786
    14  H    0.403064   0.002785
    15  H    0.397155   0.003364
    16  H    0.402394   0.004309
    17  H    0.397138   0.003359
    18  H    0.403045   0.002780
    19  H    0.402164   0.004045
 Sum of Mulliken charges =   2.00000   4.00000
 Mulliken charges and spin densities with hydrogens summed into heavy atoms:
               1          2
     1  Fe   0.979822   3.676585
     2  O    0.171977   0.055279
     4  O    0.163970   0.045096
     6  O    0.174055   0.061295
     8  O    0.171994   0.055286
    10  O    0.164131   0.045168
    12  O    0.174051   0.061291
 Electronic spatial extent (au):  <R**2>=           1123.7188
 Charge=              2.0000 electrons
 Dipole moment (field-independent basis, Debye):
    X=             -0.0014    Y=              0.0000    Z=             -0.0002  Tot=              0.0014
 Quadrupole moment (field-independent basis, Debye-Ang):
   XX=            -16.1382   YY=            -15.7231   ZZ=            -15.0660
   XY=             -0.0112   XZ=             -0.0029   YZ=              0.1273
 Traceless Quadrupole moment (field-independent basis, Debye-Ang):
   XX=             -0.4957   YY=             -0.0807   ZZ=              0.5764
   XY=             -0.0112   XZ=             -0.0029   YZ=              0.1273
 Octapole moment (field-independent basis, Debye-Ang**2):
  XXX=             -0.0094  YYY=             -0.0058  ZZZ=              0.0020  XYY=             -0.0091
  XXY=              0.0048  XXZ=              0.0007  XZZ=             -0.0093  YZZ=              0.0001
  YYZ=             -0.0031  XYZ=              0.0037
 Hexadecapole moment (field-independent basis, Debye-Ang**3):
 XXXX=           -129.7444 YYYY=           -193.6383 ZZZZ=           -197.6273 XXXY=             10.0610
 XXXZ=             -1.5953 YYYX=             -7.5983 YYYZ=            -34.0577 ZZZX=             -0.8787
 ZZZY=             35.4227 XXYY=           -116.5926 XXZZ=            -91.9925 YYZZ=            -26.1588
 XXYZ=             -3.2152 YYXZ=              2.4593 ZZXY=             -2.3282
 N-N= 6.668930442979D+02 E-N=-5.399653020948D+03  KE= 1.718018331293D+03
                          Isotropic Fermi Contact Couplings
        Atom                 a.u.       MegaHertz       Gauss      10(-4) cm-1
     1  Fe(57)             0.37810      13.70984       4.89201       4.57311
     2  O(17)              0.10562     -16.00590      -5.71130      -5.33899
     3  H(1)               0.00176       1.96143       0.69989       0.65426
     4  O(17)              0.10427     -15.80178      -5.63847      -5.27091
     5  H(1)               0.00111       1.23587       0.44099       0.41224
     6  O(17)              0.10447     -15.83304      -5.64962      -5.28133
     7  H(1)               0.00084       0.94214       0.33618       0.31426
     8  O(17)              0.10562     -16.00631      -5.71145      -5.33913
     9  H(1)               0.00180       2.00817       0.71657       0.66985
    10  O(17)              0.10430     -15.80580      -5.63990      -5.27225
    11  H(1)               0.00110       1.23119       0.43932       0.41068
    12  O(17)              0.10447     -15.83290      -5.64957      -5.28129
    13  H(1)               0.00084       0.93909       0.33509       0.31325
    14  H(1)               0.00084       0.93946       0.33522       0.31337
    15  H(1)               0.00111       1.24000       0.44246       0.41362
    16  H(1)               0.00180       2.00829       0.71661       0.66989
    17  H(1)               0.00111       1.23591       0.44100       0.41226
    18  H(1)               0.00084       0.93602       0.33399       0.31222
    19  H(1)               0.00176       1.96151       0.69992       0.65429
 --------------------------------------------------------
       Center         ----  Spin Dipole Couplings  ----
                      3XX-RR        3YY-RR        3ZZ-RR
 --------------------------------------------------------
     1   Atom       -1.323802      2.659208     -1.335406
     2   Atom       -0.047403      0.100406     -0.053003
     3   Atom       -0.030979      0.006750      0.024229
     4   Atom        0.177332     -0.075088     -0.102244
     5   Atom        0.046370     -0.024501     -0.021869
     6   Atom       -0.162651      0.028828      0.133823
     7   Atom       -0.013842     -0.011083      0.024924
     8   Atom       -0.047358      0.100397     -0.053038
     9   Atom       -0.031107      0.053282     -0.022175
    10   Atom        0.177221     -0.074805     -0.102416
    11   Atom        0.046371     -0.024541     -0.021830
    12   Atom       -0.162636      0.028810      0.133825
    13   Atom       -0.013793     -0.011100      0.024893
    14   Atom       -0.015366     -0.008190      0.023556
    15   Atom        0.042510     -0.021558     -0.020952
    16   Atom       -0.031096      0.053267     -0.022171
    17   Atom        0.042523     -0.021612     -0.020911
    18   Atom       -0.015320     -0.008209      0.023529
    19   Atom       -0.030975      0.006752      0.024223
 --------------------------------------------------------
                        XY            XZ            YZ
 --------------------------------------------------------
     1   Atom       -0.180967     -0.001014      0.256324
     2   Atom       -0.008482      0.006879     -0.144097
     3   Atom       -0.002172      0.002383     -0.039135
     4   Atom        0.011720     -0.005175      0.036320
     5   Atom       -0.013269      0.017413     -0.006015
     6   Atom       -0.007993      0.001439      0.063968
     7   Atom       -0.015153     -0.024808      0.033970
     8   Atom       -0.008771      0.006780     -0.144092
     9   Atom       -0.004058      0.000769     -0.014150
    10   Atom        0.011670     -0.005162      0.036500
    11   Atom       -0.013235      0.017480     -0.006016
    12   Atom       -0.008138      0.001136      0.063971
    13   Atom       -0.015184     -0.024858      0.033963
    14   Atom        0.015697      0.022664      0.035753
    15   Atom        0.019153     -0.018433     -0.008026
    16   Atom       -0.004152      0.000764     -0.014155
    17   Atom        0.019105     -0.018495     -0.008025
    18   Atom        0.015733      0.022717      0.035747
    19   Atom       -0.002209      0.002441     -0.039134
 --------------------------------------------------------


 ---------------------------------------------------------------------------------
              Anisotropic Spin Dipole Couplings in Principal Axis System
 ---------------------------------------------------------------------------------

       Atom             a.u.   MegaHertz   Gauss  10(-4) cm-1        Axes

              Baa    -1.3563   -23.482    -8.379    -7.833 -0.3958 -0.0763  0.9152
     1 Fe(57) Bbb    -1.3274   -22.981    -8.200    -7.666  0.9172  0.0160  0.3980
              Bcc     2.6837    46.463    16.579    15.498 -0.0450  0.9970  0.0636
 
              Baa    -0.1396    10.099     3.604     3.369 -0.0167  0.5143  0.8575
     2 O(17)  Bbb    -0.0479     3.464     1.236     1.156  0.9988  0.0480 -0.0094
              Bcc     0.1874   -13.563    -4.840    -4.524 -0.0460  0.8563 -0.5145
 
              Baa    -0.0311   -16.596    -5.922    -5.536  0.9988  0.0478 -0.0092
     3 H(1)   Bbb    -0.0246   -13.127    -4.684    -4.379 -0.0315  0.7792  0.6260
              Bcc     0.0557    29.723    10.606     9.915  0.0371 -0.6250  0.7798
 
              Baa    -0.1278     9.250     3.301     3.085  0.0359 -0.5722  0.8194
     4 O(17)  Bbb    -0.0501     3.624     1.293     1.209 -0.0292  0.8189  0.5731
              Bcc     0.1779   -12.874    -4.594    -4.294  0.9989  0.0445 -0.0127
 
              Baa    -0.0294   -15.660    -5.588    -5.224 -0.0158  0.7611  0.6485
     5 H(1)   Bbb    -0.0238   -12.722    -4.539    -4.243 -0.2972 -0.6228  0.7237
              Bcc     0.0532    28.382    10.127     9.467  0.9547 -0.1813  0.2360
 
              Baa    -0.1630    11.798     4.210     3.935  0.9988  0.0466 -0.0149
     6 O(17)  Bbb    -0.0010     0.076     0.027     0.025 -0.0485  0.9027 -0.4276
              Bcc     0.1641   -11.874    -4.237    -3.961 -0.0065  0.4278  0.9038
 
              Baa    -0.0315   -16.823    -6.003    -5.612  0.0286  0.8620 -0.5061
     7 H(1)   Bbb    -0.0257   -13.724    -4.897    -4.578  0.9252  0.1689  0.3399
              Bcc     0.0573    30.547    10.900    10.190 -0.3785  0.4780  0.7927
 
              Baa    -0.1396    10.100     3.604     3.369 -0.0141  0.5143  0.8575
     8 O(17)  Bbb    -0.0479     3.463     1.236     1.155  0.9988  0.0474 -0.0120
              Bcc     0.1874   -13.563    -4.840    -4.524 -0.0468  0.8563 -0.5144
 
              Baa    -0.0313   -16.702    -5.960    -5.571  0.9989  0.0457 -0.0134
     9 H(1)   Bbb    -0.0247   -13.201    -4.710    -4.403  0.0050  0.1787  0.9839
              Bcc     0.0560    29.902    10.670     9.974 -0.0473  0.9828 -0.1783
 
              Baa    -0.1280     9.264     3.305     3.090  0.0357 -0.5706  0.8205
    10 O(17)  Bbb    -0.0498     3.602     1.285     1.202 -0.0292  0.8201  0.5715
              Bcc     0.1778   -12.866    -4.591    -4.292  0.9989  0.0443 -0.0126
 
              Baa    -0.0294   -15.666    -5.590    -5.225 -0.0158  0.7630  0.6462
    11 H(1)   Bbb    -0.0239   -12.727    -4.541    -4.245 -0.2975 -0.6206  0.7255
              Bcc     0.0532    28.393    10.131     9.471  0.9546 -0.1808  0.2368
 
              Baa    -0.1630    11.797     4.209     3.935  0.9988  0.0470 -0.0140
    12 O(17)  Bbb    -0.0011     0.077     0.027     0.026 -0.0485  0.9026 -0.4277
              Bcc     0.1641   -11.874    -4.237    -3.961 -0.0075  0.4278  0.9038
 
              Baa    -0.0315   -16.831    -6.006    -5.614  0.0285  0.8620 -0.5062
    13 H(1)   Bbb    -0.0257   -13.726    -4.898    -4.579  0.9249  0.1694  0.3405
              Bcc     0.0573    30.557    10.904    10.193 -0.3793  0.4778  0.7924
 
              Baa    -0.0315   -16.826    -6.004    -5.612 -0.1234  0.8548 -0.5040
    14 H(1)   Bbb    -0.0257   -13.725    -4.897    -4.578  0.9268 -0.0823 -0.3665
              Bcc     0.0573    30.551    10.901    10.191  0.3548  0.5123  0.7821
 
              Baa    -0.0293   -15.646    -5.583    -5.219 -0.0360  0.7598  0.6492
    15 H(1)   Bbb    -0.0238   -12.714    -4.537    -4.241  0.3700 -0.5933  0.7149
              Bcc     0.0532    28.360    10.120     9.460  0.9284  0.2659 -0.2597
 
              Baa    -0.0313   -16.701    -5.959    -5.571  0.9988  0.0473 -0.0102
    16 H(1)   Bbb    -0.0247   -13.200    -4.710    -4.403  0.0016  0.1786  0.9839
              Bcc     0.0560    29.901    10.669     9.974 -0.0484  0.9828 -0.1783
 
              Baa    -0.0293   -15.649    -5.584    -5.220 -0.0360  0.7617  0.6469
    17 H(1)   Bbb    -0.0238   -12.719    -4.538    -4.243  0.3699 -0.5912  0.7167
              Bcc     0.0532    28.368    10.123     9.463  0.9284  0.2651 -0.2605
 
              Baa    -0.0316   -16.834    -6.007    -5.615 -0.1233  0.8549 -0.5040
    18 H(1)   Bbb    -0.0257   -13.728    -4.898    -4.579  0.9265 -0.0828 -0.3672
              Bcc     0.0573    30.562    10.905    10.194  0.3556  0.5122  0.7818
 
              Baa    -0.0311   -16.597    -5.922    -5.536  0.9988  0.0473 -0.0106
    19 H(1)   Bbb    -0.0246   -13.127    -4.684    -4.379 -0.0302  0.7792  0.6260
              Bcc     0.0557    29.724    10.606     9.915  0.0379 -0.6250  0.7797
 

 ---------------------------------------------------------------------------------

 No NMR shielding tensors so no spin-rotation constants.
 Leave Link  601 at Wed Mar  5 21:50:25 2025, MaxMem= 13421772800 cpu:              29.5 elap:               0.4
 (Enter /gpfs/fs1/soft/improv/software/custom-built/gaussian/g16/l9999.exe)

 Test job not archived.
 1\1\GINC-I802\SP\UN12\Gen\Fe1H12O6(2+,5)\HHARB\05-Mar-2025\0\\#p n12 s
 crf=(cpcm,solvent=water) geom=allcheck guess=read chkbasis IOp(3/174=1
 000000) IOp(3/175=2391600) IOp(3/176=1349300)\\Title\\2,5\Fe,-0.785141
 9007,0.712823026,0.0318081261\O,-1.3565432146,2.7202983955,-0.24238155
 27\H,-1.4715777861,3.1600657964,-1.0848608332\O,1.2603768146,1.2958971
 876,0.0491838277\H,1.9963879227,0.7682358753,0.3590814403\O,-0.8870114
 081,1.0150627352,2.0846408258\H,-1.66775103,0.9148980608,2.63051498\O,
 -0.2132607353,-1.2945020553,0.3058587425\H,-0.025991455,-1.9297531975,
 -0.3853032698\O,-2.8304382463,0.1300877231,0.0144962346\H,-3.566086994
 5,0.6569855519,-0.2975589685\O,-0.6819718644,0.4108359618,-2.021014779
 5\H,0.0995614191,0.5113099274,-2.5656982365\H,-1.3890272043,0.08331425
 3,-2.5781153599\H,1.6138051639,2.1333357427,-0.2507901899\H,-1.5464902
 423,3.3548602817,0.44867925\H,-3.1843232031,-0.7063851016,0.3166269618
 \H,-0.1790896686,1.3427019099,2.640571645\H,-0.096943937,-1.7339923042
 ,1.1483065663\\Version=ES64L-G16RevC.02\State=5-A\HF=-1722.155302\S2=6
 .003634\S2-1=0.\S2A=6.000004\RMSD=1.513e-09\Dipole=-0.0005487,-0.00009
 97,-0.0000579\Quadrupole=-0.3490719,-0.0734416,0.4225135,-0.0760435,0.
 0180176,-0.1076091\PG=C01 [X(Fe1H12O6)]\\@


 NATURE WILL TELL YOU A DIRECT LIE IF SHE CAN.

                                -- CHARLES DARWIN
 Job cpu time:       0 days  2 hours 18 minutes 20.8 seconds.
 Elapsed time:       0 days  0 hours  1 minutes  9.8 seconds.
 File lengths (MBytes):  RWF=    120 Int=      0 D2E=      0 Chk=    268 Scr=      1
 Normal termination of Gaussian 16 at Wed Mar  5 21:50:25 2025.
