 Entering Gaussian System, Link 0=g16
 Input=Fe_2_M08-HX_secondrun.com
 Output=Fe_2_M08-HX_secondrun.log
 Initial command:
 /gpfs/fs1/soft/improv/software/custom-built/gaussian/g16/l1.exe "/scratch/Gau-63947.inp" -scrdir="/scratch/"
 Default CPUs for threads: 0-127
 Default linda workers: i737.lcrc.anl.gov
 Default is to use 128 SMP processors on each worker.
 Entering Link 1 = /gpfs/fs1/soft/improv/software/custom-built/gaussian/g16/l1.exe PID=     63948.
  
 Copyright (c) 1988-2021, Gaussian, Inc.  All Rights Reserved.
  
 This is part of the Gaussian(R) 16 program.  It is based on
 the Gaussian(R) 09 system (copyright 2009, Gaussian, Inc.),
 the Gaussian(R) 03 system (copyright 2003, Gaussian, Inc.),
 the Gaussian(R) 98 system (copyright 1998, Gaussian, Inc.),
 the Gaussian(R) 94 system (copyright 1995, Gaussian, Inc.),
 the Gaussian 92(TM) system (copyright 1992, Gaussian, Inc.),
 the Gaussian 90(TM) system (copyright 1990, Gaussian, Inc.),
 the Gaussian 88(TM) system (copyright 1988, Gaussian, Inc.),
 the Gaussian 86(TM) system (copyright 1986, Carnegie Mellon
 University), and the Gaussian 82(TM) system (copyright 1983,
 Carnegie Mellon University). Gaussian is a federally registered
 trademark of Gaussian, Inc.
  
 This software contains proprietary and confidential information,
 including trade secrets, belonging to Gaussian, Inc.
  
 This software is provided under written license and may be
 used, copied, transmitted, or stored only in accord with that
 written license.
  
 The following legend is applicable only to US Government
 contracts under FAR:
  
                    RESTRICTED RIGHTS LEGEND
  
 Use, reproduction and disclosure by the US Government is
 subject to restrictions as set forth in subparagraphs (a)
 and (c) of the Commercial Computer Software - Restricted
 Rights clause in FAR 52.227-19.
  
 Gaussian, Inc.
 340 Quinnipiac St., Bldg. 40, Wallingford CT 06492
  
  
 ---------------------------------------------------------------
 Warning -- This program may not be used in any manner that
 competes with the business of Gaussian, Inc. or will provide
 assistance to any competitor of Gaussian, Inc.  The licensee
 of this program is prohibited from giving any competitor of
 Gaussian, Inc. access to this program.  By using this program,
 the user acknowledges that Gaussian, Inc. is engaged in the
 business of creating and licensing software in the field of
 computational chemistry and represents and warrants to the
 licensee that it is not a competitor of Gaussian, Inc. and that
 it will not use this program in any manner prohibited above.
 ---------------------------------------------------------------
  

 Cite this work as:
 Gaussian 16, Revision C.02,
 M. J. Frisch, G. W. Trucks, H. B. Schlegel, G. E. Scuseria, 
 M. A. Robb, J. R. Cheeseman, G. Scalmani, V. Barone, 
 G. A. Petersson, H. Nakatsuji, X. Li, M. Caricato, A. V. Marenich, 
 J. Bloino, B. G. Janesko, R. Gomperts, B. Mennucci, H. P. Hratchian, 
 J. V. Ortiz, A. F. Izmaylov, J. L. Sonnenberg, D. Williams-Young, 
 F. Ding, F. Lipparini, F. Egidi, J. Goings, B. Peng, A. Petrone, 
 T. Henderson, D. Ranasinghe, V. G. Zakrzewski, J. Gao, N. Rega, 
 G. Zheng, W. Liang, M. Hada, M. Ehara, K. Toyota, R. Fukuda, 
 J. Hasegawa, M. Ishida, T. Nakajima, Y. Honda, O. Kitao, H. Nakai, 
 T. Vreven, K. Throssell, J. A. Montgomery, Jr., J. E. Peralta, 
 F. Ogliaro, M. J. Bearpark, J. J. Heyd, E. N. Brothers, K. N. Kudin, 
 V. N. Staroverov, T. A. Keith, R. Kobayashi, J. Normand, 
 K. Raghavachari, A. P. Rendell, J. C. Burant, S. S. Iyengar, 
 J. Tomasi, M. Cossi, J. M. Millam, M. Klene, C. Adamo, R. Cammi, 
 J. W. Ochterski, R. L. Martin, K. Morokuma, O. Farkas, 
 J. B. Foresman, and D. J. Fox, Gaussian, Inc., Wallingford CT, 2019.
 
 ******************************************
 Gaussian 16:  ES64L-G16RevC.02  7-Dec-2021
                 6-Mar-2025 
 ******************************************
 %oldchk=Fe_2_HSE06.chk
 %chk=Fe_2_M08-HX.chk
 SetSPE:  set environment variable "OMP_PROC_BIND" = "true"
 SetSPE:  set environment variable "OMP_PLACES" = "{0},{1},{2},{3},{4},{5},{6},{7},{8},{9},{10},{11},{12},{13},{14},{15},{16},{17},{18},{19},{20},{21},{22},{23},{24},{25},{26},{27},{28},{29},{30},{31},{32},{33},{34},{35},{36},{37},{38},{39},{40},{41},{42},{43},{44},{45},{46},{47},{48},{49},{50},{51},{52},{53},{54},{55},{56},{57},{58},{59},{60},{61},{62},{63},{64},{65},{66},{67},{68},{69},{70},{71},{72},{73},{74},{75},{76},{77},{78},{79},{80},{81},{82},{83},{84},{85},{86},{87},{88},{89},{90},{91},{92},{93},{94},{95},{96},{97},{98},{99},{100},{101},{102},{103},{104},{105},{106},{107},{108},{109},{110},{111},{112},{113},{114},{115},{116},{117},{118},{119},{120},{121},{122},{123},{124},{125},{126},{127}"
 SetLPE:    new flags="-opt 'Tsnet.Node.lindarsharg: ssh'  -nodelist 'i737.lcrc.anl.gov' -env GAUSS_MDEF=13421772800 -env GAUSS_EXEDIR="/gpfs/fs1/soft/improv/software/custom-built/gaussian/g16/bsd:/gpfs/fs1/soft/improv/software/custom-built/gaussian/g16" -env "OMP_PROC_BIND=true" -env "OMP_PLACES={0},{1},{2},{3},{4},{5},{6},{7},{8},{9},{10},{11},{12},{13},{14},{15},{16},{17},{18},{19},{20},{21},{22},{23},{24},{25},{26},{27},{28},{29},{30},{31},{32},{33},{34},{35},{36},{37},{38},{39},{40},{41},{42},{43},{44},{45},{46},{47},{48},{49},{50},{51},{52},{53},{54},{55},{56},{57},{58},{59},{60},{61},{62},{63},{64},{65},{66},{67},{68},{69},{70},{71},{72},{73},{74},{75},{76},{77},{78},{79},{80},{81},{82},{83},{84},{85},{86},{87},{88},{89},{90},{91},{92},{93},{94},{95},{96},{97},{98},{99},{100},{101},{102},{103},{104},{105},{106},{107},{108},{109},{110},{111},{112},{113},{114},{115},{116},{117},{118},{119},{120},{121},{122},{123},{124},{125},{126},{127}" -env GAUSS_ADEF="0,1,2,3,4,5,6,7,8,9,10,11,12,13,14,15,16,17,18,19,20,21,22,23,24,25,26,27,28,29,30,31,32,33,34,35,36,37,38,39,40,41,42,43,44,45,46,47,48,49,50,51,52,53,54,55,56,57,58,59,60,61,62,63,64,65,66,67,68,69,70,71,72,73,74,75,76,77,78,79,80,81,82,83,84,85,86,87,88,89,90,91,92,93,94,95,96,97,98,99,100,101,102,103,104,105,106,107,108,109,110,111,112,113,114,115,116,117,118,119,120,121,122,123,124,125,126,127""
 Will use up to    1 processors via Linda.
 Copying data from "Fe_2_HSE06.chk" to current chk file "Fe_2_M08-HX.chk"
 IOpt=  2 FromEx=T IUOpen= 4 IOptOp= 5 NList=   0 IFRang= 0 IUIn= 4 IUOut= 2.
 ----------------------------------------------------------------------
 #p M08HX geom=allcheck guess=read chkbasis opt=(cartesian,calcall,maxc
 ycles=500,loose) freq scf=(maxcycles=500,xqc,maxconventional=50) IOp(3
 /174=1000000) IOp(3/175=0) IOp(3/176=1624700)
 ----------------------------------------------------------------------
 1/6=500,7=-1,10=4,18=10,26=3,29=7,38=1/1,3;
 2/12=2,29=2,40=1/2;
 3/5=7,6=2,11=2,14=-4,25=1,30=1,67=1,71=2,74=-74,116=-2,140=1,174=1000000,176=1624700/1,2,3;
 4/5=1/1;
 5/5=2,7=500,8=3,13=1,38=6,85=50/2,8;
 8/6=4,10=90,11=11/1;
 11/6=1,8=1,9=11,15=111,16=1/1,2,10;
 10/6=1/2;
 6/7=2,8=2,9=2,10=2,18=1,28=1/1;
 7/7=1,10=1,25=1/1,2,3,16;
 1/6=500,7=-1,10=4,18=10,26=3/3(3);
 2/29=1/2;
 7/7=1,8=1,9=1,25=1,44=-1/16;
 99/12=1/99;
 2/29=1/2;
 3/5=7,6=1,11=2,14=-2,25=1,30=1,71=2,74=-74,82=7,140=1,174=1000000,176=1624700/1,2,3;
 4/5=5,16=3,69=1/1;
 5/5=2,7=500,8=3,13=1,38=5,85=50/2,8;
 8/6=4,10=90,11=11/1;
 11/6=1,8=1,9=11,15=111,16=1/1,2,10;
 10/6=1/2;
 7/7=1,10=1,25=1/1,2,3,16;
 1/6=500,7=-1,10=4,18=10,26=3/3(-8);
 2/29=1/2;
 6/7=2,8=2,9=2,10=2,18=1,19=2,28=1/1;
 7/7=1,8=1,9=1,25=1,44=-1/16;
 99/12=1/99;
 Leave Link    1 at Thu Mar  6 11:01:52 2025, MaxMem= 13421772800 cpu:               4.8 elap:               0.3
 (Enter /gpfs/fs1/soft/improv/software/custom-built/gaussian/g16/l101.exe)
 Structure from the checkpoint file:  "Fe_2_M08-HX.chk"
 -----
 Title
 -----
 Charge =  2 Multiplicity = 5
 No Z-Matrix found in chk file; cartesian coordinates used.
  Fe                                               -0.784799675053      0.712951402685      0.031789429979
  O                                                -1.342732534739      2.758694021680     -0.268436094035
  H                                                -1.458516066509      3.207194635165     -1.114034740876
  O                                                 1.285949162318      1.280735586188      0.051135079011
  H                                                 2.044043702808      0.688803227335     -0.015474913593
  O                                                -0.869713434946      0.950767007094      2.129883946385
  H                                                -1.634083042326      0.780707370967      2.693051079519
  O                                                -0.226870894975     -1.332785191225      0.332043421821
  H                                                -0.043644609149     -1.978617878858     -0.359999415620
  O                                                -2.855566419480      0.145180641868      0.012423582997
  H                                                -3.204323829757     -0.750364443097     -0.064348689301
  O                                                -0.699965507350      0.475112361662     -2.066302736427
  H                                                 0.064363851452      0.645137538046     -2.629534635079
  H                                                -1.433994093381      0.233668545991     -2.643575026863
  H                                                 1.634696572449      2.176276989542      0.127995233247
  H                                                -1.526015795387      3.404494836297      0.423621331848
  H                                                -3.613654445345      0.737132553094      0.078933967243
  H                                                -0.135738243338      1.192219356437      2.707220504789
  H                                                -0.110952268355     -1.781228787183      1.177654090124
 Recover connectivity data from disk.
 ITRead=  0  0  0  0  0  0  0  0  0  0  0  0  0  0  0  0  0  0  0
 MicOpt= -1 -1 -1 -1 -1 -1 -1 -1 -1 -1 -1 -1 -1 -1 -1 -1 -1 -1 -1
 NAtoms=     19 NQM=       19 NQMF=       0 NMMI=      0 NMMIF=      0
                NMic=       0 NMicF=      0.
                    Isotopes and Nuclear Properties:
 (Nuclear quadrupole moments (NQMom) in fm**2, nuclear magnetic moments (NMagM)
  in nuclear magnetons)

  Atom         1           2           3           4           5           6           7           8           9          10
 IAtWgt=          56          16           1          16           1          16           1          16           1          16
 AtmWgt=  55.9349393  15.9949146   1.0078250  15.9949146   1.0078250  15.9949146   1.0078250  15.9949146   1.0078250  15.9949146
 NucSpn=           0           0           1           0           1           0           1           0           1           0
 AtZEff=  25.2200000   5.6000000   1.0000000   5.6000000   1.0000000   5.6000000   1.0000000   5.6000000   1.0000000   5.6000000
 NQMom=    0.0000000   0.0000000   0.0000000   0.0000000   0.0000000   0.0000000   0.0000000   0.0000000   0.0000000   0.0000000
 NMagM=    0.0000000   0.0000000   2.7928460   0.0000000   2.7928460   0.0000000   2.7928460   0.0000000   2.7928460   0.0000000
 AtZNuc=  26.0000000   8.0000000   1.0000000   8.0000000   1.0000000   8.0000000   1.0000000   8.0000000   1.0000000   8.0000000

  Atom        11          12          13          14          15          16          17          18          19
 IAtWgt=           1          16           1           1           1           1           1           1           1
 AtmWgt=   1.0078250  15.9949146   1.0078250   1.0078250   1.0078250   1.0078250   1.0078250   1.0078250   1.0078250
 NucSpn=           1           0           1           1           1           1           1           1           1
 AtZEff=   1.0000000   5.6000000   1.0000000   1.0000000   1.0000000   1.0000000   1.0000000   1.0000000   1.0000000
 NQMom=    0.0000000   0.0000000   0.0000000   0.0000000   0.0000000   0.0000000   0.0000000   0.0000000   0.0000000
 NMagM=    2.7928460   0.0000000   2.7928460   2.7928460   2.7928460   2.7928460   2.7928460   2.7928460   2.7928460
 AtZNuc=   1.0000000   8.0000000   1.0000000   1.0000000   1.0000000   1.0000000   1.0000000   1.0000000   1.0000000
 Leave Link  101 at Thu Mar  6 11:01:53 2025, MaxMem= 13421772800 cpu:               0.4 elap:               0.1
 (Enter /gpfs/fs1/soft/improv/software/custom-built/gaussian/g16/l103.exe)

 GradGradGradGradGradGradGradGradGradGradGradGradGradGradGradGradGradGrad
 Berny optimization.
 Initialization pass.
 No Z-matrix variables, so optimization will use Cartesian coordinates.
 Trust Radius=3.00D-01 FncErr=1.00D-07 GrdErr=1.00D-06 EigMax=2.50D+02 EigMin=1.00D-04
 Number of steps in this run=    114 maximum allowed number of steps=    114.
 GradGradGradGradGradGradGradGradGradGradGradGradGradGradGradGradGradGrad

 Leave Link  103 at Thu Mar  6 11:01:53 2025, MaxMem= 13421772800 cpu:               0.4 elap:               0.1
 (Enter /gpfs/fs1/soft/improv/software/custom-built/gaussian/g16/l202.exe)
                          Input orientation:                          
 ---------------------------------------------------------------------
 Center     Atomic      Atomic             Coordinates (Angstroms)
 Number     Number       Type             X           Y           Z
 ---------------------------------------------------------------------
      1         26           0       -0.784800    0.712951    0.031789
      2          8           0       -1.342733    2.758694   -0.268436
      3          1           0       -1.458516    3.207195   -1.114035
      4          8           0        1.285949    1.280736    0.051135
      5          1           0        2.044044    0.688803   -0.015475
      6          8           0       -0.869713    0.950767    2.129884
      7          1           0       -1.634083    0.780707    2.693051
      8          8           0       -0.226871   -1.332785    0.332043
      9          1           0       -0.043645   -1.978618   -0.359999
     10          8           0       -2.855566    0.145181    0.012424
     11          1           0       -3.204324   -0.750364   -0.064349
     12          8           0       -0.699966    0.475112   -2.066303
     13          1           0        0.064364    0.645138   -2.629535
     14          1           0       -1.433994    0.233669   -2.643575
     15          1           0        1.634697    2.176277    0.127995
     16          1           0       -1.526016    3.404495    0.423621
     17          1           0       -3.613654    0.737133    0.078934
     18          1           0       -0.135738    1.192219    2.707221
     19          1           0       -0.110952   -1.781229    1.177654
 ---------------------------------------------------------------------
                    Distance matrix (angstroms):
                    1          2          3          4          5
     1  Fe   0.000000
     2  O    2.141609   0.000000
     3  H    2.826315   0.964155   0.000000
     4  O    2.147267   3.032566   3.549782   0.000000
     5  H    2.829341   3.977272   4.451635   0.964120   0.000000
     6  O    2.113236   3.040442   3.995142   3.012799   3.627833
     7  H    2.794313   3.573195   4.518027   3.969425   4.568717
     8  O    2.141606   4.283214   4.921332   3.032825   3.060170
     9  H    2.819105   4.913058   5.427991   3.544042   3.404743
    10  O    2.147281   3.032821   3.549167   4.294547   4.929755
    11  H    2.829246   3.977520   4.451063   4.929630   5.442330
    12  O    2.113233   2.976612   2.991068   3.012711   3.432367
    13  H    2.794338   3.467251   3.343657   3.013676   3.279382
    14  H    2.794412   3.467761   3.343943   3.969371   4.383013
    15  H    2.829229   3.059649   3.489039   0.964120   1.549428
    16  H    2.819103   0.964155   1.551731   3.543479   4.507007
    17  H    2.829351   3.060141   3.488410   4.929746   5.658692
    18  H    2.794443   3.572843   4.517948   3.013938   3.523911
    19  H    2.826307   4.921317   5.652622   3.549085   3.488355
                    6          7          8          9         10
     6  O    0.000000
     7  H    0.964541   0.000000
     8  O    2.976590   3.467197   0.000000
     9  H    3.932328   4.411858   0.964155   0.000000
    10  O    3.012677   3.013583   3.032586   3.543462   0.000000
    11  H    3.627521   3.523222   3.059668   3.403808   0.964120
    12  O    4.226469   4.859775   3.040457   3.059905   3.012735
    13  H    4.859833   5.588651   3.573226   3.470814   3.969369
    14  H    4.859892   5.368321   3.572846   3.470159   3.013806
    15  H    3.432419   4.383155   3.977510   4.507562   4.929622
    16  H    3.059877   3.470771   4.913042   5.638208   3.543997
    17  H    3.432382   3.279361   3.977301   4.506987   0.964120
    18  H    0.964539   1.553892   3.467769   4.412542   3.969343
    19  H    2.991030   3.343632   0.964156   1.551732   3.549890
                   11         12         13         14         15
    11  H    0.000000
    12  O    3.432408   0.000000
    13  H    4.383141   0.964540   0.000000
    14  H    3.279451   0.964539   1.553892   0.000000
    15  H    5.658475   3.627610   3.523394   4.568609   0.000000
    16  H    4.507515   3.932348   4.411929   4.412516   3.403824
    17  H    1.549429   3.627710   4.568598   3.523698   5.442309
    18  H    4.568528   4.859951   5.368454   5.588855   3.279514
    19  H    3.489155   3.995156   4.518039   4.517969   4.450947
                   16         17         18         19
    16  H    0.000000
    17  H    3.404683   0.000000
    18  H    3.470138   4.383024   0.000000
    19  H    5.427955   4.451770   3.343887   0.000000
 Stoichiometry    FeH12O6(2+,5)
 Framework group  C1[X(FeH12O6)]
 Deg. of freedom    51
 Full point group                 C1      NOp   1
 RotChk:  IX=0 Diff= 5.55D-13
 Largest Abelian subgroup         C1      NOp   1
 Largest concise Abelian subgroup C1      NOp   1
                         Standard orientation:                         
 ---------------------------------------------------------------------
 Center     Atomic      Atomic             Coordinates (Angstroms)
 Number     Number       Type             X           Y           Z
 ---------------------------------------------------------------------
      1         26           0        0.000001    0.000012   -0.000003
      2          8           0       -1.880817   -0.030197    1.023763
      3          1           0       -2.756810   -0.045464    0.621271
      4          8           0       -0.035262    2.146988   -0.001051
      5          1           0        0.531527    2.730082   -0.519009
      6          8           0        1.049202    0.018039    1.834287
      7          1           0        1.371413   -0.753564    2.315065
      8          8           0        1.880831    0.030219   -1.023742
      9          1           0        2.006854    0.031512   -1.979625
     10          8           0        0.035239   -2.146979    0.001040
     11          1           0        0.621078   -2.711510   -0.516284
     12          8           0       -1.049195   -0.018098   -1.834292
     13          1           0       -1.371426    0.753456   -2.315134
     14          1           0       -1.345444   -0.800219   -2.314771
     15          1           0       -0.621049    2.711510    0.516343
     16          1           0       -2.006818   -0.031553    1.979649
     17          1           0       -0.531623   -2.730064    0.518927
     18          1           0        1.345472    0.800111    2.314832
     19          1           0        2.756812    0.045631   -0.621230
 ---------------------------------------------------------------------
 Rotational constants (GHZ):           1.4344956           1.4310012           1.4021773
 Leave Link  202 at Thu Mar  6 11:01:53 2025, MaxMem= 13421772800 cpu:               0.5 elap:               0.1
 (Enter /gpfs/fs1/soft/improv/software/custom-built/gaussian/g16/l301.exe)
 Basis read from chk: "Fe_2_M08-HX.chk" (6D, 7F)
 No pseudopotential information found on chk file.
 There are   347 symmetry adapted cartesian basis functions of A   symmetry.
 There are   317 symmetry adapted basis functions of A   symmetry.
   317 basis functions,   514 primitive gaussians,   347 cartesian basis functions
    44 alpha electrons       40 beta electrons
       nuclear repulsion energy       657.7204970370 Hartrees.
 IExCor= 7353 DFT=T Ex+Corr=M08HX ExCW=0 ScaHFX=  0.522300
 ScaDFX=  1.000000  1.000000  1.000000  1.000000 ScalE2=  1.000000  1.000000
 IRadAn=      5 IRanWt=     -1 IRanGd=            0 ICorTp=0 IEmpDi=  4
 NAtoms=   19 NActive=   19 NUniq=   19 SFac= 1.00D+00 NAtFMM=   60 NAOKFM=F Big=F
 Integral buffers will be    131072 words long.
 Raffenetti 2 integral format.
 Two-electron integral symmetry is turned on.
 R6DIni: Non-standard D2/D3 S6 parameter, value=     1.000000
 R6DIni: Non-standard D2/D3 SR6 parameter, value=     1.624700
 No density basis found on file  20724.
 Leave Link  301 at Thu Mar  6 11:01:54 2025, MaxMem= 13421772800 cpu:               0.4 elap:               0.1
 (Enter /gpfs/fs1/soft/improv/software/custom-built/gaussian/g16/l302.exe)
 NPDir=0 NMtPBC=     1 NCelOv=     1 NCel=       1 NClECP=     1 NCelD=      1
         NCelK=      1 NCelE2=     1 NClLst=     1 CellRange=     0.0.
 One-electron integrals computed using PRISM.
 One-electron integral symmetry used in STVInt
 NBasis=   317 RedAO= T EigKep=  2.13D-06  NBF=   317
 NBsUse=   317 1.00D-06 EigRej= -1.00D+00 NBFU=   317
 Precomputing XC quadrature grid using
 IXCGrd= 4 IRadAn=           5 IRanWt=          -1 IRanGd=           0 AccXCQ= 0.00D+00.
 Generated NRdTot=       0 NPtTot=           0 NUsed=           0 NTot=          32
 NSgBfM=   346   346   346   346   346 MxSgAt=    19 MxSgA2=    19.
 Leave Link  302 at Thu Mar  6 11:01:54 2025, MaxMem= 13421772800 cpu:              22.2 elap:               0.3
 (Enter /gpfs/fs1/soft/improv/software/custom-built/gaussian/g16/l303.exe)
 DipDrv:  MaxL=1.
 Leave Link  303 at Thu Mar  6 11:01:54 2025, MaxMem= 13421772800 cpu:               1.2 elap:               0.0
 (Enter /gpfs/fs1/soft/improv/software/custom-built/gaussian/g16/l401.exe)
 Initial guess from the checkpoint file:  "Fe_2_M08-HX.chk"
 B after Tr=    -0.000000    0.000000   -0.000000
         Rot=    1.000000    0.000000   -0.000000   -0.000000 Ang=   0.00 deg.
 Guess basis will be translated and rotated to current coordinates.
 JPrj=2 DoOrth=T DoCkMO=T.
 Initial guess <Sx>= 0.0000 <Sy>= 0.0000 <Sz>= 2.0000 <S**2>= 6.0046 S= 2.0009
 Leave Link  401 at Thu Mar  6 11:01:55 2025, MaxMem= 13421772800 cpu:              11.3 elap:               0.2
 (Enter /gpfs/fs1/soft/improv/software/custom-built/gaussian/g16/l502.exe)
 Integral symmetry usage will be decided dynamically.
 UHF open shell SCF:
 Using DIIS extrapolation, IDIIS=  1040.
 NGot= 13421772800 LenX= 13421483807 LenY= 13421362957
 Requested convergence on RMS density matrix=1.00D-08 within  50 cycles.
 Requested convergence on MAX density matrix=1.00D-06.
 Requested convergence on             energy=1.00D-06.
 No special actions if energy rises.
 Fock matrices will be formed incrementally for  20 cycles.

 Cycle   1  Pass 1  IDiag  1:
 FoFJK:  IHMeth= 1 ICntrl=       0 DoSepK=F KAlg= 0 I1Cent=           0 FoldK=F
 IRaf= 960000000 NMat=       1 IRICut=       1 DoRegI=T DoRafI=F ISym2E= 0 IDoP0=0 IntGTp=1.
 FoFCou: FMM=F IPFlag=           0 FMFlag=      100000 FMFlg1=           0
         NFxFlg=           0 DoJE=F BraDBF=F KetDBF=F FulRan=T
         wScrn=  0.000000 ICntrl=         0 IOpCl=  1 I1Cent=           0 NGrid=           0
         NMat0=    1 NMatS0=      1 NMatT0=    0 NMatD0=    1 NMtDS0=    0 NMtDT0=    0
 Symmetry not used in FoFCou.
 E= -1721.57328268045    
 DIIS: error= 4.58D-02 at cycle   1 NSaved=   1.
 NSaved= 1 IEnMin= 1 EnMin= -1721.57328268045     IErMin= 1 ErrMin= 4.58D-02
 ErrMax= 4.58D-02  0.00D+00 EMaxC= 1.00D-01 BMatC= 1.42D-01 BMatP= 1.42D-01
 IDIUse=3 WtCom= 5.42D-01 WtEn= 4.58D-01
 Coeff-Com:  0.100D+01
 Coeff-En:   0.100D+01
 Coeff:      0.100D+01
 Gap=     0.387 Goal=   None    Shift=    0.000
 Gap=     0.351 Goal=   None    Shift=    0.000
 GapD=    0.351 DampG=1.000 DampE=0.250 DampFc=0.2500 IDamp=-1.
 Damping current iteration by 2.50D-01
 RMSDP=1.21D-02 MaxDP=1.41D+00              OVMax= 2.57D-02

 Cycle   2  Pass 1  IDiag  1:
 RMSU=  2.19D-03    CP:  1.03D+00
 E= -1721.57553662939     Delta-E=       -0.002253948942 Rises=F Damp=T
 DIIS: error= 3.44D-02 at cycle   2 NSaved=   2.
 NSaved= 2 IEnMin= 2 EnMin= -1721.57553662939     IErMin= 2 ErrMin= 3.44D-02
 ErrMax= 3.44D-02  0.00D+00 EMaxC= 1.00D-01 BMatC= 8.12D-02 BMatP= 1.42D-01
 IDIUse=3 WtCom= 6.56D-01 WtEn= 3.44D-01
 Coeff-Com: -0.302D+01 0.402D+01
 Coeff-En:   0.000D+00 0.100D+01
 Coeff:     -0.198D+01 0.298D+01
 Gap=     0.385 Goal=   None    Shift=    0.000
 Gap=     0.301 Goal=   None    Shift=    0.000
 RMSDP=9.24D-03 MaxDP=1.07D+00 DE=-2.25D-03 OVMax= 5.20D-03

 Cycle   3  Pass 1  IDiag  1:
 RMSU=  2.57D-03    CP:  1.10D+00  3.00D+00
 E= -1721.58300745912     Delta-E=       -0.007470829728 Rises=F Damp=F
 DIIS: error= 8.09D-04 at cycle   3 NSaved=   3.
 NSaved= 3 IEnMin= 3 EnMin= -1721.58300745912     IErMin= 3 ErrMin= 8.09D-04
 ErrMax= 8.09D-04  0.00D+00 EMaxC= 1.00D-01 BMatC= 7.66D-04 BMatP= 8.12D-02
 IDIUse=3 WtCom= 9.92D-01 WtEn= 8.09D-03
 Coeff-Com: -0.106D+01 0.140D+01 0.668D+00
 Coeff-En:   0.000D+00 0.000D+00 0.100D+01
 Coeff:     -0.106D+01 0.139D+01 0.671D+00
 Gap=     0.383 Goal=   None    Shift=    0.000
 Gap=     0.298 Goal=   None    Shift=    0.000
 RMSDP=2.18D-04 MaxDP=1.70D-02 DE=-7.47D-03 OVMax= 2.24D-03

 Cycle   4  Pass 1  IDiag  1:
 RMSU=  1.11D-04    CP:  1.10D+00  3.00D+00  1.07D+00
 E= -1721.58315001712     Delta-E=       -0.000142557999 Rises=F Damp=F
 DIIS: error= 1.68D-04 at cycle   4 NSaved=   4.
 NSaved= 4 IEnMin= 4 EnMin= -1721.58315001712     IErMin= 4 ErrMin= 1.68D-04
 ErrMax= 1.68D-04  0.00D+00 EMaxC= 1.00D-01 BMatC= 1.32D-05 BMatP= 7.66D-04
 IDIUse=3 WtCom= 9.98D-01 WtEn= 1.68D-03
 Coeff-Com:  0.221D+00-0.295D+00-0.526D-01 0.113D+01
 Coeff-En:   0.000D+00 0.000D+00 0.000D+00 0.100D+01
 Coeff:      0.221D+00-0.294D+00-0.525D-01 0.113D+01
 Gap=     0.383 Goal=   None    Shift=    0.000
 Gap=     0.298 Goal=   None    Shift=    0.000
 RMSDP=1.13D-04 MaxDP=1.20D-02 DE=-1.43D-04 OVMax= 1.11D-03

 Cycle   5  Pass 1  IDiag  1:
 RMSU=  3.21D-05    CP:  1.10D+00  3.00D+00  1.07D+00  1.18D+00
 E= -1721.58315463342     Delta-E=       -0.000004616306 Rises=F Damp=F
 DIIS: error= 1.16D-04 at cycle   5 NSaved=   5.
 NSaved= 5 IEnMin= 5 EnMin= -1721.58315463342     IErMin= 5 ErrMin= 1.16D-04
 ErrMax= 1.16D-04  0.00D+00 EMaxC= 1.00D-01 BMatC= 5.98D-06 BMatP= 1.32D-05
 IDIUse=3 WtCom= 9.99D-01 WtEn= 1.16D-03
 Coeff-Com:  0.138D+00-0.183D+00-0.470D-01 0.547D+00 0.545D+00
 Coeff-En:   0.000D+00 0.000D+00 0.000D+00 0.000D+00 0.100D+01
 Coeff:      0.138D+00-0.183D+00-0.469D-01 0.547D+00 0.545D+00
 Gap=     0.383 Goal=   None    Shift=    0.000
 Gap=     0.298 Goal=   None    Shift=    0.000
 RMSDP=2.35D-05 MaxDP=2.75D-03 DE=-4.62D-06 OVMax= 2.21D-04

 Cycle   6  Pass 1  IDiag  1:
 RMSU=  7.66D-06    CP:  1.10D+00  3.00D+00  1.07D+00  1.13D+00  8.04D-01
 E= -1721.58315538950     Delta-E=       -0.000000756079 Rises=F Damp=F
 DIIS: error= 2.41D-05 at cycle   6 NSaved=   6.
 NSaved= 6 IEnMin= 6 EnMin= -1721.58315538950     IErMin= 6 ErrMin= 2.41D-05
 ErrMax= 2.41D-05  0.00D+00 EMaxC= 1.00D-01 BMatC= 1.18D-07 BMatP= 5.98D-06
 IDIUse=1 WtCom= 1.00D+00 WtEn= 0.00D+00
 Coeff-Com: -0.179D-01 0.238D-01 0.304D-02-0.109D+00 0.502D-02 0.110D+01
 Coeff:     -0.179D-01 0.238D-01 0.304D-02-0.109D+00 0.502D-02 0.110D+01
 Gap=     0.383 Goal=   None    Shift=    0.000
 Gap=     0.298 Goal=   None    Shift=    0.000
 RMSDP=6.87D-06 MaxDP=4.54D-04 DE=-7.56D-07 OVMax= 2.74D-04

 Cycle   7  Pass 1  IDiag  1:
 RMSU=  4.37D-06    CP:  1.10D+00  3.00D+00  1.07D+00  1.13D+00  8.61D-01
                    CP:  1.26D+00
 E= -1721.58315546533     Delta-E=       -0.000000075825 Rises=F Damp=F
 DIIS: error= 1.52D-05 at cycle   7 NSaved=   7.
 NSaved= 7 IEnMin= 7 EnMin= -1721.58315546533     IErMin= 7 ErrMin= 1.52D-05
 ErrMax= 1.52D-05  0.00D+00 EMaxC= 1.00D-01 BMatC= 2.12D-08 BMatP= 1.18D-07
 IDIUse=1 WtCom= 1.00D+00 WtEn= 0.00D+00
 Coeff-Com: -0.789D-02 0.105D-01 0.276D-02-0.387D-01-0.311D-01 0.162D+00
 Coeff-Com:  0.902D+00
 Coeff:     -0.789D-02 0.105D-01 0.276D-02-0.387D-01-0.311D-01 0.162D+00
 Coeff:      0.902D+00
 Gap=     0.383 Goal=   None    Shift=    0.000
 Gap=     0.298 Goal=   None    Shift=    0.000
 RMSDP=1.89D-06 MaxDP=2.33D-04 DE=-7.58D-08 OVMax= 1.95D-04

 Cycle   8  Pass 1  IDiag  1:
 RMSU=  1.03D-06    CP:  1.10D+00  3.00D+00  1.07D+00  1.13D+00  8.57D-01
                    CP:  1.28D+00  1.07D+00
 E= -1721.58315549714     Delta-E=       -0.000000031809 Rises=F Damp=F
 DIIS: error= 1.51D-05 at cycle   8 NSaved=   8.
 NSaved= 8 IEnMin= 8 EnMin= -1721.58315549714     IErMin= 8 ErrMin= 1.51D-05
 ErrMax= 1.51D-05  0.00D+00 EMaxC= 1.00D-01 BMatC= 1.46D-08 BMatP= 2.12D-08
 IDIUse=1 WtCom= 1.00D+00 WtEn= 0.00D+00
 Coeff-Com:  0.149D-02-0.198D-02-0.176D-03 0.936D-02-0.316D-03-0.956D-01
 Coeff-Com:  0.333D-01 0.105D+01
 Coeff:      0.149D-02-0.198D-02-0.176D-03 0.936D-02-0.316D-03-0.956D-01
 Coeff:      0.333D-01 0.105D+01
 Gap=     0.383 Goal=   None    Shift=    0.000
 Gap=     0.298 Goal=   None    Shift=    0.000
 RMSDP=1.32D-06 MaxDP=1.25D-04 DE=-3.18D-08 OVMax= 2.29D-04

 Cycle   9  Pass 1  IDiag  1:
 RMSU=  6.22D-07    CP:  1.10D+00  3.00D+00  1.07D+00  1.12D+00  8.63D-01
                    CP:  1.29D+00  1.18D+00  1.91D+00
 E= -1721.58315553215     Delta-E=       -0.000000035008 Rises=F Damp=F
 DIIS: error= 1.49D-05 at cycle   9 NSaved=   9.
 NSaved= 9 IEnMin= 9 EnMin= -1721.58315553215     IErMin= 9 ErrMin= 1.49D-05
 ErrMax= 1.49D-05  0.00D+00 EMaxC= 1.00D-01 BMatC= 1.39D-08 BMatP= 1.46D-08
 IDIUse=1 WtCom= 1.00D+00 WtEn= 0.00D+00
 Coeff-Com:  0.576D-03-0.764D-03-0.328D-03 0.187D-02 0.440D-02 0.152D-01
 Coeff-Com: -0.139D+00-0.408D+00 0.153D+01
 Coeff:      0.576D-03-0.764D-03-0.328D-03 0.187D-02 0.440D-02 0.152D-01
 Coeff:     -0.139D+00-0.408D+00 0.153D+01
 Gap=     0.383 Goal=   None    Shift=    0.000
 Gap=     0.298 Goal=   None    Shift=    0.000
 RMSDP=1.88D-06 MaxDP=1.92D-04 DE=-3.50D-08 OVMax= 3.35D-04

 Cycle  10  Pass 1  IDiag  1:
 RMSU=  4.13D-07    CP:  1.10D+00  3.00D+00  1.07D+00  1.12D+00  8.68D-01
                    CP:  1.29D+00  1.29D+00  3.00D+00  2.39D+00
 E= -1721.58315558245     Delta-E=       -0.000000050307 Rises=F Damp=F
 DIIS: error= 1.46D-05 at cycle  10 NSaved=  10.
 NSaved=10 IEnMin=10 EnMin= -1721.58315558245     IErMin=10 ErrMin= 1.46D-05
 ErrMax= 1.46D-05  0.00D+00 EMaxC= 1.00D-01 BMatC= 1.37D-08 BMatP= 1.39D-08
 IDIUse=1 WtCom= 1.00D+00 WtEn= 0.00D+00
 Coeff-Com: -0.352D-02 0.467D-02 0.787D-04-0.241D-01 0.580D-02 0.286D+00
 Coeff-Com: -0.239D+00-0.346D+01 0.177D+01 0.266D+01
 Coeff:     -0.352D-02 0.467D-02 0.787D-04-0.241D-01 0.580D-02 0.286D+00
 Coeff:     -0.239D+00-0.346D+01 0.177D+01 0.266D+01
 Gap=     0.383 Goal=   None    Shift=    0.000
 Gap=     0.298 Goal=   None    Shift=    0.000
 RMSDP=8.20D-06 MaxDP=8.47D-04 DE=-5.03D-08 OVMax= 1.46D-03

 Cycle  11  Pass 1  IDiag  1:
 RMSU=  6.70D-06    CP:  1.10D+00  3.00D+00  1.07D+00  1.10D+00  8.90D-01
                    CP:  1.31D+00  1.78D+00  3.00D+00  3.00D+00  3.00D+00
 E= -1721.58315579184     Delta-E=       -0.000000209387 Rises=F Damp=F
 DIIS: error= 1.36D-05 at cycle  11 NSaved=  11.
 NSaved=11 IEnMin=11 EnMin= -1721.58315579184     IErMin=11 ErrMin= 1.36D-05
 ErrMax= 1.36D-05  0.00D+00 EMaxC= 1.00D-01 BMatC= 1.16D-08 BMatP= 1.37D-08
 IDIUse=1 WtCom= 1.00D+00 WtEn= 0.00D+00
 Large coefficients: NSaved= 11 BigCof=   10.56 CofMax=   10.00 Det=-4.47D-11
 Inversion failed.  Reducing to 10 matrices.
 Large coefficients: NSaved= 10 BigCof=   10.72 CofMax=   10.00 Det=-4.52D-11
 Inversion failed.  Reducing to  9 matrices.
 Large coefficients: NSaved=  9 BigCof=   10.73 CofMax=   10.00 Det=-4.52D-11
 Inversion failed.  Reducing to  8 matrices.
 Coeff-Com:  0.316D-02-0.111D-01-0.134D+00 0.765D+00 0.232D+01-0.959D+01
 Coeff-Com: -0.480D+00 0.813D+01
 Coeff:      0.316D-02-0.111D-01-0.134D+00 0.765D+00 0.232D+01-0.959D+01
 Coeff:     -0.480D+00 0.813D+01
 Gap=     0.383 Goal=   None    Shift=    0.000
 Gap=     0.298 Goal=   None    Shift=    0.000
 RMSDP=6.74D-05 MaxDP=7.03D-03 DE=-2.09D-07 OVMax= 1.19D-02

 Cycle  12  Pass 1  IDiag  1:
 RMSU=  5.00D-05    CP:  1.10D+00  3.00D+00  1.07D+00  9.39D-01  1.07D+00
                    CP:  1.45D+00  3.00D+00  3.00D+00  3.00D+00  3.00D+00
                    CP:  3.00D+00
 E= -1721.58315688964     Delta-E=       -0.000001097802 Rises=F Damp=F
 DIIS: error= 4.40D-06 at cycle  12 NSaved=   9.
 NSaved= 9 IEnMin= 9 EnMin= -1721.58315688964     IErMin= 9 ErrMin= 4.40D-06
 ErrMax= 4.40D-06  0.00D+00 EMaxC= 1.00D-01 BMatC= 3.49D-09 BMatP= 1.16D-08
 IDIUse=1 WtCom= 1.00D+00 WtEn= 0.00D+00
 Coeff-Com:  0.526D-02-0.220D-02-0.129D+00 0.283D+00 0.142D+01-0.425D+01
 Coeff-Com: -0.584D+00 0.347D+01 0.777D+00
 Coeff:      0.526D-02-0.220D-02-0.129D+00 0.283D+00 0.142D+01-0.425D+01
 Coeff:     -0.584D+00 0.347D+01 0.777D+00
 Gap=     0.383 Goal=   None    Shift=    0.000
 Gap=     0.298 Goal=   None    Shift=    0.000
 RMSDP=1.49D-05 MaxDP=1.54D-03 DE=-1.10D-06 OVMax= 2.64D-03

 Cycle  13  Pass 1  IDiag  1:
 RMSU=  5.51D-07    CP:  1.10D+00  3.00D+00  1.07D+00  9.04D-01  1.10D+00
                    CP:  1.49D+00  3.00D+00  3.00D+00  3.00D+00  3.00D+00
                    CP:  3.00D+00  1.28D+00
 E= -1721.58315698547     Delta-E=       -0.000000095831 Rises=F Damp=F
 DIIS: error= 2.40D-06 at cycle  13 NSaved=  10.
 NSaved=10 IEnMin=10 EnMin= -1721.58315698547     IErMin=10 ErrMin= 2.40D-06
 ErrMax= 2.40D-06  0.00D+00 EMaxC= 1.00D-01 BMatC= 1.45D-09 BMatP= 3.49D-09
 IDIUse=1 WtCom= 1.00D+00 WtEn= 0.00D+00
 Coeff-Com: -0.357D-02 0.145D-02 0.532D-01-0.725D-01-0.868D+00 0.806D+00
 Coeff-Com:  0.588D+00-0.442D+00-0.157D+01 0.251D+01
 Coeff:     -0.357D-02 0.145D-02 0.532D-01-0.725D-01-0.868D+00 0.806D+00
 Coeff:      0.588D+00-0.442D+00-0.157D+01 0.251D+01
 Gap=     0.383 Goal=   None    Shift=    0.000
 Gap=     0.298 Goal=   None    Shift=    0.000
 RMSDP=1.56D-05 MaxDP=1.59D-03 DE=-9.58D-08 OVMax= 2.75D-03

 Cycle  14  Pass 1  IDiag  1:
 RMSU=  3.47D-07    CP:  1.10D+00  3.00D+00  1.06D+00  8.68D-01  1.14D+00
                    CP:  1.52D+00  3.00D+00  3.00D+00  3.00D+00  3.00D+00
                    CP:  3.00D+00  1.58D+00  2.21D+00
 E= -1721.58315702841     Delta-E=       -0.000000042943 Rises=F Damp=F
 DIIS: error= 9.83D-07 at cycle  14 NSaved=  11.
 NSaved=11 IEnMin=11 EnMin= -1721.58315702841     IErMin=11 ErrMin= 9.83D-07
 ErrMax= 9.83D-07  0.00D+00 EMaxC= 1.00D-01 BMatC= 1.77D-10 BMatP= 1.45D-09
 IDIUse=1 WtCom= 1.00D+00 WtEn= 0.00D+00
 Coeff-Com: -0.428D-03-0.116D-02 0.706D-02 0.693D-02-0.434D-01 0.521D-01
 Coeff-Com:  0.137D-01-0.435D-01-0.203D+00 0.295D+00 0.917D+00
 Coeff:     -0.428D-03-0.116D-02 0.706D-02 0.693D-02-0.434D-01 0.521D-01
 Coeff:      0.137D-01-0.435D-01-0.203D+00 0.295D+00 0.917D+00
 Gap=     0.383 Goal=   None    Shift=    0.000
 Gap=     0.298 Goal=   None    Shift=    0.000
 RMSDP=2.15D-06 MaxDP=2.26D-04 DE=-4.29D-08 OVMax= 3.83D-04

 Cycle  15  Pass 1  IDiag  1:
 RMSU=  7.46D-08    CP:  1.10D+00  3.00D+00  1.06D+00  8.63D-01  1.15D+00
                    CP:  1.53D+00  3.00D+00  3.00D+00  3.00D+00  3.00D+00
                    CP:  3.00D+00  1.62D+00  2.29D+00  9.28D-01
 E= -1721.58315702992     Delta-E=       -0.000000001508 Rises=F Damp=F
 DIIS: error= 9.19D-07 at cycle  15 NSaved=  12.
 NSaved=12 IEnMin=12 EnMin= -1721.58315702992     IErMin=12 ErrMin= 9.19D-07
 ErrMax= 9.19D-07  0.00D+00 EMaxC= 1.00D-01 BMatC= 1.25D-10 BMatP= 1.77D-10
 IDIUse=1 WtCom= 1.00D+00 WtEn= 0.00D+00
 Coeff-Com:  0.672D-03-0.210D-03-0.935D-02 0.103D-01 0.132D+00-0.927D-01
 Coeff-Com: -0.885D-01 0.444D-01 0.232D+00-0.422D+00-0.851D-02 0.120D+01
 Coeff:      0.672D-03-0.210D-03-0.935D-02 0.103D-01 0.132D+00-0.927D-01
 Coeff:     -0.885D-01 0.444D-01 0.232D+00-0.422D+00-0.851D-02 0.120D+01
 Gap=     0.384 Goal=   None    Shift=    0.000
 Gap=     0.298 Goal=   None    Shift=    0.000
 RMSDP=3.93D-07 MaxDP=3.90D-05 DE=-1.51D-09 OVMax= 7.05D-05

 Cycle  16  Pass 1  IDiag  1:
 RMSU=  3.49D-08    CP:  1.10D+00  3.00D+00  1.06D+00  8.62D-01  1.15D+00
                    CP:  1.53D+00  3.00D+00  3.00D+00  3.00D+00  3.00D+00
                    CP:  3.00D+00  1.63D+00  2.32D+00  1.04D+00  1.92D+00
 E= -1721.58315703036     Delta-E=       -0.000000000436 Rises=F Damp=F
 DIIS: error= 7.90D-07 at cycle  16 NSaved=  13.
 NSaved=13 IEnMin=13 EnMin= -1721.58315703036     IErMin=13 ErrMin= 7.90D-07
 ErrMax= 7.90D-07  0.00D+00 EMaxC= 1.00D-01 BMatC= 9.91D-11 BMatP= 1.25D-10
 IDIUse=1 WtCom= 1.00D+00 WtEn= 0.00D+00
 Coeff-Com:  0.314D-03 0.136D-02-0.380D-02-0.185D-01 0.642D-02 0.997D-01
 Coeff-Com: -0.109D-01-0.800D-01 0.240D+00-0.361D+00-0.828D+00 0.493D+00
 Coeff-Com:  0.146D+01
 Coeff:      0.314D-03 0.136D-02-0.380D-02-0.185D-01 0.642D-02 0.997D-01
 Coeff:     -0.109D-01-0.800D-01 0.240D+00-0.361D+00-0.828D+00 0.493D+00
 Coeff:      0.146D+01
 Gap=     0.384 Goal=   None    Shift=    0.000
 Gap=     0.298 Goal=   None    Shift=    0.000
 RMSDP=3.72D-07 MaxDP=3.41D-05 DE=-4.36D-10 OVMax= 7.44D-05

 Cycle  17  Pass 1  IDiag  1:
 RMSU=  5.41D-08    CP:  1.10D+00  3.00D+00  1.06D+00  8.61D-01  1.15D+00
                    CP:  1.53D+00  3.00D+00  3.00D+00  3.00D+00  3.00D+00
                    CP:  3.00D+00  1.64D+00  2.35D+00  1.22D+00  3.00D+00
                    CP:  2.49D+00
 E= -1721.58315703090     Delta-E=       -0.000000000542 Rises=F Damp=F
 DIIS: error= 5.60D-07 at cycle  17 NSaved=  14.
 NSaved=14 IEnMin=14 EnMin= -1721.58315703090     IErMin=14 ErrMin= 5.60D-07
 ErrMax= 5.60D-07  0.00D+00 EMaxC= 1.00D-01 BMatC= 6.35D-11 BMatP= 9.91D-11
 IDIUse=1 WtCom= 1.00D+00 WtEn= 0.00D+00
 Coeff-Com: -0.129D-02 0.810D-03 0.185D-01-0.340D-01-0.247D+00 0.329D+00
 Coeff-Com:  0.128D+00-0.230D+00-0.282D+00 0.706D+00-0.180D+00-0.189D+01
 Coeff-Com:  0.187D+00 0.249D+01
 Coeff:     -0.129D-02 0.810D-03 0.185D-01-0.340D-01-0.247D+00 0.329D+00
 Coeff:      0.128D+00-0.230D+00-0.282D+00 0.706D+00-0.180D+00-0.189D+01
 Coeff:      0.187D+00 0.249D+01
 Gap=     0.384 Goal=   None    Shift=    0.000
 Gap=     0.298 Goal=   None    Shift=    0.000
 RMSDP=5.95D-07 MaxDP=5.40D-05 DE=-5.42D-10 OVMax= 1.29D-04

 Cycle  18  Pass 1  IDiag  1:
 RMSU=  2.39D-07    CP:  1.10D+00  3.00D+00  1.06D+00  8.60D-01  1.15D+00
                    CP:  1.53D+00  3.00D+00  3.00D+00  3.00D+00  3.00D+00
                    CP:  3.00D+00  1.65D+00  2.36D+00  1.30D+00  3.00D+00
                    CP:  3.00D+00  3.00D+00
 E= -1721.58315703155     Delta-E=       -0.000000000648 Rises=F Damp=F
 DIIS: error= 2.66D-07 at cycle  18 NSaved=  15.
 NSaved=15 IEnMin=15 EnMin= -1721.58315703155     IErMin=15 ErrMin= 2.66D-07
 ErrMax= 2.66D-07  0.00D+00 EMaxC= 1.00D-01 BMatC= 1.79D-11 BMatP= 6.35D-11
 IDIUse=1 WtCom= 1.00D+00 WtEn= 0.00D+00
 Coeff-Com:  0.224D-03-0.431D-03-0.314D-02 0.105D-01 0.324D-01-0.730D-01
 Coeff-Com: -0.462D-02 0.489D-01-0.990D-01 0.120D+00 0.187D+00-0.227D+00
 Coeff-Com: -0.305D+00 0.184D+00 0.113D+01
 Coeff:      0.224D-03-0.431D-03-0.314D-02 0.105D-01 0.324D-01-0.730D-01
 Coeff:     -0.462D-02 0.489D-01-0.990D-01 0.120D+00 0.187D+00-0.227D+00
 Coeff:     -0.305D+00 0.184D+00 0.113D+01
 Gap=     0.384 Goal=   None    Shift=    0.000
 Gap=     0.298 Goal=   None    Shift=    0.000
 RMSDP=1.34D-07 MaxDP=9.57D-06 DE=-6.48D-10 OVMax= 3.11D-05

 Cycle  19  Pass 1  IDiag  1:
 RMSU=  3.55D-08    CP:  1.10D+00  3.00D+00  1.06D+00  8.60D-01  1.15D+00
                    CP:  1.53D+00  3.00D+00  3.00D+00  3.00D+00  3.00D+00
                    CP:  3.00D+00  1.65D+00  2.40D+00  1.37D+00  3.00D+00
                    CP:  3.00D+00  3.00D+00  1.30D+00
 E= -1721.58315703167     Delta-E=       -0.000000000117 Rises=F Damp=F
 DIIS: error= 3.05D-07 at cycle  19 NSaved=  16.
 NSaved=16 IEnMin=16 EnMin= -1721.58315703167     IErMin=15 ErrMin= 2.66D-07
 ErrMax= 3.05D-07  0.00D+00 EMaxC= 1.00D-01 BMatC= 1.24D-11 BMatP= 1.79D-11
 IDIUse=1 WtCom= 1.00D+00 WtEn= 0.00D+00
 Coeff-Com: -0.133D-04-0.427D-04 0.120D-03 0.105D-02 0.365D-02-0.253D-01
 Coeff-Com:  0.199D-04 0.252D-01 0.222D-01-0.628D-01 0.222D-01 0.151D+00
 Coeff-Com: -0.199D-01-0.198D+00 0.390D-02 0.108D+01
 Coeff:     -0.133D-04-0.427D-04 0.120D-03 0.105D-02 0.365D-02-0.253D-01
 Coeff:      0.199D-04 0.252D-01 0.222D-01-0.628D-01 0.222D-01 0.151D+00
 Coeff:     -0.199D-01-0.198D+00 0.390D-02 0.108D+01
 Gap=     0.384 Goal=   None    Shift=    0.000
 Gap=     0.298 Goal=   None    Shift=    0.000
 RMSDP=3.86D-08 MaxDP=2.98D-06 DE=-1.17D-10 OVMax= 8.72D-06

 Cycle  20  Pass 1  IDiag  1:
 RMSU=  1.74D-08    CP:  1.10D+00  3.00D+00  1.06D+00  8.59D-01  1.15D+00
                    CP:  1.53D+00  3.00D+00  3.00D+00  3.00D+00  3.00D+00
                    CP:  3.00D+00  1.65D+00  2.41D+00  1.38D+00  3.00D+00
                    CP:  3.00D+00  3.00D+00  1.34D+00  1.68D+00
 E= -1721.58315703169     Delta-E=       -0.000000000028 Rises=F Damp=F
 DIIS: error= 3.07D-07 at cycle  20 NSaved=  17.
 NSaved=17 IEnMin=17 EnMin= -1721.58315703169     IErMin=15 ErrMin= 2.66D-07
 ErrMax= 3.07D-07  0.00D+00 EMaxC= 1.00D-01 BMatC= 1.21D-11 BMatP= 1.24D-11
 IDIUse=1 WtCom= 1.00D+00 WtEn= 0.00D+00
 Coeff-Com:  0.109D-04 0.157D-03-0.319D-04-0.421D-02-0.724D-02 0.648D-01
 Coeff-Com: -0.468D-02-0.626D-01-0.111D-01 0.886D-01-0.953D-01-0.228D+00
 Coeff-Com:  0.124D+00 0.323D+00-0.312D+00-0.198D+01 0.310D+01
 Coeff:      0.109D-04 0.157D-03-0.319D-04-0.421D-02-0.724D-02 0.648D-01
 Coeff:     -0.468D-02-0.626D-01-0.111D-01 0.886D-01-0.953D-01-0.228D+00
 Coeff:      0.124D+00 0.323D+00-0.312D+00-0.198D+01 0.310D+01
 Gap=     0.384 Goal=   None    Shift=    0.000
 Gap=     0.298 Goal=   None    Shift=    0.000
 RMSDP=8.66D-08 MaxDP=8.32D-06 DE=-2.82D-11 OVMax= 2.00D-05

 Cycle  21  Pass 1  IDiag  1:
 Restarting incremental Fock formation.
 E= -1721.58315703178     Delta-E=       -0.000000000085 Rises=F Damp=F
 DIIS: error= 3.02D-07 at cycle  21 NSaved=  18.
 NSaved=18 IEnMin=18 EnMin= -1721.58315703178     IErMin=15 ErrMin= 2.66D-07
 ErrMax= 3.02D-07  0.00D+00 EMaxC= 1.00D-01 BMatC= 1.18D-11 BMatP= 1.21D-11
 IDIUse=1 WtCom= 1.00D+00 WtEn= 0.00D+00
 Large coefficients: NSaved= 18 BigCof=    0.00 CofMax=   10.00 Det=-4.87D-15
 Inversion failed.  Reducing to 17 matrices.
 Large coefficients: NSaved= 17 BigCof=    0.00 CofMax=   10.00 Det=-5.13D-15
 Inversion failed.  Reducing to 16 matrices.
 Large coefficients: NSaved= 16 BigCof=    0.00 CofMax=   10.00 Det=-5.81D-15
 Inversion failed.  Reducing to 15 matrices.
 Large coefficients: NSaved= 15 BigCof=   12.45 CofMax=   10.00 Det=-5.94D-15
 Inversion failed.  Reducing to 14 matrices.
 Coeff-Com: -0.263D-01-0.336D-01 0.374D-01 0.486D-01-0.833D-01-0.167D-02
 Coeff-Com:  0.190D+00 0.354D-01-0.270D+00-0.574D-01 0.850D+00 0.891D+00
 Coeff-Com: -0.951D+01 0.893D+01
 Coeff:     -0.263D-01-0.336D-01 0.374D-01 0.486D-01-0.833D-01-0.167D-02
 Coeff:      0.190D+00 0.354D-01-0.270D+00-0.574D-01 0.850D+00 0.891D+00
 Coeff:     -0.951D+01 0.893D+01
 Gap=     0.384 Goal=   None    Shift=    0.000
 Gap=     0.298 Goal=   None    Shift=    0.000
 RMSDP=6.43D-07 MaxDP=6.25D-05 DE=-8.55D-11 OVMax= 1.48D-04

 Cycle  22  Pass 1  IDiag  1:
 RMSU=  6.43D-07    CP:  1.00D+00
 E= -1721.58315703241     Delta-E=       -0.000000000627 Rises=F Damp=F
 DIIS: error= 2.59D-07 at cycle  22 NSaved=  15.
 NSaved=15 IEnMin=15 EnMin= -1721.58315703241     IErMin=15 ErrMin= 2.59D-07
 ErrMax= 2.59D-07  0.00D+00 EMaxC= 1.00D-01 BMatC= 1.08D-11 BMatP= 1.18D-11
 IDIUse=1 WtCom= 1.00D+00 WtEn= 0.00D+00
 Coeff-Com:  0.344D-01-0.664D-01-0.208D-01 0.537D-01 0.723D-01-0.113D+00
 Coeff-Com: -0.447D-01 0.241D+00 0.655D-02-0.317D+00 0.258D+00 0.211D+01
 Coeff-Com: -0.548D+01 0.165D+01 0.261D+01
 Coeff:      0.344D-01-0.664D-01-0.208D-01 0.537D-01 0.723D-01-0.113D+00
 Coeff:     -0.447D-01 0.241D+00 0.655D-02-0.317D+00 0.258D+00 0.211D+01
 Coeff:     -0.548D+01 0.165D+01 0.261D+01
 Gap=     0.384 Goal=   None    Shift=    0.000
 Gap=     0.298 Goal=   None    Shift=    0.000
 RMSDP=1.27D-06 MaxDP=1.23D-04 DE=-6.27D-10 OVMax= 2.94D-04

 Cycle  23  Pass 1  IDiag  1:
 RMSU=  4.93D-08    CP:  1.00D+00  2.98D+00
 E= -1721.58315703342     Delta-E=       -0.000000001011 Rises=F Damp=F
 DIIS: error= 1.83D-07 at cycle  23 NSaved=  16.
 NSaved=16 IEnMin=16 EnMin= -1721.58315703342     IErMin=16 ErrMin= 1.83D-07
 ErrMax= 1.83D-07  0.00D+00 EMaxC= 1.00D-01 BMatC= 7.44D-12 BMatP= 1.08D-11
 IDIUse=1 WtCom= 1.00D+00 WtEn= 0.00D+00
 Large coefficients: NSaved= 16 BigCof=    0.00 CofMax=   10.00 Det=-5.88D-15
 Inversion failed.  Reducing to 15 matrices.
 Coeff-Com: -0.465D-03-0.249D-02 0.208D-02 0.968D-02-0.208D-01 0.534D-01
 Coeff-Com:  0.139D+00-0.571D-01-0.249D+00 0.200D-01 0.150D+01 0.227D+01
 Coeff-Com: -0.484D+01 0.602D+00 0.157D+01
 Coeff:     -0.465D-03-0.249D-02 0.208D-02 0.968D-02-0.208D-01 0.534D-01
 Coeff:      0.139D+00-0.571D-01-0.249D+00 0.200D-01 0.150D+01 0.227D+01
 Coeff:     -0.484D+01 0.602D+00 0.157D+01
 Gap=     0.384 Goal=   None    Shift=    0.000
 Gap=     0.298 Goal=   None    Shift=    0.000
 RMSDP=1.15D-06 MaxDP=1.12D-04 DE=-1.01D-09 OVMax= 2.65D-04

 Cycle  24  Pass 1  IDiag  1:
 RMSU=  1.14D-06    CP:  1.00D+00  3.00D+00  1.50D+00
 E= -1721.58315703410     Delta-E=       -0.000000000685 Rises=F Damp=F
 DIIS: error= 1.54D-07 at cycle  24 NSaved=  16.
 NSaved=16 IEnMin=16 EnMin= -1721.58315703410     IErMin=16 ErrMin= 1.54D-07
 ErrMax= 1.54D-07  0.00D+00 EMaxC= 1.00D-01 BMatC= 5.10D-12 BMatP= 7.44D-12
 IDIUse=1 WtCom= 1.00D+00 WtEn= 0.00D+00
 Large coefficients: NSaved= 16 BigCof=    0.00 CofMax=   10.00 Det=-6.06D-15
 Inversion failed.  Reducing to 15 matrices.
 Coeff-Com:  0.284D-03-0.290D-02 0.270D-01-0.187D-01-0.118D+00-0.101D+00
 Coeff-Com:  0.181D+00 0.235D+00-0.496D+00-0.168D+01 0.160D+01 0.171D+01
 Coeff-Com: -0.132D+01-0.124D+01 0.223D+01
 Coeff:      0.284D-03-0.290D-02 0.270D-01-0.187D-01-0.118D+00-0.101D+00
 Coeff:      0.181D+00 0.235D+00-0.496D+00-0.168D+01 0.160D+01 0.171D+01
 Coeff:     -0.132D+01-0.124D+01 0.223D+01
 Gap=     0.384 Goal=   None    Shift=    0.000
 Gap=     0.298 Goal=   None    Shift=    0.000
 RMSDP=6.47D-07 MaxDP=6.25D-05 DE=-6.85D-10 OVMax= 1.49D-04

 Cycle  25  Pass 1  IDiag  1:
 RMSU=  2.91D-08    CP:  1.00D+00  3.00D+00  2.00D+00  1.57D+00
 E= -1721.58315703440     Delta-E=       -0.000000000296 Rises=F Damp=F
 DIIS: error= 1.32D-07 at cycle  25 NSaved=  16.
 NSaved=16 IEnMin=16 EnMin= -1721.58315703440     IErMin=16 ErrMin= 1.32D-07
 ErrMax= 1.32D-07  0.00D+00 EMaxC= 1.00D-01 BMatC= 3.81D-12 BMatP= 5.10D-12
 IDIUse=1 WtCom= 1.00D+00 WtEn= 0.00D+00
 Large coefficients: NSaved= 16 BigCof=    0.00 CofMax=   10.00 Det=-8.01D-15
 Inversion failed.  Reducing to 15 matrices.
 Coeff-Com:  0.915D-02-0.755D-01 0.808D-01 0.923D-01-0.166D+00-0.157D+00
 Coeff-Com:  0.217D+00 0.580D+00-0.127D+01-0.524D+01 0.725D+01-0.425D+00
 Coeff-Com: -0.174D+01-0.184D+01 0.369D+01
 Coeff:      0.915D-02-0.755D-01 0.808D-01 0.923D-01-0.166D+00-0.157D+00
 Coeff:      0.217D+00 0.580D+00-0.127D+01-0.524D+01 0.725D+01-0.425D+00
 Coeff:     -0.174D+01-0.184D+01 0.369D+01
 Gap=     0.384 Goal=   None    Shift=    0.000
 Gap=     0.298 Goal=   None    Shift=    0.000
 RMSDP=1.28D-06 MaxDP=1.23D-04 DE=-2.96D-10 OVMax= 2.92D-04

 Cycle  26  Pass 1  IDiag  1:
 RMSU=  4.71D-08    CP:  1.00D+00  3.00D+00  2.80D+00  2.69D+00  2.78D+00
 E= -1721.58315703476     Delta-E=       -0.000000000365 Rises=F Damp=F
 DIIS: error= 6.72D-08 at cycle  26 NSaved=  16.
 NSaved=16 IEnMin=16 EnMin= -1721.58315703476     IErMin=16 ErrMin= 6.72D-08
 ErrMax= 6.72D-08  0.00D+00 EMaxC= 1.00D-01 BMatC= 1.58D-12 BMatP= 3.81D-12
 IDIUse=1 WtCom= 1.00D+00 WtEn= 0.00D+00
 Large coefficients: NSaved= 16 BigCof=    0.00 CofMax=   10.00 Det=-8.25D-15
 Inversion failed.  Reducing to 15 matrices.
 Coeff-Com: -0.593D-01 0.993D-01 0.827D-01-0.159D+00-0.158D+00 0.142D+00
 Coeff-Com:  0.569D+00-0.238D+00-0.318D+01 0.286D+01 0.588D+00-0.431D+00
 Coeff-Com: -0.198D+01 0.176D+01 0.110D+01
 Coeff:     -0.593D-01 0.993D-01 0.827D-01-0.159D+00-0.158D+00 0.142D+00
 Coeff:      0.569D+00-0.238D+00-0.318D+01 0.286D+01 0.588D+00-0.431D+00
 Coeff:     -0.198D+01 0.176D+01 0.110D+01
 Gap=     0.384 Goal=   None    Shift=    0.000
 Gap=     0.298 Goal=   None    Shift=    0.000
 RMSDP=7.77D-07 MaxDP=7.44D-05 DE=-3.65D-10 OVMax= 1.77D-04

 Cycle  27  Pass 1  IDiag  1:
 RMSU=  4.27D-07    CP:  1.00D+00  3.00D+00  3.00D+00  3.00D+00  3.00D+00
                    CP:  8.26D-01
 E= -1721.58315703488     Delta-E=       -0.000000000116 Rises=F Damp=F
 DIIS: error= 2.40D-08 at cycle  27 NSaved=  16.
 NSaved=16 IEnMin=16 EnMin= -1721.58315703488     IErMin=16 ErrMin= 2.40D-08
 ErrMax= 2.40D-08  0.00D+00 EMaxC= 1.00D-01 BMatC= 5.89D-13 BMatP= 1.58D-12
 IDIUse=1 WtCom= 1.00D+00 WtEn= 0.00D+00
 Large coefficients: NSaved= 16 BigCof=    0.00 CofMax=   10.00 Det=-8.00D-15
 Inversion failed.  Reducing to 15 matrices.
 Coeff-Com: -0.787D-03 0.341D-01 0.400D-01-0.553D-01-0.904D-01 0.145D+00
 Coeff-Com:  0.789D+00-0.329D+00-0.121D+01 0.676D+00 0.474D+00-0.592D+00
 Coeff-Com: -0.365D+00 0.628D+00 0.852D+00
 Coeff:     -0.787D-03 0.341D-01 0.400D-01-0.553D-01-0.904D-01 0.145D+00
 Coeff:      0.789D+00-0.329D+00-0.121D+01 0.676D+00 0.474D+00-0.592D+00
 Coeff:     -0.365D+00 0.628D+00 0.852D+00
 Gap=     0.384 Goal=   None    Shift=    0.000
 Gap=     0.298 Goal=   None    Shift=    0.000
 RMSDP=3.88D-07 MaxDP=3.63D-05 DE=-1.16D-10 OVMax= 8.76D-05

 Cycle  28  Pass 1  IDiag  1:
 RMSU=  1.26D-07    CP:  1.00D+00  3.00D+00  3.00D+00  3.00D+00  3.00D+00
                    CP:  2.35D+00  1.84D+00
 E= -1721.58315703485     Delta-E=        0.000000000029 Rises=F Damp=F
 DIIS: error= 2.06D-09 at cycle  28 NSaved=  16.
 NSaved=16 IEnMin=15 EnMin= -1721.58315703488     IErMin=16 ErrMin= 2.06D-09
 ErrMax= 2.06D-09  0.00D+00 EMaxC= 1.00D-01 BMatC= 6.92D-15 BMatP= 5.89D-13
 IDIUse=1 WtCom= 1.00D+00 WtEn= 0.00D+00
 Large coefficients: NSaved= 16 BigCof=    0.00 CofMax=   10.00 Det=-7.28D-15
 Inversion failed.  Reducing to 15 matrices.
 Coeff-Com: -0.500D-02-0.385D-02 0.935D-02 0.873D-02-0.298D-01-0.616D-01
 Coeff-Com:  0.189D+00-0.785D-01-0.553D-01 0.822D-02 0.106D+00-0.578D-01
 Coeff-Com: -0.949D-01-0.400D-01 0.111D+01
 Coeff:     -0.500D-02-0.385D-02 0.935D-02 0.873D-02-0.298D-01-0.616D-01
 Coeff:      0.189D+00-0.785D-01-0.553D-01 0.822D-02 0.106D+00-0.578D-01
 Coeff:     -0.949D-01-0.400D-01 0.111D+01
 Gap=     0.384 Goal=   None    Shift=    0.000
 Gap=     0.298 Goal=   None    Shift=    0.000
 RMSDP=2.65D-08 MaxDP=2.44D-06 DE= 2.86D-11 OVMax= 5.97D-06

 Cycle  29  Pass 1  IDiag  1:
 RMSU=  1.65D-09    CP:  1.00D+00  3.00D+00  3.00D+00  3.00D+00  3.00D+00
                    CP:  2.29D+00  1.91D+00  9.87D-01
 E= -1721.58315703487     Delta-E=       -0.000000000015 Rises=F Damp=F
 DIIS: error= 6.68D-10 at cycle  29 NSaved=  16.
 NSaved=16 IEnMin=14 EnMin= -1721.58315703488     IErMin=16 ErrMin= 6.68D-10
 ErrMax= 6.68D-10  0.00D+00 EMaxC= 1.00D-01 BMatC= 6.99D-16 BMatP= 6.92D-15
 IDIUse=1 WtCom= 1.00D+00 WtEn= 0.00D+00
 Large coefficients: NSaved= 16 BigCof=    0.00 CofMax=   10.00 Det=-3.20D-15
 Inversion failed.  Reducing to 15 matrices.
 Coeff-Com: -0.404D-03 0.698D-03 0.106D-02-0.485D-02-0.150D-01 0.553D-01
 Coeff-Com: -0.321D-01-0.157D-01 0.132D-01 0.859D-02 0.371D-04-0.213D-01
 Coeff-Com: -0.183D-01 0.108D+00 0.920D+00
 Coeff:     -0.404D-03 0.698D-03 0.106D-02-0.485D-02-0.150D-01 0.553D-01
 Coeff:     -0.321D-01-0.157D-01 0.132D-01 0.859D-02 0.371D-04-0.213D-01
 Coeff:     -0.183D-01 0.108D+00 0.920D+00
 Gap=     0.384 Goal=   None    Shift=    0.000
 Gap=     0.298 Goal=   None    Shift=    0.000
 RMSDP=2.98D-09 MaxDP=2.32D-07 DE=-1.55D-11 OVMax= 5.85D-07

 SCF Done:  E(UM08HX) =  -1721.58315703     A.U. after   29 cycles
            NFock= 29  Conv=0.30D-08     -V/T= 2.0030
 <Sx>= 0.0000 <Sy>= 0.0000 <Sz>= 2.0000 <S**2>= 6.0072 S= 2.0014
 <L.S>=  0.00000000000    
 KE= 1.716450998825D+03 PE=-5.375784137449D+03 EE= 1.280029484552D+03
 Annihilation of the first spin contaminant:
 S**2 before annihilation     6.0072,   after     6.0000
 Leave Link  502 at Thu Mar  6 11:02:46 2025, MaxMem= 13421772800 cpu:            5834.9 elap:              51.0
 (Enter /gpfs/fs1/soft/improv/software/custom-built/gaussian/g16/l508.exe)
 QCSCF skips out because SCF is already converged.
 Leave Link  508 at Thu Mar  6 11:02:46 2025, MaxMem= 13421772800 cpu:               0.2 elap:               0.0
 (Enter /gpfs/fs1/soft/improv/software/custom-built/gaussian/g16/l801.exe)
 DoSCS=F DFT=T ScalE2(SS,OS)=  1.000000  1.000000
 Range of M.O.s used for correlation:     1   317
 NBasis=   317 NAE=    44 NBE=    40 NFC=     0 NFV=     0
 NROrb=    317 NOA=    44 NOB=    40 NVA=   273 NVB=   277

 **** Warning!!: The largest alpha MO coefficient is  0.27845774D+03


 **** Warning!!: The largest beta MO coefficient is  0.25982481D+03

 Leave Link  801 at Thu Mar  6 11:02:47 2025, MaxMem= 13421772800 cpu:               0.4 elap:               0.0
 (Enter /gpfs/fs1/soft/improv/software/custom-built/gaussian/g16/l1101.exe)
 Using compressed storage, NAtomX=    19.
 Will process     20 centers per pass.
 Leave Link 1101 at Thu Mar  6 11:02:47 2025, MaxMem= 13421772800 cpu:              52.1 elap:               0.5
 (Enter /gpfs/fs1/soft/improv/software/custom-built/gaussian/g16/l1102.exe)
 Symmetrizing basis deriv contribution to polar:
 IMax=3 JMax=2 DiffMx= 0.00D+00
 Leave Link 1102 at Thu Mar  6 11:02:48 2025, MaxMem= 13421772800 cpu:               1.0 elap:               0.0
 (Enter /gpfs/fs1/soft/improv/software/custom-built/gaussian/g16/l1110.exe)
 Forming Gx(P) for the SCF density, NAtomX=    19.
 Integral derivatives from FoFJK, PRISM(SPDF).
 Do as many integral derivatives as possible in FoFJK.
 G2DrvN: MDV=   13421770631.
 G2DrvN: will do    20 centers at a time, making    1 passes.
 Calling FoFCou, ICntrl=  3107 FMM=F I1Cent=   0 AccDes= 0.00D+00.
 FoFJK:  IHMeth= 1 ICntrl=    3107 DoSepK=F KAlg= 0 I1Cent=           0 FoldK=F
 IRaf=         0 NMat=       1 IRICut=       1 DoRegI=T DoRafI=F ISym2E= 0 IDoP0=0 IntGTp=1.
 FoFCou: FMM=F IPFlag=           0 FMFlag=      100000 FMFlg1=           0
         NFxFlg=           0 DoJE=F BraDBF=F KetDBF=F FulRan=T
         wScrn=  0.000000 ICntrl=      3107 IOpCl=  1 I1Cent=           0 NGrid=           0
         NMat0=    1 NMatS0=      1 NMatT0=    0 NMatD0=    1 NMtDS0=    0 NMtDT0=    0
 Symmetry not used in FoFCou.
 End of G2Drv F.D. properties file   721 does not exist.
 End of G2Drv F.D. properties file   722 does not exist.
 End of G2Drv F.D. properties file   788 does not exist.
 Leave Link 1110 at Thu Mar  6 11:03:09 2025, MaxMem= 13421772800 cpu:            2575.1 elap:              20.6
 (Enter /gpfs/fs1/soft/improv/software/custom-built/gaussian/g16/l1002.exe)
 Minotr:  UHF open shell wavefunction.
          IDoAtm=1111111111111111111
          Direct CPHF calculation.
          Differentiating once with respect to electric field.
                with respect to dipole field.
          Differentiating once with respect to nuclear coordinates.
          Requested convergence is 1.0D-08 RMS, and 1.0D-07 maximum.
          Secondary convergence is 1.0D-12 RMS, and 1.0D-12 maximum.
          NewPWx=T KeepS1=F KeepF1=F KeepIn=T MapXYZ=F SortEE=F KeepMc=T.
         6034 words used for storage of precomputed grid.
 Two-electron integrals replicated using symmetry.
          MDV=   13421772800 using IRadAn=       1.
          Solving linear equations simultaneously, MaxMat=     384.
 FoF2E skips out because all densities are zero.
 CalDSu exits because no D1Ps are significant.
 FoFJK:  IHMeth= 1 ICntrl=       0 DoSepK=F KAlg= 0 I1Cent=           0 FoldK=F
 IRaf= 960000000 NMat=      57 IRICut=     142 DoRegI=T DoRafI=T ISym2E= 2 IDoP0=3 IntGTp=2.
 FoFCou: FMM=F IPFlag=           0 FMFlag=      100000 FMFlg1=           0
         NFxFlg=           0 DoJE=F BraDBF=F KetDBF=F FulRan=T
         wScrn=  0.000000 ICntrl=         0 IOpCl=  1 I1Cent=           0 NGrid=           0
         NMat0=   57 NMatS0=     57 NMatT0=    0 NMatD0=   57 NMtDS0=    0 NMtDT0=    0
 Integrals replicated using symmetry in FoFCou.
 Raff kept on since  94.09% of shell-pairs survive, threshold=   0.20 IRatSp=94.
          There are    60 degrees of freedom in the 1st order CPHF.  IDoFFX=6 NUNeed=     3.
     57 vectors produced by pass  0 Test12= 3.85D-14 1.67D-09 XBig12= 3.52D+01 1.05D+00.
 AX will form    57 AO Fock derivatives at one time.
     57 vectors produced by pass  1 Test12= 3.85D-14 1.67D-09 XBig12= 1.16D+00 1.75D-01.
     57 vectors produced by pass  2 Test12= 3.85D-14 1.67D-09 XBig12= 1.74D-02 1.98D-02.
     57 vectors produced by pass  3 Test12= 3.85D-14 1.67D-09 XBig12= 2.66D-04 2.96D-03.
     57 vectors produced by pass  4 Test12= 3.85D-14 1.67D-09 XBig12= 3.41D-06 2.31D-04.
     57 vectors produced by pass  5 Test12= 3.85D-14 1.67D-09 XBig12= 4.81D-08 4.12D-05.
     57 vectors produced by pass  6 Test12= 3.85D-14 1.67D-09 XBig12= 4.21D-10 5.57D-06.
     34 vectors produced by pass  7 Test12= 3.85D-14 1.67D-09 XBig12= 3.39D-12 3.14D-07.
      5 vectors produced by pass  8 Test12= 3.85D-14 1.67D-09 XBig12= 2.00D-14 2.41D-08.
      1 vectors produced by pass  9 Test12= 3.85D-14 1.67D-09 XBig12= 1.21D-16 1.78D-09.
 InvSVY:  IOpt=1 It=  1 EMax= 6.22D-15
 Solved reduced A of dimension   439 with    60 vectors.
 FullF1:  Do perturbations      1 to       3.
 Isotropic polarizability for W=    0.000000       52.90 Bohr**3.
 End of Minotr F.D. properties file   721 does not exist.
 End of Minotr F.D. properties file   722 does not exist.
 End of Minotr F.D. properties file   788 does not exist.
 Leave Link 1002 at Thu Mar  6 11:04:32 2025, MaxMem= 13421772800 cpu:           10052.1 elap:              82.7
 (Enter /gpfs/fs1/soft/improv/software/custom-built/gaussian/g16/l601.exe)
 Copying SCF densities to generalized density rwf, IOpCl= 1 IROHF=0.

 **********************************************************************

            Population analysis using the SCF Density.

 **********************************************************************

 Orbital symmetries:
 Alpha Orbitals:
       Occupied  (A) (A) (A) (A) (A) (A) (A) (A) (A) (A) (A) (A)
                 (A) (A) (A) (A) (A) (A) (A) (A) (A) (A) (A) (A)
                 (A) (A) (A) (A) (A) (A) (A) (A) (A) (A) (A) (A)
                 (A) (A) (A) (A) (A) (A) (A) (A)
       Virtual   (A) (A) (A) (A) (A) (A) (A) (A) (A) (A) (A) (A)
                 (A) (A) (A) (A) (A) (A) (A) (A) (A) (A) (A) (A)
                 (A) (A) (A) (A) (A) (A) (A) (A) (A) (A) (A) (A)
                 (A) (A) (A) (A) (A) (A) (A) (A) (A) (A) (A) (A)
                 (A) (A) (A) (A) (A) (A) (A) (A) (A) (A) (A) (A)
                 (A) (A) (A) (A) (A) (A) (A) (A) (A) (A) (A) (A)
                 (A) (A) (A) (A) (A) (A) (A) (A) (A) (A) (A) (A)
                 (A) (A) (A) (A) (A) (A) (A) (A) (A) (A) (A) (A)
                 (A) (A) (A) (A) (A) (A) (A) (A) (A) (A) (A) (A)
                 (A) (A) (A) (A) (A) (A) (A) (A) (A) (A) (A) (A)
                 (A) (A) (A) (A) (A) (A) (A) (A) (A) (A) (A) (A)
                 (A) (A) (A) (A) (A) (A) (A) (A) (A) (A) (A) (A)
                 (A) (A) (A) (A) (A) (A) (A) (A) (A) (A) (A) (A)
                 (A) (A) (A) (A) (A) (A) (A) (A) (A) (A) (A) (A)
                 (A) (A) (A) (A) (A) (A) (A) (A) (A) (A) (A) (A)
                 (A) (A) (A) (A) (A) (A) (A) (A) (A) (A) (A) (A)
                 (A) (A) (A) (A) (A) (A) (A) (A) (A) (A) (A) (A)
                 (A) (A) (A) (A) (A) (A) (A) (A) (A) (A) (A) (A)
                 (A) (A) (A) (A) (A) (A) (A) (A) (A) (A) (A) (A)
                 (A) (A) (A) (A) (A) (A) (A) (A) (A) (A) (A) (A)
                 (A) (A) (A) (A) (A) (A) (A) (A) (A) (A) (A) (A)
                 (A) (A) (A) (A) (A) (A) (A) (A) (A) (A) (A) (A)
                 (A) (A) (A) (A) (A) (A) (A) (A) (A)
 Beta  Orbitals:
       Occupied  (A) (A) (A) (A) (A) (A) (A) (A) (A) (A) (A) (A)
                 (A) (A) (A) (A) (A) (A) (A) (A) (A) (A) (A) (A)
                 (A) (A) (A) (A) (A) (A) (A) (A) (A) (A) (A) (A)
                 (A) (A) (A) (A)
       Virtual   (A) (A) (A) (A) (A) (A) (A) (A) (A) (A) (A) (A)
                 (A) (A) (A) (A) (A) (A) (A) (A) (A) (A) (A) (A)
                 (A) (A) (A) (A) (A) (A) (A) (A) (A) (A) (A) (A)
                 (A) (A) (A) (A) (A) (A) (A) (A) (A) (A) (A) (A)
                 (A) (A) (A) (A) (A) (A) (A) (A) (A) (A) (A) (A)
                 (A) (A) (A) (A) (A) (A) (A) (A) (A) (A) (A) (A)
                 (A) (A) (A) (A) (A) (A) (A) (A) (A) (A) (A) (A)
                 (A) (A) (A) (A) (A) (A) (A) (A) (A) (A) (A) (A)
                 (A) (A) (A) (A) (A) (A) (A) (A) (A) (A) (A) (A)
                 (A) (A) (A) (A) (A) (A) (A) (A) (A) (A) (A) (A)
                 (A) (A) (A) (A) (A) (A) (A) (A) (A) (A) (A) (A)
                 (A) (A) (A) (A) (A) (A) (A) (A) (A) (A) (A) (A)
                 (A) (A) (A) (A) (A) (A) (A) (A) (A) (A) (A) (A)
                 (A) (A) (A) (A) (A) (A) (A) (A) (A) (A) (A) (A)
                 (A) (A) (A) (A) (A) (A) (A) (A) (A) (A) (A) (A)
                 (A) (A) (A) (A) (A) (A) (A) (A) (A) (A) (A) (A)
                 (A) (A) (A) (A) (A) (A) (A) (A) (A) (A) (A) (A)
                 (A) (A) (A) (A) (A) (A) (A) (A) (A) (A) (A) (A)
                 (A) (A) (A) (A) (A) (A) (A) (A) (A) (A) (A) (A)
                 (A) (A) (A) (A) (A) (A) (A) (A) (A) (A) (A) (A)
                 (A) (A) (A) (A) (A) (A) (A) (A) (A) (A) (A) (A)
                 (A) (A) (A) (A) (A) (A) (A) (A) (A) (A) (A) (A)
                 (A) (A) (A) (A) (A) (A) (A) (A) (A) (A) (A) (A)
                 (A)
 The electronic state is 5-A.
 Alpha  occ. eigenvalues -- -258.18942 -30.93013 -26.85009 -26.81876 -26.81852
 Alpha  occ. eigenvalues --  -19.97198 -19.97198 -19.96756 -19.96756 -19.96429
 Alpha  occ. eigenvalues --  -19.96428  -4.08085  -2.89224  -2.83093  -2.83044
 Alpha  occ. eigenvalues --   -1.47369  -1.46974  -1.46558  -1.46545  -1.46186
 Alpha  occ. eigenvalues --   -1.46126  -0.95672  -0.95458  -0.95288  -0.95105
 Alpha  occ. eigenvalues --   -0.94771  -0.94658  -0.89414  -0.88945  -0.87973
 Alpha  occ. eigenvalues --   -0.84831  -0.84360  -0.83851  -0.80285  -0.80235
 Alpha  occ. eigenvalues --   -0.75774  -0.74270  -0.73765  -0.73444  -0.72979
 Alpha  occ. eigenvalues --   -0.72551  -0.71160  -0.70957  -0.69394
 Alpha virt. eigenvalues --   -0.31044  -0.27322  -0.27109  -0.27106  -0.20742
 Alpha virt. eigenvalues --   -0.20638  -0.18403  -0.18055  -0.17499  -0.15826
 Alpha virt. eigenvalues --   -0.15651  -0.15517  -0.15314  -0.12069  -0.11744
 Alpha virt. eigenvalues --   -0.11724  -0.10429  -0.10366  -0.10148  -0.08620
 Alpha virt. eigenvalues --   -0.08205  -0.07887  -0.07447  -0.06859  -0.06208
 Alpha virt. eigenvalues --   -0.04531  -0.02499  -0.02278  -0.02258   0.00091
 Alpha virt. eigenvalues --    0.00504   0.01797   0.02550   0.02915   0.03221
 Alpha virt. eigenvalues --    0.05673   0.05926   0.05983   0.07242   0.09397
 Alpha virt. eigenvalues --    0.10308   0.10659   0.14824   0.16000   0.17625
 Alpha virt. eigenvalues --    0.17696   0.18009   0.18406   0.20594   0.20923
 Alpha virt. eigenvalues --    0.21481   0.36324   0.36909   0.46946   0.52197
 Alpha virt. eigenvalues --    0.53235   0.53338   0.54944   0.55717   0.55940
 Alpha virt. eigenvalues --    0.58492   0.60625   0.61289   0.62158   0.63336
 Alpha virt. eigenvalues --    0.63868   0.64851   0.65427   0.66251   0.66459
 Alpha virt. eigenvalues --    0.66491   0.67180   0.67797   0.67918   0.68176
 Alpha virt. eigenvalues --    0.69705   0.70059   0.76844   0.76867   0.77198
 Alpha virt. eigenvalues --    0.77904   0.78503   0.78584   0.82340   0.82704
 Alpha virt. eigenvalues --    0.83296   0.86021   0.88983   0.89211   0.89580
 Alpha virt. eigenvalues --    0.90320   0.90683   0.90793   0.90892   0.91314
 Alpha virt. eigenvalues --    0.98742   0.99396   1.01771   1.02936   1.03619
 Alpha virt. eigenvalues --    1.13696   1.13997   1.27194   1.27312   1.28329
 Alpha virt. eigenvalues --    1.28552   1.29284   1.31602   1.37080   1.37127
 Alpha virt. eigenvalues --    1.38270   1.42315   1.43709   1.45302   1.46980
 Alpha virt. eigenvalues --    1.52052   1.52312   1.54014   1.63467   1.80461
 Alpha virt. eigenvalues --    1.83648   1.85217   1.96971   1.97493   1.97946
 Alpha virt. eigenvalues --    1.99868   2.00706   2.01305   2.01382   2.01496
 Alpha virt. eigenvalues --    2.02663   2.02922   2.03917   2.05056   2.14235
 Alpha virt. eigenvalues --    2.17465   2.17557   2.18182   2.19045   2.21741
 Alpha virt. eigenvalues --    2.22463   2.23028   2.27553   2.27565   2.28153
 Alpha virt. eigenvalues --    2.29769   2.29776   2.30130   2.30264   2.30756
 Alpha virt. eigenvalues --    2.33317   2.68908   2.69021   2.69241   2.70147
 Alpha virt. eigenvalues --    2.71750   2.71990   2.76075   2.77339   2.77963
 Alpha virt. eigenvalues --    2.88121   2.90012   2.90582   2.90807   2.92101
 Alpha virt. eigenvalues --    2.93023   2.93304   2.97203   2.97609   2.98761
 Alpha virt. eigenvalues --    2.98793   2.99417   3.81532   3.84006   3.84864
 Alpha virt. eigenvalues --    3.85249   3.85899   3.86097   3.95221   3.96471
 Alpha virt. eigenvalues --    3.97938   3.99299   3.99746   3.99818   4.05158
 Alpha virt. eigenvalues --    4.05817   4.07189   4.10951   4.12455   4.13643
 Alpha virt. eigenvalues --    4.17096   4.17641   4.17949   4.25775   4.25909
 Alpha virt. eigenvalues --    4.26827   4.27076   4.27128   4.28188   4.28722
 Alpha virt. eigenvalues --    4.28810   4.28883   4.32961   4.33218   4.35438
 Alpha virt. eigenvalues --    4.36026   4.36648   4.37329   4.51607   4.53433
 Alpha virt. eigenvalues --    4.53752   4.53915   4.63811   4.63992   4.64274
 Alpha virt. eigenvalues --    4.65189   4.65549   4.66038   4.74324   4.74393
 Alpha virt. eigenvalues --    4.75906   4.89139   4.90139   4.93078   4.94472
 Alpha virt. eigenvalues --    4.95707   5.06890   5.07119   5.07363   5.07629
 Alpha virt. eigenvalues --    5.07656   5.07957   5.08813   5.11046   5.11137
 Alpha virt. eigenvalues --    5.12016   5.16475   5.16657   5.16751   5.17194
 Alpha virt. eigenvalues --    5.17983   5.18413   5.18468   5.18919   5.19165
 Alpha virt. eigenvalues --    5.32323   5.33373   5.33634   5.49482   5.49552
 Alpha virt. eigenvalues --    5.49641   5.49872   5.50418   5.50433   5.60263
 Alpha virt. eigenvalues --    5.60866   5.65852   5.71184   5.71774   5.72881
 Alpha virt. eigenvalues --    7.20847   7.22313   7.22554   7.24800   7.26176
 Alpha virt. eigenvalues --    7.49467  13.50171  13.52030  13.53027  13.60332
 Alpha virt. eigenvalues --   13.65863  14.06941  20.73817
  Beta  occ. eigenvalues -- -258.19032 -30.82357 -26.74639 -26.73911 -26.73906
  Beta  occ. eigenvalues --  -19.97040 -19.97040 -19.96620 -19.96620 -19.96294
  Beta  occ. eigenvalues --  -19.96294  -3.87376  -2.60869  -2.60816  -2.59072
  Beta  occ. eigenvalues --   -1.47131  -1.46713  -1.46336  -1.46292  -1.45978
  Beta  occ. eigenvalues --   -1.45895  -0.95517  -0.95383  -0.95036  -0.95019
  Beta  occ. eigenvalues --   -0.94603  -0.94597  -0.88535  -0.84278  -0.83840
  Beta  occ. eigenvalues --   -0.83703  -0.83356  -0.83086  -0.74205  -0.74192
  Beta  occ. eigenvalues --   -0.73861  -0.73512  -0.73461  -0.73170  -0.60781
  Beta virt. eigenvalues --   -0.31001  -0.27357  -0.27159  -0.27130  -0.26208
  Beta virt. eigenvalues --   -0.25860  -0.23358  -0.22755  -0.18367  -0.18122
  Beta virt. eigenvalues --   -0.17821  -0.17444  -0.17249  -0.15659  -0.15648
  Beta virt. eigenvalues --   -0.15504  -0.15276  -0.12118  -0.11825  -0.11781
  Beta virt. eigenvalues --   -0.10386  -0.10323  -0.10083  -0.08226  -0.07853
  Beta virt. eigenvalues --   -0.07320  -0.07237  -0.06624  -0.06082  -0.04490
  Beta virt. eigenvalues --   -0.02429  -0.02175  -0.02145   0.00632   0.02531
  Beta virt. eigenvalues --    0.02684   0.02904   0.03208   0.04359   0.06060
  Beta virt. eigenvalues --    0.06334   0.06876   0.07705   0.09591   0.10359
  Beta virt. eigenvalues --    0.11065   0.14913   0.16165   0.17758   0.18809
  Beta virt. eigenvalues --    0.19473   0.19778   0.21551   0.21605   0.22236
  Beta virt. eigenvalues --    0.37005   0.37501   0.47166   0.52239   0.53344
  Beta virt. eigenvalues --    0.53541   0.55054   0.55577   0.55998   0.59202
  Beta virt. eigenvalues --    0.60623   0.61285   0.62141   0.63300   0.63821
  Beta virt. eigenvalues --    0.64947   0.66366   0.66411   0.66529   0.67076
  Beta virt. eigenvalues --    0.67117   0.67793   0.68026   0.68433   0.69915
  Beta virt. eigenvalues --    0.70395   0.76972   0.77043   0.77263   0.78109
  Beta virt. eigenvalues --    0.78511   0.78724   0.82516   0.82886   0.83404
  Beta virt. eigenvalues --    0.87333   0.89126   0.89729   0.90671   0.90744
  Beta virt. eigenvalues --    0.90993   0.91374   0.91420   0.91689   0.99512
  Beta virt. eigenvalues --    1.00706   1.01963   1.03471   1.04374   1.15571
  Beta virt. eigenvalues --    1.15913   1.27363   1.28780   1.29114   1.30223
  Beta virt. eigenvalues --    1.30482   1.31780   1.38823   1.38927   1.40832
  Beta virt. eigenvalues --    1.46906   1.47930   1.52744   1.52934   1.53789
  Beta virt. eigenvalues --    1.54580   1.54716   1.63590   1.81794   1.84923
  Beta virt. eigenvalues --    1.85971   1.97801   1.98331   1.99347   2.01316
  Beta virt. eigenvalues --    2.01491   2.02772   2.02860   2.03541   2.03722
  Beta virt. eigenvalues --    2.03907   2.05590   2.07505   2.18657   2.19795
  Beta virt. eigenvalues --    2.19801   2.20266   2.21831   2.22754   2.23521
  Beta virt. eigenvalues --    2.23673   2.27710   2.27869   2.28396   2.29882
  Beta virt. eigenvalues --    2.29958   2.30212   2.30442   2.30952   2.33553
  Beta virt. eigenvalues --    2.69184   2.69471   2.69960   2.70217   2.72405
  Beta virt. eigenvalues --    2.72604   2.77344   2.78108   2.78812   2.88282
  Beta virt. eigenvalues --    2.90313   2.90896   2.91056   2.92819   2.93493
  Beta virt. eigenvalues --    2.93659   2.98793   2.99820   3.03356   3.03451
  Beta virt. eigenvalues --    3.04725   3.81957   3.84328   3.85276   3.85291
  Beta virt. eigenvalues --    3.85941   3.86564   3.96557   3.97887   3.98112
  Beta virt. eigenvalues --    3.99395   4.00124   4.00694   4.05853   4.06004
  Beta virt. eigenvalues --    4.07498   4.10336   4.11975   4.13073   4.22183
  Beta virt. eigenvalues --    4.22361   4.22490   4.25805   4.26801   4.27124
  Beta virt. eigenvalues --    4.27495   4.30318   4.31329   4.32337   4.32495
  Beta virt. eigenvalues --    4.32900   4.37349   4.38122   4.44456   4.44468
  Beta virt. eigenvalues --    4.45416   4.47316   4.56278   4.59443   4.60299
  Beta virt. eigenvalues --    4.60904   4.65995   4.66061   4.66130   4.66259
  Beta virt. eigenvalues --    4.66629   4.66886   4.74612   4.75186   4.77008
  Beta virt. eigenvalues --    4.92202   4.93051   4.95096   4.96398   4.96974
  Beta virt. eigenvalues --    5.06964   5.07121   5.07390   5.07547   5.07748
  Beta virt. eigenvalues --    5.07888   5.11745   5.11923   5.12184   5.12916
  Beta virt. eigenvalues --    5.16374   5.16553   5.16623   5.17041   5.17796
  Beta virt. eigenvalues --    5.18238   5.18294   5.18759   5.19042   5.36438
  Beta virt. eigenvalues --    5.36643   5.36916   5.49366   5.49727   5.49776
  Beta virt. eigenvalues --    5.49885   5.50367   5.50569   5.60179   5.60815
  Beta virt. eigenvalues --    5.66041   5.72810   5.73382   5.74451   7.20557
  Beta virt. eigenvalues --    7.22065   7.22357   7.24547   7.25882   7.49169
  Beta virt. eigenvalues --   13.50243  13.52085  13.53072  13.60441  13.66005
  Beta virt. eigenvalues --   14.07282  20.89140
          Condensed to atoms (all electrons):
               1          2          3          4          5          6
     1  Fe  24.802891   0.040641   0.001619   0.031636   0.002579   0.047178
     2  O    0.040641   8.172386   0.293051  -0.026702   0.000456  -0.026463
     3  H    0.001619   0.293051   0.270257   0.000013  -0.000002   0.000391
     4  O    0.031636  -0.026702   0.000013   8.178902   0.292990  -0.029207
     5  H    0.002579   0.000456  -0.000002   0.292990   0.272581   0.000205
     6  O    0.047178  -0.026463   0.000391  -0.029207   0.000205   8.168967
     7  H    0.000666  -0.000002  -0.000000   0.000460  -0.000001   0.294297
     8  O    0.040640   0.019123  -0.000206  -0.026710   0.001858  -0.037971
     9  H    0.002123  -0.000221   0.000000   0.000004  -0.000031   0.000659
    10  O    0.031640  -0.026708   0.000013   0.019385  -0.000213  -0.029247
    11  H    0.002577   0.000455  -0.000002  -0.000213   0.000000   0.000205
    12  O    0.047177  -0.037967   0.002668  -0.029242  -0.000034   0.022633
    13  H    0.000666   0.000187  -0.000031   0.002333  -0.000036  -0.000258
    14  H    0.000666   0.000187  -0.000031   0.000461  -0.000002  -0.000258
    15  H    0.002576   0.001858  -0.000009   0.292994  -0.010828  -0.000035
    16  H    0.002123   0.293727  -0.011322   0.000004  -0.000000   0.001681
    17  H    0.002580   0.001858  -0.000009  -0.000213   0.000000  -0.000034
    18  H    0.000666  -0.000002  -0.000000   0.002331  -0.000015   0.294298
    19  H    0.001618  -0.000206  -0.000000   0.000013  -0.000009   0.002668
               7          8          9         10         11         12
     1  Fe   0.000666   0.040640   0.002123   0.031640   0.002577   0.047177
     2  O   -0.000002   0.019123  -0.000221  -0.026708   0.000455  -0.037967
     3  H   -0.000000  -0.000206   0.000000   0.000013  -0.000002   0.002668
     4  O    0.000460  -0.026710   0.000004   0.019385  -0.000213  -0.029242
     5  H   -0.000001   0.001858  -0.000031  -0.000213   0.000000  -0.000034
     6  O    0.294297  -0.037971   0.000659  -0.029247   0.000205   0.022633
     7  H    0.269398   0.000187  -0.000002   0.002334  -0.000015  -0.000258
     8  O    0.000187   8.172384   0.293727  -0.026698   0.001858  -0.026461
     9  H   -0.000002   0.293727   0.271157   0.000003  -0.000031   0.001681
    10  O    0.002334  -0.026698   0.000003   8.178918   0.292992  -0.029216
    11  H   -0.000015   0.001858  -0.000031   0.292992   0.272582  -0.000035
    12  O   -0.000258  -0.026461   0.001681  -0.029216  -0.000035   8.168964
    13  H    0.000000  -0.000002  -0.000011   0.000461  -0.000002   0.294297
    14  H    0.000000  -0.000002  -0.000011   0.002332  -0.000035   0.294299
    15  H   -0.000002   0.000455  -0.000000  -0.000213   0.000000   0.000205
    16  H   -0.000011  -0.000221   0.000000   0.000004  -0.000000   0.000659
    17  H   -0.000036   0.000455  -0.000000   0.292988  -0.010828   0.000205
    18  H   -0.011416   0.000187  -0.000002   0.000461  -0.000001  -0.000258
    19  H   -0.000031   0.293052  -0.011322   0.000013  -0.000009   0.000391
              13         14         15         16         17         18
     1  Fe   0.000666   0.000666   0.002576   0.002123   0.002580   0.000666
     2  O    0.000187   0.000187   0.001858   0.293727   0.001858  -0.000002
     3  H   -0.000031  -0.000031  -0.000009  -0.011322  -0.000009  -0.000000
     4  O    0.002333   0.000461   0.292994   0.000004  -0.000213   0.002331
     5  H   -0.000036  -0.000002  -0.010828  -0.000000   0.000000  -0.000015
     6  O   -0.000258  -0.000258  -0.000035   0.001681  -0.000034   0.294298
     7  H    0.000000   0.000000  -0.000002  -0.000011  -0.000036  -0.011416
     8  O   -0.000002  -0.000002   0.000455  -0.000221   0.000455   0.000187
     9  H   -0.000011  -0.000011  -0.000000   0.000000  -0.000000  -0.000002
    10  O    0.000461   0.002332  -0.000213   0.000004   0.292988   0.000461
    11  H   -0.000002  -0.000035   0.000000  -0.000000  -0.010828  -0.000001
    12  O    0.294297   0.294299   0.000205   0.000659   0.000205  -0.000258
    13  H    0.269398  -0.011416  -0.000015  -0.000002  -0.000001   0.000000
    14  H   -0.011416   0.269400  -0.000001  -0.000002  -0.000015   0.000000
    15  H   -0.000015  -0.000001   0.272582  -0.000031   0.000000  -0.000035
    16  H   -0.000002  -0.000002  -0.000031   0.271157  -0.000031  -0.000011
    17  H   -0.000001  -0.000015   0.000000  -0.000031   0.272581  -0.000002
    18  H    0.000000   0.000000  -0.000035  -0.000011  -0.000002   0.269400
    19  H   -0.000000  -0.000000  -0.000002   0.000000  -0.000002  -0.000031
              19
     1  Fe   0.001618
     2  O   -0.000206
     3  H   -0.000000
     4  O    0.000013
     5  H   -0.000009
     6  O    0.002668
     7  H   -0.000031
     8  O    0.293052
     9  H   -0.011322
    10  O    0.000013
    11  H   -0.000009
    12  O    0.000391
    13  H   -0.000000
    14  H   -0.000000
    15  H   -0.000002
    16  H    0.000000
    17  H   -0.000002
    18  H   -0.000031
    19  H    0.270257
          Atomic-Atomic Spin Densities.
               1          2          3          4          5          6
     1  Fe   4.107176  -0.046768   0.001804  -0.047507   0.002675  -0.054312
     2  O   -0.046768   0.101754  -0.003302  -0.008568   0.000139  -0.009290
     3  H    0.001804  -0.003302   0.001861   0.000264  -0.000001   0.000120
     4  O   -0.047507  -0.008568   0.000264   0.107812  -0.004427  -0.011039
     5  H    0.002675   0.000139  -0.000001  -0.004427   0.001380   0.000301
     6  O   -0.054312  -0.009290   0.000120  -0.011039   0.000301   0.120002
     7  H    0.002448   0.000242  -0.000001   0.000159  -0.000001  -0.004229
     8  O   -0.046768   0.007286  -0.000081  -0.008565   0.000363  -0.009492
     9  H    0.002066  -0.000086   0.000000   0.000247  -0.000010   0.000139
    10  O   -0.047505  -0.008565   0.000264   0.008058  -0.000089  -0.011039
    11  H    0.002676   0.000139  -0.000001  -0.000089   0.000000   0.000302
    12  O   -0.054312  -0.009491   0.000553  -0.011039   0.000323   0.008801
    13  H    0.002448   0.000340  -0.000013   0.000460  -0.000019  -0.000101
    14  H    0.002449   0.000340  -0.000013   0.000159  -0.000001  -0.000101
    15  H    0.002677   0.000362  -0.000011  -0.004428   0.000774   0.000322
    16  H    0.002066  -0.003466   0.000635   0.000247  -0.000001   0.000434
    17  H    0.002675   0.000362  -0.000011  -0.000089   0.000000   0.000323
    18  H    0.002450   0.000242  -0.000001   0.000460  -0.000008  -0.004231
    19  H    0.001804  -0.000081   0.000000   0.000264  -0.000011   0.000553
               7          8          9         10         11         12
     1  Fe   0.002448  -0.046768   0.002066  -0.047505   0.002676  -0.054312
     2  O    0.000242   0.007286  -0.000086  -0.008565   0.000139  -0.009491
     3  H   -0.000001  -0.000081   0.000000   0.000264  -0.000001   0.000553
     4  O    0.000159  -0.008565   0.000247   0.008058  -0.000089  -0.011039
     5  H   -0.000001   0.000363  -0.000010  -0.000089   0.000000   0.000323
     6  O   -0.004229  -0.009492   0.000139  -0.011039   0.000302   0.008801
     7  H    0.001318   0.000340  -0.000001   0.000461  -0.000008  -0.000101
     8  O    0.000340   0.101755  -0.003466  -0.008566   0.000362  -0.009290
     9  H   -0.000001  -0.003466   0.001772   0.000246  -0.000010   0.000434
    10  O    0.000461  -0.008566   0.000246   0.107807  -0.004427  -0.011040
    11  H   -0.000008   0.000362  -0.000010  -0.004427   0.001378   0.000322
    12  O   -0.000101  -0.009290   0.000434  -0.011040   0.000322   0.120003
    13  H    0.000000   0.000242  -0.000009   0.000159  -0.000001  -0.004229
    14  H    0.000000   0.000242  -0.000009   0.000460  -0.000019  -0.004230
    15  H   -0.000001   0.000139  -0.000001  -0.000089   0.000000   0.000302
[...]
    13  H    0.269290  -0.011950  -0.000010  -0.000002  -0.000001   0.000000
    14  H   -0.011950   0.269289  -0.000001  -0.000002  -0.000010   0.000000
    15  H   -0.000010  -0.000001   0.272961  -0.000024   0.000000  -0.000022
    16  H   -0.000002  -0.000002  -0.000024   0.270160  -0.000025  -0.000005
    17  H   -0.000001  -0.000010   0.000000  -0.000025   0.272961  -0.000001
    18  H    0.000000   0.000000  -0.000022  -0.000005  -0.000001   0.269289
    19  H   -0.000000  -0.000000  -0.000002   0.000000  -0.000002  -0.000024
              19
     1  Fe   0.001805
     2  O   -0.000224
     3  H   -0.000000
     4  O   -0.000011
     5  H   -0.000004
     6  O    0.002801
     7  H   -0.000024
     8  O    0.294205
     9  H   -0.011977
    10  O   -0.000011
    11  H   -0.000004
    12  O    0.000283
    13  H   -0.000000
    14  H   -0.000000
    15  H   -0.000002
    16  H    0.000000
    17  H   -0.000002
    18  H   -0.000024
    19  H    0.269941
          Atomic-Atomic Spin Densities.
               1          2          3          4          5          6
     1  Fe   4.106207  -0.046333   0.001689  -0.046064   0.002501  -0.052803
     2  O   -0.046333   0.101269  -0.003050  -0.008625   0.000127  -0.009322
     3  H    0.001689  -0.003050   0.001656   0.000253  -0.000001   0.000112
     4  O   -0.046064  -0.008625   0.000253   0.104337  -0.004059  -0.010602
     5  H    0.002501   0.000127  -0.000001  -0.004059   0.001261   0.000281
     6  O   -0.052803  -0.009322   0.000112  -0.010602   0.000281   0.116780
     7  H    0.002322   0.000232  -0.000001   0.000140  -0.000001  -0.003924
     8  O   -0.046333   0.007446  -0.000078  -0.008631   0.000334  -0.009715
     9  H    0.002013  -0.000082   0.000000   0.000240  -0.000009   0.000133
    10  O   -0.046064  -0.008631   0.000253   0.007948  -0.000082  -0.010607
    11  H    0.002501   0.000127  -0.000001  -0.000082   0.000000   0.000282
    12  O   -0.052803  -0.009715   0.000540  -0.010607   0.000299   0.008627
    13  H    0.002322   0.000335  -0.000012   0.000395  -0.000015  -0.000092
    14  H    0.002322   0.000336  -0.000012   0.000140  -0.000001  -0.000092
    15  H    0.002501   0.000333  -0.000009  -0.004057   0.000704   0.000299
    16  H    0.002013  -0.003234   0.000587   0.000240  -0.000001   0.000366
    17  H    0.002501   0.000334  -0.000009  -0.000082   0.000000   0.000299
    18  H    0.002322   0.000232  -0.000001   0.000395  -0.000007  -0.003924
    19  H    0.001689  -0.000078   0.000000   0.000253  -0.000009   0.000540
               7          8          9         10         11         12
     1  Fe   0.002322  -0.046333   0.002013  -0.046064   0.002501  -0.052803
     2  O    0.000232   0.007446  -0.000082  -0.008631   0.000127  -0.009715
     3  H   -0.000001  -0.000078   0.000000   0.000253  -0.000001   0.000540
     4  O    0.000140  -0.008631   0.000240   0.007948  -0.000082  -0.010607
     5  H   -0.000001   0.000334  -0.000009  -0.000082   0.000000   0.000299
     6  O   -0.003924  -0.009715   0.000133  -0.010607   0.000282   0.008627
     7  H    0.001188   0.000335  -0.000001   0.000395  -0.000007  -0.000092
     8  O    0.000335   0.101270  -0.003234  -0.008624   0.000333  -0.009322
     9  H   -0.000001  -0.003234   0.001619   0.000240  -0.000009   0.000366
    10  O    0.000395  -0.008624   0.000240   0.104335  -0.004057  -0.010602
    11  H   -0.000007   0.000333  -0.000009  -0.004057   0.001260   0.000299
    12  O   -0.000092  -0.009322   0.000366  -0.010602   0.000299   0.116780
    13  H    0.000000   0.000232  -0.000007   0.000140  -0.000001  -0.003924
    14  H    0.000000   0.000232  -0.000007   0.000395  -0.000015  -0.003924
    15  H   -0.000001   0.000127  -0.000001  -0.000082   0.000000   0.000282
    16  H   -0.000007  -0.000082   0.000000   0.000240  -0.000001   0.000133
    17  H   -0.000015   0.000127  -0.000001  -0.004059   0.000704   0.000281
    18  H    0.000684   0.000336  -0.000001   0.000140  -0.000001  -0.000092
    19  H   -0.000012  -0.003049   0.000587   0.000253  -0.000009   0.000112
              13         14         15         16         17         18
     1  Fe   0.002322   0.002322   0.002501   0.002013   0.002501   0.002322
     2  O    0.000335   0.000336   0.000333  -0.003234   0.000334   0.000232
     3  H   -0.000012  -0.000012  -0.000009   0.000587  -0.000009  -0.000001
     4  O    0.000395   0.000140  -0.004057   0.000240  -0.000082   0.000395
     5  H   -0.000015  -0.000001   0.000704  -0.000001   0.000000  -0.000007
     6  O   -0.000092  -0.000092   0.000299   0.000366   0.000299  -0.003924
     7  H    0.000000   0.000000  -0.000001  -0.000007  -0.000015   0.000684
     8  O    0.000232   0.000232   0.000127  -0.000082   0.000127   0.000336
     9  H   -0.000007  -0.000007  -0.000001   0.000000  -0.000001  -0.000001
    10  O    0.000140   0.000395  -0.000082   0.000240  -0.004059   0.000140
    11  H   -0.000001  -0.000015   0.000000  -0.000001   0.000704  -0.000001
    12  O   -0.003924  -0.003924   0.000282   0.000133   0.000281  -0.000092
    13  H    0.001188   0.000684  -0.000007  -0.000001  -0.000001   0.000000
    14  H    0.000684   0.001186  -0.000001  -0.000001  -0.000007   0.000000
    15  H   -0.000007  -0.000001   0.001260  -0.000009   0.000000  -0.000015
    16  H   -0.000001  -0.000001  -0.000009   0.001619  -0.000009  -0.000007
    17  H   -0.000001  -0.000007   0.000000  -0.000009   0.001261  -0.000001
    18  H    0.000000   0.000000  -0.000015  -0.000007  -0.000001   0.001186
    19  H   -0.000001  -0.000001  -0.000001   0.000000  -0.000001  -0.000012
              19
     1  Fe   0.001689
     2  O   -0.000078
     3  H    0.000000
     4  O    0.000253
     5  H   -0.000009
     6  O    0.000540
     7  H   -0.000012
     8  O   -0.003049
     9  H    0.000587
    10  O    0.000253
    11  H   -0.000009
    12  O    0.000112
    13  H   -0.000001
    14  H   -0.000001
    15  H   -0.000001
    16  H    0.000000
    17  H   -0.000001
    18  H   -0.000012
    19  H    0.001656
 Mulliken charges and spin densities:
               1          2
     1  Fe   0.990352   3.842503
     2  O   -0.714397   0.021703
     3  H    0.443250   0.001917
     4  O   -0.718469   0.021532
     5  H    0.439843   0.001323
     6  O   -0.715918   0.026635
     7  H    0.443905   0.001235
     8  O   -0.714397   0.021703
     9  H    0.442869   0.001847
    10  O   -0.718471   0.021532
    11  H    0.439848   0.001323
    12  O   -0.715917   0.026635
    13  H    0.443905   0.001235
    14  H    0.443894   0.001233
    15  H    0.439847   0.001323
    16  H    0.442869   0.001847
    17  H    0.439843   0.001323
    18  H    0.443894   0.001233
    19  H    0.443250   0.001917
 Sum of Mulliken charges =   2.00000   4.00000
 Mulliken charges and spin densities with hydrogens summed into heavy atoms:
               1          2
     1  Fe   0.990352   3.842503
     2  O    0.171722   0.025467
     4  O    0.161221   0.024178
     6  O    0.171882   0.029103
     8  O    0.171722   0.025467
    10  O    0.161219   0.024178
    12  O    0.171882   0.029103
 Electronic spatial extent (au):  <R**2>=           1164.7120
 Charge=              2.0000 electrons
 Dipole moment (field-independent basis, Debye):
    X=             -0.0000    Y=              0.0000    Z=              0.0000  Tot=              0.0000
 Quadrupole moment (field-independent basis, Debye-Ang):
   XX=            -15.4664   YY=            -16.0671   ZZ=            -15.4419
   XY=             -0.0131   XZ=              0.2052   YZ=             -0.0144
 Traceless Quadrupole moment (field-independent basis, Debye-Ang):
   XX=              0.1921   YY=             -0.4086   ZZ=              0.2166
   XY=             -0.0131   XZ=              0.2052   YZ=             -0.0144
 Octapole moment (field-independent basis, Debye-Ang**2):
  XXX=              0.0002  YYY=              0.0001  ZZZ=              0.0001  XYY=             -0.0002
  XXY=              0.0001  XXZ=             -0.0000  XZZ=             -0.0000  YZZ=              0.0002
  YYZ=             -0.0001  XYZ=             -0.0002
 Hexadecapole moment (field-independent basis, Debye-Ang**3):
 XXXX=           -217.2832 YYYY=           -122.5798 ZZZZ=           -212.8952 XXXY=             -1.1657
 XXXZ=            -16.8611 YYYX=              2.0247 YYYZ=              1.0448 ZZZX=             16.5980
 ZZZY=             -0.6074 XXYY=           -121.0734 XXZZ=             -7.7919 YYZZ=            -97.2089
 XXYZ=             -0.5292 YYXZ=             -0.2224 ZZXY=             -0.9288
 N-N= 6.551018409390D+02 E-N=-5.370204259507D+03  KE= 1.716424218821D+03
                          Isotropic Fermi Contact Couplings
        Atom                 a.u.       MegaHertz       Gauss      10(-4) cm-1
     1  Fe(57)             0.16226       5.88366       2.09944       1.96258
     2  O(17)              0.08703     -13.18994      -4.70650      -4.39969
     3  H(1)               0.00126       1.41271       0.50409       0.47123
     4  O(17)              0.08438     -12.78722      -4.56280      -4.26536
     5  H(1)               0.00073       0.81798       0.29187       0.27285
     6  O(17)              0.08856     -13.42082      -4.78888      -4.47670
     7  H(1)               0.00073       0.81055       0.28922       0.27037
     8  O(17)              0.08703     -13.18995      -4.70650      -4.39969
     9  H(1)               0.00127       1.41799       0.50597       0.47299
    10  O(17)              0.08438     -12.78717      -4.56278      -4.26534
    11  H(1)               0.00073       0.81823       0.29197       0.27293
    12  O(17)              0.08856     -13.42083      -4.78888      -4.47671
    13  H(1)               0.00073       0.81058       0.28923       0.27038
    14  H(1)               0.00072       0.80898       0.28866       0.26985
    15  H(1)               0.00073       0.81818       0.29195       0.27291
    16  H(1)               0.00127       1.41798       0.50597       0.47299
    17  H(1)               0.00073       0.81802       0.29189       0.27286
    18  H(1)               0.00072       0.80901       0.28868       0.26986
    19  H(1)               0.00126       1.41271       0.50409       0.47123
 --------------------------------------------------------
       Center         ----  Spin Dipole Couplings  ----
                      3XX-RR        3YY-RR        3ZZ-RR
 --------------------------------------------------------
     1   Atom        2.728991     -1.365354     -1.363638
     2   Atom        0.060770     -0.062500      0.001730
     3   Atom        0.044190     -0.028607     -0.015582
     4   Atom       -0.065818      0.156918     -0.091100
     5   Atom       -0.023285      0.044176     -0.020890
     6   Atom        0.035936     -0.115050      0.079114
     7   Atom        0.001659     -0.016509      0.014850
     8   Atom        0.060771     -0.062500      0.001729
     9   Atom       -0.000788     -0.028125      0.028914
    10   Atom       -0.065820      0.156918     -0.091098
    11   Atom       -0.023748      0.044225     -0.020477
    12   Atom        0.035937     -0.115050      0.079113
    13   Atom        0.001659     -0.016509      0.014850
    14   Atom        0.002230     -0.017521      0.015291
    15   Atom       -0.023748      0.044225     -0.020476
    16   Atom       -0.000789     -0.028125      0.028914
    17   Atom       -0.023285      0.044176     -0.020891
    18   Atom        0.002230     -0.017521      0.015292
    19   Atom        0.044190     -0.028607     -0.015583
 --------------------------------------------------------
                        XY            XZ            YZ
 --------------------------------------------------------
     1   Atom       -0.034946      0.071217     -0.008479
     2   Atom       -0.000227     -0.128350      0.000628
     3   Atom       -0.000466     -0.025298      0.000135
     4   Atom        0.001872      0.017758      0.001394
     5   Atom        0.013964     -0.004952     -0.016776
     6   Atom       -0.001913      0.092450     -0.002028
     7   Atom       -0.015911      0.036176     -0.018921
     8   Atom       -0.000229     -0.128349      0.000628
     9   Atom       -0.000021     -0.035527     -0.000032
    10   Atom        0.001873      0.017757      0.001394
    11   Atom       -0.012730     -0.004818      0.017651
    12   Atom       -0.001911      0.092450     -0.002025
    13   Atom       -0.015910      0.036176     -0.018921
    14   Atom        0.015128      0.036705      0.017872
    15   Atom       -0.012729     -0.004818      0.017652
    16   Atom       -0.000021     -0.035527     -0.000032
    17   Atom        0.013965     -0.004952     -0.016775
    18   Atom        0.015128      0.036705      0.017871
    19   Atom       -0.000465     -0.025298      0.000135
 --------------------------------------------------------


 ---------------------------------------------------------------------------------
              Anisotropic Spin Dipole Couplings in Principal Axis System
 ---------------------------------------------------------------------------------

       Atom             a.u.   MegaHertz   Gauss  10(-4) cm-1        Axes

              Baa    -1.3731   -23.773    -8.483    -7.930 -0.0058  0.7243  0.6894
     1 Fe(57) Bbb    -1.3574   -23.500    -8.385    -7.839 -0.0185 -0.6894  0.7241
              Bcc     2.7305    47.273    16.868    15.769  0.9998 -0.0086  0.0174
 
              Baa    -0.1005     7.269     2.594     2.425  0.6228 -0.0092  0.7823
     2 O(17)  Bbb    -0.0625     4.522     1.614     1.508  0.0077  1.0000  0.0056
              Bcc     0.1630   -11.791    -4.207    -3.933  0.7823 -0.0025 -0.6228
 
              Baa    -0.0286   -15.265    -5.447    -5.092  0.0087  0.9999  0.0065
     3 H(1)   Bbb    -0.0249   -13.260    -4.731    -4.423  0.3440 -0.0090  0.9389
              Bcc     0.0535    28.525    10.178     9.515  0.9389 -0.0059 -0.3440
 
              Baa    -0.1003     7.255     2.589     2.420 -0.4582 -0.0015  0.8888
     4 O(17)  Bbb    -0.0567     4.102     1.464     1.368  0.8888 -0.0108  0.4582
              Bcc     0.1569   -11.356    -4.052    -3.788  0.0089  0.9999  0.0063
 
              Baa    -0.0272   -14.511    -5.178    -4.840  0.8165 -0.0241  0.5769
     5 H(1)   Bbb    -0.0240   -12.788    -4.563    -4.266 -0.5437  0.3040  0.7823
              Bcc     0.0512    27.299     9.741     9.106  0.1943  0.9524 -0.2351
 
              Baa    -0.1151     8.327     2.971     2.778  0.0089  0.9999  0.0062
     6 O(17)  Bbb    -0.0374     2.707     0.966     0.903  0.7834 -0.0031 -0.6216
              Bcc     0.1525   -11.034    -3.937    -3.681  0.6215 -0.0104  0.7833
 
              Baa    -0.0285   -15.217    -5.430    -5.076  0.7733  0.0263 -0.6335
     7 H(1)   Bbb    -0.0252   -13.450    -4.799    -4.486  0.1913  0.9429  0.2727
              Bcc     0.0537    28.667    10.229     9.562  0.6045 -0.3320  0.7241
 
              Baa    -0.1005     7.269     2.594     2.425  0.6228 -0.0092  0.7823
     8 O(17)  Bbb    -0.0625     4.522     1.614     1.508  0.0077  1.0000  0.0056
              Bcc     0.1630   -11.791    -4.207    -3.933  0.7823 -0.0025 -0.6228
 
              Baa    -0.0281   -15.006    -5.355    -5.006  0.0078  1.0000  0.0054
     9 H(1)   Bbb    -0.0244   -13.042    -4.654    -4.350  0.8323 -0.0095  0.5542
              Bcc     0.0526    28.048    10.008     9.356 -0.5542 -0.0002  0.8324
 
              Baa    -0.1003     7.254     2.589     2.420 -0.4582 -0.0015  0.8888
    10 O(17)  Bbb    -0.0567     4.102     1.464     1.368  0.8888 -0.0108  0.4582
              Bcc     0.1569   -11.356    -4.052    -3.788  0.0089  0.9999  0.0063
 
              Baa    -0.0272   -14.513    -5.179    -4.841  0.8162  0.0027  0.5778
    11 H(1)   Bbb    -0.0240   -12.789    -4.563    -4.266 -0.5498 -0.3040  0.7780
              Bcc     0.0512    27.302     9.742     9.107 -0.1777  0.9527  0.2467
 
              Baa    -0.1151     8.327     2.971     2.778  0.0088  0.9999  0.0062
    12 O(17)  Bbb    -0.0374     2.707     0.966     0.903  0.7834 -0.0031 -0.6216
              Bcc     0.1525   -11.034    -3.937    -3.681  0.6215 -0.0104  0.7833
 
              Baa    -0.0285   -15.217    -5.430    -5.076  0.7733  0.0263 -0.6335
    13 H(1)   Bbb    -0.0252   -13.449    -4.799    -4.486  0.1913  0.9429  0.2726
              Bcc     0.0537    28.667    10.229     9.562  0.6045 -0.3320  0.7241
 
              Baa    -0.0285   -15.220    -5.431    -5.077  0.7727 -0.0326 -0.6340
    14 H(1)   Bbb    -0.0252   -13.451    -4.800    -4.487 -0.1742  0.9495 -0.2611
              Bcc     0.0537    28.671    10.231     9.564  0.6104  0.3122  0.7279
 
              Baa    -0.0272   -14.513    -5.179    -4.841  0.8162  0.0027  0.5777
    15 H(1)   Bbb    -0.0240   -12.789    -4.563    -4.266 -0.5497 -0.3040  0.7781
              Bcc     0.0512    27.302     9.742     9.107 -0.1777  0.9527  0.2467
 
              Baa    -0.0281   -15.006    -5.355    -5.006  0.0078  1.0000  0.0054
    16 H(1)   Bbb    -0.0244   -13.042    -4.654    -4.350  0.8323 -0.0095  0.5542
              Bcc     0.0526    28.048    10.008     9.356 -0.5542 -0.0002  0.8324
 
              Baa    -0.0272   -14.511    -5.178    -4.840  0.8164 -0.0241  0.5769
    17 H(1)   Bbb    -0.0240   -12.788    -4.563    -4.266 -0.5438  0.3040  0.7822
              Bcc     0.0512    27.299     9.741     9.106  0.1943  0.9524 -0.2351
 
              Baa    -0.0285   -15.220    -5.431    -5.077  0.7727 -0.0326 -0.6340
    18 H(1)   Bbb    -0.0252   -13.451    -4.800    -4.487 -0.1742  0.9495 -0.2611
              Bcc     0.0537    28.671    10.231     9.564  0.6104  0.3122  0.7279
 
              Baa    -0.0286   -15.265    -5.447    -5.092  0.0086  0.9999  0.0064
    19 H(1)   Bbb    -0.0249   -13.260    -4.731    -4.423  0.3440 -0.0090  0.9389
              Bcc     0.0535    28.525    10.178     9.515  0.9389 -0.0059 -0.3440
 

 ---------------------------------------------------------------------------------

 No NMR shielding tensors so no spin-rotation constants.
 Leave Link  601 at Thu Mar  6 11:11:50 2025, MaxMem= 13421772800 cpu:              29.4 elap:               0.4
 (Enter /gpfs/fs1/soft/improv/software/custom-built/gaussian/g16/l9999.exe)

 Test job not archived.
 1\1\GINC-I737\SP\UM08HX\Gen\Fe1H12O6(2+,5)\HHARB\06-Mar-2025\0\\#p M08
 HX scrf=(cpcm,solvent=water) geom=allcheck guess=read chkbasis IOp(3/1
 74=1000000) IOp(3/175=0) IOp(3/176=1624700)\\Title\\2,5\Fe,-0.78481113
 08,0.7129509497,0.0317910834\O,-1.3442185496,2.7614440827,-0.278019701
 \H,-1.4554539408,3.1964268045,-1.1306211678\O,1.2981333873,1.283858519
 6,0.0512519556\H,2.0540653888,0.6893105207,-0.0049762601\O,-0.86307973
 81,0.9249750688,2.1469127285\H,-1.6318356944,0.767621213,2.7065080917\
 O,-0.2254117192,-1.3355421579,0.3416097065\H,-0.0409004505,-1.98776554
 34,-0.3431477774\O,-2.8677606199,0.1420480518,0.0123255363\H,-3.213609
 3611,-0.7547068163,-0.053382132\O,-0.7065633044,0.5009236843,-2.083330
 0915\H,0.0621792914,0.6582745603,-2.6429442728\H,-1.438402757,0.247753
 8658,-2.657047906\H,1.6439781323,2.180613182,0.1169930267\H,-1.5287402
 938,3.4136597228,0.4067426504\H,-3.623689703,0.7366021075,0.0685161056
 \H,-0.1312538086,1.1781411319,2.7206492329\H,-0.1141426996,-1.77050917
 38,1.1942146062\\Version=ES64L-G16RevC.02\State=5-A\HF=-1721.8587605\S
 2=6.007067\S2-1=0.\S2A=6.000009\RMSD=5.361e-09\Dipole=0.0000069,0.0000
 044,0.0000017\Quadrupole=-0.281887,-0.0221005,0.3039875,-0.0786849,-0.
 0171238,0.011347\PG=C01 [X(Fe1H12O6)]\\@


 IF IT'S NOT TRUE, IT'S WELL INVENTED -- DANTE
 Job cpu time:       0 days  1 hours 49 minutes 41.1 seconds.
 Elapsed time:       0 days  0 hours  0 minutes 58.3 seconds.
 File lengths (MBytes):  RWF=    121 Int=      0 D2E=      0 Chk=    268 Scr=      1
 Normal termination of Gaussian 16 at Thu Mar  6 11:11:50 2025.
