19
Fe_2_OLYP.log	Energy: -1080686.2206301
Fe        -0.00024        0.00006        0.00004
O         -0.12620       -2.05660       -0.77589
H         -0.18124       -2.87599       -0.26281
O          2.20868       -0.13361       -0.00392
H          2.82802        0.46753        0.43534
O          0.04469        0.79238       -2.00989
H         -0.71599        1.09731       -2.52682
O          0.12622        2.05677        0.77550
H          0.14245        2.31551        1.70853
O         -2.20883        0.13308        0.00414
H         -2.74998        0.80425        0.44526
O         -0.04384       -0.79214        2.00998
H          0.71762       -1.09696        2.52583
H         -0.83383       -0.99926        2.53138
H          2.74948       -0.80626       -0.44321
H         -0.14114       -2.31511       -1.70900
H         -2.82786       -0.46704       -0.43694
H          0.83544        0.99935       -2.53018
H          0.17752        2.87622        0.26214
