 Entering Gaussian System, Link 0=g16
 Input=Fe_2_TPSSh.com
 Output=Fe_2_TPSSh.log
 Initial command:
 /gpfs/fs1/soft/improv/software/custom-built/gaussian/g16/l1.exe "/scratch/Gau-3567094.inp" -scrdir="/scratch/"
 Default CPUs for threads: 0-127
 Default linda workers: i285.lcrc.anl.gov
 Default is to use 128 SMP processors on each worker.
 Entering Link 1 = /gpfs/fs1/soft/improv/software/custom-built/gaussian/g16/l1.exe PID=   3567095.
  
 Copyright (c) 1988-2021, Gaussian, Inc.  All Rights Reserved.
  
 This is part of the Gaussian(R) 16 program.  It is based on
 the Gaussian(R) 09 system (copyright 2009, Gaussian, Inc.),
 the Gaussian(R) 03 system (copyright 2003, Gaussian, Inc.),
 the Gaussian(R) 98 system (copyright 1998, Gaussian, Inc.),
 the Gaussian(R) 94 system (copyright 1995, Gaussian, Inc.),
 the Gaussian 92(TM) system (copyright 1992, Gaussian, Inc.),
 the Gaussian 90(TM) system (copyright 1990, Gaussian, Inc.),
 the Gaussian 88(TM) system (copyright 1988, Gaussian, Inc.),
 the Gaussian 86(TM) system (copyright 1986, Carnegie Mellon
 University), and the Gaussian 82(TM) system (copyright 1983,
 Carnegie Mellon University). Gaussian is a federally registered
 trademark of Gaussian, Inc.
  
 This software contains proprietary and confidential information,
 including trade secrets, belonging to Gaussian, Inc.
  
 This software is provided under written license and may be
 used, copied, transmitted, or stored only in accord with that
 written license.
  
 The following legend is applicable only to US Government
 contracts under FAR:
  
                    RESTRICTED RIGHTS LEGEND
  
 Use, reproduction and disclosure by the US Government is
 subject to restrictions as set forth in subparagraphs (a)
 and (c) of the Commercial Computer Software - Restricted
 Rights clause in FAR 52.227-19.
  
 Gaussian, Inc.
 340 Quinnipiac St., Bldg. 40, Wallingford CT 06492
  
  
 ---------------------------------------------------------------
 Warning -- This program may not be used in any manner that
 competes with the business of Gaussian, Inc. or will provide
 assistance to any competitor of Gaussian, Inc.  The licensee
 of this program is prohibited from giving any competitor of
 Gaussian, Inc. access to this program.  By using this program,
 the user acknowledges that Gaussian, Inc. is engaged in the
 business of creating and licensing software in the field of
 computational chemistry and represents and warrants to the
 licensee that it is not a competitor of Gaussian, Inc. and that
 it will not use this program in any manner prohibited above.
 ---------------------------------------------------------------
  

 Cite this work as:
 Gaussian 16, Revision C.02,
 M. J. Frisch, G. W. Trucks, H. B. Schlegel, G. E. Scuseria, 
 M. A. Robb, J. R. Cheeseman, G. Scalmani, V. Barone, 
 G. A. Petersson, H. Nakatsuji, X. Li, M. Caricato, A. V. Marenich, 
 J. Bloino, B. G. Janesko, R. Gomperts, B. Mennucci, H. P. Hratchian, 
 J. V. Ortiz, A. F. Izmaylov, J. L. Sonnenberg, D. Williams-Young, 
 F. Ding, F. Lipparini, F. Egidi, J. Goings, B. Peng, A. Petrone, 
 T. Henderson, D. Ranasinghe, V. G. Zakrzewski, J. Gao, N. Rega, 
 G. Zheng, W. Liang, M. Hada, M. Ehara, K. Toyota, R. Fukuda, 
 J. Hasegawa, M. Ishida, T. Nakajima, Y. Honda, O. Kitao, H. Nakai, 
 T. Vreven, K. Throssell, J. A. Montgomery, Jr., J. E. Peralta, 
 F. Ogliaro, M. J. Bearpark, J. J. Heyd, E. N. Brothers, K. N. Kudin, 
 V. N. Staroverov, T. A. Keith, R. Kobayashi, J. Normand, 
 K. Raghavachari, A. P. Rendell, J. C. Burant, S. S. Iyengar, 
 J. Tomasi, M. Cossi, J. M. Millam, M. Klene, C. Adamo, R. Cammi, 
 J. W. Ochterski, R. L. Martin, K. Morokuma, O. Farkas, 
 J. B. Foresman, and D. J. Fox, Gaussian, Inc., Wallingford CT, 2019.
 
 ******************************************
 Gaussian 16:  ES64L-G16RevC.02  7-Dec-2021
                 5-Mar-2025 
 ******************************************
 %chk=Fe_2_TPSSh.chk
 SetSPE:  set environment variable "OMP_PROC_BIND" = "true"
 SetSPE:  set environment variable "OMP_PLACES" = "{0},{1},{2},{3},{4},{5},{6},{7},{8},{9},{10},{11},{12},{13},{14},{15},{16},{17},{18},{19},{20},{21},{22},{23},{24},{25},{26},{27},{28},{29},{30},{31},{32},{33},{34},{35},{36},{37},{38},{39},{40},{41},{42},{43},{44},{45},{46},{47},{48},{49},{50},{51},{52},{53},{54},{55},{56},{57},{58},{59},{60},{61},{62},{63},{64},{65},{66},{67},{68},{69},{70},{71},{72},{73},{74},{75},{76},{77},{78},{79},{80},{81},{82},{83},{84},{85},{86},{87},{88},{89},{90},{91},{92},{93},{94},{95},{96},{97},{98},{99},{100},{101},{102},{103},{104},{105},{106},{107},{108},{109},{110},{111},{112},{113},{114},{115},{116},{117},{118},{119},{120},{121},{122},{123},{124},{125},{126},{127}"
 SetLPE:    new flags="-opt 'Tsnet.Node.lindarsharg: ssh'  -nodelist 'i285.lcrc.anl.gov' -env GAUSS_MDEF=13421772800 -env GAUSS_EXEDIR="/gpfs/fs1/soft/improv/software/custom-built/gaussian/g16/bsd:/gpfs/fs1/soft/improv/software/custom-built/gaussian/g16" -env "OMP_PROC_BIND=true" -env "OMP_PLACES={0},{1},{2},{3},{4},{5},{6},{7},{8},{9},{10},{11},{12},{13},{14},{15},{16},{17},{18},{19},{20},{21},{22},{23},{24},{25},{26},{27},{28},{29},{30},{31},{32},{33},{34},{35},{36},{37},{38},{39},{40},{41},{42},{43},{44},{45},{46},{47},{48},{49},{50},{51},{52},{53},{54},{55},{56},{57},{58},{59},{60},{61},{62},{63},{64},{65},{66},{67},{68},{69},{70},{71},{72},{73},{74},{75},{76},{77},{78},{79},{80},{81},{82},{83},{84},{85},{86},{87},{88},{89},{90},{91},{92},{93},{94},{95},{96},{97},{98},{99},{100},{101},{102},{103},{104},{105},{106},{107},{108},{109},{110},{111},{112},{113},{114},{115},{116},{117},{118},{119},{120},{121},{122},{123},{124},{125},{126},{127}" -env GAUSS_ADEF="0,1,2,3,4,5,6,7,8,9,10,11,12,13,14,15,16,17,18,19,20,21,22,23,24,25,26,27,28,29,30,31,32,33,34,35,36,37,38,39,40,41,42,43,44,45,46,47,48,49,50,51,52,53,54,55,56,57,58,59,60,61,62,63,64,65,66,67,68,69,70,71,72,73,74,75,76,77,78,79,80,81,82,83,84,85,86,87,88,89,90,91,92,93,94,95,96,97,98,99,100,101,102,103,104,105,106,107,108,109,110,111,112,113,114,115,116,117,118,119,120,121,122,123,124,125,126,127""
 Will use up to    1 processors via Linda.
 ----------------------------------------------------------------------
 #p TPSSH 6-31+G(2df,p) opt=(cartesian,calcall,maxcycles=500,loose) fre
 q scf=(maxcycles=500,xqc,maxconventional=50) IOp(3/174=1000000) IOp(3/
 175=1219000) IOp(3/176=1223000)
 ----------------------------------------------------------------------
 1/6=500,7=-1,10=4,18=10,26=3,38=1/1,3;
 2/12=2,17=6,18=5,29=2,40=1/2;
 3/5=1,6=6,7=114,11=2,25=1,30=1,71=2,74=-35,140=1,174=1000000,175=1219000,176=1223000/1,2,3;
 4//1;
 5/5=2,7=500,8=3,13=1,38=5,85=50/2,8;
 8/6=4,10=90,11=11/1;
 11/6=1,8=1,9=11,15=111,16=1/1,2,10;
 10/6=1/2;
 6/7=2,8=2,9=2,10=2,18=1,28=1/1;
 7/7=1,10=1,25=1/1,2,3,16;
 1/6=500,7=-1,10=4,18=10,26=3/3(3);
 2/29=1/2;
 7/7=1,8=1,9=1,25=1,44=-1/16;
 99/12=1/99;
 2/29=1/2;
 3/5=1,6=6,7=114,11=2,25=1,30=1,71=2,74=-35,140=1,174=1000000,175=1219000,176=1223000/1,2,3;
 4/5=5,16=3,69=1/1;
 5/5=2,7=500,8=3,13=1,38=5,85=50/2,8;
 8/6=4,10=90,11=11/1;
 11/6=1,8=1,9=11,15=111,16=1/1,2,10;
 10/6=1/2;
 7/7=1,10=1,25=1/1,2,3,16;
 1/6=500,7=-1,10=4,18=10,26=3/3(-8);
 2/29=1/2;
 6/7=2,8=2,9=2,10=2,18=1,19=2,28=1/1;
 7/7=1,8=1,9=1,25=1,44=-1/16;
 99/12=1/99;
 Leave Link    1 at Wed Mar  5 18:41:50 2025, MaxMem=           0 cpu:               2.9 elap:               0.1
 (Enter /gpfs/fs1/soft/improv/software/custom-built/gaussian/g16/l101.exe)
 -----
 Title
 -----
 Symbolic Z-matrix:
 Charge =  2 Multiplicity = 5
 Fe                   -0.79304   0.81881  -0.09491 
 O                    -1.20497   2.57394  -0.35687 
 H                    -2.12106   2.64974  -0.63312 
 O                     0.99012   1.19063  -0.05794 
 H                     1.42696   0.5998    0.55971 
 O                    -0.81752   1.03069   1.71365 
 H                    -1.02108   0.1906    2.13133 
 O                    -0.38507  -0.93351   0.17118 
 H                    -1.15682  -1.47369  -0.01433 
 O                    -2.57341   0.45178  -0.12186 
 H                    -2.77756  -0.08744  -0.88929 
 O                    -0.76966   0.60461  -1.90111 
 H                     0.09872   0.83457  -2.23949 
 H                    -0.96534  -0.30999  -2.11742 
 H                     1.12208   2.09943   0.22124 
 H                    -1.07671   3.0584    0.46184 
 H                    -2.81407  -0.02398   0.6765 
 H                     0.0422    1.33615   2.01181 
 H                    -0.11532  -1.06446   1.08312 
 
 ITRead=  0  0  0  0  0  0  0  0  0  0  0  0  0  0  0  0  0  0  0
 MicOpt= -1 -1 -1 -1 -1 -1 -1 -1 -1 -1 -1 -1 -1 -1 -1 -1 -1 -1 -1
 NAtoms=     19 NQM=       19 NQMF=       0 NMMI=      0 NMMIF=      0
                NMic=       0 NMicF=      0.
                    Isotopes and Nuclear Properties:
 (Nuclear quadrupole moments (NQMom) in fm**2, nuclear magnetic moments (NMagM)
  in nuclear magnetons)

  Atom         1           2           3           4           5           6           7           8           9          10
 IAtWgt=          56          16           1          16           1          16           1          16           1          16
 AtmWgt=  55.9349393  15.9949146   1.0078250  15.9949146   1.0078250  15.9949146   1.0078250  15.9949146   1.0078250  15.9949146
 NucSpn=           0           0           1           0           1           0           1           0           1           0
 AtZEff=  -0.0000000  -0.0000000  -0.0000000  -0.0000000  -0.0000000  -0.0000000  -0.0000000  -0.0000000  -0.0000000  -0.0000000
 NQMom=    0.0000000   0.0000000   0.0000000   0.0000000   0.0000000   0.0000000   0.0000000   0.0000000   0.0000000   0.0000000
 NMagM=    0.0000000   0.0000000   2.7928460   0.0000000   2.7928460   0.0000000   2.7928460   0.0000000   2.7928460   0.0000000
 AtZNuc=  26.0000000   8.0000000   1.0000000   8.0000000   1.0000000   8.0000000   1.0000000   8.0000000   1.0000000   8.0000000

  Atom        11          12          13          14          15          16          17          18          19
 IAtWgt=           1          16           1           1           1           1           1           1           1
 AtmWgt=   1.0078250  15.9949146   1.0078250   1.0078250   1.0078250   1.0078250   1.0078250   1.0078250   1.0078250
 NucSpn=           1           0           1           1           1           1           1           1           1
 AtZEff=  -0.0000000  -0.0000000  -0.0000000  -0.0000000  -0.0000000  -0.0000000  -0.0000000  -0.0000000  -0.0000000
 NQMom=    0.0000000   0.0000000   0.0000000   0.0000000   0.0000000   0.0000000   0.0000000   0.0000000   0.0000000
 NMagM=    2.7928460   0.0000000   2.7928460   2.7928460   2.7928460   2.7928460   2.7928460   2.7928460   2.7928460
 AtZNuc=   1.0000000   8.0000000   1.0000000   1.0000000   1.0000000   1.0000000   1.0000000   1.0000000   1.0000000
 Leave Link  101 at Wed Mar  5 18:41:51 2025, MaxMem= 13421772800 cpu:               0.4 elap:               0.1
 (Enter /gpfs/fs1/soft/improv/software/custom-built/gaussian/g16/l103.exe)

 GradGradGradGradGradGradGradGradGradGradGradGradGradGradGradGradGradGrad
 Berny optimization.
 Initialization pass.
 No Z-matrix variables, so optimization will use Cartesian coordinates.
 Trust Radius=3.00D-01 FncErr=1.00D-07 GrdErr=1.00D-06 EigMax=2.50D+02 EigMin=1.00D-04
 Number of steps in this run=    114 maximum allowed number of steps=    114.
 GradGradGradGradGradGradGradGradGradGradGradGradGradGradGradGradGradGrad

 Leave Link  103 at Wed Mar  5 18:41:51 2025, MaxMem= 13421772800 cpu:               0.4 elap:               0.0
 (Enter /gpfs/fs1/soft/improv/software/custom-built/gaussian/g16/l202.exe)
 ---------------------------------------------------------------------------------------------------
                            Z-MATRIX (ANGSTROMS AND DEGREES)
   CD    Cent   Atom    N1       Length/X        N2       Alpha/Y        N3        Beta/Z          J
 ---------------------------------------------------------------------------------------------------
      1      1  Fe       0  -0.793037          0.818805         -0.094905
      2      2  O        0  -1.204971          2.573941         -0.356874
      3      3  H        0  -2.121063          2.649743         -0.633122
      4      4  O        0   0.990122          1.190635         -0.057941
      5      5  H        0   1.426962          0.599798          0.559707
      6      6  O        0  -0.817519          1.030691          1.713650
      7      7  H        0  -1.021079          0.190602          2.131326
      8      8  O        0  -0.385068         -0.933506          0.171177
      9      9  H        0  -1.156817         -1.473692         -0.014327
     10     10  O        0  -2.573405          0.451778         -0.121857
     11     11  H        0  -2.777557         -0.087440         -0.889285
     12     12  O        0  -0.769659          0.604612         -1.901109
     13     13  H        0   0.098725          0.834573         -2.239490
     14     14  H        0  -0.965336         -0.309994         -2.117418
     15     15  H        0   1.122081          2.099426          0.221242
     16     16  H        0  -1.076711          3.058396          0.461841
     17     17  H        0  -2.814074         -0.023981          0.676500
     18     18  H        0   0.042204          1.336153          2.011809
     19     19  H        0  -0.115315         -1.064459          1.083123
 ---------------------------------------------------------------------------------------------------
                         Z-Matrix orientation:                         
 ---------------------------------------------------------------------
 Center     Atomic      Atomic             Coordinates (Angstroms)
 Number     Number       Type             X           Y           Z
 ---------------------------------------------------------------------
      1         26           0       -0.793037    0.818805   -0.094905
      2          8           0       -1.204971    2.573941   -0.356874
      3          1           0       -2.121063    2.649743   -0.633122
      4          8           0        0.990122    1.190635   -0.057941
      5          1           0        1.426962    0.599798    0.559707
      6          8           0       -0.817519    1.030691    1.713650
      7          1           0       -1.021079    0.190602    2.131326
      8          8           0       -0.385068   -0.933506    0.171177
      9          1           0       -1.156817   -1.473692   -0.014327
     10          8           0       -2.573405    0.451778   -0.121857
     11          1           0       -2.777557   -0.087440   -0.889285
     12          8           0       -0.769659    0.604612   -1.901109
     13          1           0        0.098725    0.834573   -2.239490
     14          1           0       -0.965336   -0.309994   -2.117418
     15          1           0        1.122081    2.099426    0.221242
     16          1           0       -1.076711    3.058396    0.461841
     17          1           0       -2.814074   -0.023981    0.676500
     18          1           0        0.042204    1.336153    2.011809
     19          1           0       -0.115315   -1.064459    1.083123
 ---------------------------------------------------------------------
                    Distance matrix (angstroms):
                    1          2          3          4          5
     1  Fe   0.000000
     2  O    1.821762   0.000000
     3  H    2.325008   0.959835   0.000000
     4  O    1.821889   2.611767   3.484150   0.000000
     5  H    2.324839   3.415322   4.267739   0.959899   0.000000
     6  O    1.821090   2.611285   3.134947   2.536076   2.560263
     7  H    2.324381   3.450400   3.859988   3.136540   2.937743
     8  O    1.818745   3.640503   4.062050   2.540791   2.405292
     9  H    2.322579   4.062387   4.279649   3.421971   3.362259
    10  O    1.818006   2.536025   2.301533   3.639880   4.060711
    11  H    2.321775   3.136788   2.826442   4.064482   4.499984
    12  O    1.819010   2.540161   2.759827   2.614866   3.298603
    13  H    2.322657   2.875634   3.286750   2.383386   3.107223
    14  H    2.322591   3.387332   3.506977   3.212032   3.703756
    15  H    2.325429   2.444290   3.398642   0.959822   1.567289
    16  H    2.325125   0.959918   1.567358   2.833814   3.510364
    17  H    2.321626   3.225876   3.056824   4.060370   4.288255
    18  H    2.324547   2.949275   3.660724   2.281137   2.137375
    19  H    2.322443   4.061883   4.556733   2.758526   2.328591
                    6          7          8          9         10
     6  O    0.000000
     7  H    0.960021   0.000000
     8  O    2.534622   2.347406   0.000000
     9  H    3.061530   2.718847   0.960108   0.000000
    10  O    2.605257   2.748593   2.606473   2.392848   0.000000
    11  H    3.444886   3.505227   2.750347   2.305222   0.959885
    12  O    3.640099   4.061422   2.609231   2.833582   2.538227
    13  H    4.062670   4.557707   3.028445   3.443229   3.430916
    14  H    4.061572   4.278496   2.441955   2.411193   2.673658
    15  H    2.670492   3.447487   3.387136   4.244531   4.060675
    16  H    2.397039   3.318813   4.061790   4.557738   3.061904
    17  H    2.484803   2.318921   2.642472   2.307685   0.960023
    18  H    0.959858   1.567527   2.953276   3.665802   3.489421
    19  H    2.297892   1.869309   0.959980   1.567353   3.129403
                   11         12         13         14         15
    11  H    0.000000
    12  O    2.352526   0.000000
    13  H    3.308498   0.959935   0.000000
    14  H    2.200452   0.959991   1.567533   0.000000
    15  H    4.606825   3.212091   2.949969   3.953725   0.000000
    16  H    3.822919   3.420362   3.691102   4.243941   2.410850
    17  H    1.567497   3.349453   4.210050   3.362383   4.495491
    18  H    4.288824   4.062660   4.281159   4.558009   2.225950
    19  H    3.454344   3.481323   3.833001   3.396353   3.504877
                   16         17         18         19
    16  H    0.000000
    17  H    3.544793   0.000000
    18  H    2.573032   3.433851   0.000000
    19  H    4.278809   2.920828   2.578800   0.000000
 Stoichiometry    FeH12O6(2+,5)
 Framework group  C1[X(FeH12O6)]
 Deg. of freedom    51
 Full point group                 C1      NOp   1
 Largest Abelian subgroup         C1      NOp   1
 Largest concise Abelian subgroup C1      NOp   1
                         Standard orientation:                         
 ---------------------------------------------------------------------
 Center     Atomic      Atomic             Coordinates (Angstroms)
 Number     Number       Type             X           Y           Z
 ---------------------------------------------------------------------
      1         26           0       -0.020212   -0.029769    0.009758
      2          8           0       -0.320773   -1.687164   -0.684161
      3          1           0       -1.136997   -1.679346   -1.189137
      4          8           0        1.254785   -0.678144    1.138153
      5          1           0        1.943573   -0.019708    1.254074
      6          8           0        1.298505    0.294488   -1.203590
      7          1           0        1.382461    1.241149   -1.339326
      8          8           0        0.280919    1.626834    0.697379
      9          1           0       -0.430846    2.216032    0.436526
     10          8           0       -1.285567    0.616476   -1.124434
     11          1           0       -2.034473    0.939301   -0.618170
     12          8           0       -1.338192   -0.350985    1.221594
     13          1           0       -0.971642   -0.815184    1.977660
     14          1           0       -1.717006    0.482356    1.510774
     15          1           0        1.635434   -1.476912    0.766219
     16          1           0        0.408530   -1.930525   -1.258908
     17          1           0       -0.914804    1.335716   -1.641030
     18          1           0        2.129249   -0.056449   -0.874904
     19          1           0        1.114608    1.965515    0.362985
 ---------------------------------------------------------------------
 Rotational constants (GHZ):           2.0396930           1.9739388           1.9252729
 Leave Link  202 at Wed Mar  5 18:41:51 2025, MaxMem= 13421772800 cpu:               0.5 elap:               0.0
 (Enter /gpfs/fs1/soft/improv/software/custom-built/gaussian/g16/l301.exe)
 Standard basis: 6-31+G(2df,p) (6D, 7F)
 Ernie: Thresh=  0.10000D-02 Tol=  0.10000D-05 Strict=F.
 There are   347 symmetry adapted cartesian basis functions of A   symmetry.
 There are   317 symmetry adapted basis functions of A   symmetry.
   317 basis functions,   514 primitive gaussians,   347 cartesian basis functions
    44 alpha electrons       40 beta electrons
       nuclear repulsion energy       767.7883002195 Hartrees.
 IExCor= 2523 DFT=T Ex+Corr=TPSSh ExCW=0 ScaHFX=  0.100000
 ScaDFX=  0.900000  0.900000  1.000000  1.000000 ScalE2=  1.000000  1.000000
 IRadAn=      5 IRanWt=     -1 IRanGd=            0 ICorTp=0 IEmpDi=  4
 NAtoms=   19 NActive=   19 NUniq=   19 SFac= 1.00D+00 NAtFMM=   60 NAOKFM=F Big=F
 Integral buffers will be    131072 words long.
 Raffenetti 2 integral format.
 Two-electron integral symmetry is turned on.
 R6DIni: Non-standard D2/D3 S6 parameter, value=     1.000000
 R6DIni: Non-standard D2/D3 S8 parameter, value=     1.219000
 R6DIni: Non-standard D2/D3 SR6 parameter, value=     1.223000
 Leave Link  301 at Wed Mar  5 18:41:51 2025, MaxMem= 13421772800 cpu:               0.4 elap:               0.1
 (Enter /gpfs/fs1/soft/improv/software/custom-built/gaussian/g16/l302.exe)
 NPDir=0 NMtPBC=     1 NCelOv=     1 NCel=       1 NClECP=     1 NCelD=      1
         NCelK=      1 NCelE2=     1 NClLst=     1 CellRange=     0.0.
 One-electron integrals computed using PRISM.
 One-electron integral symmetry used in STVInt
 NBasis=   317 RedAO= T EigKep=  1.64D-06  NBF=   317
 NBsUse=   317 1.00D-06 EigRej= -1.00D+00 NBFU=   317
 Precomputing XC quadrature grid using
 IXCGrd= 4 IRadAn=           5 IRanWt=          -1 IRanGd=           0 AccXCQ= 0.00D+00.
 Generated NRdTot=       0 NPtTot=           0 NUsed=           0 NTot=          32
 NSgBfM=   347   346   347   347   347 MxSgAt=    19 MxSgA2=    19.
 Leave Link  302 at Wed Mar  5 18:41:52 2025, MaxMem= 13421772800 cpu:              30.5 elap:               0.3
 (Enter /gpfs/fs1/soft/improv/software/custom-built/gaussian/g16/l303.exe)
 DipDrv:  MaxL=1.
 Leave Link  303 at Wed Mar  5 18:41:52 2025, MaxMem= 13421772800 cpu:               1.1 elap:               0.0
 (Enter /gpfs/fs1/soft/improv/software/custom-built/gaussian/g16/l401.exe)
 ExpMin= 1.26D-02 ExpMax= 6.11D+04 ExpMxC= 9.18D+03 IAcc=3 IRadAn=         5 AccDes= 0.00D+00
 Harris functional with IExCor= 1009 and IRadAn=       5 diagonalized for initial guess.
 HarFok:  IExCor= 1009 AccDes= 0.00D+00 IRadAn=         5 IDoV= 1 UseB2=F ITyADJ=14
 ICtDFT=  3500011 ScaDFX=  1.000000  1.000000  1.000000  1.000000
 FoFCou: FMM=F IPFlag=           0 FMFlag=      100000 FMFlg1=           0
         NFxFlg=           0 DoJE=T BraDBF=F KetDBF=T FulRan=T
         wScrn=  0.000000 ICntrl=       500 IOpCl=  0 I1Cent=   200000004 NGrid=           0
         NMat0=    1 NMatS0=      1 NMatT0=    0 NMatD0=    1 NMtDS0=    0 NMtDT0=    0
 Petite list used in FoFCou.
 Harris En= -1721.07914349456    
 JPrj=0 DoOrth=F DoCkMO=F.
 Initial guess <Sx>= 0.0000 <Sy>= 0.0000 <Sz>= 2.0000 <S**2>= 6.0000 S= 2.0000
 Leave Link  401 at Wed Mar  5 18:41:52 2025, MaxMem= 13421772800 cpu:              41.1 elap:               0.5
 (Enter /gpfs/fs1/soft/improv/software/custom-built/gaussian/g16/l502.exe)
 Integral symmetry usage will be decided dynamically.
 UHF open shell SCF:
 Using DIIS extrapolation, IDIIS=  1040.
 NGot= 13421772800 LenX= 13421483807 LenY= 13421362957
 Requested convergence on RMS density matrix=1.00D-08 within  50 cycles.
 Requested convergence on MAX density matrix=1.00D-06.
 Requested convergence on             energy=1.00D-06.
 No special actions if energy rises.
 Fock matrices will be formed incrementally for  20 cycles.

 Cycle   1  Pass 1  IDiag  1:
 FoFJK:  IHMeth= 1 ICntrl=       0 DoSepK=F KAlg= 0 I1Cent=           0 FoldK=F
 IRaf= 990000000 NMat=       1 IRICut=       1 DoRegI=T DoRafI=F ISym2E= 0 IDoP0=0 IntGTp=1.
 FoFCou: FMM=F IPFlag=           0 FMFlag=      100000 FMFlg1=           0
         NFxFlg=           0 DoJE=F BraDBF=F KetDBF=F FulRan=T
         wScrn=  0.000000 ICntrl=         0 IOpCl=  1 I1Cent=           0 NGrid=           0
         NMat0=    1 NMatS0=      1 NMatT0=    0 NMatD0=    1 NMtDS0=    0 NMtDT0=    0
 Symmetry not used in FoFCou.
 E= -1721.22665500461    
 DIIS: error= 2.59D-02 at cycle   1 NSaved=   1.
 NSaved= 1 IEnMin= 1 EnMin= -1721.22665500461     IErMin= 1 ErrMin= 2.59D-02
 ErrMax= 2.59D-02  0.00D+00 EMaxC= 1.00D-01 BMatC= 1.88D+00 BMatP= 1.88D+00
 IDIUse=3 WtCom= 7.41D-01 WtEn= 2.59D-01
 Coeff-Com:  0.100D+01
 Coeff-En:   0.100D+01
 Coeff:      0.100D+01
 Gap=    -0.033 Goal=   None    Shift=    0.000
 Gap=     0.094 Goal=   None    Shift=    0.000
 GapD=   -0.033 DampG=0.250 DampE=0.250 DampFc=0.1250 IDamp=-1.
 Damping current iteration by 1.25D-01
 RMSDP=8.70D-02 MaxDP=1.21D+01              OVMax= 9.85D-01

 Cycle   2  Pass 1  IDiag  1:
 RMSU=  1.00D-02    CP:  1.05D+00
 E= -1721.28104072254     Delta-E=       -0.054385717920 Rises=F Damp=T
 DIIS: error= 2.19D-02 at cycle   2 NSaved=   2.
 NSaved= 2 IEnMin= 2 EnMin= -1721.28104072254     IErMin= 2 ErrMin= 2.19D-02
 ErrMax= 2.19D-02  0.00D+00 EMaxC= 1.00D-01 BMatC= 1.04D+00 BMatP= 1.88D+00
 IDIUse=3 WtCom= 7.81D-01 WtEn= 2.19D-01
 Coeff-Com: -0.117D+01 0.217D+01
 Coeff-En:   0.000D+00 0.100D+01
 Coeff:     -0.913D+00 0.191D+01
 Gap=     0.021 Goal=   None    Shift=    0.000
 Gap=    -0.240 Goal=   None    Shift=    0.000
 RMSDP=2.42D-02 MaxDP=3.04D+00 DE=-5.44D-02 OVMax= 9.24D-01

 Cycle   3  Pass 1  IDiag  1:
 RMSU=  1.76D-02    CP:  1.23D+00  3.74D-01
 E= -1720.99449552741     Delta-E=        0.286545195127 Rises=F Damp=F
 DIIS: error= 4.41D-02 at cycle   3 NSaved=   3.
 NSaved= 3 IEnMin= 2 EnMin= -1721.28104072254     IErMin= 2 ErrMin= 2.19D-02
 ErrMax= 4.41D-02  0.00D+00 EMaxC= 1.00D-01 BMatC= 4.07D+00 BMatP= 1.04D+00
 IDIUse=2 WtCom= 0.00D+00 WtEn= 1.00D+00
 Coeff-En:   0.000D+00 0.726D+00 0.274D+00
 Coeff:      0.000D+00 0.726D+00 0.274D+00
 Gap=     0.028 Goal=   None    Shift=    0.000
 Gap=     0.133 Goal=   None    Shift=    0.000
 RMSDP=6.30D-02 MaxDP=6.54D+00 DE= 2.87D-01 OVMax= 9.99D-01

 Cycle   4  Pass 1  IDiag  1:
 RMSU=  3.46D-02    CP:  1.16D+00  3.00D+00 -4.17D-02
 E= -1719.91127688109     Delta-E=        1.083218646322 Rises=F Damp=F
 DIIS: error= 6.35D-02 at cycle   4 NSaved=   4.
 NSaved= 4 IEnMin= 2 EnMin= -1721.28104072254     IErMin= 2 ErrMin= 2.19D-02
 ErrMax= 6.35D-02  0.00D+00 EMaxC= 1.00D-01 BMatC= 7.51D+00 BMatP= 1.04D+00
 IDIUse=2 WtCom= 0.00D+00 WtEn= 1.00D+00
 EnCoef did   100 forward-backward iterations
 Coeff-En:   0.408D+00 0.160D-01 0.377D+00 0.198D+00
 Coeff:      0.408D+00 0.160D-01 0.377D+00 0.198D+00
 Gap=     0.017 Goal=   None    Shift=    0.000
 Gap=    -0.064 Goal=   None    Shift=    0.000
 RMSDP=6.50D-02 MaxDP=8.01D+00 DE= 1.08D+00 OVMax= 9.99D-01

 Cycle   5  Pass 1  IDiag  1:
 RMSU=  8.55D-03    CP:  9.37D-01  2.04D-01  4.30D-01  2.43D-02
 E= -1721.52247480672     Delta-E=       -1.611197925631 Rises=F Damp=F
 DIIS: error= 2.66D-03 at cycle   5 NSaved=   5.
 NSaved= 5 IEnMin= 5 EnMin= -1721.52247480672     IErMin= 5 ErrMin= 2.66D-03
 ErrMax= 2.66D-03  0.00D+00 EMaxC= 1.00D-01 BMatC= 2.44D-02 BMatP= 1.04D+00
 IDIUse=3 WtCom= 9.73D-01 WtEn= 2.66D-02
 Coeff-Com:  0.342D+00-0.383D+00 0.549D-02 0.158D-01 0.102D+01
 Coeff-En:   0.000D+00 0.000D+00 0.000D+00 0.000D+00 0.100D+01
 Coeff:      0.333D+00-0.373D+00 0.535D-02 0.154D-01 0.102D+01
 Gap=     0.067 Goal=   None    Shift=    0.000
 Gap=     0.083 Goal=   None    Shift=    0.000
 RMSDP=3.85D-03 MaxDP=4.68D-01 DE=-1.61D+00 OVMax= 1.70D-02

 Cycle   6  Pass 1  IDiag  1:
 RMSU=  2.61D-03    CP:  9.63D-01  2.86D-01  5.02D-01  1.71D-02  9.01D-01
 E= -1721.52470272919     Delta-E=       -0.002227922473 Rises=F Damp=F
 DIIS: error= 1.39D-03 at cycle   6 NSaved=   6.
 NSaved= 6 IEnMin= 6 EnMin= -1721.52470272919     IErMin= 6 ErrMin= 1.39D-03
 ErrMax= 1.39D-03  0.00D+00 EMaxC= 1.00D-01 BMatC= 8.88D-03 BMatP= 2.44D-02
 IDIUse=3 WtCom= 9.86D-01 WtEn= 1.39D-02
 Coeff-Com:  0.194D+00-0.230D+00 0.859D-02 0.369D-02 0.402D+00 0.622D+00
 Coeff-En:   0.000D+00 0.000D+00 0.000D+00 0.000D+00 0.000D+00 0.100D+01
 Coeff:      0.192D+00-0.227D+00 0.847D-02 0.364D-02 0.396D+00 0.627D+00
 Gap=     0.077 Goal=   None    Shift=    0.000
 Gap=     0.091 Goal=   None    Shift=    0.000
 RMSDP=1.19D-03 MaxDP=1.35D-01 DE=-2.23D-03 OVMax= 9.24D-03

 Cycle   7  Pass 1  IDiag  1:
 RMSU=  7.55D-04    CP:  9.54D-01  2.85D-01  5.01D-01  1.96D-02  8.88D-01
                    CP:  8.04D-01
 E= -1721.52606920955     Delta-E=       -0.001366480359 Rises=F Damp=F
 DIIS: error= 9.77D-04 at cycle   7 NSaved=   7.
 NSaved= 7 IEnMin= 7 EnMin= -1721.52606920955     IErMin= 7 ErrMin= 9.77D-04
 ErrMax= 9.77D-04  0.00D+00 EMaxC= 1.00D-01 BMatC= 2.58D-03 BMatP= 8.88D-03
 IDIUse=3 WtCom= 9.90D-01 WtEn= 9.77D-03
 Coeff-Com:  0.981D-01-0.116D+00 0.102D-01 0.110D-03 0.110D+00 0.306D+00
 Coeff-Com:  0.592D+00
 Coeff-En:   0.000D+00 0.000D+00 0.000D+00 0.000D+00 0.000D+00 0.000D+00
 Coeff-En:   0.100D+01
 Coeff:      0.972D-01-0.115D+00 0.101D-01 0.109D-03 0.108D+00 0.303D+00
 Coeff:      0.596D+00
 Gap=     0.080 Goal=   None    Shift=    0.000
 Gap=     0.093 Goal=   None    Shift=    0.000
 RMSDP=3.44D-04 MaxDP=3.99D-02 DE=-1.37D-03 OVMax= 5.37D-03

 Cycle   8  Pass 1  IDiag  1:
 RMSU=  2.25D-04    CP:  9.56D-01  2.77D-01  5.03D-01  2.01D-02  8.73D-01
                    CP:  7.57D-01  1.06D+00
 E= -1721.52643465318     Delta-E=       -0.000365443630 Rises=F Damp=F
 DIIS: error= 4.83D-04 at cycle   8 NSaved=   8.
 NSaved= 8 IEnMin= 8 EnMin= -1721.52643465318     IErMin= 8 ErrMin= 4.83D-04
 ErrMax= 4.83D-04  0.00D+00 EMaxC= 1.00D-01 BMatC= 5.19D-04 BMatP= 2.58D-03
 IDIUse=3 WtCom= 9.95D-01 WtEn= 4.83D-03
 Coeff-Com:  0.376D-01-0.449D-01 0.505D-02-0.190D-03-0.323D-02-0.168D-01
 Coeff-Com:  0.222D+00 0.800D+00
 Coeff-En:   0.000D+00 0.000D+00 0.000D+00 0.000D+00 0.000D+00 0.000D+00
 Coeff-En:   0.000D+00 0.100D+01
 Coeff:      0.374D-01-0.446D-01 0.502D-02-0.189D-03-0.322D-02-0.168D-01
 Coeff:      0.221D+00 0.801D+00
 Gap=     0.081 Goal=   None    Shift=    0.000
 Gap=     0.092 Goal=   None    Shift=    0.000
 RMSDP=2.27D-04 MaxDP=2.04D-02 DE=-3.65D-04 OVMax= 4.23D-03

 Cycle   9  Pass 1  IDiag  1:
 RMSU=  1.08D-04    CP:  9.57D-01  2.83D-01  5.07D-01  1.95D-02  8.63D-01
                    CP:  7.80D-01  1.19D+00  1.00D+00
 E= -1721.52650519002     Delta-E=       -0.000070536840 Rises=F Damp=F
 DIIS: error= 2.10D-04 at cycle   9 NSaved=   9.
 NSaved= 9 IEnMin= 9 EnMin= -1721.52650519002     IErMin= 9 ErrMin= 2.10D-04
 ErrMax= 2.10D-04  0.00D+00 EMaxC= 1.00D-01 BMatC= 1.00D-04 BMatP= 5.19D-04
 IDIUse=3 WtCom= 9.98D-01 WtEn= 2.10D-03
 Coeff-Com:  0.109D-01-0.129D-01 0.156D-02-0.144D-03-0.335D-02-0.512D-01
 Coeff-Com: -0.401D-01 0.214D+00 0.882D+00
 Coeff-En:   0.000D+00 0.000D+00 0.000D+00 0.000D+00 0.000D+00 0.000D+00
 Coeff-En:   0.000D+00 0.000D+00 0.100D+01
 Coeff:      0.108D-01-0.129D-01 0.156D-02-0.143D-03-0.334D-02-0.511D-01
 Coeff:     -0.400D-01 0.213D+00 0.882D+00
 Gap=     0.081 Goal=   None    Shift=    0.000
 Gap=     0.092 Goal=   None    Shift=    0.000
 RMSDP=8.60D-05 MaxDP=9.20D-03 DE=-7.05D-05 OVMax= 4.33D-03

 Cycle  10  Pass 1  IDiag  1:
 RMSU=  3.35D-05    CP:  9.57D-01  2.82D-01  5.07D-01  1.96D-02  8.59D-01
                    CP:  7.61D-01  1.24D+00  1.13D+00  1.10D+00
 E= -1721.52652388528     Delta-E=       -0.000018695258 Rises=F Damp=F
 DIIS: error= 8.00D-05 at cycle  10 NSaved=  10.
 NSaved=10 IEnMin=10 EnMin= -1721.52652388528     IErMin=10 ErrMin= 8.00D-05
 ErrMax= 8.00D-05  0.00D+00 EMaxC= 1.00D-01 BMatC= 1.55D-05 BMatP= 1.00D-04
 IDIUse=1 WtCom= 1.00D+00 WtEn= 0.00D+00
 Coeff-Com:  0.266D-02-0.309D-02 0.459D-03-0.754D-04 0.653D-03-0.145D-01
 Coeff-Com: -0.356D-01-0.288D-01 0.169D+00 0.910D+00
 Coeff:      0.266D-02-0.309D-02 0.459D-03-0.754D-04 0.653D-03-0.145D-01
 Coeff:     -0.356D-01-0.288D-01 0.169D+00 0.910D+00
 Gap=     0.081 Goal=   None    Shift=    0.000
 Gap=     0.093 Goal=   None    Shift=    0.000
 RMSDP=3.38D-05 MaxDP=2.61D-03 DE=-1.87D-05 OVMax= 4.23D-03

 Cycle  11  Pass 1  IDiag  1:
 RMSU=  1.90D-05    CP:  9.57D-01  2.82D-01  5.08D-01  1.96D-02  8.57D-01
                    CP:  7.56D-01  1.26D+00  1.16D+00  1.18D+00  1.18D+00
 E= -1721.52652967336     Delta-E=       -0.000005788083 Rises=F Damp=F
 DIIS: error= 4.05D-05 at cycle  11 NSaved=  11.
 NSaved=11 IEnMin=11 EnMin= -1721.52652967336     IErMin=11 ErrMin= 4.05D-05
 ErrMax= 4.05D-05  0.00D+00 EMaxC= 1.00D-01 BMatC= 2.79D-06 BMatP= 1.55D-05
 IDIUse=1 WtCom= 1.00D+00 WtEn= 0.00D+00
 Coeff-Com:  0.314D-03-0.323D-03 0.976D-04-0.189D-04 0.825D-03 0.563D-03
 Coeff-Com: -0.111D-01-0.515D-01-0.741D-01 0.459D+00 0.676D+00
 Coeff:      0.314D-03-0.323D-03 0.976D-04-0.189D-04 0.825D-03 0.563D-03
 Coeff:     -0.111D-01-0.515D-01-0.741D-01 0.459D+00 0.676D+00
 Gap=     0.081 Goal=   None    Shift=    0.000
 Gap=     0.093 Goal=   None    Shift=    0.000
 RMSDP=2.09D-05 MaxDP=1.23D-03 DE=-5.79D-06 OVMax= 3.43D-03

 Cycle  12  Pass 1  IDiag  1:
 RMSU=  1.16D-05    CP:  9.57D-01  2.82D-01  5.08D-01  1.96D-02  8.56D-01
                    CP:  7.55D-01  1.27D+00  1.18D+00  1.24D+00  1.40D+00
                    CP:  1.37D+00
 E= -1721.52653273503     Delta-E=       -0.000003061669 Rises=F Damp=F
 DIIS: error= 2.85D-05 at cycle  12 NSaved=  12.
 NSaved=12 IEnMin=12 EnMin= -1721.52653273503     IErMin=12 ErrMin= 2.85D-05
 ErrMax= 2.85D-05  0.00D+00 EMaxC= 1.00D-01 BMatC= 1.32D-06 BMatP= 2.79D-06
 IDIUse=1 WtCom= 1.00D+00 WtEn= 0.00D+00
 Coeff-Com: -0.852D-03 0.103D-02-0.931D-04 0.107D-04-0.270D-03 0.626D-02
 Coeff-Com:  0.117D-01-0.116D-01-0.119D+00-0.133D+00 0.315D+00 0.930D+00
 Coeff:     -0.852D-03 0.103D-02-0.931D-04 0.107D-04-0.270D-03 0.626D-02
 Coeff:      0.117D-01-0.116D-01-0.119D+00-0.133D+00 0.315D+00 0.930D+00
 Gap=     0.081 Goal=   None    Shift=    0.000
 Gap=     0.093 Goal=   None    Shift=    0.000
 RMSDP=2.25D-05 MaxDP=1.51D-03 DE=-3.06D-06 OVMax= 4.93D-03

 Cycle  13  Pass 1  IDiag  1:
 RMSU=  4.96D-06    CP:  9.57D-01  2.82D-01  5.08D-01  1.96D-02  8.56D-01
                    CP:  7.54D-01  1.27D+00  1.19D+00  1.28D+00  1.63D+00
                    CP:  2.27D+00  1.65D+00
 E= -1721.52653662534     Delta-E=       -0.000003890314 Rises=F Damp=F
 DIIS: error= 2.40D-05 at cycle  13 NSaved=  13.
 NSaved=13 IEnMin=13 EnMin= -1721.52653662534     IErMin=13 ErrMin= 2.40D-05
 ErrMax= 2.40D-05  0.00D+00 EMaxC= 1.00D-01 BMatC= 1.22D-06 BMatP= 1.32D-06
 IDIUse=1 WtCom= 1.00D+00 WtEn= 0.00D+00
 Coeff-Com: -0.216D-02 0.256D-02-0.296D-03 0.894D-06-0.410D-02-0.235D-02
 Coeff-Com:  0.402D-01 0.160D+00 0.186D+00-0.101D+01-0.196D+01-0.753D+00
 Coeff-Com:  0.435D+01
 Coeff:     -0.216D-02 0.256D-02-0.296D-03 0.894D-06-0.410D-02-0.235D-02
 Coeff:      0.402D-01 0.160D+00 0.186D+00-0.101D+01-0.196D+01-0.753D+00
 Coeff:      0.435D+01
 Gap=     0.081 Goal=   None    Shift=    0.000
 Gap=     0.093 Goal=   None    Shift=    0.000
 RMSDP=1.25D-04 MaxDP=8.82D-03 DE=-3.89D-06 OVMax= 2.81D-02

 Cycle  14  Pass 1  IDiag  1:
 RMSU=  9.24D-05    CP:  9.57D-01  2.82D-01  5.08D-01  1.97D-02  8.56D-01
                    CP:  7.50D-01  1.29D+00  1.26D+00  1.51D+00  2.82D+00
                    CP:  3.00D+00  3.00D+00  3.00D+00
 E= -1721.52655450982     Delta-E=       -0.000017884474 Rises=F Damp=F
 DIIS: error= 1.98D-05 at cycle  14 NSaved=  14.
 NSaved=14 IEnMin=14 EnMin= -1721.52655450982     IErMin=14 ErrMin= 1.98D-05
 ErrMax= 1.98D-05  0.00D+00 EMaxC= 1.00D-01 BMatC= 1.16D-06 BMatP= 1.22D-06
 IDIUse=1 WtCom= 1.00D+00 WtEn= 0.00D+00
 Coeff-Com: -0.512D-03 0.624D-03-0.179D-03 0.182D-05-0.120D-03-0.244D-02
 Coeff-Com:  0.142D-01 0.740D-01 0.109D+00-0.211D+00-0.853D+00-0.962D+00
 Coeff-Com:  0.132D+01 0.151D+01
 Coeff:     -0.512D-03 0.624D-03-0.179D-03 0.182D-05-0.120D-03-0.244D-02
 Coeff:      0.142D-01 0.740D-01 0.109D+00-0.211D+00-0.853D+00-0.962D+00
 Coeff:      0.132D+01 0.151D+01
 Gap=     0.081 Goal=   None    Shift=    0.000
 Gap=     0.093 Goal=   None    Shift=    0.000
 RMSDP=1.17D-04 MaxDP=8.45D-03 DE=-1.79D-05 OVMax= 2.63D-02

 Cycle  15  Pass 1  IDiag  1:
 RMSU=  3.24D-05    CP:  9.57D-01  2.83D-01  5.08D-01  1.99D-02  8.57D-01
                    CP:  7.46D-01  1.29D+00  1.31D+00  1.70D+00  3.00D+00
                    CP:  3.00D+00  3.00D+00  3.00D+00  2.16D+00
 E= -1721.52656458659     Delta-E=       -0.000010076776 Rises=F Damp=F
 DIIS: error= 1.57D-05 at cycle  15 NSaved=  15.
 NSaved=15 IEnMin=15 EnMin= -1721.52656458659     IErMin=15 ErrMin= 1.57D-05
 ErrMax= 1.57D-05  0.00D+00 EMaxC= 1.00D-01 BMatC= 3.77D-07 BMatP= 1.16D-06
 IDIUse=1 WtCom= 1.00D+00 WtEn= 0.00D+00
 Coeff-Com: -0.898D-05 0.653D-04-0.893D-04-0.922D-05 0.167D-02 0.119D-02
 Coeff-Com:  0.267D-02 0.706D-02-0.746D-02 0.256D-01-0.945D-01-0.260D+00
 Coeff-Com:  0.103D+00 0.460D+00 0.760D+00
 Coeff:     -0.898D-05 0.653D-04-0.893D-04-0.922D-05 0.167D-02 0.119D-02
 Coeff:      0.267D-02 0.706D-02-0.746D-02 0.256D-01-0.945D-01-0.260D+00
 Coeff:      0.103D+00 0.460D+00 0.760D+00
 Gap=     0.081 Goal=   None    Shift=    0.000
 Gap=     0.093 Goal=   None    Shift=    0.000
 RMSDP=1.22D-05 MaxDP=8.59D-04 DE=-1.01D-05 OVMax= 2.59D-03

 Cycle  16  Pass 1  IDiag  1:
 RMSU=  4.00D-06    CP:  9.57D-01  2.83D-01  5.08D-01  1.99D-02  8.57D-01
                    CP:  7.45D-01  1.29D+00  1.32D+00  1.70D+00  3.00D+00
                    CP:  3.00D+00  3.00D+00  3.00D+00  2.26D+00  1.13D+00
 E= -1721.52656528581     Delta-E=       -0.000000699220 Rises=F Damp=F
 DIIS: error= 8.42D-06 at cycle  16 NSaved=  16.
 NSaved=16 IEnMin=16 EnMin= -1721.52656528581     IErMin=16 ErrMin= 8.42D-06
 ErrMax= 8.42D-06  0.00D+00 EMaxC= 1.00D-01 BMatC= 1.61D-07 BMatP= 3.77D-07
 IDIUse=1 WtCom= 1.00D+00 WtEn= 0.00D+00
 Coeff-Com: -0.213D-04 0.615D-04 0.450D-04-0.194D-04 0.308D-03 0.253D-02
 Coeff-Com: -0.153D-02-0.242D-01-0.707D-01-0.148D-01 0.219D+00 0.341D+00
 Coeff-Com: -0.250D+00-0.975D+00 0.217D+00 0.156D+01
 Coeff:     -0.213D-04 0.615D-04 0.450D-04-0.194D-04 0.308D-03 0.253D-02
 Coeff:     -0.153D-02-0.242D-01-0.707D-01-0.148D-01 0.219D+00 0.341D+00
 Coeff:     -0.250D+00-0.975D+00 0.217D+00 0.156D+01
 Gap=     0.081 Goal=   None    Shift=    0.000
 Gap=     0.093 Goal=   None    Shift=    0.000
 RMSDP=6.55D-05 MaxDP=4.81D-03 DE=-6.99D-07 OVMax= 1.48D-02

 Cycle  17  Pass 1  IDiag  1:
 RMSU=  4.58D-06    CP:  9.57D-01  2.83D-01  5.08D-01  2.00D-02  8.57D-01
                    CP:  7.41D-01  1.29D+00  1.35D+00  1.80D+00  3.00D+00
                    CP:  3.00D+00  3.00D+00  3.00D+00  2.89D+00  1.85D+00
                    CP:  2.31D+00
 E= -1721.52656763356     Delta-E=       -0.000002347746 Rises=F Damp=F
 DIIS: error= 4.80D-06 at cycle  17 NSaved=  17.
 NSaved=17 IEnMin=17 EnMin= -1721.52656763356     IErMin=17 ErrMin= 4.80D-06
 ErrMax= 4.80D-06  0.00D+00 EMaxC= 1.00D-01 BMatC= 8.12D-08 BMatP= 1.61D-07
 IDIUse=1 WtCom= 1.00D+00 WtEn= 0.00D+00
 Coeff-Com: -0.128D-03 0.148D-03 0.278D-04-0.771D-05-0.821D-03 0.702D-03
 Coeff-Com:  0.390D-02 0.782D-02-0.125D-01-0.113D+00-0.863D-01 0.745D-01
 Coeff-Com:  0.244D+00-0.412D+00-0.261D+00 0.798D+00 0.755D+00
 Coeff:     -0.128D-03 0.148D-03 0.278D-04-0.771D-05-0.821D-03 0.702D-03
 Coeff:      0.390D-02 0.782D-02-0.125D-01-0.113D+00-0.863D-01 0.745D-01
 Coeff:      0.244D+00-0.412D+00-0.261D+00 0.798D+00 0.755D+00
 Gap=     0.081 Goal=   None    Shift=    0.000
 Gap=     0.093 Goal=   None    Shift=    0.000
 RMSDP=1.72D-05 MaxDP=1.29D-03 DE=-2.35D-06 OVMax= 4.05D-03

 Cycle  18  Pass 1  IDiag  1:
 RMSU=  5.47D-06    CP:  9.57D-01  2.83D-01  5.08D-01  2.00D-02  8.57D-01
                    CP:  7.40D-01  1.29D+00  1.36D+00  1.82D+00  3.00D+00
                    CP:  3.00D+00  3.00D+00  3.00D+00  3.00D+00  2.06D+00
                    CP:  2.62D+00  1.24D+00
 E= -1721.52656792874     Delta-E=       -0.000000295177 Rises=F Damp=F
 DIIS: error= 5.76D-06 at cycle  18 NSaved=  18.
 NSaved=18 IEnMin=18 EnMin= -1721.52656792874     IErMin=17 ErrMin= 4.80D-06
 ErrMax= 5.76D-06  0.00D+00 EMaxC= 1.00D-01 BMatC= 4.65D-08 BMatP= 8.12D-08
 IDIUse=1 WtCom= 1.00D+00 WtEn= 0.00D+00
 Coeff-Com: -0.349D-04 0.357D-04 0.137D-04 0.949D-06-0.356D-03 0.751D-03
 Coeff-Com:  0.359D-02 0.734D-02-0.938D-02-0.434D-01 0.307D-01 0.146D+00
 Coeff-Com:  0.735D-01-0.868D-02-0.237D+00-0.585D+00-0.271D-02 0.162D+01
 Coeff:     -0.349D-04 0.357D-04 0.137D-04 0.949D-06-0.356D-03 0.751D-03
 Coeff:      0.359D-02 0.734D-02-0.938D-02-0.434D-01 0.307D-01 0.146D+00
 Coeff:      0.735D-01-0.868D-02-0.237D+00-0.585D+00-0.271D-02 0.162D+01
 Gap=     0.081 Goal=   None    Shift=    0.000
 Gap=     0.093 Goal=   None    Shift=    0.000
 RMSDP=9.68D-06 MaxDP=7.95D-04 DE=-2.95D-07 OVMax= 1.60D-03

 Cycle  19  Pass 1  IDiag  1:
 RMSU=  5.75D-06    CP:  9.57D-01  2.82D-01  5.08D-01  2.00D-02  8.57D-01
                    CP:  7.39D-01  1.29D+00  1.37D+00  1.79D+00  3.00D+00
                    CP:  3.00D+00  3.00D+00  3.00D+00  3.00D+00  2.14D+00
                    CP:  3.00D+00  1.89D+00  1.10D+00
 E= -1721.52656810345     Delta-E=       -0.000000174713 Rises=F Damp=F
 DIIS: error= 5.82D-06 at cycle  19 NSaved=  19.
 NSaved=19 IEnMin=19 EnMin= -1721.52656810345     IErMin=17 ErrMin= 4.80D-06
 ErrMax= 5.82D-06  0.00D+00 EMaxC= 1.00D-01 BMatC= 7.41D-08 BMatP= 4.65D-08
 IDIUse=1 WtCom= 1.00D+00 WtEn= 0.00D+00
 Coeff-Com: -0.735D-04 0.948D-04 0.930D-05-0.206D-06-0.663D-04-0.183D-03
 Coeff-Com: -0.104D-02-0.493D-02-0.169D-01 0.120D+00 0.226D+00 0.404D-01
 Coeff-Com: -0.577D+00 0.426D+00 0.634D+00-0.105D+01-0.959D+00 0.967D+00
 Coeff-Com:  0.120D+01
 Coeff:     -0.735D-04 0.948D-04 0.930D-05-0.206D-06-0.663D-04-0.183D-03
 Coeff:     -0.104D-02-0.493D-02-0.169D-01 0.120D+00 0.226D+00 0.404D-01
 Coeff:     -0.577D+00 0.426D+00 0.634D+00-0.105D+01-0.959D+00 0.967D+00
 Coeff:      0.120D+01
 Gap=     0.081 Goal=   None    Shift=    0.000
 Gap=     0.093 Goal=   None    Shift=    0.000
 RMSDP=1.29D-05 MaxDP=8.66D-04 DE=-1.75D-07 OVMax= 3.10D-03

 Cycle  20  Pass 1  IDiag  1:
 RMSU=  2.54D-06    CP:  9.57D-01  2.82D-01  5.08D-01  2.00D-02  8.57D-01
                    CP:  7.39D-01  1.29D+00  1.38D+00  1.80D+00  3.00D+00
                    CP:  3.00D+00  3.00D+00  3.00D+00  3.00D+00  2.31D+00
                    CP:  3.00D+00  2.55D+00  3.00D+00  1.10D+00
 E= -1721.52656824294     Delta-E=       -0.000000139491 Rises=F Damp=F
 DIIS: error= 2.54D-06 at cycle  20 NSaved=  20.
 NSaved=20 IEnMin=20 EnMin= -1721.52656824294     IErMin=20 ErrMin= 2.54D-06
 ErrMax= 2.54D-06  0.00D+00 EMaxC= 1.00D-01 BMatC= 1.03D-08 BMatP= 4.65D-08
 IDIUse=1 WtCom= 1.00D+00 WtEn= 0.00D+00
 Coeff-Com:  0.293D-04-0.286D-04 0.269D-05 0.145D-05 0.156D-03 0.353D-03
 Coeff-Com: -0.105D-02-0.749D-02-0.158D-01 0.478D-01 0.130D+00 0.792D-01
 Coeff-Com: -0.263D+00-0.258D-01 0.310D+00-0.869D-01-0.352D+00-0.434D+00
 Coeff-Com: -0.312D-01 0.165D+01
 Coeff:      0.293D-04-0.286D-04 0.269D-05 0.145D-05 0.156D-03 0.353D-03
 Coeff:     -0.105D-02-0.749D-02-0.158D-01 0.478D-01 0.130D+00 0.792D-01
 Coeff:     -0.263D+00-0.258D-01 0.310D+00-0.869D-01-0.352D+00-0.434D+00
 Coeff:     -0.312D-01 0.165D+01
 Gap=     0.081 Goal=   None    Shift=    0.000
 Gap=     0.093 Goal=   None    Shift=    0.000
 RMSDP=9.36D-06 MaxDP=6.25D-04 DE=-1.39D-07 OVMax= 1.65D-03

 Cycle  21  Pass 1  IDiag  1:
 Restarting incremental Fock formation.
 E= -1721.52656829945     Delta-E=       -0.000000056504 Rises=F Damp=F
 DIIS: error= 8.59D-07 at cycle  21 NSaved=  20.
 NSaved=20 IEnMin=20 EnMin= -1721.52656829945     IErMin=20 ErrMin= 8.59D-07
 ErrMax= 8.59D-07  0.00D+00 EMaxC= 1.00D-01 BMatC= 2.47D-09 BMatP= 1.03D-08
 IDIUse=1 WtCom= 1.00D+00 WtEn= 0.00D+00
 Coeff-Com: -0.312D-05 0.564D-05 0.200D-05 0.198D-04 0.276D-03-0.106D-03
 Coeff-Com: -0.251D-02-0.619D-02-0.268D-02 0.250D-01 0.405D-01-0.278D-01
 Coeff-Com: -0.916D-01 0.342D-01 0.127D+00 0.934D-02-0.271D+00-0.269D+00
 Coeff-Com:  0.671D+00 0.763D+00
 Coeff:     -0.312D-05 0.564D-05 0.200D-05 0.198D-04 0.276D-03-0.106D-03
 Coeff:     -0.251D-02-0.619D-02-0.268D-02 0.250D-01 0.405D-01-0.278D-01
 Coeff:     -0.916D-01 0.342D-01 0.127D+00 0.934D-02-0.271D+00-0.269D+00
 Coeff:      0.671D+00 0.763D+00
 Gap=     0.081 Goal=   None    Shift=    0.000
 Gap=     0.093 Goal=   None    Shift=    0.000
 RMSDP=1.56D-06 MaxDP=8.52D-05 DE=-5.65D-08 OVMax= 3.29D-04

 Cycle  22  Pass 1  IDiag  1:
 RMSU=  1.56D-06    CP:  1.00D+00
 E= -1721.52656830218     Delta-E=       -0.000000002738 Rises=F Damp=F
 DIIS: error= 3.33D-07 at cycle  22 NSaved=  20.
 NSaved=20 IEnMin=20 EnMin= -1721.52656830218     IErMin=20 ErrMin= 3.33D-07
 ErrMax= 3.33D-07  0.00D+00 EMaxC= 1.00D-01 BMatC= 5.13D-10 BMatP= 2.47D-09
 IDIUse=1 WtCom= 1.00D+00 WtEn= 0.00D+00
 Coeff-Com: -0.249D-04 0.286D-04-0.614D-04 0.955D-04 0.324D-03 0.667D-03
 Coeff-Com:  0.143D-04-0.178D-01-0.234D-01 0.312D-02 0.591D-01-0.549D-01
 Coeff-Com: -0.614D-01 0.120D+00 0.109D+00-0.647D-01-0.166D+00-0.484D-01
 Coeff-Com:  0.429D+00 0.715D+00
 Coeff:     -0.249D-04 0.286D-04-0.614D-04 0.955D-04 0.324D-03 0.667D-03
 Coeff:      0.143D-04-0.178D-01-0.234D-01 0.312D-02 0.591D-01-0.549D-01
 Coeff:     -0.614D-01 0.120D+00 0.109D+00-0.647D-01-0.166D+00-0.484D-01
 Coeff:      0.429D+00 0.715D+00
 Gap=     0.081 Goal=   None    Shift=    0.000
 Gap=     0.093 Goal=   None    Shift=    0.000
 RMSDP=9.37D-07 MaxDP=4.74D-05 DE=-2.74D-09 OVMax= 2.10D-04

 Cycle  23  Pass 1  IDiag  1:
 RMSU=  5.16D-07    CP:  1.00D+00  1.50D+00
 E= -1721.52656830268     Delta-E=       -0.000000000497 Rises=F Damp=F
 DIIS: error= 2.71D-07 at cycle  23 NSaved=  20.
 NSaved=20 IEnMin=20 EnMin= -1721.52656830268     IErMin=20 ErrMin= 2.71D-07
 ErrMax= 2.71D-07  0.00D+00 EMaxC= 1.00D-01 BMatC= 2.75D-10 BMatP= 5.13D-10
 IDIUse=1 WtCom= 1.00D+00 WtEn= 0.00D+00
 Coeff-Com: -0.770D-06-0.280D-04-0.571D-04 0.155D-03 0.989D-03 0.162D-02
 Coeff-Com: -0.348D-02-0.123D-01-0.108D-01 0.202D-01 0.565D-02-0.226D-01
 Coeff-Com:  0.119D-01 0.246D-01 0.176D-01 0.830D-01-0.210D+00-0.125D+00
 Coeff-Com:  0.162D+00 0.106D+01
 Coeff:     -0.770D-06-0.280D-04-0.571D-04 0.155D-03 0.989D-03 0.162D-02
 Coeff:     -0.348D-02-0.123D-01-0.108D-01 0.202D-01 0.565D-02-0.226D-01
 Coeff:      0.119D-01 0.246D-01 0.176D-01 0.830D-01-0.210D+00-0.125D+00
 Coeff:      0.162D+00 0.106D+01
 Gap=     0.081 Goal=   None    Shift=    0.000
 Gap=     0.093 Goal=   None    Shift=    0.000
 RMSDP=3.03D-07 MaxDP=1.48D-05 DE=-4.97D-10 OVMax= 6.36D-05

 Cycle  24  Pass 1  IDiag  1:
 RMSU=  1.38D-07    CP:  1.00D+00  1.65D+00  1.20D+00
 E= -1721.52656830273     Delta-E=       -0.000000000046 Rises=F Damp=F
 DIIS: error= 2.21D-07 at cycle  24 NSaved=  20.
 NSaved=20 IEnMin=20 EnMin= -1721.52656830273     IErMin=20 ErrMin= 2.21D-07
 ErrMax= 2.21D-07  0.00D+00 EMaxC= 1.00D-01 BMatC= 1.07D-10 BMatP= 2.75D-10
 IDIUse=1 WtCom= 1.00D+00 WtEn= 0.00D+00
 Coeff-Com: -0.613D-05-0.243D-04 0.258D-04 0.210D-03 0.324D-03 0.419D-04
 Coeff-Com: -0.112D-02-0.218D-02 0.370D-03 0.399D-02 0.263D-03-0.152D-02
 Coeff-Com: -0.464D-02-0.115D-01 0.559D-01-0.364D-01-0.483D-01-0.263D-01
 Coeff-Com:  0.134D+00 0.937D+00
 Coeff:     -0.613D-05-0.243D-04 0.258D-04 0.210D-03 0.324D-03 0.419D-04
 Coeff:     -0.112D-02-0.218D-02 0.370D-03 0.399D-02 0.263D-03-0.152D-02
 Coeff:     -0.464D-02-0.115D-01 0.559D-01-0.364D-01-0.483D-01-0.263D-01
 Coeff:      0.134D+00 0.937D+00
 Gap=     0.081 Goal=   None    Shift=    0.000
 Gap=     0.093 Goal=   None    Shift=    0.000
 RMSDP=2.40D-07 MaxDP=1.63D-05 DE=-4.64D-11 OVMax= 5.40D-05

 Cycle  25  Pass 1  IDiag  1:
 RMSU=  7.86D-08    CP:  1.00D+00  1.56D+00  8.59D-01  1.07D+00
 E= -1721.52656830272     Delta-E=        0.000000000004 Rises=F Damp=F
 DIIS: error= 3.91D-08 at cycle  25 NSaved=  20.
 NSaved=20 IEnMin=19 EnMin= -1721.52656830273     IErMin=20 ErrMin= 3.91D-08
 ErrMax= 3.91D-08  0.00D+00 EMaxC= 1.00D-01 BMatC= 3.72D-12 BMatP= 1.07D-10
 IDIUse=1 WtCom= 1.00D+00 WtEn= 0.00D+00
 Coeff-Com: -0.843D-05 0.349D-05 0.511D-04 0.829D-04 0.175D-03 0.102D-03
 Coeff-Com: -0.547D-03-0.110D-02 0.192D-02 0.234D-02-0.132D-02-0.444D-02
 Coeff-Com: -0.924D-02 0.201D-01 0.889D-03-0.122D-01-0.263D-01-0.380D-01
 Coeff-Com:  0.352D+00 0.715D+00
 Coeff:     -0.843D-05 0.349D-05 0.511D-04 0.829D-04 0.175D-03 0.102D-03
 Coeff:     -0.547D-03-0.110D-02 0.192D-02 0.234D-02-0.132D-02-0.444D-02
 Coeff:     -0.924D-02 0.201D-01 0.889D-03-0.122D-01-0.263D-01-0.380D-01
 Coeff:      0.352D+00 0.715D+00
 Gap=     0.081 Goal=   None    Shift=    0.000
 Gap=     0.093 Goal=   None    Shift=    0.000
 RMSDP=3.22D-08 MaxDP=1.98D-06 DE= 4.09D-12 OVMax= 5.82D-06

 Cycle  26  Pass 1  IDiag  1:
 RMSU=  1.10D-08    CP:  1.00D+00  1.56D+00  8.07D-01  1.10D+00  1.16D+00
 E= -1721.52656830273     Delta-E=       -0.000000000004 Rises=F Damp=F
 DIIS: error= 1.06D-08 at cycle  26 NSaved=  20.
 NSaved=20 IEnMin=18 EnMin= -1721.52656830273     IErMin=20 ErrMin= 1.06D-08
 ErrMax= 1.06D-08  0.00D+00 EMaxC= 1.00D-01 BMatC= 2.47D-13 BMatP= 3.72D-12
 IDIUse=1 WtCom= 1.00D+00 WtEn= 0.00D+00
 Coeff-Com: -0.126D-05-0.721D-05-0.164D-04-0.113D-08 0.999D-04 0.116D-03
 Coeff-Com: -0.195D-03-0.156D-03 0.309D-03 0.378D-03-0.339D-03-0.214D-02
 Coeff-Com:  0.234D-03 0.324D-02 0.239D-02-0.352D-02-0.280D-01-0.205D-02
 Coeff-Com:  0.182D+00 0.847D+00
 Coeff:     -0.126D-05-0.721D-05-0.164D-04-0.113D-08 0.999D-04 0.116D-03
 Coeff:     -0.195D-03-0.156D-03 0.309D-03 0.378D-03-0.339D-03-0.214D-02
 Coeff:      0.234D-03 0.324D-02 0.239D-02-0.352D-02-0.280D-01-0.205D-02
 Coeff:      0.182D+00 0.847D+00
 Gap=     0.081 Goal=   None    Shift=    0.000
 Gap=     0.093 Goal=   None    Shift=    0.000
 RMSDP=9.86D-09 MaxDP=1.06D-06 DE=-4.09D-12 OVMax= 1.28D-06

 Cycle  27  Pass 1  IDiag  1:
 RMSU=  3.50D-09    CP:  1.00D+00  1.56D+00  7.96D-01  1.12D+00  1.23D+00
                    CP:  1.08D+00
 E= -1721.52656830273     Delta-E=        0.000000000001 Rises=F Damp=F
 DIIS: error= 2.09D-09 at cycle  27 NSaved=  20.
 NSaved=20 IEnMin=17 EnMin= -1721.52656830273     IErMin=20 ErrMin= 2.09D-09
 ErrMax= 2.09D-09  0.00D+00 EMaxC= 1.00D-01 BMatC= 8.65D-15 BMatP= 2.47D-13
 IDIUse=1 WtCom= 1.00D+00 WtEn= 0.00D+00
 Coeff-Com:  0.565D-06 0.173D-05-0.124D-04-0.420D-04-0.210D-04 0.942D-04
 Coeff-Com: -0.383D-04-0.806D-04 0.680D-04 0.189D-03 0.231D-03-0.113D-02
 Coeff-Com:  0.260D-03 0.749D-03 0.781D-03-0.239D-02-0.302D-01-0.822D-02
 Coeff-Com:  0.280D+00 0.760D+00
 Coeff:      0.565D-06 0.173D-05-0.124D-04-0.420D-04-0.210D-04 0.942D-04
 Coeff:     -0.383D-04-0.806D-04 0.680D-04 0.189D-03 0.231D-03-0.113D-02
 Coeff:      0.260D-03 0.749D-03 0.781D-03-0.239D-02-0.302D-01-0.822D-02
 Coeff:      0.280D+00 0.760D+00
 Gap=     0.081 Goal=   None    Shift=    0.000
 Gap=     0.093 Goal=   None    Shift=    0.000
 RMSDP=3.57D-09 MaxDP=1.98D-07 DE= 1.36D-12 OVMax= 7.66D-07

 SCF Done:  E(UTPSSh) =  -1721.52656830     A.U. after   27 cycles
            NFock= 27  Conv=0.36D-08     -V/T= 2.0008
 <Sx>= 0.0000 <Sy>= 0.0000 <Sz>= 2.0000 <S**2>= 6.0057 S= 2.0011
 <L.S>=  0.00000000000    
 KE= 1.720101601604D+03 PE=-5.596538784946D+03 EE= 1.387122314820D+03
 Annihilation of the first spin contaminant:
 S**2 before annihilation     6.0057,   after     6.0000
 Leave Link  502 at Wed Mar  5 18:42:43 2025, MaxMem= 13421772800 cpu:            5776.3 elap:              50.3
 (Enter /gpfs/fs1/soft/improv/software/custom-built/gaussian/g16/l508.exe)
 QCSCF skips out because SCF is already converged.
 Leave Link  508 at Wed Mar  5 18:42:43 2025, MaxMem= 13421772800 cpu:               0.2 elap:               0.0
 (Enter /gpfs/fs1/soft/improv/software/custom-built/gaussian/g16/l801.exe)
 DoSCS=F DFT=T ScalE2(SS,OS)=  1.000000  1.000000
 Range of M.O.s used for correlation:     1   317
 NBasis=   317 NAE=    44 NBE=    40 NFC=     0 NFV=     0
 NROrb=    317 NOA=    44 NOB=    40 NVA=   273 NVB=   277

 **** Warning!!: The largest alpha MO coefficient is  0.19843611D+03


 **** Warning!!: The smallest alpha delta epsilon is  0.80656119D-01


 **** Warning!!: The largest beta MO coefficient is  0.22431929D+03


 **** Warning!!: The smallest beta delta epsilon is  0.92984163D-01

 Leave Link  801 at Wed Mar  5 18:42:43 2025, MaxMem= 13421772800 cpu:               0.4 elap:               0.0
 (Enter /gpfs/fs1/soft/improv/software/custom-built/gaussian/g16/l1101.exe)
 Using compressed storage, NAtomX=    19.
 Will process     20 centers per pass.
 Leave Link 1101 at Wed Mar  5 18:42:44 2025, MaxMem= 13421772800 cpu:              51.6 elap:               0.5
 (Enter /gpfs/fs1/soft/improv/software/custom-built/gaussian/g16/l1102.exe)
 Symmetrizing basis deriv contribution to polar:
 IMax=3 JMax=2 DiffMx= 0.00D+00
 Leave Link 1102 at Wed Mar  5 18:42:44 2025, MaxMem= 13421772800 cpu:               1.0 elap:               0.0
 (Enter /gpfs/fs1/soft/improv/software/custom-built/gaussian/g16/l1110.exe)
 Forming Gx(P) for the SCF density, NAtomX=    19.
 Integral derivatives from FoFJK, PRISM(SPDF).
 Do as many integral derivatives as possible in FoFJK.
 G2DrvN: MDV=   13421770631.
 G2DrvN: will do    20 centers at a time, making    1 passes.
 Calling FoFCou, ICntrl=  3107 FMM=F I1Cent=   0 AccDes= 0.00D+00.
 FoFJK:  IHMeth= 1 ICntrl=    3107 DoSepK=F KAlg= 0 I1Cent=           0 FoldK=F
 IRaf=         0 NMat=       1 IRICut=       1 DoRegI=T DoRafI=F ISym2E= 0 IDoP0=0 IntGTp=1.
 FoFCou: FMM=F IPFlag=           0 FMFlag=      100000 FMFlg1=           0
         NFxFlg=           0 DoJE=F BraDBF=F KetDBF=F FulRan=T
         wScrn=  0.000000 ICntrl=      3107 IOpCl=  1 I1Cent=           0 NGrid=           0
         NMat0=    1 NMatS0=      1 NMatT0=    0 NMatD0=    1 NMtDS0=    0 NMtDT0=    0
 Symmetry not used in FoFCou.
 End of G2Drv F.D. properties file   721 does not exist.
 End of G2Drv F.D. properties file   722 does not exist.
 End of G2Drv F.D. properties file   788 does not exist.
 Leave Link 1110 at Wed Mar  5 18:43:08 2025, MaxMem= 13421772800 cpu:            3075.1 elap:              24.4
 (Enter /gpfs/fs1/soft/improv/software/custom-built/gaussian/g16/l1002.exe)
 Minotr:  UHF open shell wavefunction.
          IDoAtm=1111111111111111111
          Direct CPHF calculation.
          Differentiating once with respect to electric field.
                with respect to dipole field.
          Differentiating once with respect to nuclear coordinates.
          Requested convergence is 1.0D-08 RMS, and 1.0D-07 maximum.
          Secondary convergence is 1.0D-12 RMS, and 1.0D-12 maximum.
          NewPWx=T KeepS1=F KeepF1=F KeepIn=T MapXYZ=F SortEE=F KeepMc=T.
         6034 words used for storage of precomputed grid.
 Two-electron integrals replicated using symmetry.
          MDV=   13421772800 using IRadAn=       1.
          Solving linear equations simultaneously, MaxMat=     384.
 FoF2E skips out because all densities are zero.
 CalDSu exits because no D1Ps are significant.
 FoFJK:  IHMeth= 1 ICntrl=       0 DoSepK=F KAlg= 0 I1Cent=           0 FoldK=F
 IRaf= 990000000 NMat=      57 IRICut=     142 DoRegI=T DoRafI=T ISym2E= 2 IDoP0=3 IntGTp=2.
 FoFCou: FMM=F IPFlag=           0 FMFlag=      100000 FMFlg1=           0
         NFxFlg=           0 DoJE=F BraDBF=F KetDBF=F FulRan=T
         wScrn=  0.000000 ICntrl=         0 IOpCl=  1 I1Cent=           0 NGrid=           0
         NMat0=   57 NMatS0=     57 NMatT0=    0 NMatD0=   57 NMtDS0=    0 NMtDT0=    0
 Integrals replicated using symmetry in FoFCou.
 Raff kept on since  98.43% of shell-pairs survive, threshold=   0.20 IRatSp=98.
          There are    60 degrees of freedom in the 1st order CPHF.  IDoFFX=6 NUNeed=     3.
     57 vectors produced by pass  0 Test12= 3.85D-14 1.67D-09 XBig12= 7.66D+01 1.73D+00.
 AX will form    57 AO Fock derivatives at one time.
     57 vectors produced by pass  1 Test12= 3.85D-14 1.67D-09 XBig12= 6.32D+00 3.15D-01.
     57 vectors produced by pass  2 Test12= 3.85D-14 1.67D-09 XBig12= 5.64D-02 3.36D-02.
     57 vectors produced by pass  3 Test12= 3.85D-14 1.67D-09 XBig12= 5.87D-04 2.62D-03.
     57 vectors produced by pass  4 Test12= 3.85D-14 1.67D-09 XBig12= 6.98D-06 2.24D-04.
     57 vectors produced by pass  5 Test12= 3.85D-14 1.67D-09 XBig12= 3.12D-08 1.39D-05.
     37 vectors produced by pass  6 Test12= 3.85D-14 1.67D-09 XBig12= 8.45D-11 6.76D-07.
      6 vectors produced by pass  7 Test12= 3.85D-14 1.67D-09 XBig12= 2.35D-13 3.89D-08.
      1 vectors produced by pass  8 Test12= 3.85D-14 1.67D-09 XBig12= 5.82D-16 1.90D-09.
 InvSVY:  IOpt=1 It=  1 EMax= 1.78D-15
 Solved reduced A of dimension   386 with    60 vectors.
 FullF1:  Do perturbations      1 to       3.
 Isotropic polarizability for W=    0.000000       55.48 Bohr**3.
 End of Minotr F.D. properties file   721 does not exist.
 End of Minotr F.D. properties file   722 does not exist.
 End of Minotr F.D. properties file   788 does not exist.
 Leave Link 1002 at Wed Mar  5 18:44:30 2025, MaxMem= 13421772800 cpu:            9917.1 elap:              81.1
 (Enter /gpfs/fs1/soft/improv/software/custom-built/gaussian/g16/l601.exe)
 Copying SCF densities to generalized density rwf, IOpCl= 1 IROHF=0.

 **********************************************************************

            Population analysis using the SCF Density.

 **********************************************************************

 Orbital symmetries:
 Alpha Orbitals:
       Occupied  (A) (A) (A) (A) (A) (A) (A) (A) (A) (A) (A) (A)
                 (A) (A) (A) (A) (A) (A) (A) (A) (A) (A) (A) (A)
                 (A) (A) (A) (A) (A) (A) (A) (A) (A) (A) (A) (A)
                 (A) (A) (A) (A) (A) (A) (A) (A)
       Virtual   (A) (A) (A) (A) (A) (A) (A) (A) (A) (A) (A) (A)
                 (A) (A) (A) (A) (A) (A) (A) (A) (A) (A) (A) (A)
                 (A) (A) (A) (A) (A) (A) (A) (A) (A) (A) (A) (A)
                 (A) (A) (A) (A) (A) (A) (A) (A) (A) (A) (A) (A)
                 (A) (A) (A) (A) (A) (A) (A) (A) (A) (A) (A) (A)
                 (A) (A) (A) (A) (A) (A) (A) (A) (A) (A) (A) (A)
                 (A) (A) (A) (A) (A) (A) (A) (A) (A) (A) (A) (A)
                 (A) (A) (A) (A) (A) (A) (A) (A) (A) (A) (A) (A)
                 (A) (A) (A) (A) (A) (A) (A) (A) (A) (A) (A) (A)
                 (A) (A) (A) (A) (A) (A) (A) (A) (A) (A) (A) (A)
                 (A) (A) (A) (A) (A) (A) (A) (A) (A) (A) (A) (A)
                 (A) (A) (A) (A) (A) (A) (A) (A) (A) (A) (A) (A)
                 (A) (A) (A) (A) (A) (A) (A) (A) (A) (A) (A) (A)
                 (A) (A) (A) (A) (A) (A) (A) (A) (A) (A) (A) (A)
                 (A) (A) (A) (A) (A) (A) (A) (A) (A) (A) (A) (A)
                 (A) (A) (A) (A) (A) (A) (A) (A) (A) (A) (A) (A)
                 (A) (A) (A) (A) (A) (A) (A) (A) (A) (A) (A) (A)
                 (A) (A) (A) (A) (A) (A) (A) (A) (A) (A) (A) (A)
                 (A) (A) (A) (A) (A) (A) (A) (A) (A) (A) (A) (A)
                 (A) (A) (A) (A) (A) (A) (A) (A) (A) (A) (A) (A)
                 (A) (A) (A) (A) (A) (A) (A) (A) (A) (A) (A) (A)
                 (A) (A) (A) (A) (A) (A) (A) (A) (A) (A) (A) (A)
                 (A) (A) (A) (A) (A) (A) (A) (A) (A)
 Beta  Orbitals:
       Occupied  (A) (A) (A) (A) (A) (A) (A) (A) (A) (A) (A) (A)
                 (A) (A) (A) (A) (A) (A) (A) (A) (A) (A) (A) (A)
                 (A) (A) (A) (A) (A) (A) (A) (A) (A) (A) (A) (A)
                 (A) (A) (A) (A)
       Virtual   (A) (A) (A) (A) (A) (A) (A) (A) (A) (A) (A) (A)
                 (A) (A) (A) (A) (A) (A) (A) (A) (A) (A) (A) (A)
                 (A) (A) (A) (A) (A) (A) (A) (A) (A) (A) (A) (A)
                 (A) (A) (A) (A) (A) (A) (A) (A) (A) (A) (A) (A)
                 (A) (A) (A) (A) (A) (A) (A) (A) (A) (A) (A) (A)
                 (A) (A) (A) (A) (A) (A) (A) (A) (A) (A) (A) (A)
                 (A) (A) (A) (A) (A) (A) (A) (A) (A) (A) (A) (A)
                 (A) (A) (A) (A) (A) (A) (A) (A) (A) (A) (A) (A)
                 (A) (A) (A) (A) (A) (A) (A) (A) (A) (A) (A) (A)
                 (A) (A) (A) (A) (A) (A) (A) (A) (A) (A) (A) (A)
                 (A) (A) (A) (A) (A) (A) (A) (A) (A) (A) (A) (A)
                 (A) (A) (A) (A) (A) (A) (A) (A) (A) (A) (A) (A)
                 (A) (A) (A) (A) (A) (A) (A) (A) (A) (A) (A) (A)
                 (A) (A) (A) (A) (A) (A) (A) (A) (A) (A) (A) (A)
                 (A) (A) (A) (A) (A) (A) (A) (A) (A) (A) (A) (A)
                 (A) (A) (A) (A) (A) (A) (A) (A) (A) (A) (A) (A)
                 (A) (A) (A) (A) (A) (A) (A) (A) (A) (A) (A) (A)
                 (A) (A) (A) (A) (A) (A) (A) (A) (A) (A) (A) (A)
                 (A) (A) (A) (A) (A) (A) (A) (A) (A) (A) (A) (A)
                 (A) (A) (A) (A) (A) (A) (A) (A) (A) (A) (A) (A)
                 (A) (A) (A) (A) (A) (A) (A) (A) (A) (A) (A) (A)
                 (A) (A) (A) (A) (A) (A) (A) (A) (A) (A) (A) (A)
                 (A) (A) (A) (A) (A) (A) (A) (A) (A) (A) (A) (A)
                 (A)
 The electronic state is 5-A.
 Alpha  occ. eigenvalues -- -256.11127 -30.19313 -26.04043 -26.02677 -26.00926
 Alpha  occ. eigenvalues --  -19.48099 -19.47825 -19.46933 -19.46490 -19.44287
 Alpha  occ. eigenvalues --  -19.43901  -3.78387  -2.59324  -2.56410  -2.52792
 Alpha  occ. eigenvalues --   -1.43492  -1.41119  -1.40586  -1.40026  -1.37942
 Alpha  occ. eigenvalues --   -1.37444  -0.95955  -0.94558  -0.92838  -0.92201
 Alpha  occ. eigenvalues --   -0.90250  -0.89040  -0.85195  -0.83497  -0.82767
 Alpha  occ. eigenvalues --   -0.79926  -0.79512  -0.76986  -0.76593  -0.73232
 Alpha  occ. eigenvalues --   -0.71999  -0.70596  -0.68914  -0.67701  -0.58827
 Alpha  occ. eigenvalues --   -0.57562  -0.53976  -0.46460  -0.45735
 Alpha virt. eigenvalues --   -0.37670  -0.32459  -0.30250  -0.29023  -0.25314
 Alpha virt. eigenvalues --   -0.24268  -0.23194  -0.22979  -0.20143  -0.18752
 Alpha virt. eigenvalues --   -0.18156  -0.17903  -0.16748  -0.15642  -0.14857
 Alpha virt. eigenvalues --   -0.14514  -0.13262  -0.12313  -0.12128  -0.11546
 Alpha virt. eigenvalues --   -0.09473  -0.09226  -0.07647  -0.07147  -0.06626
 Alpha virt. eigenvalues --   -0.06194  -0.04532  -0.02974  -0.02449  -0.02006
 Alpha virt. eigenvalues --   -0.01251  -0.00687   0.00447   0.01122   0.02613
 Alpha virt. eigenvalues --    0.04318   0.05091   0.06190   0.06411   0.07571
 Alpha virt. eigenvalues --    0.08435   0.08689   0.09258   0.10843   0.11070
 Alpha virt. eigenvalues --    0.14051   0.14960   0.18143   0.20034   0.25141
 Alpha virt. eigenvalues --    0.27027   0.27875   0.28476   0.40927   0.42369
 Alpha virt. eigenvalues --    0.43926   0.45678   0.48009   0.49261   0.51073
 Alpha virt. eigenvalues --    0.51824   0.52993   0.53314   0.54044   0.54373
 Alpha virt. eigenvalues --    0.56708   0.59019   0.59897   0.60560   0.61594
 Alpha virt. eigenvalues --    0.63511   0.64466   0.65394   0.66937   0.70859
 Alpha virt. eigenvalues --    0.71288   0.72340   0.72779   0.73960   0.74079
 Alpha virt. eigenvalues --    0.74757   0.77125   0.80010   0.80805   0.81667
 Alpha virt. eigenvalues --    0.82960   0.86806   0.88322   0.90577   0.93645
 Alpha virt. eigenvalues --    0.95441   0.97277   0.98699   1.00022   1.01315
 Alpha virt. eigenvalues --    1.02530   1.05659   1.06992   1.08630   1.10314
 Alpha virt. eigenvalues --    1.10666   1.12156   1.13599   1.29824   1.30460
 Alpha virt. eigenvalues --    1.38803   1.39473   1.41937   1.43003   1.45890
 Alpha virt. eigenvalues --    1.47271   1.48223   1.49349   1.53098   1.53807
 Alpha virt. eigenvalues --    1.58019   1.58781   1.60341   1.63342   1.65912
 Alpha virt. eigenvalues --    1.70734   1.76473   1.82387   1.90279   1.92287
 Alpha virt. eigenvalues --    1.94092   1.97631   1.97685   2.00928   2.06081
 Alpha virt. eigenvalues --    2.07909   2.08302   2.10909   2.11396   2.18522
 Alpha virt. eigenvalues --    2.20951   2.24070   2.27619   2.31207   2.34479
 Alpha virt. eigenvalues --    2.37403   2.37888   2.42668   2.47153   2.49776
 Alpha virt. eigenvalues --    2.51369   2.56210   2.58676   2.60487   2.61324
 Alpha virt. eigenvalues --    2.62491   2.63345   2.66156   2.66189   2.68804
 Alpha virt. eigenvalues --    2.69760   2.70525   2.73069   2.74406   2.74970
 Alpha virt. eigenvalues --    2.76399   2.77084   2.78689   2.80866   2.85129
 Alpha virt. eigenvalues --    2.89879   2.97961   3.00976   3.03033   3.04717
 Alpha virt. eigenvalues --    3.13661   3.36720   3.70062   3.71492   3.73425
 Alpha virt. eigenvalues --    3.77232   3.78738   3.84536   3.85753   3.87357
 Alpha virt. eigenvalues --    3.90877   3.92033   3.92518   3.93408   3.98033
 Alpha virt. eigenvalues --    3.98721   3.99538   4.00346   4.01841   4.05399
 Alpha virt. eigenvalues --    4.07823   4.08584   4.10979   4.12449   4.16200
 Alpha virt. eigenvalues --    4.17247   4.19139   4.19494   4.23097   4.25022
 Alpha virt. eigenvalues --    4.26128   4.31249   4.36543   4.39838   4.42208
 Alpha virt. eigenvalues --    4.45584   4.48046   4.49110   4.50722   4.52125
 Alpha virt. eigenvalues --    4.57997   4.64508   4.64658   4.66777   4.67922
 Alpha virt. eigenvalues --    4.70035   4.72240   4.76536   4.86497   4.91972
 Alpha virt. eigenvalues --    4.94243   4.94900   4.98227   5.01435   5.08168
 Alpha virt. eigenvalues --    5.11497   5.12627   5.13656   5.14470   5.16195
 Alpha virt. eigenvalues --    5.17732   5.18083   5.18741   5.20449   5.25938
 Alpha virt. eigenvalues --    5.26684   5.32948   5.34343   5.36100   5.37709
 Alpha virt. eigenvalues --    5.39511   5.43863   5.44969   5.46766   5.50478
 Alpha virt. eigenvalues --    5.53424   5.55685   5.57238   5.58516   5.60010
 Alpha virt. eigenvalues --    5.62749   5.63831   5.66043   5.66148   5.69002
 Alpha virt. eigenvalues --    5.72787   5.74937   5.87515   5.88690   6.29336
 Alpha virt. eigenvalues --    7.21193   7.24065   7.25139   7.32900   7.36070
 Alpha virt. eigenvalues --    7.50090  13.61223  13.63593  13.64421  14.19730
 Alpha virt. eigenvalues --   14.25348  14.30430  25.94391
  Beta  occ. eigenvalues -- -256.11046 -30.12771 -25.97822 -25.97151 -25.96249
  Beta  occ. eigenvalues --  -19.47862 -19.47586 -19.46702 -19.46278 -19.44019
  Beta  occ. eigenvalues --  -19.43634  -3.61180  -2.38920  -2.38633  -2.37944
  Beta  occ. eigenvalues --   -1.43035  -1.40672  -1.40113  -1.39580  -1.37427
  Beta  occ. eigenvalues --   -1.36915  -0.95665  -0.94100  -0.92571  -0.91870
  Beta  occ. eigenvalues --   -0.89937  -0.88757  -0.84173  -0.81484  -0.79963
  Beta  occ. eigenvalues --   -0.78790  -0.78334  -0.75468  -0.75419  -0.72129
  Beta  occ. eigenvalues --   -0.70626  -0.69289  -0.67720  -0.66806  -0.47471
  Beta virt. eigenvalues --   -0.38172  -0.37776  -0.36207  -0.32170  -0.30100
  Beta virt. eigenvalues --   -0.28847  -0.27165  -0.26078  -0.24193  -0.23095
  Beta virt. eigenvalues --   -0.22512  -0.21635  -0.19633  -0.18406  -0.17830
  Beta virt. eigenvalues --   -0.17615  -0.16361  -0.15384  -0.14570  -0.14118
  Beta virt. eigenvalues --   -0.12915  -0.11947  -0.11771  -0.10997  -0.09121
  Beta virt. eigenvalues --   -0.08895  -0.07192  -0.06867  -0.06271  -0.05848
  Beta virt. eigenvalues --   -0.04206  -0.02621  -0.01949  -0.01594  -0.00721
  Beta virt. eigenvalues --   -0.00293   0.00742   0.01509   0.03004   0.04696
  Beta virt. eigenvalues --    0.05619   0.06634   0.07127   0.08133   0.09309
  Beta virt. eigenvalues --    0.09576   0.10093   0.11615   0.11909   0.15686
  Beta virt. eigenvalues --    0.15992   0.20231   0.21400   0.26998   0.28109
  Beta virt. eigenvalues --    0.28476   0.29210   0.41376   0.42821   0.44477
  Beta virt. eigenvalues --    0.46453   0.48456   0.49600   0.51656   0.52454
  Beta virt. eigenvalues --    0.53454   0.53828   0.54566   0.55083   0.57007
  Beta virt. eigenvalues --    0.59442   0.60523   0.61204   0.62015   0.63861
  Beta virt. eigenvalues --    0.64831   0.65773   0.67296   0.71508   0.71807
  Beta virt. eigenvalues --    0.72989   0.73239   0.74444   0.74671   0.75299
  Beta virt. eigenvalues --    0.77753   0.80528   0.81340   0.82230   0.83442
  Beta virt. eigenvalues --    0.87562   0.88911   0.91740   0.94409   0.96492
  Beta virt. eigenvalues --    0.98279   1.00068   1.01159   1.02240   1.03524
  Beta virt. eigenvalues --    1.06216   1.08577   1.10260   1.11834   1.12331
  Beta virt. eigenvalues --    1.13551   1.15789   1.32870   1.33120   1.40801
  Beta virt. eigenvalues --    1.41628   1.43574   1.44435   1.48951   1.49801
  Beta virt. eigenvalues --    1.51142   1.52069   1.55762   1.56077   1.60623
  Beta virt. eigenvalues --    1.61554   1.64281   1.65756   1.68327   1.71576
  Beta virt. eigenvalues --    1.78501   1.83825   1.90711   1.92691   1.94704
  Beta virt. eigenvalues --    1.98048   1.98373   2.01546   2.06816   2.08719
  Beta virt. eigenvalues --    2.09417   2.11583   2.12003   2.19369   2.22498
  Beta virt. eigenvalues --    2.24562   2.28436   2.31850   2.36010   2.38708
  Beta virt. eigenvalues --    2.39230   2.44091   2.48663   2.51269   2.53019
  Beta virt. eigenvalues --    2.58127   2.60293   2.61878   2.63185   2.63828
  Beta virt. eigenvalues --    2.64369   2.66896   2.67310   2.69466   2.70810
  Beta virt. eigenvalues --    2.71383   2.74288   2.75658   2.77141   2.78596
  Beta virt. eigenvalues --    2.79159   2.80558   2.83174   2.86152   2.90559
  Beta virt. eigenvalues --    2.99344   3.01870   3.06446   3.08230   3.16465
  Beta virt. eigenvalues --    3.39989   3.72618   3.73252   3.75391   3.78181
  Beta virt. eigenvalues --    3.79536   3.85319   3.86709   3.88298   3.92178
  Beta virt. eigenvalues --    3.93503   3.94470   3.97683   4.00904   4.01370
  Beta virt. eigenvalues --    4.01687   4.03871   4.04983   4.06709   4.12520
  Beta virt. eigenvalues --    4.12660   4.14742   4.16569   4.18536   4.20593
  Beta virt. eigenvalues --    4.22058   4.23083   4.25273   4.26443   4.28331
  Beta virt. eigenvalues --    4.32669   4.45232   4.46371   4.46563   4.48294
  Beta virt. eigenvalues --    4.52431   4.53470   4.55382   4.56350   4.61286
  Beta virt. eigenvalues --    4.67172   4.67637   4.69823   4.71264   4.73843
  Beta virt. eigenvalues --    4.75015   4.81876   4.88021   4.94119   4.95646
  Beta virt. eigenvalues --    4.96593   4.99688   5.03097   5.10143   5.12299
  Beta virt. eigenvalues --    5.13394   5.14689   5.15050   5.17447   5.18513
  Beta virt. eigenvalues --    5.19564   5.21196   5.22871   5.28306   5.28959
  Beta virt. eigenvalues --    5.34893   5.36323   5.37829   5.39889   5.42653
  Beta virt. eigenvalues --    5.46616   5.47766   5.49211   5.52990   5.54977
  Beta virt. eigenvalues --    5.57314   5.59288   5.60643   5.61971   5.64264
  Beta virt. eigenvalues --    5.65741   5.68013   5.68252   5.70085   5.73729
  Beta virt. eigenvalues --    5.75939   5.89228   5.90241   6.32925   7.22281
  Beta virt. eigenvalues --    7.25124   7.26179   7.33781   7.36970   7.50758
  Beta virt. eigenvalues --   13.61718  13.64078  13.64897  14.20184  14.25841
  Beta virt. eigenvalues --   14.30901  26.03128
          Condensed to atoms (all electrons):
               1          2          3          4          5          6
     1  Fe  25.395168  -0.039503  -0.020846  -0.013294  -0.016616  -0.040748
     2  O   -0.039503   8.402020   0.315006  -0.087859   0.000575  -0.092998
     3  H   -0.020846   0.315006   0.278741   0.000823  -0.000013   0.004132
     4  O   -0.013294  -0.087859   0.000823   8.376687   0.308212  -0.100428
     5  H   -0.016616   0.000575  -0.000013   0.308212   0.304603   0.006090
     6  O   -0.040748  -0.092998   0.004132  -0.100428   0.006090   8.388316
     7  H   -0.023323   0.001381  -0.000008  -0.001985  -0.000395   0.305916
     8  O   -0.058733   0.070829  -0.001308  -0.099434   0.004193  -0.116127
     9  H   -0.015081  -0.001257  -0.000021   0.001609  -0.000104   0.001341
    10  O   -0.006324  -0.092416   0.004140   0.055926  -0.001647  -0.098574
    11  H   -0.019862   0.001723  -0.000694  -0.000835   0.000009  -0.000144
    12  O   -0.036737  -0.094259   0.005637  -0.083929   0.001881   0.072763
    13  H   -0.027689   0.004123  -0.000035   0.005642  -0.000085  -0.001218
    14  H   -0.011363   0.001094  -0.000181   0.001394  -0.000014  -0.001731
    15  H   -0.018806   0.001913  -0.000136   0.318226  -0.025436  -0.006002
    16  H   -0.016395   0.303735  -0.018143   0.002586  -0.000075   0.001302
    17  H   -0.022450   0.001316   0.000136  -0.001479  -0.000012   0.003279
    18  H   -0.022090   0.000240  -0.000083   0.010448  -0.001415   0.308276
    19  H   -0.021852  -0.001610   0.000020  -0.000759   0.000637   0.007725
               7          8          9         10         11         12
     1  Fe  -0.023323  -0.058733  -0.015081  -0.006324  -0.019862  -0.036737
     2  O    0.001381   0.070829  -0.001257  -0.092416   0.001723  -0.094259
     3  H   -0.000008  -0.001308  -0.000021   0.004140  -0.000694   0.005637
     4  O   -0.001985  -0.099434   0.001609   0.055926  -0.000835  -0.083929
     5  H   -0.000395   0.004193  -0.000104  -0.001647   0.000009   0.001881
     6  O    0.305916  -0.116127   0.001341  -0.098574  -0.000144   0.072763
     7  H    0.334740   0.006151  -0.001313   0.001544  -0.000276  -0.002104
     8  O    0.006151   8.391016   0.309742  -0.064580  -0.006357  -0.090378
     9  H   -0.001313   0.309742   0.298748   0.002719   0.001857  -0.000240
    10  O    0.001544  -0.064580   0.002719   8.361011   0.314449  -0.107733
    11  H   -0.000276  -0.006357   0.001857   0.314449   0.309833   0.002193
    12  O   -0.002104  -0.090378  -0.000240  -0.107733   0.002193   8.399615
    13  H    0.000030   0.003857  -0.000151   0.001815  -0.000387   0.317474
    14  H   -0.000066  -0.000317   0.001721   0.000679   0.004335   0.298084
    15  H   -0.000063  -0.000058  -0.000008  -0.000889   0.000013   0.001822
    16  H   -0.000443  -0.001510   0.000020   0.002656   0.000084   0.000627
    17  H    0.002269   0.003222  -0.001927   0.314333  -0.027779   0.000898
    18  H   -0.026349   0.000439   0.000147   0.001085   0.000020  -0.001511
    19  H    0.007465   0.306128  -0.022533  -0.001519  -0.000123   0.002014
              13         14         15         16         17         18
     1  Fe  -0.027689  -0.011363  -0.018806  -0.016395  -0.022450  -0.022090
     2  O    0.004123   0.001094   0.001913   0.303735   0.001316   0.000240
     3  H   -0.000035  -0.000181  -0.000136  -0.018143   0.000136  -0.000083
     4  O    0.005642   0.001394   0.318226   0.002586  -0.001479   0.010448
     5  H   -0.000085  -0.000014  -0.025436  -0.000075  -0.000012  -0.001415
     6  O   -0.001218  -0.001731  -0.006002   0.001302   0.003279   0.308276
     7  H    0.000030  -0.000066  -0.000063  -0.000443   0.002269  -0.026349
     8  O    0.003857  -0.000317  -0.000058  -0.001510   0.003222   0.000439
     9  H   -0.000151   0.001721  -0.000008   0.000020  -0.001927   0.000147
    10  O    0.001815   0.000679  -0.000889   0.002656   0.314333   0.001085
    11  H   -0.000387   0.004335   0.000013   0.000084  -0.027779   0.000020
    12  O    0.317474   0.298084   0.001822   0.000627   0.000898  -0.001511
    13  H    0.280929  -0.020912  -0.000533  -0.000130  -0.000005  -0.000041
    14  H   -0.020912   0.331294   0.000047   0.000013  -0.000305   0.000031
    15  H   -0.000533   0.000047   0.293995   0.001289   0.000003   0.001849
    16  H   -0.000130   0.000013   0.001289   0.310409  -0.000095   0.001142
    17  H   -0.000005  -0.000305   0.000003  -0.000095   0.306977  -0.000287
    18  H   -0.000041   0.000031   0.001849   0.001142  -0.000287   0.308608
    19  H    0.000016  -0.000443  -0.000135  -0.000059   0.000090  -0.001911
              19
     1  Fe  -0.021852
     2  O   -0.001610
     3  H    0.000020
     4  O   -0.000759
     5  H    0.000637
     6  O    0.007725
     7  H    0.007465
     8  O    0.306128
     9  H   -0.022533
    10  O   -0.001519
    11  H   -0.000123
    12  O    0.002014
    13  H    0.000016
    14  H   -0.000443
    15  H   -0.000135
    16  H   -0.000059
    17  H    0.000090
    18  H   -0.001911
    19  H    0.326048
          Atomic-Atomic Spin Densities.
               1          2          3          4          5          6
     1  Fe   4.144808  -0.077982  -0.000222  -0.073424  -0.003533  -0.116203
     2  O   -0.077982   0.276956  -0.012484  -0.037267   0.000074  -0.044467
     3  H   -0.000222  -0.012484   0.008697   0.000352   0.000015   0.002807
     4  O   -0.073424  -0.037267   0.000352   0.236490  -0.006830  -0.045072
     5  H   -0.003533   0.000074   0.000015  -0.006830   0.011903   0.004417
     6  O   -0.116203  -0.044467   0.002807  -0.045072   0.004417   0.307231
     7  H    0.009885   0.000862  -0.000061   0.002463  -0.000190  -0.017259
     8  O   -0.109565   0.053544  -0.001294  -0.043181   0.002531  -0.051335
     9  H    0.002532  -0.001022   0.000001   0.000767  -0.000151   0.000593
    10  O   -0.084449  -0.039397   0.002739   0.047586  -0.001176  -0.047535
    11  H    0.004765   0.001024   0.000163  -0.000808   0.000007   0.000794
    12  O   -0.081875  -0.063097   0.005128  -0.039446   0.001458   0.057600
    13  H    0.003662   0.003496  -0.000199   0.001365  -0.000151  -0.001241
    14  H    0.003578   0.001462  -0.000000   0.001698  -0.000018  -0.001007
    15  H    0.001534   0.003714  -0.000055  -0.005492  -0.000956   0.001171
    16  H    0.000762  -0.005953   0.001153   0.000949  -0.000045   0.003161
    17  H   -0.001340   0.001000  -0.000246  -0.000888  -0.000005   0.001557
    18  H    0.007081   0.000850   0.000029   0.002364   0.000403  -0.013375
    19  H    0.006396  -0.001521   0.000005   0.003088   0.000237   0.004945
               7          8          9         10         11         12
     1  Fe   0.009885  -0.109565   0.002532  -0.084449   0.004765  -0.081875
     2  O    0.000862   0.053544  -0.001022  -0.039397   0.001024  -0.063097
     3  H   -0.000061  -0.001294   0.000001   0.002739   0.000163   0.005128
     4  O    0.002463  -0.043181   0.000767   0.047586  -0.000808  -0.039446
     5  H   -0.000190   0.002531  -0.000151  -0.001176   0.000007   0.001458
     6  O   -0.017259  -0.051335   0.000593  -0.047535   0.000794   0.057600
     7  H   -0.001678   0.003693   0.000349   0.002887   0.000116  -0.001585
     8  O    0.003693   0.294014  -0.010512  -0.037983   0.001647  -0.051636
     9  H    0.000349  -0.010512   0.008931   0.004277  -0.000670   0.000774
    10  O    0.002887  -0.037983   0.004277   0.253550  -0.007077  -0.043478
    11  H    0.000116   0.001647  -0.000670  -0.007077  -0.000860   0.003289
    12  O   -0.001585  -0.051636   0.000774  -0.043478   0.003289   0.296598
    13  H   -0.000000   0.003226   0.000033   0.000446   0.000023  -0.013975
    14  H    0.000026   0.003307  -0.000588   0.001627  -0.001311  -0.008700
    15  H    0.000098   0.000675   0.000004  -0.000694  -0.000000   0.000596
    16  H    0.000043  -0.000787   0.000002   0.001717  -0.000059   0.000720
    17  H   -0.000547   0.003041   0.000710  -0.004924   0.000934  -0.000019
    18  H    0.004597   0.001634  -0.000085   0.000914  -0.000012  -0.001095
    19  H   -0.001733  -0.015966   0.002143   0.001352   0.000143   0.000984
              13         14         15         16         17         18
     1  Fe   0.003662   0.003578   0.001534   0.000762  -0.001340   0.007081
     2  O    0.003496   0.001462   0.003714  -0.005953   0.001000   0.000850
     3  H   -0.000199  -0.000000  -0.000055   0.001153  -0.000246   0.000029
     4  O    0.001365   0.001698  -0.005492   0.000949  -0.000888   0.002364
     5  H   -0.000151  -0.000018  -0.000956  -0.000045  -0.000005   0.000403
[...]
    13  H    0.296174  -0.014273  -0.000046  -0.000001  -0.000001   0.000001
    14  H   -0.014273   0.296181  -0.000003  -0.000001  -0.000041   0.000000
    15  H   -0.000046  -0.000003   0.300809  -0.000032   0.000000  -0.000041
    16  H   -0.000001  -0.000001  -0.000032   0.297066  -0.000003  -0.000044
    17  H   -0.000001  -0.000041   0.000000  -0.000003   0.300809  -0.000003
    18  H    0.000001   0.000000  -0.000041  -0.000044  -0.000003   0.296180
    19  H   -0.000003  -0.000003  -0.000001   0.000001  -0.000040  -0.000031
              19
     1  Fe   0.001127
     2  O   -0.000349
     3  H    0.000000
     4  O    0.000505
     5  H   -0.000040
     6  O    0.002158
     7  H   -0.000031
     8  O    0.293483
     9  H   -0.014061
    10  O    0.000497
    11  H   -0.000001
    12  O    0.000947
    13  H   -0.000003
    14  H   -0.000003
    15  H   -0.000001
    16  H    0.000001
    17  H   -0.000040
    18  H   -0.000031
    19  H    0.296933
          Atomic-Atomic Spin Densities.
               1          2          3          4          5          6
     1  Fe   4.143357  -0.045372   0.001895  -0.051684   0.002938  -0.056279
     2  O   -0.045372   0.101416  -0.004126  -0.010757   0.000230  -0.013791
     3  H    0.001895  -0.004126   0.003371   0.000384  -0.000001   0.000233
     4  O   -0.051684  -0.010757   0.000384   0.111696  -0.005341  -0.013005
     5  H    0.002938   0.000230  -0.000001  -0.005341   0.002765   0.000522
     6  O   -0.056279  -0.013791   0.000233  -0.013005   0.000522   0.125670
     7  H    0.002707   0.000587  -0.000002   0.000243  -0.000001  -0.005188
     8  O   -0.045373   0.009236  -0.000132  -0.010772   0.000624  -0.013113
     9  H    0.001708  -0.000131   0.000000   0.000453  -0.000022   0.000208
    10  O   -0.051678  -0.010770   0.000385   0.010118  -0.000136  -0.013009
    11  H    0.002938   0.000624  -0.000020  -0.000136   0.000000   0.000465
    12  O   -0.056279  -0.013112   0.000835  -0.013008   0.000465   0.011361
    13  H    0.002708   0.000420  -0.000020   0.000704  -0.000013  -0.000159
    14  H    0.002704   0.000420  -0.000019   0.000243  -0.000001  -0.000159
    15  H    0.002941   0.000620  -0.000020  -0.005339   0.000888   0.000465
    16  H    0.001708  -0.004174   0.000617   0.000449  -0.000002   0.000986
    17  H    0.002940   0.000231  -0.000001  -0.000136   0.000000   0.000522
    18  H    0.002704   0.000589  -0.000002   0.000703  -0.000041  -0.005188
    19  H    0.001895  -0.000132   0.000000   0.000385  -0.000020   0.000835
               7          8          9         10         11         12
     1  Fe   0.002707  -0.045373   0.001708  -0.051678   0.002938  -0.056279
     2  O    0.000587   0.009236  -0.000131  -0.010770   0.000624  -0.013112
     3  H   -0.000002  -0.000132   0.000000   0.000385  -0.000020   0.000835
     4  O    0.000243  -0.010772   0.000453   0.010118  -0.000136  -0.013008
     5  H   -0.000001   0.000624  -0.000022  -0.000136   0.000000   0.000465
     6  O   -0.005188  -0.013113   0.000208  -0.013009   0.000465   0.011361
     7  H    0.002621   0.000420  -0.000001   0.000705  -0.000013  -0.000159
     8  O    0.000420   0.101417  -0.004174  -0.010754   0.000230  -0.013792
     9  H   -0.000001  -0.004174   0.003728   0.000449  -0.000002   0.000986
    10  O    0.000705  -0.010754   0.000449   0.111681  -0.005340  -0.013005
    11  H   -0.000013   0.000230  -0.000002  -0.005340   0.002765   0.000522
    12  O   -0.000159  -0.013792   0.000986  -0.013005   0.000522   0.125672
    13  H    0.000000   0.000586  -0.000027   0.000243  -0.000001  -0.005189
    14  H    0.000000   0.000589  -0.000028   0.000703  -0.000041  -0.005188
    15  H   -0.000001   0.000231  -0.000002  -0.000136   0.000000   0.000522
    16  H   -0.000027  -0.000131   0.000000   0.000453  -0.000022   0.000208
    17  H   -0.000041   0.000620  -0.000021  -0.005338   0.000888   0.000465
    18  H    0.000841   0.000420  -0.000001   0.000243  -0.000001  -0.000159
    19  H   -0.000020  -0.004126   0.000617   0.000384  -0.000001   0.000233
              13         14         15         16         17         18
     1  Fe   0.002708   0.002704   0.002941   0.001708   0.002940   0.002704
     2  O    0.000420   0.000420   0.000620  -0.004174   0.000231   0.000589
     3  H   -0.000020  -0.000019  -0.000020   0.000617  -0.000001  -0.000002
     4  O    0.000704   0.000243  -0.005339   0.000449  -0.000136   0.000703
     5  H   -0.000013  -0.000001   0.000888  -0.000002   0.000000  -0.000041
     6  O   -0.000159  -0.000159   0.000465   0.000986   0.000522  -0.005188
     7  H    0.000000   0.000000  -0.000001  -0.000027  -0.000041   0.000841
     8  O    0.000586   0.000589   0.000231  -0.000131   0.000620   0.000420
     9  H   -0.000027  -0.000028  -0.000002   0.000000  -0.000021  -0.000001
    10  O    0.000243   0.000703  -0.000136   0.000453  -0.005338   0.000243
    11  H   -0.000001  -0.000041   0.000000  -0.000022   0.000888  -0.000001
    12  O   -0.005189  -0.005188   0.000522   0.000208   0.000465  -0.000159
    13  H    0.002621   0.000841  -0.000041  -0.000001  -0.000001   0.000000
    14  H    0.000841   0.002621  -0.000001  -0.000001  -0.000013   0.000000
    15  H   -0.000041  -0.000001   0.002776  -0.000021   0.000000  -0.000013
    16  H   -0.000001  -0.000001  -0.000021   0.003728  -0.000002  -0.000028
    17  H   -0.000001  -0.000013   0.000000  -0.000002   0.002777  -0.000001
    18  H    0.000000   0.000000  -0.000013  -0.000028  -0.000001   0.002622
    19  H   -0.000002  -0.000002  -0.000001   0.000000  -0.000020  -0.000019
              19
     1  Fe   0.001895
     2  O   -0.000132
     3  H    0.000000
     4  O    0.000385
     5  H   -0.000020
     6  O    0.000835
     7  H   -0.000020
     8  O   -0.004126
     9  H    0.000617
    10  O    0.000384
    11  H   -0.000001
    12  O    0.000233
    13  H   -0.000002
    14  H   -0.000002
    15  H   -0.000001
    16  H    0.000000
    17  H   -0.000020
    18  H   -0.000019
    19  H    0.003371
 Mulliken charges and spin densities:
               1          2
     1  Fe   1.091458   3.866476
     2  O   -0.687341   0.012007
     3  H    0.418909   0.003376
     4  O   -0.682618   0.015202
     5  H    0.415519   0.002855
     6  O   -0.687129   0.021377
     7  H    0.420713   0.002670
     8  O   -0.687336   0.012008
     9  H    0.419828   0.003740
    10  O   -0.682633   0.015198
    11  H    0.415520   0.002856
    12  O   -0.687126   0.021378
    13  H    0.420713   0.002670
    14  H    0.420740   0.002668
    15  H    0.415648   0.002867
    16  H    0.419834   0.003740
    17  H    0.415651   0.002867
    18  H    0.420741   0.002669
    19  H    0.418908   0.003376
 Sum of Mulliken charges =   2.00000   4.00000
 Mulliken charges and spin densities with hydrogens summed into heavy atoms:
               1          2
     1  Fe   1.091458   3.866476
     2  O    0.151401   0.019123
     4  O    0.148549   0.020924
     6  O    0.154326   0.026716
     8  O    0.151400   0.019123
    10  O    0.148538   0.020921
    12  O    0.154327   0.026716
 Electronic spatial extent (au):  <R**2>=           1156.5056
 Charge=              2.0000 electrons
 Dipole moment (field-independent basis, Debye):
    X=             -0.0004    Y=              0.0013    Z=             -0.0002  Tot=              0.0014
 Quadrupole moment (field-independent basis, Debye-Ang):
   XX=            -15.6730   YY=            -16.0066   ZZ=            -15.2007
   XY=              0.1907   XZ=             -0.1643   YZ=             -0.0736
 Traceless Quadrupole moment (field-independent basis, Debye-Ang):
   XX=             -0.0462   YY=             -0.3799   ZZ=              0.4261
   XY=              0.1907   XZ=             -0.1643   YZ=             -0.0736
 Octapole moment (field-independent basis, Debye-Ang**2):
  XXX=             -0.0090  YYY=              0.0081  ZZZ=             -0.0008  XYY=              0.0057
  XXY=              0.0037  XXZ=             -0.0009  XZZ=             -0.0013  YZZ=              0.0017
  YYZ=             -0.0001  XYZ=              0.0010
 Hexadecapole moment (field-independent basis, Debye-Ang**3):
 XXXX=           -236.0204 YYYY=           -196.7288 ZZZZ=           -192.5436 XXXY=             38.2045
 XXXZ=             33.5309 YYYX=            -62.0693 YYYZ=              7.4482 ZZZX=            -41.2943
 ZZZY=            -19.3658 XXYY=            -58.2959 XXZZ=            -45.0558 YYZZ=            -84.8670
 XXYZ=             12.4805 YYXZ=              8.8746 ZZXY=             24.6459
 N-N= 6.572198653794D+02 E-N=-5.376169156986D+03  KE= 1.717568903957D+03
                          Isotropic Fermi Contact Couplings
        Atom                 a.u.       MegaHertz       Gauss      10(-4) cm-1
     1  Fe(57)             0.23522       8.52902       3.04337       2.84497
     2  O(17)              0.09079     -13.75852      -4.90938      -4.58935
     3  H(1)               0.00159       1.77657       0.63392       0.59260
     4  O(17)              0.09255     -14.02547      -5.00464      -4.67839
     5  H(1)               0.00104       1.16636       0.41619       0.38906
     6  O(17)              0.09502     -14.40034      -5.13840      -4.80344
     7  H(1)               0.00100       1.11751       0.39876       0.37276
     8  O(17)              0.09079     -13.75838      -4.90933      -4.58930
     9  H(1)               0.00173       1.93572       0.69071       0.64569
    10  O(17)              0.09254     -14.02464      -5.00434      -4.67812
    11  H(1)               0.00104       1.16671       0.41631       0.38917
    12  O(17)              0.09502     -14.40034      -5.13840      -4.80343
    13  H(1)               0.00100       1.11770       0.39882       0.37283
    14  H(1)               0.00100       1.11690       0.39854       0.37256
    15  H(1)               0.00105       1.17567       0.41951       0.39216
    16  H(1)               0.00173       1.93579       0.69074       0.64571
    17  H(1)               0.00105       1.17603       0.41964       0.39228
    18  H(1)               0.00100       1.11712       0.39862       0.37263
    19  H(1)               0.00159       1.77647       0.63389       0.59257
 --------------------------------------------------------
       Center         ----  Spin Dipole Couplings  ----
                      3XX-RR        3YY-RR        3ZZ-RR
 --------------------------------------------------------
     1   Atom        1.749663     -0.604977     -1.144686
     2   Atom        0.070951     -0.023591     -0.047360
     3   Atom        0.005268     -0.020494      0.015226
     4   Atom       -0.028567      0.108534     -0.079966
     5   Atom        0.002858      0.019205     -0.022063
     6   Atom       -0.014821     -0.099764      0.114585
     7   Atom       -0.003214     -0.024962      0.028176
     8   Atom        0.070893     -0.023535     -0.047358
     9   Atom        0.036018     -0.013809     -0.022209
    10   Atom       -0.028581      0.108537     -0.079956
    11   Atom        0.002867      0.019200     -0.022067
    12   Atom       -0.014810     -0.099778      0.114588
    13   Atom       -0.003220     -0.024961      0.028181
    14   Atom       -0.021963     -0.006224      0.028188
    15   Atom       -0.022045      0.044188     -0.022144
    16   Atom        0.035997     -0.013788     -0.022209
    17   Atom       -0.022044      0.044190     -0.022147
    18   Atom       -0.021964     -0.006228      0.028192
    19   Atom        0.005260     -0.020488      0.015228
 --------------------------------------------------------
                        XY            XZ            YZ
 --------------------------------------------------------
     1   Atom        1.433220     -0.662054     -0.334623
     2   Atom        0.058527      0.096774      0.045830
     3   Atom        0.015980      0.034400      0.016490
     4   Atom       -0.084907     -0.025640     -0.012278
     5   Atom       -0.035555      0.011308     -0.011295
     6   Atom        0.051823     -0.053822     -0.025453
     7   Atom       -0.005847     -0.037344      0.006100
     8   Atom        0.058573      0.096781      0.045822
     9   Atom        0.030487      0.011093      0.005285
    10   Atom       -0.084919     -0.025624     -0.012281
    11   Atom       -0.035558      0.011306     -0.011290
    12   Atom        0.051813     -0.053811     -0.025470
    13   Atom       -0.005846     -0.037341      0.006102
    14   Atom        0.009505     -0.018941     -0.032749
    15   Atom       -0.015341     -0.001614      0.015724
    16   Atom        0.030503      0.011092      0.005284
    17   Atom       -0.015340     -0.001612      0.015718
    18   Atom        0.009501     -0.018938     -0.032746
    19   Atom        0.015985      0.034396      0.016500
 --------------------------------------------------------


 ---------------------------------------------------------------------------------
              Anisotropic Spin Dipole Couplings in Principal Axis System
 ---------------------------------------------------------------------------------

       Atom             a.u.   MegaHertz   Gauss  10(-4) cm-1        Axes

              Baa    -1.3074   -22.634    -8.076    -7.550 -0.1216  0.6182  0.7766
     1 Fe(57) Bbb    -1.2676   -21.946    -7.831    -7.320 -0.4470  0.6644 -0.5989
              Bcc     2.5750    44.580    15.907    14.870  0.8862  0.4200 -0.1955
 
              Baa    -0.1039     7.518     2.683     2.508 -0.4239 -0.1957  0.8843
     2 O(17)  Bbb    -0.0516     3.730     1.331     1.244 -0.4278  0.9038 -0.0051
              Bcc     0.1554   -11.248    -4.014    -3.752  0.7983  0.3805  0.4669
 
              Baa    -0.0281   -15.013    -5.357    -5.008 -0.4282  0.9037 -0.0039
     3 H(1)   Bbb    -0.0241   -12.857    -4.588    -4.289 -0.6498 -0.3049  0.6963
              Bcc     0.0522    27.870     9.945     9.296  0.6280  0.3007  0.7177
 
              Baa    -0.1035     7.489     2.672     2.498  0.5752  0.2750  0.7704
     4 O(17)  Bbb    -0.0456     3.301     1.178     1.101  0.6951  0.3321 -0.6376
              Bcc     0.1491   -10.789    -3.850    -3.599 -0.4312  0.9023 -0.0001
 
              Baa    -0.0273   -14.542    -5.189    -4.851 -0.6406 -0.3206  0.6978
     5 H(1)   Bbb    -0.0237   -12.653    -4.515    -4.221  0.4630  0.5636  0.6841
              Bcc     0.0510    27.194     9.704     9.071 -0.6126  0.7613 -0.2126
 
              Baa    -0.1243     8.994     3.209     3.000 -0.4279  0.9038 -0.0001
     6 O(17)  Bbb    -0.0172     1.244     0.444     0.415  0.8236  0.3900  0.4117
              Bcc     0.1415   -10.238    -3.653    -3.415 -0.3722 -0.1761  0.9113
 
              Baa    -0.0288   -15.355    -5.479    -5.122  0.7686  0.4488  0.4559
     7 H(1)   Bbb    -0.0251   -13.386    -4.777    -4.465 -0.3234  0.8874 -0.3284
              Bcc     0.0539    28.741    10.256     9.587 -0.5520  0.1050  0.8272
 
              Baa    -0.1039     7.518     2.683     2.508 -0.4243 -0.1950  0.8843
     8 O(17)  Bbb    -0.0516     3.730     1.331     1.244 -0.4277  0.9039 -0.0059
              Bcc     0.1554   -11.248    -4.014    -3.752  0.7981  0.3807  0.4669
 
              Baa    -0.0283   -15.082    -5.382    -5.031 -0.4277  0.9039 -0.0053
     9 H(1)   Bbb    -0.0242   -12.928    -4.613    -4.312 -0.1489 -0.0647  0.9867
              Bcc     0.0525    28.010     9.995     9.343  0.8915  0.4229  0.1623
 
              Baa    -0.1035     7.488     2.672     2.498  0.5754  0.2751  0.7703
    10 O(17)  Bbb    -0.0456     3.302     1.178     1.101  0.6950  0.3320 -0.6377
              Bcc     0.1491   -10.790    -3.850    -3.599 -0.4312  0.9023 -0.0001
 
              Baa    -0.0273   -14.542    -5.189    -4.851 -0.6403 -0.3205  0.6980
    11 H(1)   Bbb    -0.0237   -12.653    -4.515    -4.221  0.4633  0.5637  0.6838
              Bcc     0.0510    27.195     9.704     9.071 -0.6127  0.7612 -0.2125
 
              Baa    -0.1243     8.994     3.209     3.000 -0.4277  0.9039  0.0000
    12 O(17)  Bbb    -0.0172     1.244     0.444     0.415  0.8237  0.3898  0.4117
              Bcc     0.1415   -10.238    -3.653    -3.415 -0.3721 -0.1761  0.9113
 
              Baa    -0.0288   -15.354    -5.479    -5.122  0.7687  0.4486  0.4559
    13 H(1)   Bbb    -0.0251   -13.386    -4.776    -4.465 -0.3233  0.8875 -0.3283
              Bcc     0.0539    28.740    10.255     9.587 -0.5519  0.1050  0.8273
 
              Baa    -0.0288   -15.353    -5.479    -5.121  0.8343  0.3102  0.4558
    14 H(1)   Bbb    -0.0251   -13.386    -4.776    -4.465 -0.4815  0.8126  0.3283
              Bcc     0.0539    28.739    10.255     9.586 -0.2685 -0.4934  0.8273
 
              Baa    -0.0272   -14.534    -5.186    -4.848 -0.6500 -0.2939  0.7008
    15 H(1)   Bbb    -0.0237   -12.647    -4.513    -4.219  0.7316  0.0074  0.6817
              Bcc     0.0509    27.182     9.699     9.067 -0.2055  0.9558  0.2102
 
              Baa    -0.0283   -15.082    -5.382    -5.031 -0.4282  0.9037 -0.0041
    16 H(1)   Bbb    -0.0242   -12.928    -4.613    -4.312 -0.1484 -0.0658  0.9867
              Bcc     0.0525    28.009     9.994     9.343  0.8914  0.4232  0.1623
 
              Baa    -0.0272   -14.534    -5.186    -4.848 -0.6499 -0.2938  0.7010
    17 H(1)   Bbb    -0.0237   -12.647    -4.513    -4.219  0.7317  0.0075  0.6816
              Bcc     0.0509    27.181     9.699     9.067 -0.2055  0.9558  0.2101
 
              Baa    -0.0288   -15.353    -5.478    -5.121  0.8342  0.3104  0.4558
    18 H(1)   Bbb    -0.0251   -13.385    -4.776    -4.465 -0.4817  0.8126  0.3282
              Bcc     0.0539    28.738    10.255     9.586 -0.2685 -0.4933  0.8274
 
              Baa    -0.0281   -15.014    -5.357    -5.008 -0.4282  0.9037 -0.0042
    19 H(1)   Bbb    -0.0241   -12.857    -4.588    -4.289 -0.6499 -0.3046  0.6963
              Bcc     0.0522    27.870     9.945     9.297  0.6279  0.3009  0.7178
 

 ---------------------------------------------------------------------------------

 No NMR shielding tensors so no spin-rotation constants.
 Leave Link  601 at Wed Mar  5 21:00:36 2025, MaxMem= 13421772800 cpu:              29.6 elap:               0.4
 (Enter /gpfs/fs1/soft/improv/software/custom-built/gaussian/g16/l9999.exe)

 Test job not archived.
 1\1\GINC-I285\SP\UTPSSh\Gen\Fe1H12O6(2+,5)\HHARB\05-Mar-2025\0\\#p TPS
 SH scrf=(cpcm,solvent=water) geom=allcheck guess=read chkbasis IOp(3/1
 74=1000000) IOp(3/175=1219000) IOp(3/176=1223000)\\Title\\2,5\Fe,-0.78
 48166169,0.712935191,0.0317831318\O,-1.353002262,2.7550248679,-0.27726
 04976\H,-1.4629557274,3.192495818,-1.1350026843\O,1.2850047271,1.29042
 79913,0.0550614642\H,2.0311055626,0.7534710214,0.3618827162\O,-0.90052
 38499,1.0395921249,2.1148033565\H,-1.6937432631,0.9548858383,2.6659054
 224\O,-0.2167833514,-1.3291874043,0.3408448847\H,-0.0208187828,-1.9885
 730811,-0.3417048578\O,-2.8546610779,0.1354831326,0.008491063\H,-3.600
 7614279,0.6725915116,-0.2980631944\O,-0.6691355027,0.3862836667,-2.051
 2338068\H,0.1240079222,0.4711508072,-2.6024157022\H,-1.3779524166,0.04
 78650552,-2.6197016986\H,1.651902898,2.1387775449,-0.2361660769\H,-1.5
 480388013,3.4146666877,0.4053437518\H,-3.2215771932,-0.7129257974,0.29
 95231764\H,-0.1916781164,1.3778178923,2.6833547051\H,-0.1070902902,-1.
 7667030983,1.1986002565\\Version=ES64L-G16RevC.02\State=5-A\HF=-1722.0
 513223\S2=6.003809\S2-1=0.\S2A=6.000005\RMSD=2.465e-09\Dipole=0.000502
 ,0.0001911,0.0000973\Quadrupole=-0.3198816,-0.0485667,0.3684483,-0.089
 1307,-0.0169682,0.0143339\PG=C01 [X(Fe1H12O6)]\\@


 GOD DOES NOT PLAY WITH DICE.
               -- A. EINSTEIN
 Job cpu time:       0 days  1 hours 16 minutes 26.9 seconds.
 Elapsed time:       0 days  0 hours  0 minutes 40.9 seconds.
 File lengths (MBytes):  RWF=    120 Int=      0 D2E=      0 Chk=    268 Scr=      1
 Normal termination of Gaussian 16 at Wed Mar  5 21:00:36 2025.
