 Entering Gaussian System, Link 0=g16
 Input=Fe_2_B97D_secondrun.com
 Output=Fe_2_B97D_secondrun.log
 Initial command:
 /gpfs/fs1/soft/improv/software/custom-built/gaussian/g16/l1.exe "/scratch/Gau-3559848.inp" -scrdir="/scratch/"
 Default CPUs for threads: 0-127
 Default linda workers: i066.lcrc.anl.gov
 Default is to use 128 SMP processors on each worker.
 Entering Link 1 = /gpfs/fs1/soft/improv/software/custom-built/gaussian/g16/l1.exe PID=   3559849.
  
 Copyright (c) 1988-2021, Gaussian, Inc.  All Rights Reserved.
  
 This is part of the Gaussian(R) 16 program.  It is based on
 the Gaussian(R) 09 system (copyright 2009, Gaussian, Inc.),
 the Gaussian(R) 03 system (copyright 2003, Gaussian, Inc.),
 the Gaussian(R) 98 system (copyright 1998, Gaussian, Inc.),
 the Gaussian(R) 94 system (copyright 1995, Gaussian, Inc.),
 the Gaussian 92(TM) system (copyright 1992, Gaussian, Inc.),
 the Gaussian 90(TM) system (copyright 1990, Gaussian, Inc.),
 the Gaussian 88(TM) system (copyright 1988, Gaussian, Inc.),
 the Gaussian 86(TM) system (copyright 1986, Carnegie Mellon
 University), and the Gaussian 82(TM) system (copyright 1983,
 Carnegie Mellon University). Gaussian is a federally registered
 trademark of Gaussian, Inc.
  
 This software contains proprietary and confidential information,
 including trade secrets, belonging to Gaussian, Inc.
  
 This software is provided under written license and may be
 used, copied, transmitted, or stored only in accord with that
 written license.
  
 The following legend is applicable only to US Government
 contracts under FAR:
  
                    RESTRICTED RIGHTS LEGEND
  
 Use, reproduction and disclosure by the US Government is
 subject to restrictions as set forth in subparagraphs (a)
 and (c) of the Commercial Computer Software - Restricted
 Rights clause in FAR 52.227-19.
  
 Gaussian, Inc.
 340 Quinnipiac St., Bldg. 40, Wallingford CT 06492
  
  
 ---------------------------------------------------------------
 Warning -- This program may not be used in any manner that
 competes with the business of Gaussian, Inc. or will provide
 assistance to any competitor of Gaussian, Inc.  The licensee
 of this program is prohibited from giving any competitor of
 Gaussian, Inc. access to this program.  By using this program,
 the user acknowledges that Gaussian, Inc. is engaged in the
 business of creating and licensing software in the field of
 computational chemistry and represents and warrants to the
 licensee that it is not a competitor of Gaussian, Inc. and that
 it will not use this program in any manner prohibited above.
 ---------------------------------------------------------------
  

 Cite this work as:
 Gaussian 16, Revision C.02,
 M. J. Frisch, G. W. Trucks, H. B. Schlegel, G. E. Scuseria, 
 M. A. Robb, J. R. Cheeseman, G. Scalmani, V. Barone, 
 G. A. Petersson, H. Nakatsuji, X. Li, M. Caricato, A. V. Marenich, 
 J. Bloino, B. G. Janesko, R. Gomperts, B. Mennucci, H. P. Hratchian, 
 J. V. Ortiz, A. F. Izmaylov, J. L. Sonnenberg, D. Williams-Young, 
 F. Ding, F. Lipparini, F. Egidi, J. Goings, B. Peng, A. Petrone, 
 T. Henderson, D. Ranasinghe, V. G. Zakrzewski, J. Gao, N. Rega, 
 G. Zheng, W. Liang, M. Hada, M. Ehara, K. Toyota, R. Fukuda, 
 J. Hasegawa, M. Ishida, T. Nakajima, Y. Honda, O. Kitao, H. Nakai, 
 T. Vreven, K. Throssell, J. A. Montgomery, Jr., J. E. Peralta, 
 F. Ogliaro, M. J. Bearpark, J. J. Heyd, E. N. Brothers, K. N. Kudin, 
 V. N. Staroverov, T. A. Keith, R. Kobayashi, J. Normand, 
 K. Raghavachari, A. P. Rendell, J. C. Burant, S. S. Iyengar, 
 J. Tomasi, M. Cossi, J. M. Millam, M. Klene, C. Adamo, R. Cammi, 
 J. W. Ochterski, R. L. Martin, K. Morokuma, O. Farkas, 
 J. B. Foresman, and D. J. Fox, Gaussian, Inc., Wallingford CT, 2019.
 
 ******************************************
 Gaussian 16:  ES64L-G16RevC.02  7-Dec-2021
                 6-Mar-2025 
 ******************************************
 %chk=Fe_2_B97D.chk
 SetSPE:  set environment variable "OMP_PROC_BIND" = "true"
 SetSPE:  set environment variable "OMP_PLACES" = "{0},{1},{2},{3},{4},{5},{6},{7},{8},{9},{10},{11},{12},{13},{14},{15},{16},{17},{18},{19},{20},{21},{22},{23},{24},{25},{26},{27},{28},{29},{30},{31},{32},{33},{34},{35},{36},{37},{38},{39},{40},{41},{42},{43},{44},{45},{46},{47},{48},{49},{50},{51},{52},{53},{54},{55},{56},{57},{58},{59},{60},{61},{62},{63},{64},{65},{66},{67},{68},{69},{70},{71},{72},{73},{74},{75},{76},{77},{78},{79},{80},{81},{82},{83},{84},{85},{86},{87},{88},{89},{90},{91},{92},{93},{94},{95},{96},{97},{98},{99},{100},{101},{102},{103},{104},{105},{106},{107},{108},{109},{110},{111},{112},{113},{114},{115},{116},{117},{118},{119},{120},{121},{122},{123},{124},{125},{126},{127}"
 SetLPE:    new flags="-opt 'Tsnet.Node.lindarsharg: ssh'  -nodelist 'i066.lcrc.anl.gov' -env GAUSS_MDEF=13421772800 -env GAUSS_EXEDIR="/gpfs/fs1/soft/improv/software/custom-built/gaussian/g16/bsd:/gpfs/fs1/soft/improv/software/custom-built/gaussian/g16" -env "OMP_PROC_BIND=true" -env "OMP_PLACES={0},{1},{2},{3},{4},{5},{6},{7},{8},{9},{10},{11},{12},{13},{14},{15},{16},{17},{18},{19},{20},{21},{22},{23},{24},{25},{26},{27},{28},{29},{30},{31},{32},{33},{34},{35},{36},{37},{38},{39},{40},{41},{42},{43},{44},{45},{46},{47},{48},{49},{50},{51},{52},{53},{54},{55},{56},{57},{58},{59},{60},{61},{62},{63},{64},{65},{66},{67},{68},{69},{70},{71},{72},{73},{74},{75},{76},{77},{78},{79},{80},{81},{82},{83},{84},{85},{86},{87},{88},{89},{90},{91},{92},{93},{94},{95},{96},{97},{98},{99},{100},{101},{102},{103},{104},{105},{106},{107},{108},{109},{110},{111},{112},{113},{114},{115},{116},{117},{118},{119},{120},{121},{122},{123},{124},{125},{126},{127}" -env GAUSS_ADEF="0,1,2,3,4,5,6,7,8,9,10,11,12,13,14,15,16,17,18,19,20,21,22,23,24,25,26,27,28,29,30,31,32,33,34,35,36,37,38,39,40,41,42,43,44,45,46,47,48,49,50,51,52,53,54,55,56,57,58,59,60,61,62,63,64,65,66,67,68,69,70,71,72,73,74,75,76,77,78,79,80,81,82,83,84,85,86,87,88,89,90,91,92,93,94,95,96,97,98,99,100,101,102,103,104,105,106,107,108,109,110,111,112,113,114,115,116,117,118,119,120,121,122,123,124,125,126,127""
 Will use up to    1 processors via Linda.
 ----------------------------------------------------------------------
 #p B97D geom=allcheck guess=read chkbasis opt=(loose,cartesian,calcall
 ,maxcycles=500) freq scf=(maxcycles=500,xqc,maxconventional=50) IOp(3/
 174=1000000) IOp(3/175=909000) IOp(3/176=892000)
 ----------------------------------------------------------------------
 1/6=500,7=-1,10=4,18=10,26=3,29=7,38=1/1,3;
 2/12=2,29=2,40=1/2;
 3/5=7,6=2,11=2,14=-4,25=1,30=1,67=1,71=2,74=-42,116=-2,140=1,174=1000000,175=909000,176=892000/1,2,3;
 4/5=1/1;
 5/5=2,7=500,8=3,13=1,38=6,85=50/2,8;
 8/6=4,10=90,11=11/1;
 11/6=1,8=1,9=11,15=111,16=1/1,2,10;
 10/6=1/2;
 6/7=2,8=2,9=2,10=2,18=1,28=1/1;
 7/7=1,10=1,25=1/1,2,3,16;
 1/6=500,7=-1,10=4,18=10,26=3/3(3);
 2/29=1/2;
 7/7=1,8=1,9=1,25=1,44=-1/16;
 99/12=1/99;
 2/29=1/2;
 3/5=7,6=1,11=2,14=-2,25=1,30=1,71=2,74=-42,82=7,140=1,174=1000000,175=909000,176=892000/1,2,3;
 4/5=5,16=3,69=1/1;
 5/5=2,7=500,8=3,13=1,38=5,85=50/2,8;
 8/6=4,10=90,11=11/1;
 11/6=1,8=1,9=11,15=111,16=1/1,2,10;
 10/6=1/2;
 7/7=1,10=1,25=1/1,2,3,16;
 1/6=500,7=-1,10=4,18=10,26=3/3(-8);
 2/29=1/2;
 6/7=2,8=2,9=2,10=2,18=1,19=2,28=1/1;
 7/7=1,8=1,9=1,25=1,44=-1/16;
 99/12=1/99;
 Leave Link    1 at Thu Mar  6 17:57:43 2025, MaxMem=           0 cpu:               1.9 elap:               0.1
 (Enter /gpfs/fs1/soft/improv/software/custom-built/gaussian/g16/l101.exe)
 Structure from the checkpoint file:  "Fe_2_B97D.chk"
 -----
 Title
 -----
 Charge =  2 Multiplicity = 5
 No Z-Matrix found in chk file; cartesian coordinates used.
  Fe                                               -0.784815940138      0.712951768612      0.031791809774
  O                                                -1.377419484089      2.731813669137     -0.275095108808
  H                                                -1.484023988680      3.159067770537     -1.140428504887
  O                                                 1.370643576795      1.368455196846      0.237704863455
  H                                                 2.112633100693      0.744102026851      0.285523001974
  O                                                -0.849409393784      1.025608541216      2.142570972820
  H                                                -1.597771319476      0.950165473907      2.756602851241
  O                                                -0.192213598641     -1.305910378872      0.338679229006
  H                                                -0.053739323972     -1.967444927735     -0.358364362443
  O                                                -2.940276475654      0.057447969994     -0.174121145360
  H                                                -3.682265514095      0.681804445093     -0.221948855862
  O                                                -0.720224528188      0.400293571160     -2.078986998253
  H                                                 0.028135736365      0.475735910295     -2.693020764215
  H                                                -1.499899772608      0.094504015624     -2.571126567708
  H                                                 1.722077503640      2.212146532223     -0.089787850748
  H                                                -1.515895494767      3.393347097408      0.421948072921
  H                                                -3.291712988462     -0.786240553939      0.153379072653
  H                                                -0.069734521540      1.331394941658      2.634713104333
  H                                                -0.085605139216     -1.733163316077      1.204012589983
 Recover connectivity data from disk.
 ITRead=  0  0  0  0  0  0  0  0  0  0  0  0  0  0  0  0  0  0  0
 MicOpt= -1 -1 -1 -1 -1 -1 -1 -1 -1 -1 -1 -1 -1 -1 -1 -1 -1 -1 -1
 NAtoms=     19 NQM=       19 NQMF=       0 NMMI=      0 NMMIF=      0
                NMic=       0 NMicF=      0.
                    Isotopes and Nuclear Properties:
 (Nuclear quadrupole moments (NQMom) in fm**2, nuclear magnetic moments (NMagM)
  in nuclear magnetons)

  Atom         1           2           3           4           5           6           7           8           9          10
 IAtWgt=          56          16           1          16           1          16           1          16           1          16
 AtmWgt=  55.9349393  15.9949146   1.0078250  15.9949146   1.0078250  15.9949146   1.0078250  15.9949146   1.0078250  15.9949146
 NucSpn=           0           0           1           0           1           0           1           0           1           0
 AtZEff=  25.2200000   5.6000000   1.0000000   5.6000000   1.0000000   5.6000000   1.0000000   5.6000000   1.0000000   5.6000000
 NQMom=    0.0000000   0.0000000   0.0000000   0.0000000   0.0000000   0.0000000   0.0000000   0.0000000   0.0000000   0.0000000
 NMagM=    0.0000000   0.0000000   2.7928460   0.0000000   2.7928460   0.0000000   2.7928460   0.0000000   2.7928460   0.0000000
 AtZNuc=  26.0000000   8.0000000   1.0000000   8.0000000   1.0000000   8.0000000   1.0000000   8.0000000   1.0000000   8.0000000

  Atom        11          12          13          14          15          16          17          18          19
 IAtWgt=           1          16           1           1           1           1           1           1           1
 AtmWgt=   1.0078250  15.9949146   1.0078250   1.0078250   1.0078250   1.0078250   1.0078250   1.0078250   1.0078250
 NucSpn=           1           0           1           1           1           1           1           1           1
 AtZEff=   1.0000000   5.6000000   1.0000000   1.0000000   1.0000000   1.0000000   1.0000000   1.0000000   1.0000000
 NQMom=    0.0000000   0.0000000   0.0000000   0.0000000   0.0000000   0.0000000   0.0000000   0.0000000   0.0000000
 NMagM=    2.7928460   0.0000000   2.7928460   2.7928460   2.7928460   2.7928460   2.7928460   2.7928460   2.7928460
 AtZNuc=   1.0000000   8.0000000   1.0000000   1.0000000   1.0000000   1.0000000   1.0000000   1.0000000   1.0000000
 Leave Link  101 at Thu Mar  6 17:57:44 2025, MaxMem= 13421772800 cpu:               0.4 elap:               0.1
 (Enter /gpfs/fs1/soft/improv/software/custom-built/gaussian/g16/l103.exe)

 GradGradGradGradGradGradGradGradGradGradGradGradGradGradGradGradGradGrad
 Berny optimization.
 Initialization pass.
 No Z-matrix variables, so optimization will use Cartesian coordinates.
 Trust Radius=3.00D-01 FncErr=1.00D-07 GrdErr=1.00D-06 EigMax=2.50D+02 EigMin=1.00D-04
 Number of steps in this run=    114 maximum allowed number of steps=    114.
 GradGradGradGradGradGradGradGradGradGradGradGradGradGradGradGradGradGrad

 Leave Link  103 at Thu Mar  6 17:57:44 2025, MaxMem= 13421772800 cpu:               0.4 elap:               0.2
 (Enter /gpfs/fs1/soft/improv/software/custom-built/gaussian/g16/l202.exe)
                          Input orientation:                          
 ---------------------------------------------------------------------
 Center     Atomic      Atomic             Coordinates (Angstroms)
 Number     Number       Type             X           Y           Z
 ---------------------------------------------------------------------
      1         26           0       -0.784816    0.712952    0.031792
      2          8           0       -1.377419    2.731814   -0.275095
      3          1           0       -1.484024    3.159068   -1.140429
      4          8           0        1.370644    1.368455    0.237705
      5          1           0        2.112633    0.744102    0.285523
      6          8           0       -0.849409    1.025609    2.142571
      7          1           0       -1.597771    0.950165    2.756603
      8          8           0       -0.192214   -1.305910    0.338679
      9          1           0       -0.053739   -1.967445   -0.358364
     10          8           0       -2.940276    0.057448   -0.174121
     11          1           0       -3.682266    0.681804   -0.221949
     12          8           0       -0.720225    0.400294   -2.078987
     13          1           0        0.028136    0.475736   -2.693021
     14          1           0       -1.499900    0.094504   -2.571127
     15          1           0        1.722078    2.212147   -0.089788
     16          1           0       -1.515895    3.393347    0.421948
     17          1           0       -3.291713   -0.786241    0.153379
     18          1           0       -0.069735    1.331395    2.634713
     19          1           0       -0.085605   -1.733163    1.204013
 ---------------------------------------------------------------------
                    Distance matrix (angstroms):
                    1          2          3          4          5
     1  Fe   0.000000
     2  O    2.126302   0.000000
     3  H    2.801156   0.970934   0.000000
     4  O    2.262320   3.110235   3.640697   0.000000
     5  H    2.908704   4.055337   4.560849   0.970903   0.000000
     6  O    2.134787   3.005834   3.966418   2.945283   3.507359
     7  H    2.853377   3.523353   4.480964   3.915520   4.462712
     8  O    2.126302   4.252605   4.877762   3.099185   3.085076
     9  H    2.805570   4.882837   5.379449   3.675921   3.529908
    10  O    2.262321   3.099185   3.560122   4.524641   5.120026
    11  H    2.908706   3.085073   3.436961   5.120025   5.817410
    12  O    2.134787   3.020251   3.012493   3.267434   3.705967
    13  H    2.853378   3.593304   3.449267   3.344911   3.645391
    14  H    2.769297   3.498880   3.382115   4.213372   4.651109
    15  H    2.923505   3.148218   3.504225   0.970862   1.564783
    16  H    2.805569   0.970913   1.580166   3.530756   4.494812
    17  H    2.923507   4.028004   4.528480   5.136866   5.618395
    18  H    2.769298   3.483991   4.426319   2.796732   3.259806
    19  H    2.801156   4.877762   5.602312   3.560119   3.436963
                    6          7          8          9         10
     6  O    0.000000
     7  H    0.970965   0.000000
     8  O    3.020250   3.593303   0.000000
     9  H    3.980721   4.538668   0.970913   0.000000
    10  O    3.267434   3.344908   3.110235   3.530755   0.000000
    11  H    3.705972   3.645395   4.055339   4.494812   0.970905
    12  O    4.269574   4.945238   3.005834   3.001821   2.945282
    13  H    4.945239   5.706755   3.523354   3.380304   3.915519
    14  H    4.848612   5.396891   3.483988   3.352511   2.796729
    15  H    3.606084   4.551476   4.028004   4.549137   5.136865
    16  H    3.001822   3.380304   4.882836   5.611139   3.675919
    17  H    3.633804   3.558275   3.148220   3.484480   0.970863
    18  H    0.971392   1.579585   3.498879   4.454336   4.213372
    19  H    3.012492   3.449266   0.970934   1.580166   3.640699
                   11         12         13         14         15
    11  H    0.000000
    12  O    3.507353   0.000000
    13  H    4.462705   0.970965   0.000000
    14  H    3.259797   0.971392   1.579585   0.000000
    15  H    5.618393   3.633808   3.558284   4.585040   0.000000
    16  H    3.529905   3.980721   4.538669   4.454337   3.484477
    17  H    1.564787   3.606089   4.551480   3.377756   5.847012
    18  H    4.651114   4.848614   5.396895   5.538595   3.377754
    19  H    4.560855   3.966417   4.480964   4.426316   4.528477
                   16         17         18         19
    16  H    0.000000
    17  H    4.549133   0.000000
    18  H    3.352515   4.585035   0.000000
    19  H    5.379448   3.504229   3.382111   0.000000
 Stoichiometry    FeH12O6(2+,5)
 Framework group  C1[X(FeH12O6)]
 Deg. of freedom    51
 Full point group                 C1      NOp   1
 RotChk:  IX=0 Diff= 1.01D-14
 Largest Abelian subgroup         C1      NOp   1
 Largest concise Abelian subgroup C1      NOp   1
                         Standard orientation:                         
 ---------------------------------------------------------------------
 Center     Atomic      Atomic             Coordinates (Angstroms)
 Number     Number       Type             X           Y           Z
 ---------------------------------------------------------------------
      1         26           0        0.000000    0.000000   -0.000000
      2          8           0       -0.004254    2.110705   -0.257040
      3          1           0       -0.401893    2.583061   -1.006357
      4          8           0        2.032338   -0.124111   -0.986049
      5          1           0        2.455981   -0.964691   -1.223966
      6          8           0        1.131441    0.231221    1.795464
      7          1           0        0.825777    0.389834    2.703310
      8          8           0        0.004254   -2.110704    0.257041
      9          1           0       -0.449216   -2.751478   -0.314314
     10          8           0       -2.032338    0.124111    0.986049
     11          1           0       -2.455985    0.964694    1.223957
     12          8           0       -1.131442   -0.231221   -1.795464
     13          1           0       -0.825780   -0.389835   -2.703310
     14          1           0       -2.102791   -0.234144   -1.786744
     15          1           0        2.406871    0.562526   -1.561224
     16          1           0        0.449214    2.751478    0.314315
     17          1           0       -2.406868   -0.562523    1.561232
     18          1           0        2.102790    0.234140    1.786748
     19          1           0        0.401897   -2.583061    1.006355
 ---------------------------------------------------------------------
 Rotational constants (GHZ):           1.4689775           1.3454621           1.3150549
 Leave Link  202 at Thu Mar  6 17:57:45 2025, MaxMem= 13421772800 cpu:               0.5 elap:               0.0
 (Enter /gpfs/fs1/soft/improv/software/custom-built/gaussian/g16/l301.exe)
 Basis read from chk: "Fe_2_B97D.chk" (6D, 7F)
 No pseudopotential information found on chk file.
 There are   347 symmetry adapted cartesian basis functions of A   symmetry.
 There are   317 symmetry adapted basis functions of A   symmetry.
   317 basis functions,   514 primitive gaussians,   347 cartesian basis functions
    44 alpha electrons       40 beta electrons
       nuclear repulsion energy       647.5833623334 Hartrees.
 IExCor= 3630 DFT=T Ex+Corr=B97D ExCW=0 ScaHFX=  0.000000
 ScaDFX=  1.000000  1.000000  1.000000  1.000000 ScalE2=  1.000000  1.000000
 IRadAn=      5 IRanWt=     -1 IRanGd=            0 ICorTp=0 IEmpDi=121
 NAtoms=   19 NActive=   19 NUniq=   19 SFac= 1.00D+00 NAtFMM=   60 NAOKFM=F Big=F
 Integral buffers will be    131072 words long.
 Raffenetti 2 integral format.
 Two-electron integral symmetry is turned on.
 R6DIni: Non-standard D2/D3 S6 parameter, value=     1.000000
 R6DIni: Non-standard D2/D3 S8 parameter, value=     0.909000
 R6DIni: Non-standard D2/D3 SR6 parameter, value=     0.892000
 R6Disp:  Grimme-D2 Dispersion energy=       -0.0375128789 Hartrees.
 Nuclear repulsion after empirical dispersion term =      647.5458494545 Hartrees.
 No density basis found on file  20724.
 Leave Link  301 at Thu Mar  6 17:57:45 2025, MaxMem= 13421772800 cpu:               0.4 elap:               0.1
 (Enter /gpfs/fs1/soft/improv/software/custom-built/gaussian/g16/l302.exe)
 NPDir=0 NMtPBC=     1 NCelOv=     1 NCel=       1 NClECP=     1 NCelD=      1
         NCelK=      1 NCelE2=     1 NClLst=     1 CellRange=     0.0.
 One-electron integrals computed using PRISM.
 One-electron integral symmetry used in STVInt
 NBasis=   317 RedAO= T EigKep=  1.90D-06  NBF=   317
 NBsUse=   317 1.00D-06 EigRej= -1.00D+00 NBFU=   317
 Precomputing XC quadrature grid using
 IXCGrd= 4 IRadAn=           5 IRanWt=          -1 IRanGd=           0 AccXCQ= 0.00D+00.
 Generated NRdTot=       0 NPtTot=           0 NUsed=           0 NTot=          32
 NSgBfM=   346   346   346   346   346 MxSgAt=    19 MxSgA2=    19.
 Leave Link  302 at Thu Mar  6 17:57:45 2025, MaxMem= 13421772800 cpu:              22.7 elap:               0.3
 (Enter /gpfs/fs1/soft/improv/software/custom-built/gaussian/g16/l303.exe)
 DipDrv:  MaxL=1.
 Leave Link  303 at Thu Mar  6 17:57:46 2025, MaxMem= 13421772800 cpu:               1.1 elap:               0.0
 (Enter /gpfs/fs1/soft/improv/software/custom-built/gaussian/g16/l401.exe)
 Initial guess from the checkpoint file:  "Fe_2_B97D.chk"
 B after Tr=     0.000000    0.000000    0.000000
         Rot=    1.000000    0.000000    0.000000    0.000000 Ang=   0.00 deg.
 Guess basis will be translated and rotated to current coordinates.
 JPrj=2 DoOrth=T DoCkMO=T.
 Initial guess <Sx>= 0.0000 <Sy>= 0.0000 <Sz>= 2.0000 <S**2>= 6.0066 S= 2.0013
 Leave Link  401 at Thu Mar  6 17:57:46 2025, MaxMem= 13421772800 cpu:              11.6 elap:               0.2
 (Enter /gpfs/fs1/soft/improv/software/custom-built/gaussian/g16/l502.exe)
 Integral symmetry usage will be decided dynamically.
 UHF open shell SCF:
 Using DIIS extrapolation, IDIIS=  1040.
 NGot= 13421772800 LenX= 13421483807 LenY= 13421362957
 Requested convergence on RMS density matrix=1.00D-08 within  50 cycles.
 Requested convergence on MAX density matrix=1.00D-06.
 Requested convergence on             energy=1.00D-06.
 No special actions if energy rises.
 Fock matrices will be formed incrementally for  20 cycles.

 Cycle   1  Pass 1  IDiag  1:
 FoFJK:  IHMeth= 1 ICntrl=     500 DoSepK=F KAlg= 0 I1Cent=           0 FoldK=F
 IRaf= 960000000 NMat=       1 IRICut=       1 DoRegI=T DoRafI=F ISym2E= 0 IDoP0=0 IntGTp=1.
 FoFCou: FMM=F IPFlag=           0 FMFlag=      100000 FMFlg1=           0
         NFxFlg=           0 DoJE=T BraDBF=F KetDBF=F FulRan=T
         wScrn=  0.000000 ICntrl=       500 IOpCl=  0 I1Cent=           0 NGrid=           0
         NMat0=    1 NMatS0=      1 NMatT0=    0 NMatD0=    1 NMtDS0=    0 NMtDT0=    0
 Symmetry not used in FoFCou.
 E= -1722.02971100296    
 DIIS: error= 7.39D-11 at cycle   1 NSaved=   1.
 NSaved= 1 IEnMin= 1 EnMin= -1722.02971100296     IErMin= 1 ErrMin= 7.39D-11
 ErrMax= 7.39D-11  0.00D+00 EMaxC= 1.00D-01 BMatC= 1.97D-17 BMatP= 1.97D-17
 IDIUse=1 WtCom= 1.00D+00 WtEn= 0.00D+00
 Coeff-Com:  0.100D+01
 Coeff:      0.100D+01
 Gap=     0.203 Goal=   None    Shift=    0.000
 Gap=     0.016 Goal=   None    Shift=    0.000
 RMSDP=6.35D-10 MaxDP=8.32D-08              OVMax= 3.34D-09

 SCF Done:  E(UB97D) =  -1722.02971100     A.U. after    1 cycles
            NFock=  1  Conv=0.63D-09     -V/T= 2.0025
 <Sx>= 0.0000 <Sy>= 0.0000 <Sz>= 2.0000 <S**2>= 6.0066 S= 2.0013
 <L.S>=  0.00000000000    
 KE= 1.717802256148D+03 PE=-5.358772636761D+03 EE= 1.271394820156D+03
 Annihilation of the first spin contaminant:
 S**2 before annihilation     6.0066,   after     6.0000
 Leave Link  502 at Thu Mar  6 17:57:50 2025, MaxMem= 13421772800 cpu:             409.4 elap:               3.6
 (Enter /gpfs/fs1/soft/improv/software/custom-built/gaussian/g16/l508.exe)
 QCSCF skips out because SCF is already converged.
 Leave Link  508 at Thu Mar  6 17:57:51 2025, MaxMem= 13421772800 cpu:               0.2 elap:               0.0
 (Enter /gpfs/fs1/soft/improv/software/custom-built/gaussian/g16/l801.exe)
 DoSCS=F DFT=T ScalE2(SS,OS)=  1.000000  1.000000
 Range of M.O.s used for correlation:     1   317
 NBasis=   317 NAE=    44 NBE=    40 NFC=     0 NFV=     0
 NROrb=    317 NOA=    44 NOB=    40 NVA=   273 NVB=   277

 **** Warning!!: The largest alpha MO coefficient is  0.23402005D+03


 **** Warning!!: The largest beta MO coefficient is  0.23965265D+03


 **** Warning!!: The smallest beta delta epsilon is  0.16019532D-01

 Leave Link  801 at Thu Mar  6 17:57:51 2025, MaxMem= 13421772800 cpu:               0.4 elap:               0.0
 (Enter /gpfs/fs1/soft/improv/software/custom-built/gaussian/g16/l1101.exe)
 Using compressed storage, NAtomX=    19.
 Will process     20 centers per pass.
 R6Disp: Adding Grimme-D2 dispersion energy 1st derivatives to the gradient.
 Leave Link 1101 at Thu Mar  6 17:57:52 2025, MaxMem= 13421772800 cpu:              52.1 elap:               0.5
 (Enter /gpfs/fs1/soft/improv/software/custom-built/gaussian/g16/l1102.exe)
 Symmetrizing basis deriv contribution to polar:
 IMax=3 JMax=2 DiffMx= 0.00D+00
 Leave Link 1102 at Thu Mar  6 17:57:52 2025, MaxMem= 13421772800 cpu:               1.0 elap:               0.0
 (Enter /gpfs/fs1/soft/improv/software/custom-built/gaussian/g16/l1110.exe)
 Forming Gx(P) for the SCF density, NAtomX=    19.
 Integral derivatives from FoFJK, PRISM(SPDF).
 Do as many integral derivatives as possible in FoFJK.
 G2DrvN: MDV=   13421770631.
 G2DrvN: will do    20 centers at a time, making    1 passes.
 Calling FoFCou, ICntrl=  3507 FMM=F I1Cent=   0 AccDes= 0.00D+00.
 FoFJK:  IHMeth= 1 ICntrl=    3507 DoSepK=F KAlg= 0 I1Cent=           0 FoldK=F
 IRaf=         0 NMat=       1 IRICut=       1 DoRegI=T DoRafI=F ISym2E= 0 IDoP0=0 IntGTp=1.
 FoFCou: FMM=F IPFlag=           0 FMFlag=      100000 FMFlg1=           0
         NFxFlg=           0 DoJE=F BraDBF=F KetDBF=F FulRan=T
         wScrn=  0.000000 ICntrl=      3507 IOpCl=  0 I1Cent=           0 NGrid=           0
         NMat0=    1 NMatS0=      1 NMatT0=    0 NMatD0=    1 NMtDS0=    0 NMtDT0=    0
 Symmetry not used in FoFCou.
 End of G2Drv F.D. properties file   721 does not exist.
 End of G2Drv F.D. properties file   722 does not exist.
 End of G2Drv F.D. properties file   788 does not exist.
 Leave Link 1110 at Thu Mar  6 17:58:04 2025, MaxMem= 13421772800 cpu:            1500.4 elap:              12.1
 (Enter /gpfs/fs1/soft/improv/software/custom-built/gaussian/g16/l1002.exe)
 Minotr:  UHF open shell wavefunction.
          IDoAtm=1111111111111111111
          Direct CPHF calculation.
          Differentiating once with respect to electric field.
                with respect to dipole field.
          Differentiating once with respect to nuclear coordinates.
          Requested convergence is 1.0D-08 RMS, and 1.0D-07 maximum.
          Secondary convergence is 1.0D-12 RMS, and 1.0D-12 maximum.
          NewPWx=T KeepS1=F KeepF1=F KeepIn=T MapXYZ=F SortEE=F KeepMc=T.
         6034 words used for storage of precomputed grid.
 Two-electron integrals replicated using symmetry.
          MDV=   13421772800 using IRadAn=       1.
          Solving linear equations simultaneously, MaxMat=     384.
 FoF2E skips out because all densities are zero.
 CalDSu exits because no D1Ps are significant.
 FoFJK:  IHMeth= 1 ICntrl=     500 DoSepK=F KAlg= 0 I1Cent=           0 FoldK=F
 IRaf= 960000000 NMat=      57 IRICut=       1 DoRegI=T DoRafI=F ISym2E= 2 IDoP0=3 IntGTp=2.
 FoFCou: FMM=F IPFlag=           0 FMFlag=      100000 FMFlg1=           0
         NFxFlg=           0 DoJE=F BraDBF=F KetDBF=F FulRan=T
         wScrn=  0.000000 ICntrl=       500 IOpCl=  0 I1Cent=           0 NGrid=           0
         NMat0=   57 NMatS0=     57 NMatT0=    0 NMatD0=   57 NMtDS0=    0 NMtDT0=    0
 Integrals replicated using symmetry in FoFCou.
          There are    60 degrees of freedom in the 1st order CPHF.  IDoFFX=6 NUNeed=     3.
     57 vectors produced by pass  0 Test12= 3.85D-14 1.67D-09 XBig12= 9.21D+01 3.05D+00.
 AX will form    57 AO Fock derivatives at one time.
     57 vectors produced by pass  1 Test12= 3.85D-14 1.67D-09 XBig12= 3.07D+00 2.45D-01.
     57 vectors produced by pass  2 Test12= 3.85D-14 1.67D-09 XBig12= 1.90D-02 2.95D-02.
     57 vectors produced by pass  3 Test12= 3.85D-14 1.67D-09 XBig12= 1.95D-04 2.09D-03.
     57 vectors produced by pass  4 Test12= 3.85D-14 1.67D-09 XBig12= 9.86D-07 1.37D-04.
     57 vectors produced by pass  5 Test12= 3.85D-14 1.67D-09 XBig12= 1.99D-09 4.34D-06.
     31 vectors produced by pass  6 Test12= 3.85D-14 1.67D-09 XBig12= 6.42D-12 2.73D-07.
      4 vectors produced by pass  7 Test12= 3.85D-14 1.67D-09 XBig12= 1.89D-14 1.74D-08.
      1 vectors produced by pass  8 Test12= 3.85D-14 1.67D-09 XBig12= 5.32D-17 2.02D-09.
 InvSVY:  IOpt=1 It=  1 EMax= 1.78D-15
 Solved reduced A of dimension   378 with    60 vectors.
 FullF1:  Do perturbations      1 to       3.
 Isotropic polarizability for W=    0.000000       61.87 Bohr**3.
 End of Minotr F.D. properties file   721 does not exist.
 End of Minotr F.D. properties file   722 does not exist.
 End of Minotr F.D. properties file   788 does not exist.
 Leave Link 1002 at Thu Mar  6 17:58:46 2025, MaxMem= 13421772800 cpu:            4831.5 elap:              41.1
 (Enter /gpfs/fs1/soft/improv/software/custom-built/gaussian/g16/l601.exe)
 Copying SCF densities to generalized density rwf, IOpCl= 1 IROHF=0.

 **********************************************************************

            Population analysis using the SCF Density.

 **********************************************************************

 Orbital symmetries:
 Alpha Orbitals:
       Occupied  (A) (A) (A) (A) (A) (A) (A) (A) (A) (A) (A) (A)
                 (A) (A) (A) (A) (A) (A) (A) (A) (A) (A) (A) (A)
                 (A) (A) (A) (A) (A) (A) (A) (A) (A) (A) (A) (A)
                 (A) (A) (A) (A) (A) (A) (A) (A)
       Virtual   (A) (A) (A) (A) (A) (A) (A) (A) (A) (A) (A) (A)
                 (A) (A) (A) (A) (A) (A) (A) (A) (A) (A) (A) (A)
                 (A) (A) (A) (A) (A) (A) (A) (A) (A) (A) (A) (A)
                 (A) (A) (A) (A) (A) (A) (A) (A) (A) (A) (A) (A)
                 (A) (A) (A) (A) (A) (A) (A) (A) (A) (A) (A) (A)
                 (A) (A) (A) (A) (A) (A) (A) (A) (A) (A) (A) (A)
                 (A) (A) (A) (A) (A) (A) (A) (A) (A) (A) (A) (A)
                 (A) (A) (A) (A) (A) (A) (A) (A) (A) (A) (A) (A)
                 (A) (A) (A) (A) (A) (A) (A) (A) (A) (A) (A) (A)
                 (A) (A) (A) (A) (A) (A) (A) (A) (A) (A) (A) (A)
                 (A) (A) (A) (A) (A) (A) (A) (A) (A) (A) (A) (A)
                 (A) (A) (A) (A) (A) (A) (A) (A) (A) (A) (A) (A)
                 (A) (A) (A) (A) (A) (A) (A) (A) (A) (A) (A) (A)
                 (A) (A) (A) (A) (A) (A) (A) (A) (A) (A) (A) (A)
                 (A) (A) (A) (A) (A) (A) (A) (A) (A) (A) (A) (A)
                 (A) (A) (A) (A) (A) (A) (A) (A) (A) (A) (A) (A)
                 (A) (A) (A) (A) (A) (A) (A) (A) (A) (A) (A) (A)
                 (A) (A) (A) (A) (A) (A) (A) (A) (A) (A) (A) (A)
                 (A) (A) (A) (A) (A) (A) (A) (A) (A) (A) (A) (A)
                 (A) (A) (A) (A) (A) (A) (A) (A) (A) (A) (A) (A)
                 (A) (A) (A) (A) (A) (A) (A) (A) (A) (A) (A) (A)
                 (A) (A) (A) (A) (A) (A) (A) (A) (A) (A) (A) (A)
                 (A) (A) (A) (A) (A) (A) (A) (A) (A)
 Beta  Orbitals:
       Occupied  (A) (A) (A) (A) (A) (A) (A) (A) (A) (A) (A) (A)
                 (A) (A) (A) (A) (A) (A) (A) (A) (A) (A) (A) (A)
                 (A) (A) (A) (A) (A) (A) (A) (A) (A) (A) (A) (A)
                 (A) (A) (A) (A)
       Virtual   (A) (A) (A) (A) (A) (A) (A) (A) (A) (A) (A) (A)
                 (A) (A) (A) (A) (A) (A) (A) (A) (A) (A) (A) (A)
                 (A) (A) (A) (A) (A) (A) (A) (A) (A) (A) (A) (A)
                 (A) (A) (A) (A) (A) (A) (A) (A) (A) (A) (A) (A)
                 (A) (A) (A) (A) (A) (A) (A) (A) (A) (A) (A) (A)
                 (A) (A) (A) (A) (A) (A) (A) (A) (A) (A) (A) (A)
                 (A) (A) (A) (A) (A) (A) (A) (A) (A) (A) (A) (A)
                 (A) (A) (A) (A) (A) (A) (A) (A) (A) (A) (A) (A)
                 (A) (A) (A) (A) (A) (A) (A) (A) (A) (A) (A) (A)
                 (A) (A) (A) (A) (A) (A) (A) (A) (A) (A) (A) (A)
                 (A) (A) (A) (A) (A) (A) (A) (A) (A) (A) (A) (A)
                 (A) (A) (A) (A) (A) (A) (A) (A) (A) (A) (A) (A)
                 (A) (A) (A) (A) (A) (A) (A) (A) (A) (A) (A) (A)
                 (A) (A) (A) (A) (A) (A) (A) (A) (A) (A) (A) (A)
                 (A) (A) (A) (A) (A) (A) (A) (A) (A) (A) (A) (A)
                 (A) (A) (A) (A) (A) (A) (A) (A) (A) (A) (A) (A)
                 (A) (A) (A) (A) (A) (A) (A) (A) (A) (A) (A) (A)
                 (A) (A) (A) (A) (A) (A) (A) (A) (A) (A) (A) (A)
                 (A) (A) (A) (A) (A) (A) (A) (A) (A) (A) (A) (A)
                 (A) (A) (A) (A) (A) (A) (A) (A) (A) (A) (A) (A)
                 (A) (A) (A) (A) (A) (A) (A) (A) (A) (A) (A) (A)
                 (A) (A) (A) (A) (A) (A) (A) (A) (A) (A) (A) (A)
                 (A) (A) (A) (A) (A) (A) (A) (A) (A) (A) (A) (A)
                 (A)
 The electronic state is 5-A.
 Alpha  occ. eigenvalues -- -254.99460 -29.99724 -25.98655 -25.95855 -25.95742
 Alpha  occ. eigenvalues --  -19.12300 -19.12300 -19.11699 -19.11699 -19.10234
 Alpha  occ. eigenvalues --  -19.10234  -3.70825  -2.56249  -2.50441  -2.50233
 Alpha  occ. eigenvalues --   -1.27521  -1.27317  -1.26631  -1.26611  -1.25181
 Alpha  occ. eigenvalues --   -1.25174  -0.82719  -0.82621  -0.81972  -0.81888
 Alpha  occ. eigenvalues --   -0.80384  -0.80336  -0.75224  -0.73216  -0.71581
 Alpha  occ. eigenvalues --   -0.70608  -0.70557  -0.68727  -0.63618  -0.63194
 Alpha  occ. eigenvalues --   -0.61211  -0.60609  -0.60116  -0.59065  -0.58473
 Alpha  occ. eigenvalues --   -0.58240  -0.55747  -0.54676  -0.53646
 Alpha virt. eigenvalues --   -0.33345  -0.28742  -0.28455  -0.28102  -0.23983
 Alpha virt. eigenvalues --   -0.23490  -0.19698  -0.19629  -0.19395  -0.19158
 Alpha virt. eigenvalues --   -0.18945  -0.18599  -0.18306  -0.12990  -0.12883
 Alpha virt. eigenvalues --   -0.11899  -0.11667  -0.11481  -0.11314  -0.10945
 Alpha virt. eigenvalues --   -0.10845  -0.10736  -0.10159  -0.09722  -0.08875
 Alpha virt. eigenvalues --   -0.08155  -0.08013  -0.07115  -0.05908  -0.01285
 Alpha virt. eigenvalues --   -0.00155   0.00201   0.00271   0.01102   0.01523
 Alpha virt. eigenvalues --    0.02118   0.02715   0.03162   0.03730   0.05810
 Alpha virt. eigenvalues --    0.06707   0.07239   0.08529   0.11701   0.12311
 Alpha virt. eigenvalues --    0.12924   0.14675   0.15025   0.18335   0.18605
 Alpha virt. eigenvalues --    0.18866   0.32361   0.34953   0.40890   0.44362
 Alpha virt. eigenvalues --    0.44647   0.46913   0.47619   0.48833   0.50451
 Alpha virt. eigenvalues --    0.51021   0.51986   0.53674   0.54894   0.55609
 Alpha virt. eigenvalues --    0.55872   0.56526   0.57364   0.58077   0.58475
 Alpha virt. eigenvalues --    0.58598   0.58697   0.59196   0.60173   0.60195
 Alpha virt. eigenvalues --    0.60823   0.63394   0.65968   0.66419   0.69130
 Alpha virt. eigenvalues --    0.69600   0.69908   0.70553   0.71567   0.72681
 Alpha virt. eigenvalues --    0.74852   0.75426   0.75611   0.76321   0.78526
 Alpha virt. eigenvalues --    0.79080   0.80337   0.80744   0.80765   0.81667
 Alpha virt. eigenvalues --    0.91750   0.92493   0.93082   0.94753   0.98030
 Alpha virt. eigenvalues --    1.01973   1.03633   1.14111   1.16246   1.17705
 Alpha virt. eigenvalues --    1.18541   1.20142   1.22168   1.24690   1.26974
 Alpha virt. eigenvalues --    1.28202   1.28204   1.31807   1.34315   1.39711
 Alpha virt. eigenvalues --    1.43211   1.43314   1.44307   1.52822   1.62202
 Alpha virt. eigenvalues --    1.69920   1.72928   1.75369   1.83456   1.84924
 Alpha virt. eigenvalues --    1.85642   1.85771   1.87406   1.88217   1.89608
 Alpha virt. eigenvalues --    1.89801   1.90574   1.91387   1.93708   1.94142
 Alpha virt. eigenvalues --    1.98001   2.03026   2.07909   2.09884   2.12739
 Alpha virt. eigenvalues --    2.13333   2.13797   2.14609   2.14988   2.15256
 Alpha virt. eigenvalues --    2.17202   2.18079   2.18903   2.19584   2.21197
 Alpha virt. eigenvalues --    2.22480   2.55545   2.56121   2.56562   2.57831
 Alpha virt. eigenvalues --    2.59022   2.59310   2.60877   2.63393   2.67289
 Alpha virt. eigenvalues --    2.71837   2.73818   2.74455   2.76328   2.76596
 Alpha virt. eigenvalues --    2.78151   2.78531   2.81116   2.82584   2.83263
 Alpha virt. eigenvalues --    2.85069   2.95129   3.64258   3.65109   3.65858
 Alpha virt. eigenvalues --    3.66032   3.68278   3.68762   3.77066   3.78380
 Alpha virt. eigenvalues --    3.79751   3.81438   3.82133   3.82538   3.84638
 Alpha virt. eigenvalues --    3.89058   3.89862   3.94739   3.96236   3.98659
 Alpha virt. eigenvalues --    4.00302   4.00705   4.01397   4.07221   4.08417
 Alpha virt. eigenvalues --    4.09469   4.10654   4.10771   4.11593   4.12710
 Alpha virt. eigenvalues --    4.13161   4.13962   4.15002   4.16084   4.16639
 Alpha virt. eigenvalues --    4.18942   4.20095   4.22887   4.30371   4.32857
 Alpha virt. eigenvalues --    4.36245   4.36748   4.44113   4.44119   4.46043
 Alpha virt. eigenvalues --    4.47945   4.48774   4.49352   4.60389   4.60527
 Alpha virt. eigenvalues --    4.64928   4.71907   4.73480   4.75246   4.77681
 Alpha virt. eigenvalues --    4.79312   4.90387   4.91433   4.92548   4.92975
 Alpha virt. eigenvalues --    4.93154   4.94141   4.94727   4.95344   4.97897
 Alpha virt. eigenvalues --    4.98039   5.01344   5.01519   5.01851   5.02714
 Alpha virt. eigenvalues --    5.02742   5.03082   5.03795   5.04221   5.05047
 Alpha virt. eigenvalues --    5.12862   5.15910   5.19270   5.33524   5.34307
 Alpha virt. eigenvalues --    5.34829   5.35746   5.36739   5.37764   5.49457
 Alpha virt. eigenvalues --    5.50943   5.55926   5.56086   5.60997   5.62561
 Alpha virt. eigenvalues --    6.98433   7.00743   7.03332   7.07495   7.09501
 Alpha virt. eigenvalues --    7.27142  13.28667  13.32165  13.38949  13.41938
 Alpha virt. eigenvalues --   13.49853  13.88016  20.38432
  Beta  occ. eigenvalues -- -254.99359 -29.92350 -25.92425 -25.90788 -25.90707
  Beta  occ. eigenvalues --  -19.12209 -19.12209 -19.11606 -19.11606 -19.10176
  Beta  occ. eigenvalues --  -19.10176  -3.53301  -2.36270  -2.34417  -2.34266
  Beta  occ. eigenvalues --   -1.27259  -1.27062  -1.26381  -1.26370  -1.25036
  Beta  occ. eigenvalues --   -1.25035  -0.82501  -0.82453  -0.81808  -0.81746
  Beta  occ. eigenvalues --   -0.80249  -0.80230  -0.74235  -0.71078  -0.70875
  Beta  occ. eigenvalues --   -0.70202  -0.68727  -0.68386  -0.61270  -0.60884
  Beta  occ. eigenvalues --   -0.60654  -0.60271  -0.59285  -0.58916  -0.45466
  Beta virt. eigenvalues --   -0.43864  -0.43651  -0.40959  -0.37886  -0.32857
  Beta virt. eigenvalues --   -0.28549  -0.28323  -0.27974  -0.23729  -0.23243
  Beta virt. eigenvalues --   -0.19550  -0.19181  -0.19119  -0.18741  -0.18500
  Beta virt. eigenvalues --   -0.18094  -0.17516  -0.12666  -0.11753  -0.11597
  Beta virt. eigenvalues --   -0.11487  -0.11188  -0.10934  -0.10598  -0.10570
  Beta virt. eigenvalues --   -0.10401  -0.09900  -0.09525  -0.08706  -0.07827
  Beta virt. eigenvalues --   -0.07657  -0.06770  -0.05826  -0.00794   0.00372
  Beta virt. eigenvalues --    0.00641   0.01146   0.01506   0.01774   0.02355
  Beta virt. eigenvalues --    0.03223   0.04327   0.04919   0.06882   0.07405
  Beta virt. eigenvalues --    0.07433   0.09165   0.12086   0.13311   0.13464
  Beta virt. eigenvalues --    0.15477   0.15708   0.18734   0.19194   0.19329
  Beta virt. eigenvalues --    0.33558   0.35590   0.41246   0.44424   0.44715
  Beta virt. eigenvalues --    0.47371   0.48098   0.49018   0.51451   0.51672
  Beta virt. eigenvalues --    0.52045   0.53919   0.55676   0.55767   0.56059
  Beta virt. eigenvalues --    0.56763   0.58006   0.58225   0.58585   0.58886
  Beta virt. eigenvalues --    0.58968   0.59340   0.60437   0.60671   0.60992
  Beta virt. eigenvalues --    0.63916   0.66367   0.66999   0.69404   0.69851
  Beta virt. eigenvalues --    0.70185   0.70924   0.72130   0.72868   0.75296
  Beta virt. eigenvalues --    0.75703   0.76394   0.77156   0.78664   0.79385
  Beta virt. eigenvalues --    0.80706   0.81291   0.81988   0.82970   0.92296
  Beta virt. eigenvalues --    0.92726   0.93842   0.97420   0.98771   1.03407
  Beta virt. eigenvalues --    1.04992   1.14177   1.18536   1.19307   1.19464
  Beta virt. eigenvalues --    1.22349   1.24322   1.26367   1.29991   1.30879
  Beta virt. eigenvalues --    1.35807   1.37504   1.40663   1.42516   1.44833
  Beta virt. eigenvalues --    1.45188   1.45563   1.53232   1.63885   1.70303
  Beta virt. eigenvalues --    1.74742   1.79720   1.83738   1.85346   1.85884
  Beta virt. eigenvalues --    1.86974   1.87687   1.90214   1.91182   1.91867
  Beta virt. eigenvalues --    1.92890   1.93118   1.94713   1.96840   2.02406
  Beta virt. eigenvalues --    2.07708   2.09156   2.10629   2.13489   2.13940
  Beta virt. eigenvalues --    2.14106   2.15214   2.15228   2.15476   2.17487
  Beta virt. eigenvalues --    2.18438   2.19209   2.19808   2.21391   2.22651
  Beta virt. eigenvalues --    2.55866   2.56433   2.56926   2.58682   2.59834
  Beta virt. eigenvalues --    2.60611   2.61499   2.64991   2.67975   2.72257
  Beta virt. eigenvalues --    2.74868   2.75186   2.76761   2.76838   2.78524
  Beta virt. eigenvalues --    2.78770   2.83244   2.85287   2.86055   2.89712
  Beta virt. eigenvalues --    3.00972   3.64880   3.65715   3.66382   3.66530
  Beta virt. eigenvalues --    3.68753   3.69872   3.79055   3.79801   3.81598
  Beta virt. eigenvalues --    3.83058   3.83066   3.83369   3.87134   3.91141
  Beta virt. eigenvalues --    3.91567   3.95072   3.96617   3.99677   4.08442
  Beta virt. eigenvalues --    4.08972   4.09003   4.09487   4.09573   4.10179
  Beta virt. eigenvalues --    4.11446   4.13934   4.16117   4.18402   4.20069
  Beta virt. eigenvalues --    4.20919   4.23549   4.24755   4.25221   4.26344
  Beta virt. eigenvalues --    4.26812   4.29848   4.36730   4.40283   4.40640
  Beta virt. eigenvalues --    4.44651   4.45922   4.46900   4.48109   4.50541
  Beta virt. eigenvalues --    4.51090   4.51241   4.62037   4.62088   4.65905
  Beta virt. eigenvalues --    4.72318   4.76209   4.77843   4.80224   4.80539
  Beta virt. eigenvalues --    4.92030   4.92663   4.93349   4.93366   4.94586
  Beta virt. eigenvalues --    4.94652   4.95005   4.96372   4.98682   4.99169
  Beta virt. eigenvalues --    5.01509   5.01807   5.02101   5.02965   5.03022
  Beta virt. eigenvalues --    5.03343   5.04067   5.04689   5.05212   5.16826
  Beta virt. eigenvalues --    5.19940   5.22582   5.33954   5.34507   5.35032
  Beta virt. eigenvalues --    5.36428   5.36985   5.37921   5.49818   5.51195
  Beta virt. eigenvalues --    5.56576   5.56911   5.62553   5.64198   6.98719
  Beta virt. eigenvalues --    7.01146   7.03674   7.07937   7.09815   7.27655
  Beta virt. eigenvalues --   13.28912  13.32322  13.39164  13.42101  13.50115
  Beta virt. eigenvalues --   13.88321  20.51961
          Condensed to atoms (all electrons):
               1          2          3          4          5          6
     1  Fe  24.861008  -0.003697   0.001355   0.020139   0.001310   0.008451
     2  O   -0.003697   8.146671   0.292143  -0.015896   0.000387  -0.029756
     3  H    0.001355   0.292143   0.305018   0.000214  -0.000001   0.000845
     4  O    0.020139  -0.015896   0.000214   8.100754   0.291219  -0.027521
     5  H    0.001310   0.000387  -0.000001   0.291219   0.316641   0.000441
     6  O    0.008451  -0.029756   0.000845  -0.027521   0.000441   8.134297
     7  H    0.000534   0.000465  -0.000002   0.000798  -0.000002   0.289897
     8  O   -0.003697   0.026712  -0.000352  -0.016053   0.001394  -0.026607
     9  H    0.000855  -0.000344   0.000001   0.000229  -0.000037   0.000734
    10  O    0.020140  -0.016053   0.000044   0.013997  -0.000181  -0.009645
    11  H    0.001310   0.001394  -0.000012  -0.000181   0.000000   0.000254
    12  O    0.008450  -0.026607   0.002440  -0.009645   0.000254   0.026616
    13  H    0.000534   0.000385  -0.000050   0.000907  -0.000018  -0.000343
    14  H   -0.001917   0.000544  -0.000036   0.000190  -0.000001  -0.000388
    15  H    0.001423   0.001116  -0.000033   0.292053  -0.015252   0.000508
    16  H    0.000854   0.292560  -0.013492   0.000096  -0.000001   0.002823
    17  H    0.001423   0.000396  -0.000000  -0.000176   0.000000   0.000157
    18  H   -0.001917   0.000645  -0.000003   0.005032  -0.000073   0.292654
    19  H    0.001355  -0.000352   0.000000   0.000044  -0.000012   0.002440
               7          8          9         10         11         12
     1  Fe   0.000534  -0.003697   0.000855   0.020140   0.001310   0.008450
     2  O    0.000465   0.026712  -0.000344  -0.016053   0.001394  -0.026607
     3  H   -0.000002  -0.000352   0.000001   0.000044  -0.000012   0.002440
     4  O    0.000798  -0.016053   0.000229   0.013997  -0.000181  -0.009645
     5  H   -0.000002   0.001394  -0.000037  -0.000181   0.000000   0.000254
     6  O    0.289897  -0.026607   0.000734  -0.009645   0.000254   0.026616
     7  H    0.309612   0.000385  -0.000001   0.000907  -0.000018  -0.000343
     8  O    0.000385   8.146671   0.292560  -0.015896   0.000387  -0.029756
     9  H   -0.000001   0.292560   0.304749   0.000096  -0.000001   0.002823
    10  O    0.000907  -0.015896   0.000096   8.100755   0.291218  -0.027521
    11  H   -0.000018   0.000387  -0.000001   0.291218   0.316641   0.000441
    12  O   -0.000343  -0.029756   0.002823  -0.027521   0.000441   8.134298
    13  H    0.000000   0.000465  -0.000049   0.000798  -0.000002   0.289897
    14  H    0.000000   0.000645  -0.000054   0.005032  -0.000073   0.292654
    15  H   -0.000001   0.000396  -0.000002  -0.000176   0.000000   0.000157
    16  H   -0.000049  -0.000344   0.000000   0.000229  -0.000037   0.000734
    17  H   -0.000022   0.001116  -0.000010   0.292052  -0.015251   0.000508
    18  H   -0.013806   0.000544  -0.000003   0.000190  -0.000001  -0.000388
    19  H   -0.000050   0.292143  -0.013492   0.000214  -0.000001   0.000845
              13         14         15         16         17         18
     1  Fe   0.000534  -0.001917   0.001423   0.000854   0.001423  -0.001917
     2  O    0.000385   0.000544   0.001116   0.292560   0.000396   0.000645
     3  H   -0.000050  -0.000036  -0.000033  -0.013492  -0.000000  -0.000003
     4  O    0.000907   0.000190   0.292053   0.000096  -0.000176   0.005032
     5  H   -0.000018  -0.000001  -0.015252  -0.000001   0.000000  -0.000073
     6  O   -0.000343  -0.000388   0.000508   0.002823   0.000157   0.292654
     7  H    0.000000   0.000000  -0.000001  -0.000049  -0.000022  -0.013806
     8  O    0.000465   0.000645   0.000396  -0.000344   0.001116   0.000544
     9  H   -0.000049  -0.000054  -0.000002   0.000000  -0.000010  -0.000003
    10  O    0.000798   0.005032  -0.000176   0.000229   0.292052   0.000190
    11  H   -0.000002  -0.000073   0.000000  -0.000037  -0.015251  -0.000001
    12  O    0.289897   0.292654   0.000157   0.000734   0.000508  -0.000388
    13  H    0.309612  -0.013806  -0.000022  -0.000001  -0.000001   0.000000
    14  H   -0.013806   0.307389  -0.000001  -0.000003  -0.000063   0.000000
    15  H   -0.000022  -0.000001   0.317562  -0.000010   0.000000  -0.000063
    16  H   -0.000001  -0.000003  -0.000010   0.304749  -0.000002  -0.000054
    17  H   -0.000001  -0.000063   0.000000  -0.000002   0.317562  -0.000001
    18  H    0.000000   0.000000  -0.000063  -0.000054  -0.000001   0.307389
    19  H   -0.000002  -0.000003  -0.000000   0.000001  -0.000033  -0.000036
              19
     1  Fe   0.001355
     2  O   -0.000352
     3  H    0.000000
     4  O    0.000044
     5  H   -0.000012
     6  O    0.002440
     7  H   -0.000050
     8  O    0.292143
     9  H   -0.013492
    10  O    0.000214
    11  H   -0.000001
    12  O    0.000845
    13  H   -0.000002
    14  H   -0.000003
    15  H   -0.000000
    16  H    0.000001
    17  H   -0.000033
    18  H   -0.000036
    19  H    0.305018
          Atomic-Atomic Spin Densities.
               1          2          3          4          5          6
     1  Fe   4.046455  -0.042645   0.001528  -0.032373   0.001792  -0.052880
     2  O   -0.042645   0.105648  -0.003638  -0.005964   0.000118  -0.012766
     3  H    0.001528  -0.003638   0.001826   0.000217  -0.000001   0.000219
     4  O   -0.032373  -0.005964   0.000217   0.073795  -0.003449  -0.006111
     5  H    0.001792   0.000118  -0.000001  -0.003449   0.001657   0.000336
     6  O   -0.052880  -0.012766   0.000219  -0.006111   0.000336   0.124614
     7  H    0.003462   0.000618  -0.000002   0.000197  -0.000001  -0.005904
     8  O   -0.042645   0.007425  -0.000130  -0.006038   0.000533  -0.012797
     9  H    0.001437  -0.000126   0.000000   0.000220  -0.000013   0.000216
    10  O   -0.032373  -0.006038   0.000231   0.004583  -0.000067  -0.005380
    11  H    0.001792   0.000533  -0.000016  -0.000067   0.000000   0.000216
    12  O   -0.052880  -0.012797   0.000996  -0.005380   0.000216   0.009059
    13  H    0.003462   0.000544  -0.000028   0.000203  -0.000012  -0.000134
    14  H    0.003663   0.000428  -0.000027   0.000149  -0.000001  -0.000141
    15  H    0.001984   0.000535  -0.000012  -0.003630   0.000767   0.000328
    16  H    0.001437  -0.003595   0.000753   0.000262  -0.000001   0.001043
    17  H    0.001984   0.000136  -0.000001  -0.000066   0.000000   0.000219
    18  H    0.003663   0.000476  -0.000002   0.000261  -0.000032  -0.005322
    19  H    0.001528  -0.000130   0.000000   0.000231  -0.000016   0.000996
               7          8          9         10         11         12
     1  Fe   0.003462  -0.042645   0.001437  -0.032373   0.001792  -0.052880
     2  O    0.000618   0.007425  -0.000126  -0.006038   0.000533  -0.012797
     3  H   -0.000002  -0.000130   0.000000   0.000231  -0.000016   0.000996
     4  O    0.000197  -0.006038   0.000220   0.004583  -0.000067  -0.005380
     5  H   -0.000001   0.000533  -0.000013  -0.000067   0.000000   0.000216
     6  O   -0.005904  -0.012797   0.000216  -0.005380   0.000216   0.009059
     7  H    0.001147   0.000544  -0.000002   0.000203  -0.000012  -0.000134
     8  O    0.000544   0.105648  -0.003595  -0.005964   0.000118  -0.012767
     9  H   -0.000002  -0.003595   0.001878   0.000262  -0.000001   0.001043
    10  O    0.000203  -0.005964   0.000262   0.073795  -0.003449  -0.006111
    11  H   -0.000012   0.000118  -0.000001  -0.003449   0.001657   0.000336
    12  O   -0.000134  -0.012767   0.001043  -0.006111   0.000336   0.124614
    13  H    0.000000   0.000618  -0.000035   0.000197  -0.000001  -0.005904
    14  H    0.000000   0.000476  -0.000024   0.000261  -0.000032  -0.005322
    15  H   -0.000001   0.000136  -0.000001  -0.000066   0.000000   0.000219
    16  H   -0.000035  -0.000126   0.000000   0.000220  -0.000013   0.000216
    17  H   -0.000019   0.000535  -0.000016  -0.003630   0.000767   0.000328
    18  H    0.001271   0.000428  -0.000002   0.000149  -0.000001  -0.000141
    19  H   -0.000028  -0.003638   0.000753   0.000217  -0.000001   0.000219
              13         14         15         16         17         18
     1  Fe   0.003462   0.003663   0.001984   0.001437   0.001984   0.003663
     2  O    0.000544   0.000428   0.000535  -0.003595   0.000136   0.000476
     3  H   -0.000028  -0.000027  -0.000012   0.000753  -0.000001  -0.000002
     4  O    0.000203   0.000149  -0.003630   0.000262  -0.000066   0.000261
     5  H   -0.000012  -0.000001   0.000767  -0.000001   0.000000  -0.000032
     6  O   -0.000134  -0.000141   0.000328   0.001043   0.000219  -0.005322
     7  H    0.000000   0.000000  -0.000001  -0.000035  -0.000019   0.001271
     8  O    0.000618   0.000476   0.000136  -0.000126   0.000535   0.000428
     9  H   -0.000035  -0.000024  -0.000001   0.000000  -0.000016  -0.000002
    10  O    0.000197   0.000261  -0.000066   0.000220  -0.003630   0.000149
    11  H   -0.000001  -0.000032   0.000000  -0.000013   0.000767  -0.000001
    12  O   -0.005904  -0.005322   0.000219   0.000216   0.000328  -0.000141
    13  H    0.001147   0.001271  -0.000019  -0.000002  -0.000001   0.000000
    14  H    0.001271  -0.000202  -0.000001  -0.000002  -0.000017   0.000000
    15  H   -0.000019  -0.000001   0.001465  -0.000016   0.000000  -0.000017
    16  H   -0.000002  -0.000002  -0.000016   0.001878  -0.000001  -0.000024
    17  H   -0.000001  -0.000017   0.000000  -0.000001   0.001465  -0.000001
    18  H    0.000000   0.000000  -0.000017  -0.000024  -0.000001  -0.000202
    19  H   -0.000002  -0.000002  -0.000001   0.000000  -0.000012  -0.000027
              19
     1  Fe   0.001528
     2  O   -0.000130
     3  H    0.000000
     4  O    0.000231
     5  H   -0.000016
     6  O    0.000996
     7  H   -0.000028
     8  O   -0.003638
     9  H    0.000753
    10  O    0.000217
    11  H   -0.000001
    12  O    0.000219
    13  H   -0.000002
    14  H   -0.000002
    15  H   -0.000001
    16  H    0.000000
    17  H   -0.000012
    18  H   -0.000027
    19  H    0.001826
 Mulliken charges and spin densities:
               1          2
     1  Fe   1.082085   3.818390
     2  O   -0.670714   0.028761
     3  H    0.411920   0.001913
     4  O   -0.656198   0.017042
     5  H    0.403930   0.001827
     6  O   -0.665856   0.035812
     7  H    0.411697   0.001306
     8  O   -0.670714   0.028761
     9  H    0.411945   0.001994
    10  O   -0.656199   0.017042
    11  H    0.403931   0.001827
    12  O   -0.665856   0.035812
    13  H    0.411697   0.001306
    14  H    0.409890   0.000479
    15  H    0.402343   0.001672
    16  H    0.411945   0.001994
    17  H    0.402344   0.001672
    18  H    0.409890   0.000479
    19  H    0.411920   0.001913
 Sum of Mulliken charges =   2.00000   4.00000
 Mulliken charges and spin densities with hydrogens summed into heavy atoms:
               1          2
     1  Fe   1.082085   3.818390
     2  O    0.153151   0.032668
     4  O    0.150076   0.020540
     6  O    0.155731   0.037597
     8  O    0.153151   0.032668
    10  O    0.150076   0.020540
    12  O    0.155731   0.037597
 APT charges:
               1
     1  Fe   1.681424
     2  O   -0.605851
     3  H    0.327973
     4  O   -0.571543
     5  H    0.308070
     6  O   -0.576170
     7  H    0.321518
     8  O   -0.605850
     9  H    0.328134
    10  O   -0.571543
    11  H    0.308070
    12  O   -0.576170
    13  H    0.321518
    14  H    0.320204
    15  H    0.306953
    16  H    0.328134
    17  H    0.306953
    18  H    0.320204
    19  H    0.327973
 Sum of APT charges =   2.00000
 APT charges with hydrogens summed into heavy atoms:
               1
     1  Fe   1.681424
     2  O    0.050256
     4  O    0.043480
     6  O    0.065552
     8  O    0.050256
    10  O    0.043480
    12  O    0.065552
 Electronic spatial extent (au):  <R**2>=           1191.5520
 Charge=              2.0000 electrons
 Dipole moment (field-independent basis, Debye):
    X=             -0.0000    Y=              0.0000    Z=             -0.0000  Tot=              0.0000
 Quadrupole moment (field-independent basis, Debye-Ang):
   XX=            -16.2390   YY=            -14.2789   ZZ=            -14.8800
   XY=              0.0613   XZ=             -0.2659   YZ=             -0.1224
 Traceless Quadrupole moment (field-independent basis, Debye-Ang):
   XX=             -1.1063   YY=              0.8537   ZZ=              0.2527
   XY=              0.0613   XZ=             -0.2659   YZ=             -0.1224
 Octapole moment (field-independent basis, Debye-Ang**2):
  XXX=             -0.0000  YYY=              0.0000  ZZZ=              0.0000  XYY=              0.0000
  XXY=              0.0001  XXZ=             -0.0000  XZZ=              0.0000  YZZ=             -0.0001
  YYZ=             -0.0000  XYZ=             -0.0000
 Hexadecapole moment (field-independent basis, Debye-Ang**3):
 XXXX=           -261.2494 YYYY=           -118.6653 ZZZZ=           -177.3078 XXXY=            -12.8307
 XXXZ=            -50.2205 YYYX=              3.8043 YYYZ=            -26.6877 ZZZX=             34.4832
 ZZZY=             16.1779 XXYY=           -111.3325 XXZZ=            -30.5749 YYZZ=            -96.3566
 XXYZ=             10.5070 YYXZ=              1.5720 ZZXY=              8.4968
 N-N= 6.475458494545D+02 E-N=-5.358772636715D+03  KE= 1.717802256148D+03
  Exact polarizability:      61.648       0.109      61.773       1.596      -0.050      62.200
 Approx polarizability:      83.447      -0.023      85.317       2.702      -0.279      86.951
                          Isotropic Fermi Contact Couplings
        Atom                 a.u.       MegaHertz       Gauss      10(-4) cm-1
     1  Fe(57)             0.49818      18.06404       6.44570       6.02551
     2  O(17)              0.08377     -12.69582      -4.53018      -4.23487
     3  H(1)               0.00124       1.38732       0.49503       0.46276
     4  O(17)              0.07265     -11.00931      -3.92839      -3.67231
     5  H(1)               0.00100       1.11500       0.39786       0.37193
     6  O(17)              0.08911     -13.50501      -4.81892      -4.50479
     7  H(1)               0.00049       0.54840       0.19568       0.18293
     8  O(17)              0.08377     -12.69583      -4.53019      -4.23487
     9  H(1)               0.00126       1.41336       0.50432       0.47145
    10  O(17)              0.07265     -11.00931      -3.92840      -3.67231
    11  H(1)               0.00100       1.11500       0.39786       0.37193
    12  O(17)              0.08911     -13.50501      -4.81892      -4.50479
    13  H(1)               0.00049       0.54840       0.19568       0.18293
    14  H(1)              -0.00011      -0.11913      -0.04251      -0.03974
    15  H(1)               0.00081       0.90907       0.32438       0.30323
    16  H(1)               0.00126       1.41336       0.50432       0.47145
    17  H(1)               0.00081       0.90906       0.32438       0.30323
    18  H(1)              -0.00011      -0.11912      -0.04251      -0.03974
    19  H(1)               0.00124       1.38732       0.49503       0.46276
 --------------------------------------------------------
       Center         ----  Spin Dipole Couplings  ----
                      3XX-RR        3YY-RR        3ZZ-RR
 --------------------------------------------------------
     1   Atom       -1.108986      2.435426     -1.326440
     2   Atom       -0.046291      0.141540     -0.095249
     3   Atom       -0.026098      0.038188     -0.012090
     4   Atom        0.138735     -0.084347     -0.054388
     5   Atom        0.025695     -0.011986     -0.013710
     6   Atom       -0.051118     -0.004714      0.055832
     7   Atom       -0.020360     -0.025873      0.046232
     8   Atom       -0.046292      0.141540     -0.095248
     9   Atom       -0.025090      0.049340     -0.024250
    10   Atom        0.138735     -0.084347     -0.054388
    11   Atom        0.025695     -0.011986     -0.013710
    12   Atom       -0.051118     -0.004714      0.055832
    13   Atom       -0.020360     -0.025872      0.046232
    14   Atom        0.026606     -0.029325      0.002718
    15   Atom        0.022438     -0.018649     -0.003788
    16   Atom       -0.025090      0.049340     -0.024250
    17   Atom        0.022437     -0.018649     -0.003788
    18   Atom        0.026606     -0.029325      0.002719
    19   Atom       -0.026098      0.038188     -0.012090
 --------------------------------------------------------
                        XY            XZ            YZ
 --------------------------------------------------------
     1   Atom        0.543257      0.031754     -0.112560
     2   Atom       -0.014362     -0.054477     -0.026043
     3   Atom       -0.012736      0.008352     -0.029928
     4   Atom       -0.008210     -0.086387      0.006786
     5   Atom       -0.020980     -0.025649      0.010469
     6   Atom        0.015857      0.123149      0.000220
     7   Atom        0.001986      0.015650      0.010822
     8   Atom       -0.014362     -0.054477     -0.026043
     9   Atom        0.015615      0.005220      0.013225
    10   Atom       -0.008210     -0.086387      0.006786
    11   Atom       -0.020980     -0.025648      0.010469
    12   Atom        0.015856      0.123150      0.000219
    13   Atom        0.001986      0.015650      0.010822
    14   Atom        0.004697      0.037716      0.004030
    15   Atom        0.011311     -0.031518     -0.010068
    16   Atom        0.015615      0.005220      0.013225
    17   Atom        0.011311     -0.031518     -0.010068
    18   Atom        0.004697      0.037716      0.004030
    19   Atom       -0.012736      0.008352     -0.029928
 --------------------------------------------------------


 ---------------------------------------------------------------------------------
              Anisotropic Spin Dipole Couplings in Principal Axis System
 ---------------------------------------------------------------------------------

       Atom             a.u.   MegaHertz   Gauss  10(-4) cm-1        Axes

              Baa    -1.3444   -23.275    -8.305    -7.764 -0.2907  0.0702  0.9542
     1 Fe(57) Bbb    -1.1754   -20.349    -7.261    -6.788  0.9453 -0.1329  0.2978
              Bcc     2.5198    43.625    15.566    14.552  0.1478  0.9886 -0.0277
 
              Baa    -0.1337     9.674     3.452     3.227  0.5385  0.1072  0.8358
     2 O(17)  Bbb    -0.0111     0.801     0.286     0.267  0.8413 -0.0131 -0.5404
              Bcc     0.1448   -10.475    -3.738    -3.494 -0.0470  0.9942 -0.0972
 
              Baa    -0.0301   -16.037    -5.722    -5.349  0.8669 -0.0555 -0.4954
     3 H(1)   Bbb    -0.0249   -13.277    -4.737    -4.429  0.4637  0.4545  0.7605
              Bcc     0.0549    29.313    10.460     9.778 -0.1830  0.8890 -0.4197
 
              Baa    -0.0897     6.492     2.317     2.166  0.2742 -0.5643  0.7787
     4 O(17)  Bbb    -0.0824     5.963     2.128     1.989  0.2321  0.8246  0.5159
              Bcc     0.1721   -12.456    -4.444    -4.155  0.9332 -0.0393 -0.3571
 
              Baa    -0.0264   -14.060    -5.017    -4.690  0.4355 -0.0199  0.9000
     5 H(1)   Bbb    -0.0212   -11.319    -4.039    -3.776  0.3379  0.9303 -0.1430
              Bcc     0.0476    25.379     9.056     8.466  0.8344 -0.3664 -0.4118
 
              Baa    -0.1332     9.642     3.440     3.216  0.8336 -0.1019 -0.5428
     6 O(17)  Bbb    -0.0039     0.284     0.101     0.095  0.0508  0.9928 -0.1084
              Bcc     0.1372    -9.926    -3.542    -3.311  0.5500  0.0628  0.8328
 
              Baa    -0.0275   -14.666    -5.233    -4.892  0.0806  0.9836 -0.1615
     7 H(1)   Bbb    -0.0238   -12.702    -4.532    -4.237  0.9733 -0.1126 -0.2001
              Bcc     0.0513    27.368     9.766     9.129  0.2150  0.1411  0.9664
 
              Baa    -0.1337     9.674     3.452     3.227  0.5385  0.1072  0.8358
     8 O(17)  Bbb    -0.0111     0.801     0.286     0.267  0.8413 -0.0131 -0.5404
              Bcc     0.1448   -10.475    -3.738    -3.494 -0.0470  0.9942 -0.0972
 
              Baa    -0.0301   -16.039    -5.723    -5.350  0.8078 -0.0612 -0.5863
     9 H(1)   Bbb    -0.0249   -13.284    -4.740    -4.431  0.5547 -0.2576  0.7912
              Bcc     0.0550    29.323    10.463     9.781  0.1995  0.9643  0.1742
 
              Baa    -0.0897     6.492     2.317     2.166  0.2742 -0.5644  0.7787
    10 O(17)  Bbb    -0.0824     5.963     2.128     1.989  0.2321  0.8246  0.5159
              Bcc     0.1721   -12.456    -4.444    -4.155  0.9332 -0.0393 -0.3571
 
              Baa    -0.0264   -14.060    -5.017    -4.690  0.4355 -0.0198  0.9000
    11 H(1)   Bbb    -0.0212   -11.319    -4.039    -3.776  0.3379  0.9303 -0.1430
              Bcc     0.0476    25.379     9.056     8.466  0.8344 -0.3664 -0.4118
 
              Baa    -0.1332     9.642     3.440     3.216  0.8336 -0.1019 -0.5428
    12 O(17)  Bbb    -0.0039     0.284     0.101     0.095  0.0508  0.9928 -0.1084
              Bcc     0.1372    -9.926    -3.542    -3.311  0.5500  0.0627  0.8328
 
              Baa    -0.0275   -14.666    -5.233    -4.892  0.0806  0.9836 -0.1615
    13 H(1)   Bbb    -0.0238   -12.702    -4.532    -4.237  0.9733 -0.1126 -0.2001
              Bcc     0.0513    27.368     9.766     9.129  0.2150  0.1411  0.9664
 
              Baa    -0.0298   -15.913    -5.678    -5.308 -0.0020  0.9927 -0.1206
    14 H(1)   Bbb    -0.0249   -13.261    -4.732    -4.423 -0.5941  0.0958  0.7987
              Bcc     0.0547    29.173    10.410     9.731  0.8044  0.0733  0.5896
 
              Baa    -0.0259   -13.824    -4.933    -4.611  0.4065  0.4607  0.7890
    15 H(1)   Bbb    -0.0210   -11.198    -3.996    -3.735 -0.4278  0.8590 -0.2812
              Bcc     0.0469    25.021     8.928     8.346  0.8073  0.2232 -0.5463
 
              Baa    -0.0301   -16.039    -5.723    -5.350  0.8078 -0.0612 -0.5863
    16 H(1)   Bbb    -0.0249   -13.284    -4.740    -4.431  0.5547 -0.2576  0.7912
              Bcc     0.0550    29.323    10.463     9.781  0.1995  0.9643  0.1742
 
              Baa    -0.0259   -13.824    -4.933    -4.611  0.4065  0.4608  0.7889
    17 H(1)   Bbb    -0.0210   -11.198    -3.996    -3.735 -0.4278  0.8590 -0.2812
              Bcc     0.0469    25.021     8.928     8.346  0.8073  0.2232 -0.5463
 
              Baa    -0.0298   -15.913    -5.678    -5.308 -0.0020  0.9927 -0.1206
    18 H(1)   Bbb    -0.0249   -13.261    -4.732    -4.423 -0.5941  0.0958  0.7987
              Bcc     0.0547    29.173    10.410     9.731  0.8044  0.0733  0.5896
 
              Baa    -0.0301   -16.037    -5.722    -5.349  0.8669 -0.0555 -0.4954
    19 H(1)   Bbb    -0.0249   -13.277    -4.737    -4.429  0.4637  0.4545  0.7605
              Bcc     0.0549    29.313    10.460     9.778 -0.1830  0.8890 -0.4197
 

 ---------------------------------------------------------------------------------

 No NMR shielding tensors so no spin-rotation constants.
 Leave Link  601 at Thu Mar  6 17:58:47 2025, MaxMem= 13421772800 cpu:              31.1 elap:               0.4
 (Enter /gpfs/fs1/soft/improv/software/custom-built/gaussian/g16/l701.exe)
 ... and contract with generalized density number  0.
 Compute integral second derivatives.
 R6Disp: Adding Grimme-D2 dispersion energy 2nd derivatives to the Hessian.
 Leave Link  701 at Thu Mar  6 17:58:48 2025, MaxMem= 13421772800 cpu:              82.3 elap:               0.7
 (Enter /gpfs/fs1/soft/improv/software/custom-built/gaussian/g16/l702.exe)
 L702 exits ... SP integral derivatives will be done elsewhere.
 Leave Link  702 at Thu Mar  6 17:58:48 2025, MaxMem= 13421772800 cpu:               0.4 elap:               0.0
 (Enter /gpfs/fs1/soft/improv/software/custom-built/gaussian/g16/l703.exe)
 Integral derivatives from FoFJK, PRISM(SPDF).
 Compute integral second derivatives, UseDBF=F ICtDFT=           0.
 Calling FoFJK, ICntrl=    100527 FMM=F ISym2X=0 I1Cent= 0 IOpClX= 0 NMat=1 NMatS=1 NMatT=0.
 FoFJK:  IHMeth= 1 ICntrl=  100527 DoSepK=F KAlg= 0 I1Cent=           0 FoldK=F
 IRaf=         0 NMat=       1 IRICut=       1 DoRegI=T DoRafI=F ISym2E= 0 IDoP0=0 IntGTp=1.
 FoFCou: FMM=F IPFlag=           0 FMFlag=      100000 FMFlg1=         800
         NFxFlg=           0 DoJE=F BraDBF=F KetDBF=F FulRan=T
         wScrn=  0.000000 ICntrl=    100527 IOpCl=  0 I1Cent=           0 NGrid=           0
         NMat0=    1 NMatS0=      1 NMatT0=    0 NMatD0=    1 NMtDS0=    0 NMtDT0=    0
 Symmetry not used in FoFCou.
 Leave Link  703 at Thu Mar  6 17:59:20 2025, MaxMem= 13421772800 cpu:            3939.9 elap:              31.3
 (Enter /gpfs/fs1/soft/improv/software/custom-built/gaussian/g16/l716.exe)
 Dipole        =-3.99353361D-07 1.58127036D-06-1.00962075D-06
 Polarizability= 6.16483122D+01 1.08876173D-01 6.17733727D+01
                 1.59562647D+00-5.01768599D-02 6.22000299D+01
 ***** Axes restored to original set *****
 -------------------------------------------------------------------
 Center     Atomic                   Forces (Hartrees/Bohr)
 Number     Number              X              Y              Z
 -------------------------------------------------------------------
      1       26          -0.000000080   -0.000000053    0.000000023
      2        8          -0.000003382    0.000021837    0.000026692
      3        1          -0.000001084    0.000001921    0.000002763
      4        8          -0.000015327   -0.000007590    0.000006750
      5        1           0.000008353   -0.000012334    0.000007110
      6        8          -0.000037830   -0.000006271    0.000042582
      7        1           0.000050042    0.000004444   -0.000034989
      8        8           0.000003493   -0.000022278   -0.000027357
      9        1          -0.000006858    0.000021958    0.000019520
     10        8           0.000013776    0.000008230   -0.000006626
     11        1          -0.000006880    0.000010745   -0.000006891
     12        8           0.000037723    0.000006250   -0.000042550
     13        1          -0.000049895   -0.000004416    0.000034930
     14        1           0.000015087    0.000005947    0.000003324
     15        1           0.000006359    0.000018295   -0.000013575
     16        1           0.000006750   -0.000021450   -0.000018944
     17        1          -0.000006221   -0.000017315    0.000013234
     18        1          -0.000015119   -0.000005941   -0.000003310
     19        1           0.000001093   -0.000001978   -0.000002686
 -------------------------------------------------------------------
 Cartesian Forces:  Max     0.000050042 RMS     0.000019210
 Leave Link  716 at Thu Mar  6 17:59:20 2025, MaxMem= 13421772800 cpu:               0.4 elap:               0.0
 (Enter /gpfs/fs1/soft/improv/software/custom-built/gaussian/g16/l103.exe)

 GradGradGradGradGradGradGradGradGradGradGradGradGradGradGradGradGradGrad
 Berny optimization.
 Search for a local minimum.
 Step number   1 out of a maximum of  114
 All quantities printed in internal units (Hartrees-Bohrs-Radians)
 Second derivative matrix not updated -- analytic derivatives used.
 ITU=  0
     Eigenvalues ---    0.00007   0.00073   0.00081   0.00097   0.00104
     Eigenvalues ---    0.00116   0.00124   0.00180   0.00206   0.00254
     Eigenvalues ---    0.00309   0.00315   0.00338   0.00361   0.00482
     Eigenvalues ---    0.00532   0.00648   0.00710   0.00717   0.00884
     Eigenvalues ---    0.01005   0.01061   0.01080   0.01607   0.01717
     Eigenvalues ---    0.01834   0.01862   0.01989   0.01990   0.02164
     Eigenvalues ---    0.06809   0.07534   0.08213   0.17447   0.17816
     Eigenvalues ---    0.18048   0.18187   0.18679   0.18976   0.81609
     Eigenvalues ---    0.82635   0.82979   0.84738   0.84953   0.86422
     Eigenvalues ---    1.05773   1.07939   1.09196   1.12203   1.13371
     Eigenvalues ---    1.13906
 RFO step:  Lambda=-2.38814177D-06 EMin= 6.97839612D-05
 Linear search not attempted -- first point.
 B after Tr=     0.001384    0.001636   -0.002406
         Rot=    1.000000   -0.000353   -0.000490   -0.000536 Ang=  -0.09 deg.
 Variable       Old X    -DE/DX   Delta X   Delta X   Delta X     New X
                                 (Linear)    (Quad)   (Total)
    X1       -1.48309  -0.00000   0.00000   0.00000   0.00000  -1.48309
    Y1        1.34728  -0.00000   0.00000   0.00000   0.00000   1.34728
    Z1        0.06008   0.00000   0.00000   0.00000  -0.00000   0.06008
    X2       -2.60295  -0.00000   0.00000  -0.01785  -0.02250  -2.62545
    Y2        5.16238   0.00002   0.00000   0.00384   0.00302   5.16540
    Z2       -0.51985   0.00003   0.00000   0.01446   0.01828  -0.50158
    X3       -2.80440  -0.00000   0.00000  -0.00232  -0.00944  -2.81384
    Y3        5.96977   0.00000   0.00000   0.01153   0.01166   5.98143
    Z3       -2.15510   0.00000   0.00000   0.01637   0.02094  -2.13415
    X4        2.59014  -0.00002   0.00000  -0.01004  -0.01102   2.57912
    Y4        2.58601  -0.00001   0.00000   0.00074   0.00485   2.59085
    Z4        0.44920   0.00001   0.00000  -0.02442  -0.02752   0.42168
    X5        3.99230   0.00001   0.00000  -0.01861  -0.01814   3.97416
    Y5        1.40615  -0.00001   0.00000  -0.00246   0.00301   1.40916
    Z5        0.53956   0.00001   0.00000   0.06600   0.06070   0.60026
    X6       -1.60515  -0.00004   0.00000  -0.01083  -0.00754  -1.61270
    Y6        1.93812  -0.00001   0.00000  -0.00627  -0.00923   1.92889
    Z6        4.04887   0.00004   0.00000   0.00203   0.00257   4.05144
    X7       -3.01935   0.00005   0.00000  -0.02586  -0.02132  -3.04067
    Y7        1.79555   0.00000   0.00000   0.01301   0.00771   1.80326
    Z7        5.20922  -0.00003   0.00000  -0.01407  -0.01222   5.19701
    X8       -0.36323   0.00000   0.00000   0.01784   0.02249  -0.34074
    Y8       -2.46781  -0.00002   0.00000  -0.00385  -0.00302  -2.47083
    Z8        0.64001  -0.00003   0.00000  -0.01446  -0.01828   0.62173
    X9       -0.10155  -0.00001   0.00000  -0.01336  -0.00866  -0.11021
    Y9       -3.71793   0.00002   0.00000  -0.00848  -0.00647  -3.72441
    Z9       -0.67721   0.00002   0.00000  -0.01610  -0.02103  -0.69824
   X10       -5.55632   0.00001   0.00000   0.01005   0.01102  -5.54530
   Y10        0.10856   0.00001   0.00000  -0.00074  -0.00484   0.10372
   Z10       -0.32904  -0.00001   0.00000   0.02441   0.02751  -0.30153
   X11       -6.95847  -0.00001   0.00000   0.01860   0.01813  -6.94034
   Y11        1.28842   0.00001   0.00000   0.00245  -0.00302   1.28541
   Z11       -0.41942  -0.00001   0.00000  -0.06590  -0.06060  -0.48002
   X12       -1.36103   0.00004   0.00000   0.01083   0.00754  -1.35348
   Y12        0.75645   0.00001   0.00000   0.00627   0.00923   0.76568
   Z12       -3.92872  -0.00004   0.00000  -0.00203  -0.00257  -3.93128
   X13        0.05317  -0.00005   0.00000   0.02586   0.02132   0.07449
   Y13        0.89901  -0.00000   0.00000  -0.01301  -0.00771   0.89130
   Z13       -5.08907   0.00003   0.00000   0.01407   0.01222  -5.07686
   X14       -2.83440   0.00002   0.00000   0.02352   0.01995  -2.81445
   Y14        0.17859   0.00001   0.00000  -0.00820  -0.00615   0.17244
   Z14       -4.85873   0.00000   0.00000  -0.01296  -0.01249  -4.87121
   X15        3.25425   0.00001   0.00000   0.01243   0.00911   3.26337
   Y15        4.18035   0.00002   0.00000  -0.03020  -0.02488   4.15547
   Z15       -0.16967  -0.00001   0.00000  -0.07989  -0.08256  -0.25224
   X16       -2.86463   0.00001   0.00000   0.01340   0.00870  -2.85593
   Y16        6.41250  -0.00002   0.00000   0.00849   0.00649   6.41898
   Z16        0.79737  -0.00002   0.00000   0.01610   0.02103   0.81839
   X17       -6.22044  -0.00001   0.00000  -0.01240  -0.00909  -6.22953
   Y17       -1.48578  -0.00002   0.00000   0.03017   0.02485  -1.46093
   Z17        0.28984   0.00001   0.00000   0.07981   0.08248   0.37232
   X18       -0.13178  -0.00002   0.00000  -0.02353  -0.01996  -0.15174
   Y18        2.51597  -0.00001   0.00000   0.00823   0.00617   2.52214
   Z18        4.97889  -0.00000   0.00000   0.01296   0.01248   4.99137
   X19       -0.16177   0.00000   0.00000   0.00229   0.00941  -0.15236
   Y19       -3.27520  -0.00000   0.00000  -0.01154  -0.01167  -3.28687
   Z19        2.27525  -0.00000   0.00000  -0.01637  -0.02095   2.25431
         Item               Value     Threshold  Converged?
 Maximum Force            0.000050     0.002500     YES
 RMS     Force            0.000019     0.001667     YES
 Maximum Displacement     0.082562     0.010000     NO 
 RMS     Displacement     0.023624     0.006667     NO 
 Predicted change in Energy=-1.288529D-06
 Lowest energy point so far.  Saving SCF results.
 GradGradGradGradGradGradGradGradGradGradGradGradGradGradGradGradGradGrad

 Leave Link  103 at Thu Mar  6 17:59:20 2025, MaxMem= 13421772800 cpu:               0.9 elap:               0.1
 (Enter /gpfs/fs1/soft/improv/software/custom-built/gaussian/g16/l202.exe)
                          Input orientation:                          
 ---------------------------------------------------------------------
 Center     Atomic      Atomic             Coordinates (Angstroms)
 Number     Number       Type             X           Y           Z
 ---------------------------------------------------------------------
      1         26           0       -0.784816    0.712952    0.031792
      2          8           0       -1.389326    2.733412   -0.265423
      3          1           0       -1.489021    3.165238   -1.129345
      4          8           0        1.364811    1.371020    0.223142
      5          1           0        2.103034    0.745697    0.317643
      6          8           0       -0.853402    1.020725    2.143929
      7          1           0       -1.609056    0.954244    2.750138
      8          8           0       -0.180311   -1.307509    0.329008
      9          1           0       -0.058323   -1.970871   -0.369492
     10          8           0       -2.934444    0.054886   -0.159563
     11          1           0       -3.672670    0.680207   -0.254016
     12          8           0       -0.716232    0.405179   -2.080345
     13          1           0        0.039419    0.471657   -2.686557
     14          1           0       -1.489343    0.091252   -2.577733
     15          1           0        1.726901    2.198978   -0.133478
     16          1           0       -1.511293    3.396779    0.433075
     17          1           0       -3.296523   -0.773089    0.197024
     18          1           0       -0.080297    1.334661    2.641320
     19          1           0       -0.080626   -1.739339    1.192929
 ---------------------------------------------------------------------
                    Distance matrix (angstroms):
                    1          2          3          4          5
     1  Fe   0.000000
     2  O    2.129795   0.000000
     3  H    2.803186   0.970965   0.000000
     4  O    2.256228   3.111283   3.632190   0.000000
     5  H    2.902148   4.060487   4.566269   0.972076   0.000000
     6  O    2.135545   3.004246   3.964502   2.955097   3.485897
     7  H    2.850789   3.508181   4.466911   3.924703   4.442987
     8  O    2.129795   4.259590   4.883133   3.094048   3.070742
     9  H    2.809222   4.890059   5.385526   3.680321   3.538837
    10  O    2.256230   3.094042   3.564269   4.512457   5.106969
[...]
    13  H    0.310004  -0.014828  -0.000017  -0.000001  -0.000001   0.000001
    14  H   -0.014828   0.310219  -0.000001  -0.000003  -0.000066   0.000000
    15  H   -0.000017  -0.000001   0.318720  -0.000004   0.000000  -0.000066
    16  H   -0.000001  -0.000003  -0.000004   0.304438  -0.000002  -0.000042
    17  H   -0.000001  -0.000066   0.000000  -0.000002   0.318720  -0.000001
    18  H    0.000001   0.000000  -0.000066  -0.000042  -0.000001   0.310219
    19  H   -0.000001  -0.000003  -0.000001   0.000001  -0.000026  -0.000027
              19
     1  Fe   0.001509
     2  O   -0.000376
     3  H    0.000000
     4  O    0.000118
     5  H   -0.000005
     6  O    0.002450
     7  H   -0.000047
     8  O    0.293009
     9  H   -0.014277
    10  O    0.000244
    11  H   -0.000001
    12  O    0.000870
    13  H   -0.000001
    14  H   -0.000003
    15  H   -0.000001
    16  H    0.000001
    17  H   -0.000026
    18  H   -0.000027
    19  H    0.304715
          Atomic-Atomic Spin Densities.
               1          2          3          4          5          6
     1  Fe   4.055889  -0.043652   0.001553  -0.033072   0.001784  -0.054772
     2  O   -0.043652   0.109249  -0.003530  -0.006559   0.000114  -0.013866
     3  H    0.001553  -0.003530   0.001679   0.000229  -0.000001   0.000217
     4  O   -0.033072  -0.006559   0.000229   0.075321  -0.003356  -0.006829
     5  H    0.001784   0.000114  -0.000001  -0.003356   0.001543   0.000357
     6  O   -0.054772  -0.013866   0.000217  -0.006829   0.000357   0.128734
     7  H    0.003464   0.000626  -0.000002   0.000205  -0.000001  -0.005778
     8  O   -0.043652   0.008278  -0.000132  -0.006596   0.000525  -0.013883
     9  H    0.001459  -0.000129   0.000000   0.000230  -0.000012   0.000216
    10  O   -0.033072  -0.006596   0.000238   0.005130  -0.000069  -0.006137
    11  H    0.001784   0.000525  -0.000014  -0.000069   0.000000   0.000233
    12  O   -0.054772  -0.013883   0.000976  -0.006137   0.000233   0.010111
    13  H    0.003464   0.000553  -0.000025   0.000195  -0.000011  -0.000138
    14  H    0.003771   0.000459  -0.000026   0.000150  -0.000001  -0.000148
    15  H    0.001956   0.000527  -0.000011  -0.003481   0.000723   0.000344
    16  H    0.001459  -0.003492   0.000700   0.000271  -0.000001   0.001024
    17  H    0.001956   0.000133  -0.000001  -0.000068   0.000000   0.000233
    18  H    0.003771   0.000508  -0.000002   0.000244  -0.000029  -0.005425
    19  H    0.001553  -0.000132   0.000000   0.000238  -0.000014   0.000976
               7          8          9         10         11         12
     1  Fe   0.003464  -0.043652   0.001459  -0.033072   0.001784  -0.054772
     2  O    0.000626   0.008278  -0.000129  -0.006596   0.000525  -0.013883
     3  H   -0.000002  -0.000132   0.000000   0.000238  -0.000014   0.000976
     4  O    0.000205  -0.006596   0.000230   0.005130  -0.000069  -0.006137
     5  H   -0.000001   0.000525  -0.000012  -0.000069   0.000000   0.000233
     6  O   -0.005778  -0.013883   0.000216  -0.006137   0.000233   0.010111
     7  H    0.000973   0.000553  -0.000002   0.000195  -0.000011  -0.000138
     8  O    0.000553   0.109249  -0.003492  -0.006559   0.000114  -0.013866
     9  H   -0.000002  -0.003492   0.001730   0.000271  -0.000001   0.001024
    10  O    0.000195  -0.006559   0.000271   0.075321  -0.003356  -0.006829
    11  H   -0.000011   0.000114  -0.000001  -0.003356   0.001543   0.000357
    12  O   -0.000138  -0.013866   0.001024  -0.006829   0.000357   0.128734
    13  H    0.000000   0.000626  -0.000032   0.000205  -0.000001  -0.005778
    14  H    0.000000   0.000508  -0.000023   0.000244  -0.000029  -0.005425
    15  H   -0.000001   0.000133  -0.000001  -0.000068   0.000000   0.000233
    16  H   -0.000032  -0.000129   0.000000   0.000230  -0.000012   0.000216
    17  H   -0.000018   0.000527  -0.000015  -0.003481   0.000723   0.000344
    18  H    0.001234   0.000459  -0.000002   0.000150  -0.000001  -0.000148
    19  H   -0.000025  -0.003530   0.000700   0.000229  -0.000001   0.000217
              13         14         15         16         17         18
     1  Fe   0.003464   0.003771   0.001956   0.001459   0.001956   0.003771
     2  O    0.000553   0.000459   0.000527  -0.003492   0.000133   0.000508
     3  H   -0.000025  -0.000026  -0.000011   0.000700  -0.000001  -0.000002
     4  O    0.000195   0.000150  -0.003481   0.000271  -0.000068   0.000244
     5  H   -0.000011  -0.000001   0.000723  -0.000001   0.000000  -0.000029
     6  O   -0.000138  -0.000148   0.000344   0.001024   0.000233  -0.005425
     7  H    0.000000   0.000000  -0.000001  -0.000032  -0.000018   0.001234
     8  O    0.000626   0.000508   0.000133  -0.000129   0.000527   0.000459
     9  H   -0.000032  -0.000023  -0.000001   0.000000  -0.000015  -0.000002
    10  O    0.000205   0.000244  -0.000068   0.000230  -0.003481   0.000150
    11  H   -0.000001  -0.000029   0.000000  -0.000012   0.000723  -0.000001
    12  O   -0.005778  -0.005425   0.000233   0.000216   0.000344  -0.000148
    13  H    0.000973   0.001234  -0.000018  -0.000002  -0.000001   0.000000
    14  H    0.001234  -0.000209  -0.000001  -0.000002  -0.000015   0.000000
    15  H   -0.000018  -0.000001   0.001328  -0.000015   0.000000  -0.000015
    16  H   -0.000002  -0.000002  -0.000015   0.001730  -0.000001  -0.000023
    17  H   -0.000001  -0.000015   0.000000  -0.000001   0.001328  -0.000001
    18  H    0.000000   0.000000  -0.000015  -0.000023  -0.000001  -0.000209
    19  H   -0.000002  -0.000002  -0.000001   0.000000  -0.000011  -0.000026
              19
     1  Fe   0.001553
     2  O   -0.000132
     3  H    0.000000
     4  O    0.000238
     5  H   -0.000014
     6  O    0.000976
     7  H   -0.000025
     8  O   -0.003530
     9  H    0.000700
    10  O    0.000229
    11  H   -0.000001
    12  O    0.000217
    13  H   -0.000002
    14  H   -0.000002
    15  H   -0.000001
    16  H    0.000000
    17  H   -0.000011
    18  H   -0.000026
    19  H    0.001679
 Mulliken charges and spin densities:
               1          2
     1  Fe   1.159791   3.820870
     2  O   -0.679624   0.029135
     3  H    0.411851   0.001847
     4  O   -0.671917   0.016045
     5  H    0.402502   0.001785
     6  O   -0.673698   0.035470
     7  H    0.410778   0.001242
     8  O   -0.679624   0.029135
     9  H    0.411964   0.001922
    10  O   -0.671917   0.016046
    11  H    0.402503   0.001785
    12  O   -0.673698   0.035470
    13  H    0.410778   0.001242
    14  H    0.407094   0.000488
    15  H    0.401155   0.001633
    16  H    0.411964   0.001922
    17  H    0.401155   0.001633
    18  H    0.407094   0.000488
    19  H    0.411850   0.001847
 Sum of Mulliken charges =   2.00000   4.00000
 Mulliken charges and spin densities with hydrogens summed into heavy atoms:
               1          2
     1  Fe   1.159791   3.820870
     2  O    0.144190   0.032903
     4  O    0.131740   0.019462
     6  O    0.144174   0.037199
     8  O    0.144190   0.032903
    10  O    0.131741   0.019463
    12  O    0.144174   0.037199
 Electronic spatial extent (au):  <R**2>=           1193.1064
 Charge=              2.0000 electrons
 Dipole moment (field-independent basis, Debye):
    X=             -0.0000    Y=              0.0000    Z=             -0.0000  Tot=              0.0000
 Quadrupole moment (field-independent basis, Debye-Ang):
   XX=            -17.4930   YY=            -14.7197   ZZ=            -15.2977
   XY=              0.0702   XZ=             -0.2658   YZ=             -0.1383
 Traceless Quadrupole moment (field-independent basis, Debye-Ang):
   XX=             -1.6562   YY=              1.1171   ZZ=              0.5391
   XY=              0.0702   XZ=             -0.2658   YZ=             -0.1383
 Octapole moment (field-independent basis, Debye-Ang**2):
  XXX=             -0.0000  YYY=              0.0000  ZZZ=              0.0000  XYY=             -0.0000
  XXY=              0.0001  XXZ=             -0.0000  XZZ=              0.0000  YZZ=             -0.0001
  YYZ=             -0.0000  XYZ=             -0.0000
 Hexadecapole moment (field-independent basis, Debye-Ang**3):
 XXXX=           -274.9692 YYYY=           -124.8546 ZZZZ=           -182.0924 XXXY=            -12.8052
 XXXZ=            -48.0942 YYYX=              4.0050 YYYZ=            -26.7140 ZZZX=             33.2795
 ZZZY=             16.1244 XXYY=           -112.6213 XXZZ=            -34.1618 YYZZ=            -97.0811
 XXYZ=             10.3841 YYXZ=              1.6571 ZZXY=              8.4739
 N-N= 6.475484151587D+02 E-N=-5.358386255981D+03  KE= 1.717801628441D+03
                          Isotropic Fermi Contact Couplings
        Atom                 a.u.       MegaHertz       Gauss      10(-4) cm-1
     1  Fe(57)             0.49950      18.11179       6.46274       6.04144
     2  O(17)              0.08368     -12.68224      -4.52534      -4.23034
     3  H(1)               0.00124       1.38016       0.49247       0.46037
     4  O(17)              0.07324     -11.10013      -3.96080      -3.70260
     5  H(1)               0.00098       1.09755       0.39163       0.36610
     6  O(17)              0.08939     -13.54754      -4.83410      -4.51897
     7  H(1)               0.00048       0.53854       0.19216       0.17964
     8  O(17)              0.08368     -12.68226      -4.52534      -4.23035
     9  H(1)               0.00126       1.40586       0.50164       0.46894
    10  O(17)              0.07324     -11.10013      -3.96080      -3.70261
    11  H(1)               0.00098       1.09755       0.39163       0.36610
    12  O(17)              0.08939     -13.54754      -4.83410      -4.51897
    13  H(1)               0.00048       0.53854       0.19216       0.17964
    14  H(1)              -0.00009      -0.10559      -0.03768      -0.03522
    15  H(1)               0.00081       0.90225       0.32195       0.30096
    16  H(1)               0.00126       1.40585       0.50164       0.46894
    17  H(1)               0.00081       0.90225       0.32194       0.30096
    18  H(1)              -0.00009      -0.10558      -0.03768      -0.03522
    19  H(1)               0.00124       1.38016       0.49247       0.46037
 --------------------------------------------------------
       Center         ----  Spin Dipole Couplings  ----
                      3XX-RR        3YY-RR        3ZZ-RR
 --------------------------------------------------------
     1   Atom       -1.119752      2.442586     -1.322834
     2   Atom       -0.045853      0.140587     -0.094735
     3   Atom       -0.026107      0.038143     -0.012036
     4   Atom        0.135290     -0.082586     -0.052704
     5   Atom        0.025811     -0.012153     -0.013657
     6   Atom       -0.050325     -0.005526      0.055852
     7   Atom       -0.020331     -0.025777      0.046109
     8   Atom       -0.045853      0.140587     -0.094734
     9   Atom       -0.025088      0.049394     -0.024306
    10   Atom        0.135290     -0.082586     -0.052704
    11   Atom        0.025811     -0.012153     -0.013658
    12   Atom       -0.050325     -0.005526      0.055851
    13   Atom       -0.020331     -0.025777      0.046109
    14   Atom        0.026424     -0.029240      0.002816
    15   Atom        0.022570     -0.018795     -0.003775
    16   Atom       -0.025088      0.049395     -0.024306
    17   Atom        0.022569     -0.018795     -0.003775
    18   Atom        0.026424     -0.029240      0.002816
    19   Atom       -0.026107      0.038143     -0.012036
 --------------------------------------------------------
                        XY            XZ            YZ
 --------------------------------------------------------
     1   Atom        0.519197      0.024385     -0.162794
     2   Atom       -0.014341     -0.054256     -0.026293
     3   Atom       -0.012697      0.008323     -0.029990
     4   Atom       -0.008554     -0.085025      0.006420
     5   Atom       -0.020957     -0.025602      0.010410
     6   Atom        0.015927      0.121805      0.000661
     7   Atom        0.002040      0.015753      0.010939
     8   Atom       -0.014341     -0.054257     -0.026293
     9   Atom        0.015598      0.005151      0.013070
    10   Atom       -0.008553     -0.085025      0.006420
    11   Atom       -0.020957     -0.025602      0.010409
    12   Atom        0.015926      0.121805      0.000661
    13   Atom        0.002040      0.015754      0.010939
    14   Atom        0.004788      0.037765      0.004108
    15   Atom        0.011220     -0.031528     -0.009877
    16   Atom        0.015598      0.005151      0.013070
    17   Atom        0.011220     -0.031528     -0.009877
    18   Atom        0.004788      0.037765      0.004107
    19   Atom       -0.012698      0.008323     -0.029990
 --------------------------------------------------------


 ---------------------------------------------------------------------------------
              Anisotropic Spin Dipole Couplings in Principal Axis System
 ---------------------------------------------------------------------------------

       Atom             a.u.   MegaHertz   Gauss  10(-4) cm-1        Axes

              Baa    -1.3441   -23.270    -8.303    -7.762 -0.2908  0.0809  0.9534
     1 Fe(57) Bbb    -1.1791   -20.414    -7.284    -6.809  0.9464 -0.1222  0.2990
              Bcc     2.5232    43.683    15.587    14.571  0.1407  0.9892 -0.0410
 
              Baa    -0.1331     9.628     3.436     3.212  0.5379  0.1085  0.8360
     2 O(17)  Bbb    -0.0108     0.783     0.279     0.261  0.8417 -0.0140 -0.5398
              Bcc     0.1439   -10.411    -3.715    -3.473 -0.0469  0.9940 -0.0989
 
              Baa    -0.0300   -16.024    -5.718    -5.345  0.8674 -0.0559 -0.4944
     3 H(1)   Bbb    -0.0249   -13.291    -4.743    -4.433  0.4629  0.4550  0.7607
              Bcc     0.0549    29.315    10.460     9.778 -0.1824  0.8887 -0.4206
 
              Baa    -0.0874     6.324     2.256     2.109  0.2785 -0.5531  0.7852
     4 O(17)  Bbb    -0.0811     5.866     2.093     1.957  0.2310  0.8321  0.5042
              Bcc     0.1685   -12.190    -4.350    -4.066  0.9322 -0.0410 -0.3596
 
              Baa    -0.0262   -14.006    -4.998    -4.672  0.4359 -0.0164  0.8998
     5 H(1)   Bbb    -0.0213   -11.375    -4.059    -3.794  0.3350  0.9309 -0.1453
              Bcc     0.0476    25.381     9.057     8.466  0.8353 -0.3648 -0.4113
 
              Baa    -0.1314     9.511     3.394     3.173  0.8341 -0.1026 -0.5420
     6 O(17)  Bbb    -0.0048     0.347     0.124     0.116  0.0499  0.9926 -0.1111
              Bcc     0.1362    -9.859    -3.518    -3.288  0.5494  0.0656  0.8330
 
              Baa    -0.0274   -14.635    -5.222    -4.882  0.0802  0.9833 -0.1634
     7 H(1)   Bbb    -0.0238   -12.715    -4.537    -4.241  0.9730 -0.1129 -0.2015
              Bcc     0.0513    27.350     9.759     9.123  0.2166  0.1429  0.9658
 
              Baa    -0.1331     9.628     3.436     3.212  0.5379  0.1085  0.8360
     8 O(17)  Bbb    -0.0108     0.783     0.279     0.261  0.8417 -0.0140 -0.5398
              Bcc     0.1439   -10.411    -3.715    -3.473 -0.0469  0.9940 -0.0989
 
              Baa    -0.0300   -16.020    -5.716    -5.344  0.8082 -0.0624 -0.5856
     9 H(1)   Bbb    -0.0249   -13.296    -4.744    -4.435  0.5542 -0.2556  0.7921
              Bcc     0.0549    29.316    10.461     9.779  0.1991  0.9648  0.1720
 
              Baa    -0.0874     6.324     2.256     2.109  0.2785 -0.5531  0.7851
    10 O(17)  Bbb    -0.0811     5.866     2.093     1.957  0.2311  0.8321  0.5042
              Bcc     0.1685   -12.190    -4.350    -4.066  0.9322 -0.0410 -0.3596
 
              Baa    -0.0262   -14.006    -4.998    -4.672  0.4359 -0.0164  0.8998
    11 H(1)   Bbb    -0.0213   -11.375    -4.059    -3.794  0.3350  0.9309 -0.1453
              Bcc     0.0476    25.381     9.057     8.466  0.8353 -0.3648 -0.4113
 
              Baa    -0.1314     9.511     3.394     3.173  0.8341 -0.1026 -0.5420
    12 O(17)  Bbb    -0.0048     0.347     0.124     0.116  0.0499  0.9926 -0.1111
              Bcc     0.1362    -9.859    -3.518    -3.288  0.5494  0.0656  0.8330
 
              Baa    -0.0274   -14.635    -5.222    -4.882  0.0802  0.9833 -0.1634
    13 H(1)   Bbb    -0.0238   -12.715    -4.537    -4.241  0.9730 -0.1129 -0.2015
              Bcc     0.0513    27.350     9.759     9.123  0.2166  0.1429  0.9658
 
              Baa    -0.0298   -15.878    -5.666    -5.296 -0.0021  0.9924 -0.1227
    14 H(1)   Bbb    -0.0249   -13.285    -4.741    -4.432 -0.5957  0.0974  0.7973
              Bcc     0.0547    29.163    10.406     9.728  0.8032  0.0748  0.5910
 
              Baa    -0.0258   -13.772    -4.914    -4.594  0.4080  0.4588  0.7894
    15 H(1)   Bbb    -0.0211   -11.257    -4.017    -3.755 -0.4241  0.8609 -0.2811
              Bcc     0.0469    25.028     8.931     8.349  0.8085  0.2201 -0.5458
 
              Baa    -0.0300   -16.020    -5.716    -5.344  0.8082 -0.0624 -0.5856
    16 H(1)   Bbb    -0.0249   -13.296    -4.744    -4.435  0.5542 -0.2556  0.7922
              Bcc     0.0549    29.316    10.461     9.779  0.1991  0.9648  0.1720
 
              Baa    -0.0258   -13.772    -4.914    -4.594  0.4080  0.4588  0.7893
    17 H(1)   Bbb    -0.0211   -11.257    -4.017    -3.755 -0.4241  0.8609 -0.2811
              Bcc     0.0469    25.028     8.931     8.348  0.8085  0.2201 -0.5458
 
              Baa    -0.0298   -15.878    -5.666    -5.296 -0.0021  0.9924 -0.1227
    18 H(1)   Bbb    -0.0249   -13.285    -4.741    -4.432 -0.5957  0.0974  0.7973
              Bcc     0.0547    29.163    10.406     9.728  0.8032  0.0748  0.5910
 
              Baa    -0.0300   -16.024    -5.718    -5.345  0.8674 -0.0559 -0.4944
    19 H(1)   Bbb    -0.0249   -13.291    -4.743    -4.433  0.4629  0.4550  0.7607
              Bcc     0.0549    29.315    10.460     9.778 -0.1824  0.8887 -0.4206
 

 ---------------------------------------------------------------------------------

 No NMR shielding tensors so no spin-rotation constants.
 Leave Link  601 at Thu Mar  6 18:08:31 2025, MaxMem= 13421772800 cpu:              30.0 elap:               0.4
 (Enter /gpfs/fs1/soft/improv/software/custom-built/gaussian/g16/l9999.exe)

 Test job not archived.
 1\1\GINC-I066\SP\UB97D\Gen\Fe1H12O6(2+,5)\HHARB\06-Mar-2025\0\\#p B97D
  scrf=(cpcm,solvent=water) geom=allcheck guess=read chkbasis IOp(3/174
 =1000000) IOp(3/175=909000) IOp(3/176=892000)\\Title\\2,5\Fe,-0.784816
 1364,0.7129516775,0.0317918409\O,-1.3776374605,2.7318716986,-0.2749124
 061\H,-1.4841517176,3.1592128068,-1.1402126316\O,1.3705113875,1.368462
 5434,0.2373454449\H,2.1124299828,0.7441403001,0.2860625959\O,-0.849527
 6731,1.0255155724,2.1425991799\H,-1.5980446556,0.9501940676,2.75644349
 06\O,-0.1919953129,-1.3059683671,0.3384964191\H,-0.0538474002,-1.96752
 73358,-0.3585779942\O,-2.9401444151,0.0574404527,-0.1737613249\H,-3.68
 20623452,0.6817655635,-0.222490227\O,-0.7201061314,0.4003865798,-2.079
 0152548\H,0.0284095599,0.4757077164,-2.6928609771\H,-1.4996175229,0.09
 44216718,-2.571296077\H,1.7221369314,2.2118603623,-0.0906575052\H,-1.5
 157884995,3.393429273,0.4221617192\H,-3.2917729632,-0.7859536896,0.154
 2504525\H,-0.0700162182,1.331477107,2.6348820241\H,-0.0854769755,-1.73
 33082463,1.2037966406\\Version=ES64L-G16RevC.02\State=5-A\HF=-1722.305
 3653\S2=6.006503\S2-1=0.\S2A=6.000009\RMSD=6.704e-09\Dipole=-0.000001,
 0.0000021,-0.000002\Quadrupole=-0.4989868,0.6986039,-0.199617,-0.41317
 59,-0.7330778,-0.3729906\PG=C01 [X(Fe1H12O6)]\\@


 ALL THINGS ARE POSSIBLE EXCEPT SKIING THROUGH A REVOLVING DOOR.
 Job cpu time:       0 days  2 hours 11 minutes 13.5 seconds.
 Elapsed time:       0 days  0 hours  1 minutes  6.3 seconds.
 File lengths (MBytes):  RWF=    121 Int=      0 D2E=      0 Chk=    268 Scr=      1
 Normal termination of Gaussian 16 at Thu Mar  6 18:08:31 2025.
