19
Fe_2_M08-HX_secondrun.log	Energy: -1080482.6765069
Fe         0.00000        0.00000       -0.00000
O         -1.69335        0.00607        1.31825
H         -2.61942        0.01589        1.05214
O          0.01905        2.15973        0.01321
H          0.51497        2.73040       -0.58386
O          1.37073       -0.02242        1.62647
H          1.73720       -0.80623        2.05102
O          1.69335       -0.00607       -1.31824
H          1.66826       -0.00059       -2.28140
O         -0.01906       -2.15973       -0.01321
H          0.46751       -2.73152       -0.61687
O         -1.37073        0.02241       -1.62647
H         -1.73722        0.80620       -2.05103
H         -1.75152       -0.74949       -2.06007
H         -0.46749        2.73152        0.61689
H         -1.66824        0.00057        2.28140
H         -0.51501       -2.73039        0.58384
H          1.75153        0.74947        2.06008
H          2.61942       -0.01585       -1.05213
