 Entering Gaussian System, Link 0=g16
 Input=Ti_3_B3LYP.com
 Output=Ti_3_B3LYP.log
 Initial command:
 /gpfs/fs1/soft/improv/software/custom-built/gaussian/g16/l1.exe "/scratch/Gau-402032.inp" -scrdir="/scratch/"
 Default CPUs for threads: 0-127
 Default linda workers: i184.lcrc.anl.gov
 Default is to use 128 SMP processors on each worker.
 Entering Link 1 = /gpfs/fs1/soft/improv/software/custom-built/gaussian/g16/l1.exe PID=    402033.
  
 Copyright (c) 1988-2021, Gaussian, Inc.  All Rights Reserved.
  
 This is part of the Gaussian(R) 16 program.  It is based on
 the Gaussian(R) 09 system (copyright 2009, Gaussian, Inc.),
 the Gaussian(R) 03 system (copyright 2003, Gaussian, Inc.),
 the Gaussian(R) 98 system (copyright 1998, Gaussian, Inc.),
 the Gaussian(R) 94 system (copyright 1995, Gaussian, Inc.),
 the Gaussian 92(TM) system (copyright 1992, Gaussian, Inc.),
 the Gaussian 90(TM) system (copyright 1990, Gaussian, Inc.),
 the Gaussian 88(TM) system (copyright 1988, Gaussian, Inc.),
 the Gaussian 86(TM) system (copyright 1986, Carnegie Mellon
 University), and the Gaussian 82(TM) system (copyright 1983,
 Carnegie Mellon University). Gaussian is a federally registered
 trademark of Gaussian, Inc.
  
 This software contains proprietary and confidential information,
 including trade secrets, belonging to Gaussian, Inc.
  
 This software is provided under written license and may be
 used, copied, transmitted, or stored only in accord with that
 written license.
  
 The following legend is applicable only to US Government
 contracts under FAR:
  
                    RESTRICTED RIGHTS LEGEND
  
 Use, reproduction and disclosure by the US Government is
 subject to restrictions as set forth in subparagraphs (a)
 and (c) of the Commercial Computer Software - Restricted
 Rights clause in FAR 52.227-19.
  
 Gaussian, Inc.
 340 Quinnipiac St., Bldg. 40, Wallingford CT 06492
  
  
 ---------------------------------------------------------------
 Warning -- This program may not be used in any manner that
 competes with the business of Gaussian, Inc. or will provide
 assistance to any competitor of Gaussian, Inc.  The licensee
 of this program is prohibited from giving any competitor of
 Gaussian, Inc. access to this program.  By using this program,
 the user acknowledges that Gaussian, Inc. is engaged in the
 business of creating and licensing software in the field of
 computational chemistry and represents and warrants to the
 licensee that it is not a competitor of Gaussian, Inc. and that
 it will not use this program in any manner prohibited above.
 ---------------------------------------------------------------
  

 Cite this work as:
 Gaussian 16, Revision C.02,
 M. J. Frisch, G. W. Trucks, H. B. Schlegel, G. E. Scuseria, 
 M. A. Robb, J. R. Cheeseman, G. Scalmani, V. Barone, 
 G. A. Petersson, H. Nakatsuji, X. Li, M. Caricato, A. V. Marenich, 
 J. Bloino, B. G. Janesko, R. Gomperts, B. Mennucci, H. P. Hratchian, 
 J. V. Ortiz, A. F. Izmaylov, J. L. Sonnenberg, D. Williams-Young, 
 F. Ding, F. Lipparini, F. Egidi, J. Goings, B. Peng, A. Petrone, 
 T. Henderson, D. Ranasinghe, V. G. Zakrzewski, J. Gao, N. Rega, 
 G. Zheng, W. Liang, M. Hada, M. Ehara, K. Toyota, R. Fukuda, 
 J. Hasegawa, M. Ishida, T. Nakajima, Y. Honda, O. Kitao, H. Nakai, 
 T. Vreven, K. Throssell, J. A. Montgomery, Jr., J. E. Peralta, 
 F. Ogliaro, M. J. Bearpark, J. J. Heyd, E. N. Brothers, K. N. Kudin, 
 V. N. Staroverov, T. A. Keith, R. Kobayashi, J. Normand, 
 K. Raghavachari, A. P. Rendell, J. C. Burant, S. S. Iyengar, 
 J. Tomasi, M. Cossi, J. M. Millam, M. Klene, C. Adamo, R. Cammi, 
 J. W. Ochterski, R. L. Martin, K. Morokuma, O. Farkas, 
 J. B. Foresman, and D. J. Fox, Gaussian, Inc., Wallingford CT, 2019.
 
 ******************************************
 Gaussian 16:  ES64L-G16RevC.02  7-Dec-2021
                23-May-2024 
 ******************************************
 %chk=Ti_3_B3LYP.chk
 SetSPE:  set environment variable "OMP_PROC_BIND" = "true"
 SetSPE:  set environment variable "OMP_PLACES" = "{0},{1},{2},{3},{4},{5},{6},{7},{8},{9},{10},{11},{12},{13},{14},{15},{16},{17},{18},{19},{20},{21},{22},{23},{24},{25},{26},{27},{28},{29},{30},{31},{32},{33},{34},{35},{36},{37},{38},{39},{40},{41},{42},{43},{44},{45},{46},{47},{48},{49},{50},{51},{52},{53},{54},{55},{56},{57},{58},{59},{60},{61},{62},{63},{64},{65},{66},{67},{68},{69},{70},{71},{72},{73},{74},{75},{76},{77},{78},{79},{80},{81},{82},{83},{84},{85},{86},{87},{88},{89},{90},{91},{92},{93},{94},{95},{96},{97},{98},{99},{100},{101},{102},{103},{104},{105},{106},{107},{108},{109},{110},{111},{112},{113},{114},{115},{116},{117},{118},{119},{120},{121},{122},{123},{124},{125},{126},{127}"
 SetLPE:    new flags="-opt 'Tsnet.Node.lindarsharg: ssh'  -nodelist 'i184.lcrc.anl.gov' -env GAUSS_MDEF=26843545600 -env GAUSS_EXEDIR="/gpfs/fs1/soft/improv/software/custom-built/gaussian/g16/bsd:/gpfs/fs1/soft/improv/software/custom-built/gaussian/g16" -env "OMP_PROC_BIND=true" -env "OMP_PLACES={0},{1},{2},{3},{4},{5},{6},{7},{8},{9},{10},{11},{12},{13},{14},{15},{16},{17},{18},{19},{20},{21},{22},{23},{24},{25},{26},{27},{28},{29},{30},{31},{32},{33},{34},{35},{36},{37},{38},{39},{40},{41},{42},{43},{44},{45},{46},{47},{48},{49},{50},{51},{52},{53},{54},{55},{56},{57},{58},{59},{60},{61},{62},{63},{64},{65},{66},{67},{68},{69},{70},{71},{72},{73},{74},{75},{76},{77},{78},{79},{80},{81},{82},{83},{84},{85},{86},{87},{88},{89},{90},{91},{92},{93},{94},{95},{96},{97},{98},{99},{100},{101},{102},{103},{104},{105},{106},{107},{108},{109},{110},{111},{112},{113},{114},{115},{116},{117},{118},{119},{120},{121},{122},{123},{124},{125},{126},{127}" -env GAUSS_ADEF="0,1,2,3,4,5,6,7,8,9,10,11,12,13,14,15,16,17,18,19,20,21,22,23,24,25,26,27,28,29,30,31,32,33,34,35,36,37,38,39,40,41,42,43,44,45,46,47,48,49,50,51,52,53,54,55,56,57,58,59,60,61,62,63,64,65,66,67,68,69,70,71,72,73,74,75,76,77,78,79,80,81,82,83,84,85,86,87,88,89,90,91,92,93,94,95,96,97,98,99,100,101,102,103,104,105,106,107,108,109,110,111,112,113,114,115,116,117,118,119,120,121,122,123,124,125,126,127""
 Will use up to    1 processors via Linda.
 ----------------------------------------------------------------------
 #p B3LYP empiricaldispersion=gd3 6-31+G(2df,p) opt=(cartesian,calcall,
 maxcycles=500) freq scf=(maxcycles=500,xqc,maxconventional=50)
 ----------------------------------------------------------------------
 1/6=500,10=4,18=10,26=3,38=1/1,3;
 2/12=2,17=6,18=5,29=2,40=1/2;
 3/5=1,6=6,7=114,11=2,25=1,30=1,71=2,74=-5,124=31,140=1/1,2,3;
 4//1;
 5/5=2,7=500,8=3,13=1,38=5,85=50/2,8;
 8/6=4,10=90,11=11/1;
 11/6=1,8=1,9=11,15=111,16=1/1,2,10;
 10/6=1/2;
 6/7=2,8=2,9=2,10=2,18=1,28=1/1;
 7/7=1,10=1,25=1/1,2,3,16;
 1/6=500,10=4,18=10,26=3/3(3);
 2/29=1/2;
 7/7=1,8=1,9=1,25=1,44=-1/16;
 99/12=1/99;
 2/29=1/2;
 3/5=1,6=6,7=114,11=2,25=1,30=1,71=2,74=-5,124=31,140=1/1,2,3;
 4/5=5,16=3,69=1/1;
 5/5=2,7=500,8=3,13=1,38=5,85=50/2,8;
 8/6=4,10=90,11=11/1;
 11/6=1,8=1,9=11,15=111,16=1/1,2,10;
 10/6=1/2;
 7/7=1,10=1,25=1/1,2,3,16;
 1/6=500,10=4,18=10,26=3/3(-8);
 2/29=1/2;
 6/7=2,8=2,9=2,10=2,18=1,19=2,28=1/1;
 7/7=1,8=1,9=1,25=1,44=-1/16;
 99/12=1/99;
 Leave Link    1 at Thu May 23 15:52:54 2024, MaxMem=           0 cpu:               4.8 elap:               0.1
 (Enter /gpfs/fs1/soft/improv/software/custom-built/gaussian/g16/l101.exe)
 -----
 Title
 -----
 Symbolic Z-matrix:
 Charge =  3 Multiplicity = 2
 Ti                   -0.79304   0.81881  -0.09491 
 O                    -1.20497   2.57394  -0.35687 
 H                    -2.12106   2.64974  -0.63312 
 O                     0.99012   1.19063  -0.05794 
 H                     1.42696   0.5998    0.55971 
 O                    -0.81752   1.03069   1.71365 
 H                    -1.02108   0.1906    2.13133 
 O                    -0.38507  -0.93351   0.17118 
 H                    -1.15682  -1.47369  -0.01433 
 O                    -2.57341   0.45178  -0.12186 
 H                    -2.77756  -0.08744  -0.88929 
 O                    -0.76966   0.60461  -1.90111 
 H                     0.09872   0.83457  -2.23949 
 H                    -0.96534  -0.30999  -2.11742 
 H                     1.12208   2.09943   0.22124 
 H                    -1.07671   3.0584    0.46184 
 H                    -2.81407  -0.02398   0.6765 
 H                     0.0422    1.33615   2.01181 
 H                    -0.11532  -1.06446   1.08312 
 
 ITRead=  0  0  0  0  0  0  0  0  0  0  0  0  0  0  0  0  0  0  0
 MicOpt= -1 -1 -1 -1 -1 -1 -1 -1 -1 -1 -1 -1 -1 -1 -1 -1 -1 -1 -1
 NAtoms=     19 NQM=       19 NQMF=       0 NMMI=      0 NMMIF=      0
                NMic=       0 NMicF=      0.
                    Isotopes and Nuclear Properties:
 (Nuclear quadrupole moments (NQMom) in fm**2, nuclear magnetic moments (NMagM)
  in nuclear magnetons)

  Atom         1           2           3           4           5           6           7           8           9          10
 IAtWgt=          48          16           1          16           1          16           1          16           1          16
 AtmWgt=  47.9479467  15.9949146   1.0078250  15.9949146   1.0078250  15.9949146   1.0078250  15.9949146   1.0078250  15.9949146
 NucSpn=           0           0           1           0           1           0           1           0           1           0
 AtZEff=  -0.0000000  -0.0000000  -0.0000000  -0.0000000  -0.0000000  -0.0000000  -0.0000000  -0.0000000  -0.0000000  -0.0000000
 NQMom=    0.0000000   0.0000000   0.0000000   0.0000000   0.0000000   0.0000000   0.0000000   0.0000000   0.0000000   0.0000000
 NMagM=    0.0000000   0.0000000   2.7928460   0.0000000   2.7928460   0.0000000   2.7928460   0.0000000   2.7928460   0.0000000
 AtZNuc=  22.0000000   8.0000000   1.0000000   8.0000000   1.0000000   8.0000000   1.0000000   8.0000000   1.0000000   8.0000000

  Atom        11          12          13          14          15          16          17          18          19
 IAtWgt=           1          16           1           1           1           1           1           1           1
 AtmWgt=   1.0078250  15.9949146   1.0078250   1.0078250   1.0078250   1.0078250   1.0078250   1.0078250   1.0078250
 NucSpn=           1           0           1           1           1           1           1           1           1
 AtZEff=  -0.0000000  -0.0000000  -0.0000000  -0.0000000  -0.0000000  -0.0000000  -0.0000000  -0.0000000  -0.0000000
 NQMom=    0.0000000   0.0000000   0.0000000   0.0000000   0.0000000   0.0000000   0.0000000   0.0000000   0.0000000
 NMagM=    2.7928460   0.0000000   2.7928460   2.7928460   2.7928460   2.7928460   2.7928460   2.7928460   2.7928460
 AtZNuc=   1.0000000   8.0000000   1.0000000   1.0000000   1.0000000   1.0000000   1.0000000   1.0000000   1.0000000
 Leave Link  101 at Thu May 23 15:52:54 2024, MaxMem= 26843545600 cpu:               0.4 elap:               0.0
 (Enter /gpfs/fs1/soft/improv/software/custom-built/gaussian/g16/l103.exe)

 GradGradGradGradGradGradGradGradGradGradGradGradGradGradGradGradGradGrad
 Berny optimization.
 Initialization pass.
 No Z-matrix variables, so optimization will use Cartesian coordinates.
 Trust Radius=3.00D-01 FncErr=1.00D-07 GrdErr=1.00D-06 EigMax=2.50D+02 EigMin=1.00D-04
 Number of steps in this run=    114 maximum allowed number of steps=    114.
 GradGradGradGradGradGradGradGradGradGradGradGradGradGradGradGradGradGrad

 Leave Link  103 at Thu May 23 15:52:54 2024, MaxMem= 26843545600 cpu:               0.4 elap:               0.0
 (Enter /gpfs/fs1/soft/improv/software/custom-built/gaussian/g16/l202.exe)
 ---------------------------------------------------------------------------------------------------
                            Z-MATRIX (ANGSTROMS AND DEGREES)
   CD    Cent   Atom    N1       Length/X        N2       Alpha/Y        N3        Beta/Z          J
 ---------------------------------------------------------------------------------------------------
      1      1  Ti       0  -0.793037          0.818805         -0.094905
      2      2  O        0  -1.204971          2.573941         -0.356874
      3      3  H        0  -2.121063          2.649743         -0.633122
      4      4  O        0   0.990122          1.190635         -0.057941
      5      5  H        0   1.426962          0.599798          0.559707
      6      6  O        0  -0.817519          1.030691          1.713650
      7      7  H        0  -1.021079          0.190602          2.131326
      8      8  O        0  -0.385068         -0.933506          0.171177
      9      9  H        0  -1.156817         -1.473692         -0.014327
     10     10  O        0  -2.573405          0.451778         -0.121857
     11     11  H        0  -2.777557         -0.087440         -0.889285
     12     12  O        0  -0.769659          0.604612         -1.901109
     13     13  H        0   0.098725          0.834573         -2.239490
     14     14  H        0  -0.965336         -0.309994         -2.117418
     15     15  H        0   1.122081          2.099426          0.221242
     16     16  H        0  -1.076711          3.058396          0.461841
     17     17  H        0  -2.814074         -0.023981          0.676500
     18     18  H        0   0.042204          1.336153          2.011809
     19     19  H        0  -0.115315         -1.064459          1.083123
 ---------------------------------------------------------------------------------------------------
                         Z-Matrix orientation:                         
 ---------------------------------------------------------------------
 Center     Atomic      Atomic             Coordinates (Angstroms)
 Number     Number       Type             X           Y           Z
 ---------------------------------------------------------------------
      1         22           0       -0.793037    0.818805   -0.094905
      2          8           0       -1.204971    2.573941   -0.356874
      3          1           0       -2.121063    2.649743   -0.633122
      4          8           0        0.990122    1.190635   -0.057941
      5          1           0        1.426962    0.599798    0.559707
      6          8           0       -0.817519    1.030691    1.713650
      7          1           0       -1.021079    0.190602    2.131326
      8          8           0       -0.385068   -0.933506    0.171177
      9          1           0       -1.156817   -1.473692   -0.014327
     10          8           0       -2.573405    0.451778   -0.121857
     11          1           0       -2.777557   -0.087440   -0.889285
     12          8           0       -0.769659    0.604612   -1.901109
     13          1           0        0.098725    0.834573   -2.239490
     14          1           0       -0.965336   -0.309994   -2.117418
     15          1           0        1.122081    2.099426    0.221242
     16          1           0       -1.076711    3.058396    0.461841
     17          1           0       -2.814074   -0.023981    0.676500
     18          1           0        0.042204    1.336153    2.011809
     19          1           0       -0.115315   -1.064459    1.083123
 ---------------------------------------------------------------------
                    Distance matrix (angstroms):
                    1          2          3          4          5
     1  Ti   0.000000
     2  O    1.821762   0.000000
     3  H    2.325008   0.959835   0.000000
     4  O    1.821889   2.611767   3.484150   0.000000
     5  H    2.324839   3.415322   4.267739   0.959899   0.000000
     6  O    1.821090   2.611285   3.134947   2.536076   2.560263
     7  H    2.324381   3.450400   3.859988   3.136540   2.937743
     8  O    1.818745   3.640503   4.062050   2.540791   2.405292
     9  H    2.322579   4.062387   4.279649   3.421971   3.362259
    10  O    1.818006   2.536025   2.301533   3.639880   4.060711
    11  H    2.321775   3.136788   2.826442   4.064482   4.499984
    12  O    1.819010   2.540161   2.759827   2.614866   3.298603
    13  H    2.322657   2.875634   3.286750   2.383386   3.107223
    14  H    2.322591   3.387332   3.506977   3.212032   3.703756
    15  H    2.325429   2.444290   3.398642   0.959822   1.567289
    16  H    2.325125   0.959918   1.567358   2.833814   3.510364
    17  H    2.321626   3.225876   3.056824   4.060370   4.288255
    18  H    2.324547   2.949275   3.660724   2.281137   2.137375
    19  H    2.322443   4.061883   4.556733   2.758526   2.328591
                    6          7          8          9         10
     6  O    0.000000
     7  H    0.960021   0.000000
     8  O    2.534622   2.347406   0.000000
     9  H    3.061530   2.718847   0.960108   0.000000
    10  O    2.605257   2.748593   2.606473   2.392848   0.000000
    11  H    3.444886   3.505227   2.750347   2.305222   0.959885
    12  O    3.640099   4.061422   2.609231   2.833582   2.538227
    13  H    4.062670   4.557707   3.028445   3.443229   3.430916
    14  H    4.061572   4.278496   2.441955   2.411193   2.673658
    15  H    2.670492   3.447487   3.387136   4.244531   4.060675
    16  H    2.397039   3.318813   4.061790   4.557738   3.061904
    17  H    2.484803   2.318921   2.642472   2.307685   0.960023
    18  H    0.959858   1.567527   2.953276   3.665802   3.489421
    19  H    2.297892   1.869309   0.959980   1.567353   3.129403
                   11         12         13         14         15
    11  H    0.000000
    12  O    2.352526   0.000000
    13  H    3.308498   0.959935   0.000000
    14  H    2.200452   0.959991   1.567533   0.000000
    15  H    4.606825   3.212091   2.949969   3.953725   0.000000
    16  H    3.822919   3.420362   3.691102   4.243941   2.410850
    17  H    1.567497   3.349453   4.210050   3.362383   4.495491
    18  H    4.288824   4.062660   4.281159   4.558009   2.225950
    19  H    3.454344   3.481323   3.833001   3.396353   3.504877
                   16         17         18         19
    16  H    0.000000
    17  H    3.544793   0.000000
    18  H    2.573032   3.433851   0.000000
    19  H    4.278809   2.920828   2.578800   0.000000
 Stoichiometry    H12O6Ti(3+,2)
 Framework group  C1[X(H12O6Ti)]
 Deg. of freedom    51
 Full point group                 C1      NOp   1
 Largest Abelian subgroup         C1      NOp   1
 Largest concise Abelian subgroup C1      NOp   1
                         Standard orientation:                         
 ---------------------------------------------------------------------
 Center     Atomic      Atomic             Coordinates (Angstroms)
 Number     Number       Type             X           Y           Z
 ---------------------------------------------------------------------
      1         22           0       -0.021180   -0.031230    0.010242
      2          8           0       -0.320919   -1.688924   -0.683318
      3          1           0       -1.137185   -1.681640   -1.188234
      4          8           0        1.254245   -0.678703    1.138670
      5          1           0        1.942694   -0.019880    1.254406
      6          8           0        1.297272    0.293478   -1.203273
      7          1           0        1.380717    1.240156   -1.339207
      8          8           0        0.279127    1.625671    0.697504
      9          1           0       -0.432969    2.214440    0.436587
     10          8           0       -1.286964    0.614116   -1.123984
     11          1           0       -2.036002    0.936648   -0.617728
     12          8           0       -1.338898   -0.352897    1.222244
     13          1           0       -0.972045   -0.816749    1.978376
     14          1           0       -1.718130    0.480302    1.511284
     15          1           0        1.635288   -1.477345    0.766869
     16          1           0        0.408469   -1.932016   -1.258072
     17          1           0       -0.916621    1.333448   -1.640754
     18          1           0        2.128227   -0.056953   -0.874579
     19          1           0        1.112611    1.964725    0.362979
 ---------------------------------------------------------------------
 Rotational constants (GHZ):           2.0397079           1.9739543           1.9252950
 Leave Link  202 at Thu May 23 15:52:54 2024, MaxMem= 26843545600 cpu:               0.4 elap:               0.0
 (Enter /gpfs/fs1/soft/improv/software/custom-built/gaussian/g16/l301.exe)
 Standard basis: 6-31+G(2df,p) (6D, 7F)
 Ernie: Thresh=  0.10000D-02 Tol=  0.10000D-05 Strict=F.
 There are   347 symmetry adapted cartesian basis functions of A   symmetry.
 There are   317 symmetry adapted basis functions of A   symmetry.
   317 basis functions,   514 primitive gaussians,   347 cartesian basis functions
    40 alpha electrons       39 beta electrons
       nuclear repulsion energy       701.0339313636 Hartrees.
 IExCor=  402 DFT=T Ex+Corr=B3LYP ExCW=0 ScaHFX=  0.200000
 ScaDFX=  0.800000  0.720000  1.000000  0.810000 ScalE2=  1.000000  1.000000
 IRadAn=      5 IRanWt=     -1 IRanGd=            0 ICorTp=0 IEmpDi=131
 NAtoms=   19 NActive=   19 NUniq=   19 SFac= 1.00D+00 NAtFMM=   60 NAOKFM=F Big=F
 Integral buffers will be    131072 words long.
 Raffenetti 2 integral format.
 Two-electron integral symmetry is turned on.
 R6Disp:  Grimme-D3 Dispersion energy=       -0.0213441433 Hartrees.
 Nuclear repulsion after empirical dispersion term =      701.0125872203 Hartrees.
 Leave Link  301 at Thu May 23 15:52:54 2024, MaxMem= 26843545600 cpu:               0.4 elap:               0.0
 (Enter /gpfs/fs1/soft/improv/software/custom-built/gaussian/g16/l302.exe)
 NPDir=0 NMtPBC=     1 NCelOv=     1 NCel=       1 NClECP=     1 NCelD=      1
         NCelK=      1 NCelE2=     1 NClLst=     1 CellRange=     0.0.
 One-electron integrals computed using PRISM.
 One-electron integral symmetry used in STVInt
 NBasis=   317 RedAO= T EigKep=  4.19D-05  NBF=   317
 NBsUse=   317 1.00D-06 EigRej= -1.00D+00 NBFU=   317
 Precomputing XC quadrature grid using
 IXCGrd= 4 IRadAn=           5 IRanWt=          -1 IRanGd=           0 AccXCQ= 0.00D+00.
 Generated NRdTot=       0 NPtTot=           0 NUsed=           0 NTot=          32
 NSgBfM=   347   347   347   347   347 MxSgAt=    19 MxSgA2=    19.
 Leave Link  302 at Thu May 23 15:52:55 2024, MaxMem= 26843545600 cpu:              21.8 elap:               0.3
 (Enter /gpfs/fs1/soft/improv/software/custom-built/gaussian/g16/l303.exe)
 DipDrv:  MaxL=1.
 Leave Link  303 at Thu May 23 15:52:55 2024, MaxMem= 26843545600 cpu:               1.0 elap:               0.0
 (Enter /gpfs/fs1/soft/improv/software/custom-built/gaussian/g16/l401.exe)
 ExpMin= 9.99D-03 ExpMax= 4.32D+04 ExpMxC= 6.48D+03 IAcc=3 IRadAn=         5 AccDes= 0.00D+00
 Harris functional with IExCor=  402 and IRadAn=       5 diagonalized for initial guess.
 HarFok:  IExCor=  402 AccDes= 0.00D+00 IRadAn=         5 IDoV= 1 UseB2=F ITyADJ=14
 ICtDFT=  3500011 ScaDFX=  1.000000  1.000000  1.000000  1.000000
 FoFCou: FMM=F IPFlag=           0 FMFlag=      100000 FMFlg1=           0
         NFxFlg=           0 DoJE=T BraDBF=F KetDBF=T FulRan=T
         wScrn=  0.000000 ICntrl=       500 IOpCl=  0 I1Cent=   200000004 NGrid=           0
         NMat0=    1 NMatS0=      1 NMatT0=    0 NMatD0=    1 NMtDS0=    0 NMtDT0=    0
 Petite list used in FoFCou.
 Harris En= -1307.49693430276    
 JPrj=0 DoOrth=F DoCkMO=F.
 Initial guess <Sx>= 0.0000 <Sy>= 0.0000 <Sz>= 0.5000 <S**2>= 0.7500 S= 0.5000
 Leave Link  401 at Thu May 23 15:52:55 2024, MaxMem= 26843545600 cpu:              40.7 elap:               0.4
 (Enter /gpfs/fs1/soft/improv/software/custom-built/gaussian/g16/l502.exe)
 Integral symmetry usage will be decided dynamically.
 UHF open shell SCF:
 Using DIIS extrapolation, IDIIS=  1040.
 NGot= 26843545600 LenX= 26843256607 LenY= 26843135757
 Requested convergence on RMS density matrix=1.00D-08 within  50 cycles.
 Requested convergence on MAX density matrix=1.00D-06.
 Requested convergence on             energy=1.00D-06.
 No special actions if energy rises.
 Fock matrices will be formed incrementally for  20 cycles.

 Cycle   1  Pass 1  IDiag  1:
 FoFJK:  IHMeth= 1 ICntrl=       0 DoSepK=F KAlg= 0 I1Cent=           0 FoldK=F
 IRaf= 990000000 NMat=       1 IRICut=       1 DoRegI=T DoRafI=F ISym2E= 0 IDoP0=0 IntGTp=1.
 FoFCou: FMM=F IPFlag=           0 FMFlag=      100000 FMFlg1=           0
         NFxFlg=           0 DoJE=F BraDBF=F KetDBF=F FulRan=T
         wScrn=  0.000000 ICntrl=         0 IOpCl=  1 I1Cent=           0 NGrid=           0
         NMat0=    1 NMatS0=      1 NMatT0=    0 NMatD0=    1 NMtDS0=    0 NMtDT0=    0
 Symmetry not used in FoFCou.
 E= -1306.41945347544    
 DIIS: error= 3.55D-02 at cycle   1 NSaved=   1.
 NSaved= 1 IEnMin= 1 EnMin= -1306.41945347544     IErMin= 1 ErrMin= 3.55D-02
 ErrMax= 3.55D-02  0.00D+00 EMaxC= 1.00D-01 BMatC= 2.66D+00 BMatP= 2.66D+00
 IDIUse=3 WtCom= 6.45D-01 WtEn= 3.55D-01
 Coeff-Com:  0.100D+01
 Coeff-En:   0.100D+01
 Coeff:      0.100D+01
 Gap=     0.117 Goal=   None    Shift=    0.000
 Gap=     0.175 Goal=   None    Shift=    0.000
 GapD=    0.117 DampG=1.000 DampE=0.250 DampFc=0.2500 IDamp=-1.
 Damping current iteration by 2.50D-01
 RMSDP=7.33D-03 MaxDP=3.13D-01              OVMax= 2.33D-01

 Cycle   2  Pass 1  IDiag  1:
 RMSU=  1.80D-03    CP:  9.83D-01
 E= -1306.57354122350     Delta-E=       -0.154087748057 Rises=F Damp=T
 DIIS: error= 1.33D-02 at cycle   2 NSaved=   2.
 NSaved= 2 IEnMin= 2 EnMin= -1306.57354122350     IErMin= 2 ErrMin= 1.33D-02
 ErrMax= 1.33D-02  0.00D+00 EMaxC= 1.00D-01 BMatC= 4.32D-01 BMatP= 2.66D+00
 IDIUse=3 WtCom= 8.67D-01 WtEn= 1.33D-01
 Coeff-Com: -0.577D+00 0.158D+01
 Coeff-En:   0.000D+00 0.100D+01
 Coeff:     -0.500D+00 0.150D+01
 Gap=     0.160 Goal=   None    Shift=    0.000
 Gap=     0.361 Goal=   None    Shift=    0.000
 RMSDP=1.88D-03 MaxDP=8.24D-02 DE=-1.54D-01 OVMax= 1.86D-01

 Cycle   3  Pass 1  IDiag  1:
 RMSU=  1.56D-03    CP:  9.64D-01  1.56D+00
 E= -1306.82749186726     Delta-E=       -0.253950643754 Rises=F Damp=F
 DIIS: error= 6.56D-03 at cycle   3 NSaved=   3.
 NSaved= 3 IEnMin= 3 EnMin= -1306.82749186726     IErMin= 3 ErrMin= 6.56D-03
 ErrMax= 6.56D-03  0.00D+00 EMaxC= 1.00D-01 BMatC= 8.36D-02 BMatP= 4.32D-01
 IDIUse=3 WtCom= 9.34D-01 WtEn= 6.56D-02
 Coeff-Com: -0.296D+00 0.787D+00 0.509D+00
 Coeff-En:   0.000D+00 0.000D+00 0.100D+01
 Coeff:     -0.276D+00 0.735D+00 0.541D+00
 Gap=     0.153 Goal=   None    Shift=    0.000
 Gap=     0.353 Goal=   None    Shift=    0.000
 RMSDP=1.26D-03 MaxDP=7.55D-02 DE=-2.54D-01 OVMax= 5.73D-02

 Cycle   4  Pass 1  IDiag  1:
 RMSU=  1.09D-03    CP:  9.63D-01  1.75D+00  6.50D-01
 E= -1306.84258618076     Delta-E=       -0.015094313501 Rises=F Damp=F
 DIIS: error= 1.62D-03 at cycle   4 NSaved=   4.
 NSaved= 4 IEnMin= 4 EnMin= -1306.84258618076     IErMin= 4 ErrMin= 1.62D-03
 ErrMax= 1.62D-03  0.00D+00 EMaxC= 1.00D-01 BMatC= 8.39D-03 BMatP= 8.36D-02
 IDIUse=3 WtCom= 9.84D-01 WtEn= 1.62D-02
 Coeff-Com: -0.430D-01 0.566D-01 0.221D+00 0.766D+00
 Coeff-En:   0.000D+00 0.000D+00 0.187D-01 0.981D+00
 Coeff:     -0.423D-01 0.557D-01 0.217D+00 0.769D+00
 Gap=     0.121 Goal=   None    Shift=    0.000
 Gap=     0.330 Goal=   None    Shift=    0.000
 RMSDP=2.41D-04 MaxDP=1.50D-02 DE=-1.51D-02 OVMax= 6.50D-03

 Cycle   5  Pass 1  IDiag  1:
 RMSU=  1.36D-04    CP:  9.61D-01  1.76D+00  6.98D-01  8.32D-01
 E= -1306.84416857351     Delta-E=       -0.001582392748 Rises=F Damp=F
 DIIS: error= 3.47D-04 at cycle   5 NSaved=   5.
 NSaved= 5 IEnMin= 5 EnMin= -1306.84416857351     IErMin= 5 ErrMin= 3.47D-04
 ErrMax= 3.47D-04  0.00D+00 EMaxC= 1.00D-01 BMatC= 3.63D-04 BMatP= 8.39D-03
 IDIUse=3 WtCom= 9.97D-01 WtEn= 3.47D-03
 Coeff-Com: -0.177D-01 0.188D-01 0.892D-01 0.369D+00 0.540D+00
 Coeff-En:   0.000D+00 0.000D+00 0.000D+00 0.000D+00 0.100D+01
 Coeff:     -0.176D-01 0.187D-01 0.889D-01 0.368D+00 0.542D+00
 Gap=     0.121 Goal=   None    Shift=    0.000
 Gap=     0.330 Goal=   None    Shift=    0.000
 RMSDP=3.69D-05 MaxDP=1.60D-03 DE=-1.58D-03 OVMax= 2.91D-03

 Cycle   6  Pass 1  IDiag  1:
 RMSU=  3.56D-05    CP:  9.61D-01  1.75D+00  6.99D-01  8.28D-01  1.01D+00
 E= -1306.84422604663     Delta-E=       -0.000057473127 Rises=F Damp=F
 DIIS: error= 1.18D-04 at cycle   6 NSaved=   6.
 NSaved= 6 IEnMin= 6 EnMin= -1306.84422604663     IErMin= 6 ErrMin= 1.18D-04
 ErrMax= 1.18D-04  0.00D+00 EMaxC= 1.00D-01 BMatC= 3.92D-05 BMatP= 3.63D-04
 IDIUse=3 WtCom= 9.99D-01 WtEn= 1.18D-03
 Coeff-Com:  0.287D-03-0.156D-02-0.109D-01-0.369D-03 0.245D+00 0.768D+00
 Coeff-En:   0.000D+00 0.000D+00 0.000D+00 0.000D+00 0.000D+00 0.100D+01
 Coeff:      0.286D-03-0.156D-02-0.109D-01-0.369D-03 0.245D+00 0.768D+00
 Gap=     0.122 Goal=   None    Shift=    0.000
 Gap=     0.330 Goal=   None    Shift=    0.000
 RMSDP=2.53D-05 MaxDP=1.24D-03 DE=-5.75D-05 OVMax= 4.25D-03

 Cycle   7  Pass 1  IDiag  1:
 RMSU=  1.76D-05    CP:  9.61D-01  1.75D+00  6.96D-01  8.41D-01  1.06D+00
                    CP:  9.70D-01
 E= -1306.84423797478     Delta-E=       -0.000011928151 Rises=F Damp=F
 DIIS: error= 4.58D-05 at cycle   7 NSaved=   7.
 NSaved= 7 IEnMin= 7 EnMin= -1306.84423797478     IErMin= 7 ErrMin= 4.58D-05
 ErrMax= 4.58D-05  0.00D+00 EMaxC= 1.00D-01 BMatC= 2.58D-06 BMatP= 3.92D-05
 IDIUse=1 WtCom= 1.00D+00 WtEn= 0.00D+00
 Coeff-Com:  0.715D-03-0.110D-02-0.655D-02-0.157D-01 0.504D-01 0.256D+00
 Coeff-Com:  0.716D+00
 Coeff:      0.715D-03-0.110D-02-0.655D-02-0.157D-01 0.504D-01 0.256D+00
 Coeff:      0.716D+00
 Gap=     0.122 Goal=   None    Shift=    0.000
 Gap=     0.330 Goal=   None    Shift=    0.000
 RMSDP=1.12D-05 MaxDP=1.02D-03 DE=-1.19D-05 OVMax= 3.12D-03

 Cycle   8  Pass 1  IDiag  1:
 RMSU=  6.41D-06    CP:  9.61D-01  1.75D+00  6.96D-01  8.41D-01  1.08D+00
                    CP:  1.09D+00  1.44D+00
 E= -1306.84424153893     Delta-E=       -0.000003564147 Rises=F Damp=F
 DIIS: error= 3.91D-05 at cycle   8 NSaved=   8.
 NSaved= 8 IEnMin= 8 EnMin= -1306.84424153893     IErMin= 8 ErrMin= 3.91D-05
 ErrMax= 3.91D-05  0.00D+00 EMaxC= 1.00D-01 BMatC= 1.39D-06 BMatP= 2.58D-06
 IDIUse=1 WtCom= 1.00D+00 WtEn= 0.00D+00
 Coeff-Com:  0.751D-04 0.628D-04 0.914D-03-0.314D-02-0.305D-01-0.679D-01
 Coeff-Com:  0.122D+00 0.978D+00
 Coeff:      0.751D-04 0.628D-04 0.914D-03-0.314D-02-0.305D-01-0.679D-01
 Coeff:      0.122D+00 0.978D+00
 Gap=     0.122 Goal=   None    Shift=    0.000
 Gap=     0.330 Goal=   None    Shift=    0.000
 RMSDP=1.47D-05 MaxDP=1.43D-03 DE=-3.56D-06 OVMax= 4.27D-03

 Cycle   9  Pass 1  IDiag  1:
 RMSU=  3.68D-06    CP:  9.61D-01  1.75D+00  6.96D-01  8.41D-01  1.09D+00
                    CP:  1.21D+00  2.07D+00  2.18D+00
 E= -1306.84424584695     Delta-E=       -0.000004308019 Rises=F Damp=F
 DIIS: error= 3.71D-05 at cycle   9 NSaved=   9.
 NSaved= 9 IEnMin= 9 EnMin= -1306.84424584695     IErMin= 9 ErrMin= 3.71D-05
 ErrMax= 3.71D-05  0.00D+00 EMaxC= 1.00D-01 BMatC= 1.14D-06 BMatP= 1.39D-06
 IDIUse=1 WtCom= 1.00D+00 WtEn= 0.00D+00
 Coeff-Com: -0.450D-03 0.745D-03 0.396D-02 0.975D-02-0.265D-01-0.153D+00
 Coeff-Com: -0.408D+00-0.628D-01 0.164D+01
 Coeff:     -0.450D-03 0.745D-03 0.396D-02 0.975D-02-0.265D-01-0.153D+00
 Coeff:     -0.408D+00-0.628D-01 0.164D+01
 Gap=     0.122 Goal=   None    Shift=    0.000
 Gap=     0.330 Goal=   None    Shift=    0.000
 RMSDP=2.87D-05 MaxDP=2.86D-03 DE=-4.31D-06 OVMax= 8.34D-03

 Cycle  10  Pass 1  IDiag  1:
 RMSU=  1.18D-05    CP:  9.61D-01  1.75D+00  6.96D-01  8.41D-01  1.12D+00
                    CP:  1.43D+00  3.00D+00  3.00D+00  2.87D+00
 E= -1306.84425325567     Delta-E=       -0.000007408722 Rises=F Damp=F
 DIIS: error= 2.79D-05 at cycle  10 NSaved=  10.
 NSaved=10 IEnMin=10 EnMin= -1306.84425325567     IErMin=10 ErrMin= 2.79D-05
 ErrMax= 2.79D-05  0.00D+00 EMaxC= 1.00D-01 BMatC= 9.08D-07 BMatP= 1.14D-06
 IDIUse=1 WtCom= 1.00D+00 WtEn= 0.00D+00
 Coeff-Com: -0.650D-03 0.858D-03 0.229D-02 0.157D-01 0.267D-01-0.526D-01
 Coeff-Com: -0.630D+00-0.177D+01 0.176D+01 0.165D+01
 Coeff:     -0.650D-03 0.858D-03 0.229D-02 0.157D-01 0.267D-01-0.526D-01
 Coeff:     -0.630D+00-0.177D+01 0.176D+01 0.165D+01
 Gap=     0.122 Goal=   None    Shift=    0.000
 Gap=     0.330 Goal=   None    Shift=    0.000
 RMSDP=6.62D-05 MaxDP=6.73D-03 DE=-7.41D-06 OVMax= 1.93D-02

 Cycle  11  Pass 1  IDiag  1:
 RMSU=  4.52D-05    CP:  9.61D-01  1.75D+00  6.96D-01  8.42D-01  1.17D+00
                    CP:  1.92D+00  3.00D+00  3.00D+00  3.00D+00  3.00D+00
 E= -1306.84426565898     Delta-E=       -0.000012403310 Rises=F Damp=F
 DIIS: error= 1.60D-05 at cycle  11 NSaved=  11.
 NSaved=11 IEnMin=11 EnMin= -1306.84426565898     IErMin=11 ErrMin= 1.60D-05
 ErrMax= 1.60D-05  0.00D+00 EMaxC= 1.00D-01 BMatC= 3.98D-07 BMatP= 9.08D-07
 IDIUse=1 WtCom= 1.00D+00 WtEn= 0.00D+00
 Coeff-Com: -0.215D-03 0.306D-03-0.164D-02 0.194D-02 0.376D-01 0.103D+00
 Coeff-Com:  0.354D-01-0.747D+00-0.361D+00 0.750D+00 0.118D+01
 Coeff:     -0.215D-03 0.306D-03-0.164D-02 0.194D-02 0.376D-01 0.103D+00
 Coeff:      0.354D-01-0.747D+00-0.361D+00 0.750D+00 0.118D+01
 Gap=     0.122 Goal=   None    Shift=    0.000
 Gap=     0.330 Goal=   None    Shift=    0.000
 RMSDP=4.59D-05 MaxDP=4.77D-03 DE=-1.24D-05 OVMax= 1.34D-02

 Cycle  12  Pass 1  IDiag  1:
 RMSU=  1.34D-05    CP:  9.61D-01  1.76D+00  6.96D-01  8.42D-01  1.21D+00
                    CP:  2.25D+00  3.00D+00  3.00D+00  3.00D+00  3.00D+00
                    CP:  1.93D+00
 E= -1306.84427058967     Delta-E=       -0.000004930686 Rises=F Damp=F
 DIIS: error= 1.29D-05 at cycle  12 NSaved=  12.
 NSaved=12 IEnMin=12 EnMin= -1306.84427058967     IErMin=12 ErrMin= 1.29D-05
 ErrMax= 1.29D-05  0.00D+00 EMaxC= 1.00D-01 BMatC= 1.83D-07 BMatP= 3.98D-07
 IDIUse=1 WtCom= 1.00D+00 WtEn= 0.00D+00
 Coeff-Com: -0.596D-05 0.664D-04-0.327D-03-0.311D-02-0.400D-02 0.306D-01
 Coeff-Com:  0.183D+00 0.450D+00-0.278D+00-0.537D+00-0.411D+00 0.157D+01
 Coeff:     -0.596D-05 0.664D-04-0.327D-03-0.311D-02-0.400D-02 0.306D-01
 Coeff:      0.183D+00 0.450D+00-0.278D+00-0.537D+00-0.411D+00 0.157D+01
 Gap=     0.122 Goal=   None    Shift=    0.000
 Gap=     0.330 Goal=   None    Shift=    0.000
 RMSDP=1.70D-05 MaxDP=1.71D-03 DE=-4.93D-06 OVMax= 5.05D-03

 Cycle  13  Pass 1  IDiag  1:
 RMSU=  4.91D-06    CP:  9.61D-01  1.76D+00  6.96D-01  8.42D-01  1.22D+00
                    CP:  2.35D+00  3.00D+00  3.00D+00  3.00D+00  3.00D+00
                    CP:  2.25D+00  1.46D+00
 E= -1306.84427202008     Delta-E=       -0.000001430408 Rises=F Damp=F
 DIIS: error= 1.13D-05 at cycle  13 NSaved=  13.
 NSaved=13 IEnMin=13 EnMin= -1306.84427202008     IErMin=13 ErrMin= 1.13D-05
 ErrMax= 1.13D-05  0.00D+00 EMaxC= 1.00D-01 BMatC= 1.15D-07 BMatP= 1.83D-07
 IDIUse=1 WtCom= 1.00D+00 WtEn= 0.00D+00
 Coeff-Com:  0.100D-03-0.128D-03 0.595D-03-0.209D-02-0.223D-01-0.466D-01
 Coeff-Com:  0.517D-01 0.431D+00 0.513D-01-0.494D+00-0.557D+00 0.491D+00
 Coeff-Com:  0.110D+01
 Coeff:      0.100D-03-0.128D-03 0.595D-03-0.209D-02-0.223D-01-0.466D-01
 Coeff:      0.517D-01 0.431D+00 0.513D-01-0.494D+00-0.557D+00 0.491D+00
 Coeff:      0.110D+01
 Gap=     0.122 Goal=   None    Shift=    0.000
 Gap=     0.330 Goal=   None    Shift=    0.000
 RMSDP=1.49D-05 MaxDP=1.45D-03 DE=-1.43D-06 OVMax= 4.45D-03

 Cycle  14  Pass 1  IDiag  1:
 RMSU=  1.03D-06    CP:  9.61D-01  1.76D+00  6.96D-01  8.43D-01  1.23D+00
                    CP:  2.45D+00  3.00D+00  3.00D+00  3.00D+00  3.00D+00
                    CP:  2.53D+00  1.85D+00  1.97D+00
 E= -1306.84427296761     Delta-E=       -0.000000947534 Rises=F Damp=F
 DIIS: error= 8.41D-06 at cycle  14 NSaved=  14.
 NSaved=14 IEnMin=14 EnMin= -1306.84427296761     IErMin=14 ErrMin= 8.41D-06
 ErrMax= 8.41D-06  0.00D+00 EMaxC= 1.00D-01 BMatC= 7.72D-08 BMatP= 1.15D-07
 IDIUse=1 WtCom= 1.00D+00 WtEn= 0.00D+00
 Coeff-Com:  0.102D-03-0.140D-03 0.574D-03-0.296D-03-0.148D-01-0.472D-01
 Coeff-Com: -0.213D-01 0.130D+00 0.107D+00-0.123D+00-0.936D-01-0.428D+00
 Coeff-Com:  0.162D+00 0.133D+01
 Coeff:      0.102D-03-0.140D-03 0.574D-03-0.296D-03-0.148D-01-0.472D-01
 Coeff:     -0.213D-01 0.130D+00 0.107D+00-0.123D+00-0.936D-01-0.428D+00
 Coeff:      0.162D+00 0.133D+01
 Gap=     0.122 Goal=   None    Shift=    0.000
 Gap=     0.330 Goal=   None    Shift=    0.000
 RMSDP=1.28D-05 MaxDP=1.12D-03 DE=-9.48D-07 OVMax= 3.84D-03

 Cycle  15  Pass 1  IDiag  1:
 RMSU=  1.40D-06    CP:  9.61D-01  1.76D+00  6.96D-01  8.43D-01  1.24D+00
                    CP:  2.52D+00  3.00D+00  3.00D+00  3.00D+00  3.00D+00
                    CP:  2.74D+00  2.20D+00  3.00D+00  2.15D+00
 E= -1306.84427362466     Delta-E=       -0.000000657051 Rises=F Damp=F
 DIIS: error= 6.05D-06 at cycle  15 NSaved=  15.
 NSaved=15 IEnMin=15 EnMin= -1306.84427362466     IErMin=15 ErrMin= 6.05D-06
 ErrMax= 6.05D-06  0.00D+00 EMaxC= 1.00D-01 BMatC= 5.56D-08 BMatP= 7.72D-08
 IDIUse=1 WtCom= 1.00D+00 WtEn= 0.00D+00
 Coeff-Com:  0.522D-04-0.527D-04 0.202D-03 0.805D-03 0.160D-02-0.570D-02
 Coeff-Com: -0.187D-01-0.609D-01 0.166D-01 0.134D+00 0.274D+00-0.697D+00
 Coeff-Com: -0.133D+01 0.137D+01 0.131D+01
 Coeff:      0.522D-04-0.527D-04 0.202D-03 0.805D-03 0.160D-02-0.570D-02
 Coeff:     -0.187D-01-0.609D-01 0.166D-01 0.134D+00 0.274D+00-0.697D+00
 Coeff:     -0.133D+01 0.137D+01 0.131D+01
 Gap=     0.122 Goal=   None    Shift=    0.000
 Gap=     0.330 Goal=   None    Shift=    0.000
 RMSDP=2.04D-05 MaxDP=1.65D-03 DE=-6.57D-07 OVMax= 6.15D-03

 Cycle  16  Pass 1  IDiag  1:
 RMSU=  9.99D-06    CP:  9.61D-01  1.76D+00  6.96D-01  8.43D-01  1.25D+00
                    CP:  2.62D+00  3.00D+00  3.00D+00  3.00D+00  3.00D+00
                    CP:  3.00D+00  2.76D+00  3.00D+00  3.00D+00  3.00D+00
 E= -1306.84427415803     Delta-E=       -0.000000533373 Rises=F Damp=F
 DIIS: error= 1.12D-06 at cycle  16 NSaved=  16.
 NSaved=16 IEnMin=16 EnMin= -1306.84427415803     IErMin=16 ErrMin= 1.12D-06
 ErrMax= 1.12D-06  0.00D+00 EMaxC= 1.00D-01 BMatC= 3.24D-09 BMatP= 5.56D-08
 IDIUse=1 WtCom= 1.00D+00 WtEn= 0.00D+00
 Coeff-Com:  0.370D-06-0.351D-05-0.597D-04 0.226D-03 0.330D-02 0.944D-02
 Coeff-Com:  0.268D-02-0.352D-01-0.297D-01 0.531D-01 0.910D-01-0.719D-01
 Coeff-Com: -0.287D+00 0.258D-01 0.269D+00 0.970D+00
 Coeff:      0.370D-06-0.351D-05-0.597D-04 0.226D-03 0.330D-02 0.944D-02
 Coeff:      0.268D-02-0.352D-01-0.297D-01 0.531D-01 0.910D-01-0.719D-01
 Coeff:     -0.287D+00 0.258D-01 0.269D+00 0.970D+00
 Gap=     0.122 Goal=   None    Shift=    0.000
 Gap=     0.330 Goal=   None    Shift=    0.000
 RMSDP=3.24D-06 MaxDP=2.71D-04 DE=-5.33D-07 OVMax= 9.76D-04

 Cycle  17  Pass 1  IDiag  1:
 RMSU=  1.37D-06    CP:  9.61D-01  1.76D+00  6.96D-01  8.43D-01  1.25D+00
                    CP:  2.63D+00  3.00D+00  3.00D+00  3.00D+00  3.00D+00
                    CP:  3.00D+00  2.85D+00  3.00D+00  3.00D+00  3.00D+00
                    CP:  1.26D+00
 E= -1306.84427417325     Delta-E=       -0.000000015213 Rises=F Damp=F
 DIIS: error= 3.22D-07 at cycle  17 NSaved=  17.
 NSaved=17 IEnMin=17 EnMin= -1306.84427417325     IErMin=17 ErrMin= 3.22D-07
 ErrMax= 3.22D-07  0.00D+00 EMaxC= 1.00D-01 BMatC= 4.15D-10 BMatP= 3.24D-09
 IDIUse=1 WtCom= 1.00D+00 WtEn= 0.00D+00
 Coeff-Com: -0.809D-05 0.867D-05-0.509D-04-0.394D-05 0.966D-03 0.365D-02
 Coeff-Com:  0.112D-02-0.125D-01-0.793D-02 0.889D-02 0.134D-02 0.419D-01
 Coeff-Com:  0.818D-01-0.149D+00-0.808D-01 0.279D+00 0.831D+00
 Coeff:     -0.809D-05 0.867D-05-0.509D-04-0.394D-05 0.966D-03 0.365D-02
 Coeff:      0.112D-02-0.125D-01-0.793D-02 0.889D-02 0.134D-02 0.419D-01
 Coeff:      0.818D-01-0.149D+00-0.808D-01 0.279D+00 0.831D+00
 Gap=     0.122 Goal=   None    Shift=    0.000
 Gap=     0.330 Goal=   None    Shift=    0.000
 RMSDP=5.52D-07 MaxDP=4.32D-05 DE=-1.52D-08 OVMax= 1.65D-04

 Cycle  18  Pass 1  IDiag  1:
 RMSU=  7.59D-08    CP:  9.61D-01  1.76D+00  6.96D-01  8.43D-01  1.25D+00
                    CP:  2.63D+00  3.00D+00  3.00D+00  3.00D+00  3.00D+00
                    CP:  3.00D+00  2.86D+00  3.00D+00  3.00D+00  3.00D+00
                    CP:  1.30D+00  1.20D+00
 E= -1306.84427417361     Delta-E=       -0.000000000366 Rises=F Damp=F
 DIIS: error= 2.16D-07 at cycle  18 NSaved=  18.
 NSaved=18 IEnMin=18 EnMin= -1306.84427417361     IErMin=18 ErrMin= 2.16D-07
 ErrMax= 2.16D-07  0.00D+00 EMaxC= 1.00D-01 BMatC= 1.39D-10 BMatP= 4.15D-10
 IDIUse=1 WtCom= 1.00D+00 WtEn= 0.00D+00
 Coeff-Com: -0.557D-05 0.704D-05-0.187D-04-0.660D-05 0.176D-03 0.753D-03
 Coeff-Com: -0.559D-03-0.504D-02 0.174D-02 0.110D-02-0.894D-02 0.216D-01
 Coeff-Com:  0.757D-01-0.755D-01-0.689D-01 0.528D-01 0.429D+00 0.576D+00
 Coeff:     -0.557D-05 0.704D-05-0.187D-04-0.660D-05 0.176D-03 0.753D-03
 Coeff:     -0.559D-03-0.504D-02 0.174D-02 0.110D-02-0.894D-02 0.216D-01
 Coeff:      0.757D-01-0.755D-01-0.689D-01 0.528D-01 0.429D+00 0.576D+00
 Gap=     0.122 Goal=   None    Shift=    0.000
 Gap=     0.330 Goal=   None    Shift=    0.000
 RMSDP=2.80D-08 MaxDP=1.66D-06 DE=-3.66D-10 OVMax= 5.41D-06

 Cycle  19  Pass 1  IDiag  1:
 RMSU=  2.55D-08    CP:  9.61D-01  1.76D+00  6.96D-01  8.43D-01  1.25D+00
                    CP:  2.63D+00  3.00D+00  3.00D+00  3.00D+00  3.00D+00
                    CP:  3.00D+00  2.86D+00  3.00D+00  3.00D+00  3.00D+00
                    CP:  1.30D+00  1.21D+00  1.01D+00
 E= -1306.84427417365     Delta-E=       -0.000000000040 Rises=F Damp=F
 DIIS: error= 8.17D-08 at cycle  19 NSaved=  19.
 NSaved=19 IEnMin=19 EnMin= -1306.84427417365     IErMin=19 ErrMin= 8.17D-08
 ErrMax= 8.17D-08  0.00D+00 EMaxC= 1.00D-01 BMatC= 1.83D-11 BMatP= 1.39D-10
 IDIUse=1 WtCom= 1.00D+00 WtEn= 0.00D+00
 Coeff-Com: -0.991D-06 0.184D-05 0.885D-05 0.201D-04-0.188D-03-0.947D-03
 Coeff-Com: -0.152D-02-0.974D-03 0.554D-02 0.154D-03-0.346D-02-0.103D-01
 Coeff-Com:  0.998D-02 0.179D-01-0.427D-02-0.628D-01-0.855D-01 0.212D+00
 Coeff-Com:  0.925D+00
 Coeff:     -0.991D-06 0.184D-05 0.885D-05 0.201D-04-0.188D-03-0.947D-03
 Coeff:     -0.152D-02-0.974D-03 0.554D-02 0.154D-03-0.346D-02-0.103D-01
 Coeff:      0.998D-02 0.179D-01-0.427D-02-0.628D-01-0.855D-01 0.212D+00
 Coeff:      0.925D+00
 Gap=     0.122 Goal=   None    Shift=    0.000
 Gap=     0.330 Goal=   None    Shift=    0.000
 RMSDP=3.21D-08 MaxDP=3.31D-06 DE=-3.96D-11 OVMax= 9.18D-06

 Cycle  20  Pass 1  IDiag  1:
 RMSU=  1.45D-08    CP:  9.61D-01  1.76D+00  6.96D-01  8.43D-01  1.25D+00
                    CP:  2.63D+00  3.00D+00  3.00D+00  3.00D+00  3.00D+00
                    CP:  3.00D+00  2.86D+00  3.00D+00  3.00D+00  3.00D+00
                    CP:  1.30D+00  1.20D+00  1.10D+00  1.25D+00
 E= -1306.84427417364     Delta-E=        0.000000000007 Rises=F Damp=F
 DIIS: error= 2.47D-08 at cycle  20 NSaved=  20.
 NSaved=20 IEnMin=19 EnMin= -1306.84427417365     IErMin=20 ErrMin= 2.47D-08
 ErrMax= 2.47D-08  0.00D+00 EMaxC= 1.00D-01 BMatC= 9.36D-13 BMatP= 1.83D-11
 IDIUse=1 WtCom= 1.00D+00 WtEn= 0.00D+00
 Coeff-Com:  0.196D-06-0.249D-06 0.311D-05 0.688D-05-0.401D-04-0.235D-03
 Coeff-Com: -0.337D-03-0.110D-03 0.101D-02 0.186D-03 0.833D-04-0.376D-02
 Coeff-Com: -0.260D-02 0.872D-02 0.342D-02-0.189D-01-0.532D-01-0.101D-01
 Coeff-Com:  0.179D+00 0.897D+00
 Coeff:      0.196D-06-0.249D-06 0.311D-05 0.688D-05-0.401D-04-0.235D-03
 Coeff:     -0.337D-03-0.110D-03 0.101D-02 0.186D-03 0.833D-04-0.376D-02
 Coeff:     -0.260D-02 0.872D-02 0.342D-02-0.189D-01-0.532D-01-0.101D-01
 Coeff:      0.179D+00 0.897D+00
 Gap=     0.122 Goal=   None    Shift=    0.000
 Gap=     0.330 Goal=   None    Shift=    0.000
 RMSDP=1.33D-08 MaxDP=9.88D-07 DE= 7.28D-12 OVMax= 3.78D-06

 Cycle  21  Pass 1  IDiag  1:
 Restarting incremental Fock formation.
 E= -1306.84427417365     Delta-E=       -0.000000000005 Rises=F Damp=F
 DIIS: error= 5.46D-09 at cycle  21 NSaved=  20.
 NSaved=20 IEnMin=18 EnMin= -1306.84427417365     IErMin=20 ErrMin= 5.46D-09
 ErrMax= 5.46D-09  0.00D+00 EMaxC= 1.00D-01 BMatC= 1.52D-13 BMatP= 9.36D-13
 IDIUse=1 WtCom= 1.00D+00 WtEn= 0.00D+00
 Coeff-Com:  0.352D-07 0.757D-06 0.219D-05 0.643D-05 0.122D-04-0.795D-05
 Coeff-Com: -0.472D-04-0.109D-03 0.954D-04 0.262D-03 0.194D-04-0.103D-02
 Coeff-Com:  0.381D-03 0.812D-03 0.107D-03-0.627D-02-0.219D-01-0.385D-01
 Coeff-Com:  0.279D+00 0.788D+00
 Coeff:      0.352D-07 0.757D-06 0.219D-05 0.643D-05 0.122D-04-0.795D-05
 Coeff:     -0.472D-04-0.109D-03 0.954D-04 0.262D-03 0.194D-04-0.103D-02
 Coeff:      0.381D-03 0.812D-03 0.107D-03-0.627D-02-0.219D-01-0.385D-01
 Coeff:      0.279D+00 0.788D+00
 Gap=     0.122 Goal=   None    Shift=    0.000
 Gap=     0.330 Goal=   None    Shift=    0.000
 RMSDP=1.53D-09 MaxDP=9.82D-08 DE=-4.55D-12 OVMax= 3.79D-07

 SCF Done:  E(UB3LYP) =  -1306.84427417     A.U. after   21 cycles
            NFock= 21  Conv=0.15D-08     -V/T= 2.0005
 <Sx>= 0.0000 <Sy>= 0.0000 <Sz>= 0.5000 <S**2>= 0.7510 S= 0.5005
 <L.S>=  0.00000000000    
 KE= 1.306133685185D+03 PE=-4.450151150369D+03 EE= 1.136160603790D+03
 Annihilation of the first spin contaminant:
 S**2 before annihilation     0.7510,   after     0.7500
 Leave Link  502 at Thu May 23 15:53:30 2024, MaxMem= 26843545600 cpu:            3910.9 elap:              34.5
 (Enter /gpfs/fs1/soft/improv/software/custom-built/gaussian/g16/l508.exe)
 QCSCF skips out because SCF is already converged.
 Leave Link  508 at Thu May 23 15:53:30 2024, MaxMem= 26843545600 cpu:               0.2 elap:               0.0
 (Enter /gpfs/fs1/soft/improv/software/custom-built/gaussian/g16/l801.exe)
 DoSCS=F DFT=T ScalE2(SS,OS)=  1.000000  1.000000
 Range of M.O.s used for correlation:     1   317
 NBasis=   317 NAE=    40 NBE=    39 NFC=     0 NFV=     0
 NROrb=    317 NOA=    40 NOB=    39 NVA=   277 NVB=   278

 **** Warning!!: The largest alpha MO coefficient is  0.78992747D+02


 **** Warning!!: The largest beta MO coefficient is  0.78988810D+02

 Leave Link  801 at Thu May 23 15:53:30 2024, MaxMem= 26843545600 cpu:               0.4 elap:               0.0
 (Enter /gpfs/fs1/soft/improv/software/custom-built/gaussian/g16/l1101.exe)
 Using compressed storage, NAtomX=    19.
 Will process     20 centers per pass.
 R6Disp: Adding Grimme-D3 dispersion energy 1st derivatives to the gradient.
 Leave Link 1101 at Thu May 23 15:53:30 2024, MaxMem= 26843545600 cpu:              51.5 elap:               0.5
 (Enter /gpfs/fs1/soft/improv/software/custom-built/gaussian/g16/l1102.exe)
 Symmetrizing basis deriv contribution to polar:
 IMax=3 JMax=2 DiffMx= 0.00D+00
 Leave Link 1102 at Thu May 23 15:53:30 2024, MaxMem= 26843545600 cpu:               0.9 elap:               0.0
 (Enter /gpfs/fs1/soft/improv/software/custom-built/gaussian/g16/l1110.exe)
 Forming Gx(P) for the SCF density, NAtomX=    19.
 Integral derivatives from FoFJK, PRISM(SPDF).
 Do as many integral derivatives as possible in FoFJK.
 G2DrvN: MDV=   26843543431.
 G2DrvN: will do    20 centers at a time, making    1 passes.
 Calling FoFCou, ICntrl=  3107 FMM=F I1Cent=   0 AccDes= 0.00D+00.
 FoFJK:  IHMeth= 1 ICntrl=    3107 DoSepK=F KAlg= 0 I1Cent=           0 FoldK=F
 IRaf=         0 NMat=       1 IRICut=       1 DoRegI=T DoRafI=F ISym2E= 0 IDoP0=0 IntGTp=1.
 FoFCou: FMM=F IPFlag=           0 FMFlag=      100000 FMFlg1=           0
         NFxFlg=           0 DoJE=F BraDBF=F KetDBF=F FulRan=T
         wScrn=  0.000000 ICntrl=      3107 IOpCl=  1 I1Cent=           0 NGrid=           0
         NMat0=    1 NMatS0=      1 NMatT0=    0 NMatD0=    1 NMtDS0=    0 NMtDT0=    0
 Symmetry not used in FoFCou.
 End of G2Drv F.D. properties file   721 does not exist.
 End of G2Drv F.D. properties file   722 does not exist.
 End of G2Drv F.D. properties file   788 does not exist.
 Leave Link 1110 at Thu May 23 15:53:46 2024, MaxMem= 26843545600 cpu:            1893.6 elap:              15.1
 (Enter /gpfs/fs1/soft/improv/software/custom-built/gaussian/g16/l1002.exe)
 Minotr:  UHF open shell wavefunction.
          IDoAtm=1111111111111111111
          Direct CPHF calculation.
          Differentiating once with respect to electric field.
                with respect to dipole field.
          Differentiating once with respect to nuclear coordinates.
          Requested convergence is 1.0D-08 RMS, and 1.0D-07 maximum.
          Secondary convergence is 1.0D-12 RMS, and 1.0D-12 maximum.
          NewPWx=T KeepS1=F KeepF1=F KeepIn=T MapXYZ=F SortEE=F KeepMc=T.
         6034 words used for storage of precomputed grid.
 Two-electron integrals replicated using symmetry.
          MDV=   26843545600 using IRadAn=       1.
          Solving linear equations simultaneously, MaxMat=     384.
 FoF2E skips out because all densities are zero.
 CalDSu exits because no D1Ps are significant.
 FoFJK:  IHMeth= 1 ICntrl=       0 DoSepK=F KAlg= 0 I1Cent=           0 FoldK=F
 IRaf= 990000000 NMat=      57 IRICut=     142 DoRegI=T DoRafI=T ISym2E= 2 IDoP0=3 IntGTp=2.
 FoFCou: FMM=F IPFlag=           0 FMFlag=      100000 FMFlg1=           0
         NFxFlg=           0 DoJE=F BraDBF=F KetDBF=F FulRan=T
         wScrn=  0.000000 ICntrl=         0 IOpCl=  1 I1Cent=           0 NGrid=           0
         NMat0=   57 NMatS0=     57 NMatT0=    0 NMatD0=   57 NMtDS0=    0 NMtDT0=    0
 Integrals replicated using symmetry in FoFCou.
 Raff kept on since  98.06% of shell-pairs survive, threshold=   0.20 IRatSp=98.
          There are    60 degrees of freedom in the 1st order CPHF.  IDoFFX=6 NUNeed=     3.
     57 vectors produced by pass  0 Test12= 3.65D-14 1.67D-09 XBig12= 5.47D+01 1.30D+00.
 AX will form    57 AO Fock derivatives at one time.
     57 vectors produced by pass  1 Test12= 3.65D-14 1.67D-09 XBig12= 5.36D+00 2.45D-01.
     57 vectors produced by pass  2 Test12= 3.65D-14 1.67D-09 XBig12= 5.94D-02 2.44D-02.
     57 vectors produced by pass  3 Test12= 3.65D-14 1.67D-09 XBig12= 2.34D-04 1.79D-03.
     57 vectors produced by pass  4 Test12= 3.65D-14 1.67D-09 XBig12= 1.17D-06 1.13D-04.
     57 vectors produced by pass  5 Test12= 3.65D-14 1.67D-09 XBig12= 7.22D-09 9.38D-06.
     39 vectors produced by pass  6 Test12= 3.65D-14 1.67D-09 XBig12= 2.88D-11 6.93D-07.
      8 vectors produced by pass  7 Test12= 3.65D-14 1.67D-09 XBig12= 1.16D-13 2.94D-08.
      2 vectors produced by pass  8 Test12= 3.65D-14 1.67D-09 XBig12= 4.02D-16 1.76D-09.
 InvSVY:  IOpt=1 It=  1 EMax= 2.66D-15
 Solved reduced A of dimension   391 with    60 vectors.
 FullF1:  Do perturbations      1 to       3.
 Isotropic polarizability for W=    0.000000       49.51 Bohr**3.
 End of Minotr F.D. properties file   721 does not exist.
 End of Minotr F.D. properties file   722 does not exist.
 End of Minotr F.D. properties file   788 does not exist.
 Leave Link 1002 at Thu May 23 15:54:51 2024, MaxMem= 26843545600 cpu:            7917.2 elap:              65.3
 (Enter /gpfs/fs1/soft/improv/software/custom-built/gaussian/g16/l601.exe)
 Copying SCF densities to generalized density rwf, IOpCl= 1 IROHF=0.

 **********************************************************************

            Population analysis using the SCF Density.

 **********************************************************************

 Orbital symmetries:
 Alpha Orbitals:
       Occupied  (A) (A) (A) (A) (A) (A) (A) (A) (A) (A) (A) (A)
                 (A) (A) (A) (A) (A) (A) (A) (A) (A) (A) (A) (A)
                 (A) (A) (A) (A) (A) (A) (A) (A) (A) (A) (A) (A)
                 (A) (A) (A) (A)
       Virtual   (A) (A) (A) (A) (A) (A) (A) (A) (A) (A) (A) (A)
                 (A) (A) (A) (A) (A) (A) (A) (A) (A) (A) (A) (A)
                 (A) (A) (A) (A) (A) (A) (A) (A) (A) (A) (A) (A)
                 (A) (A) (A) (A) (A) (A) (A) (A) (A) (A) (A) (A)
                 (A) (A) (A) (A) (A) (A) (A) (A) (A) (A) (A) (A)
                 (A) (A) (A) (A) (A) (A) (A) (A) (A) (A) (A) (A)
                 (A) (A) (A) (A) (A) (A) (A) (A) (A) (A) (A) (A)
                 (A) (A) (A) (A) (A) (A) (A) (A) (A) (A) (A) (A)
                 (A) (A) (A) (A) (A) (A) (A) (A) (A) (A) (A) (A)
                 (A) (A) (A) (A) (A) (A) (A) (A) (A) (A) (A) (A)
                 (A) (A) (A) (A) (A) (A) (A) (A) (A) (A) (A) (A)
                 (A) (A) (A) (A) (A) (A) (A) (A) (A) (A) (A) (A)
                 (A) (A) (A) (A) (A) (A) (A) (A) (A) (A) (A) (A)
                 (A) (A) (A) (A) (A) (A) (A) (A) (A) (A) (A) (A)
                 (A) (A) (A) (A) (A) (A) (A) (A) (A) (A) (A) (A)
                 (A) (A) (A) (A) (A) (A) (A) (A) (A) (A) (A) (A)
                 (A) (A) (A) (A) (A) (A) (A) (A) (A) (A) (A) (A)
                 (A) (A) (A) (A) (A) (A) (A) (A) (A) (A) (A) (A)
                 (A) (A) (A) (A) (A) (A) (A) (A) (A) (A) (A) (A)
                 (A) (A) (A) (A) (A) (A) (A) (A) (A) (A) (A) (A)
                 (A) (A) (A) (A) (A) (A) (A) (A) (A) (A) (A) (A)
                 (A) (A) (A) (A) (A) (A) (A) (A) (A) (A) (A) (A)
                 (A) (A) (A) (A) (A) (A) (A) (A) (A) (A) (A) (A)
                 (A)
 Beta  Orbitals:
       Occupied  (A) (A) (A) (A) (A) (A) (A) (A) (A) (A) (A) (A)
                 (A) (A) (A) (A) (A) (A) (A) (A) (A) (A) (A) (A)
                 (A) (A) (A) (A) (A) (A) (A) (A) (A) (A) (A) (A)
                 (A) (A) (A)
       Virtual   (A) (A) (A) (A) (A) (A) (A) (A) (A) (A) (A) (A)
                 (A) (A) (A) (A) (A) (A) (A) (A) (A) (A) (A) (A)
                 (A) (A) (A) (A) (A) (A) (A) (A) (A) (A) (A) (A)
                 (A) (A) (A) (A) (A) (A) (A) (A) (A) (A) (A) (A)
                 (A) (A) (A) (A) (A) (A) (A) (A) (A) (A) (A) (A)
                 (A) (A) (A) (A) (A) (A) (A) (A) (A) (A) (A) (A)
                 (A) (A) (A) (A) (A) (A) (A) (A) (A) (A) (A) (A)
                 (A) (A) (A) (A) (A) (A) (A) (A) (A) (A) (A) (A)
                 (A) (A) (A) (A) (A) (A) (A) (A) (A) (A) (A) (A)
                 (A) (A) (A) (A) (A) (A) (A) (A) (A) (A) (A) (A)
                 (A) (A) (A) (A) (A) (A) (A) (A) (A) (A) (A) (A)
                 (A) (A) (A) (A) (A) (A) (A) (A) (A) (A) (A) (A)
                 (A) (A) (A) (A) (A) (A) (A) (A) (A) (A) (A) (A)
                 (A) (A) (A) (A) (A) (A) (A) (A) (A) (A) (A) (A)
                 (A) (A) (A) (A) (A) (A) (A) (A) (A) (A) (A) (A)
                 (A) (A) (A) (A) (A) (A) (A) (A) (A) (A) (A) (A)
                 (A) (A) (A) (A) (A) (A) (A) (A) (A) (A) (A) (A)
                 (A) (A) (A) (A) (A) (A) (A) (A) (A) (A) (A) (A)
                 (A) (A) (A) (A) (A) (A) (A) (A) (A) (A) (A) (A)
                 (A) (A) (A) (A) (A) (A) (A) (A) (A) (A) (A) (A)
                 (A) (A) (A) (A) (A) (A) (A) (A) (A) (A) (A) (A)
                 (A) (A) (A) (A) (A) (A) (A) (A) (A) (A) (A) (A)
                 (A) (A) (A) (A) (A) (A) (A) (A) (A) (A) (A) (A)
                 (A) (A)
 The electronic state is 2-A.
 Alpha  occ. eigenvalues -- -179.33965 -20.40386 -19.77433 -19.77153 -19.76182
 Alpha  occ. eigenvalues --  -19.75693 -19.73679 -19.73262 -17.11897 -17.11496
 Alpha  occ. eigenvalues --  -17.10791  -2.92343  -2.05565  -2.05381  -2.05046
 Alpha  occ. eigenvalues --   -1.66796  -1.64885  -1.64518  -1.62850  -1.61131
 Alpha  occ. eigenvalues --   -1.60764  -1.20168  -1.18496  -1.16485  -1.15907
 Alpha  occ. eigenvalues --   -1.14008  -1.12718  -1.07112  -1.06970  -1.06413
 Alpha  occ. eigenvalues --   -1.02921  -1.02156  -0.99654  -0.98597  -0.95988
 Alpha  occ. eigenvalues --   -0.95656  -0.93800  -0.91924  -0.90877  -0.71592
 Alpha virt. eigenvalues --   -0.59396  -0.57971  -0.55663  -0.50129  -0.48128
 Alpha virt. eigenvalues --   -0.47009  -0.44863  -0.44431  -0.41811  -0.40817
 Alpha virt. eigenvalues --   -0.40445  -0.39756  -0.37207  -0.35931  -0.35486
 Alpha virt. eigenvalues --   -0.33909  -0.32607  -0.31946  -0.30971  -0.29273
 Alpha virt. eigenvalues --   -0.28472  -0.28033  -0.27640  -0.27107  -0.25243
 Alpha virt. eigenvalues --   -0.25114  -0.24572  -0.23917  -0.22509  -0.21793
 Alpha virt. eigenvalues --   -0.21250  -0.20107  -0.19562  -0.18694  -0.17369
 Alpha virt. eigenvalues --   -0.16506  -0.15847  -0.15635  -0.14901  -0.14379
 Alpha virt. eigenvalues --   -0.12674  -0.11984  -0.11104  -0.10003  -0.08776
 Alpha virt. eigenvalues --   -0.07743  -0.07542  -0.06067  -0.05249  -0.04251
 Alpha virt. eigenvalues --   -0.02990  -0.02185  -0.00170   0.01267   0.03429
 Alpha virt. eigenvalues --    0.05957   0.08235   0.20038   0.21014   0.21496
 Alpha virt. eigenvalues --    0.23194   0.25190   0.25774   0.26311   0.27089
 Alpha virt. eigenvalues --    0.31403   0.32810   0.33659   0.34391   0.34850
 Alpha virt. eigenvalues --    0.37435   0.37608   0.38350   0.38486   0.40062
 Alpha virt. eigenvalues --    0.40468   0.44286   0.45967   0.47186   0.47813
 Alpha virt. eigenvalues --    0.49062   0.50822   0.51701   0.52167   0.53218
 Alpha virt. eigenvalues --    0.54713   0.56108   0.57154   0.57497   0.60292
 Alpha virt. eigenvalues --    0.61112   0.63568   0.64201   0.67191   0.69278
 Alpha virt. eigenvalues --    0.69681   0.72517   0.73814   0.76942   0.77653
 Alpha virt. eigenvalues --    0.78110   0.78725   0.80482   0.83205   0.84460
 Alpha virt. eigenvalues --    0.87473   0.87911   0.93201   0.94534   0.97605
 Alpha virt. eigenvalues --    0.99280   1.03138   1.07406   1.09415   1.12143
 Alpha virt. eigenvalues --    1.14266   1.19114   1.19836   1.25268   1.27192
 Alpha virt. eigenvalues --    1.31079   1.33914   1.34944   1.36969   1.38265
 Alpha virt. eigenvalues --    1.43876   1.47762   1.66473   1.67433   1.69906
 Alpha virt. eigenvalues --    1.70340   1.71488   1.74648   1.74716   1.76076
 Alpha virt. eigenvalues --    1.80279   1.83638   1.86293   1.87500   1.89603
 Alpha virt. eigenvalues --    1.91648   1.95164   1.96738   1.99345   2.03717
 Alpha virt. eigenvalues --    2.06078   2.10648   2.17851   2.19418   2.25622
 Alpha virt. eigenvalues --    2.27523   2.30300   2.31927   2.33776   2.34797
 Alpha virt. eigenvalues --    2.37065   2.38451   2.40069   2.41558   2.43624
 Alpha virt. eigenvalues --    2.44076   2.45975   2.48001   2.48209   2.49894
 Alpha virt. eigenvalues --    2.53400   2.59944   2.61649   2.63278   2.64630
 Alpha virt. eigenvalues --    2.65508   2.66279   2.69045   2.73301   2.75092
 Alpha virt. eigenvalues --    2.76500   2.81657   2.85331   2.88715   3.02764
 Alpha virt. eigenvalues --    3.03885   3.04685   3.07138   3.10189   3.49414
 Alpha virt. eigenvalues --    3.51440   3.54463   3.57014   3.59348   3.60779
 Alpha virt. eigenvalues --    3.63463   3.64145   3.65411   3.66473   3.67213
 Alpha virt. eigenvalues --    3.70537   3.73699   3.75956   3.78446   3.84832
 Alpha virt. eigenvalues --    3.85600   3.88196   3.90634   3.96032   3.97112
 Alpha virt. eigenvalues --    3.99484   4.01824   4.04785   4.07008   4.15447
 Alpha virt. eigenvalues --    4.15613   4.16465   4.20318   4.22273   4.30078
 Alpha virt. eigenvalues --    4.31261   4.33682   4.35744   4.38102   4.38631
 Alpha virt. eigenvalues --    4.40552   4.48121   4.61433   4.66525   4.68613
 Alpha virt. eigenvalues --    4.73171   4.74051   4.75772   4.84201   4.85950
 Alpha virt. eigenvalues --    4.89534   4.89615   4.90172   4.90876   4.96695
 Alpha virt. eigenvalues --    4.97476   4.99071   5.03030   5.04608   5.06651
 Alpha virt. eigenvalues --    5.08096   5.10803   5.15451   5.16476   5.20607
 Alpha virt. eigenvalues --    5.22844   5.23644   5.24803   5.26396   5.27644
 Alpha virt. eigenvalues --    5.28945   5.33613   5.34403   5.35711   5.37182
 Alpha virt. eigenvalues --    5.37948   5.40202   5.41982   5.43328   5.46966
 Alpha virt. eigenvalues --    5.51515   5.79806   5.81866   5.86261   6.88904
 Alpha virt. eigenvalues --    6.91517   6.92421   7.03974   7.09577   7.13619
 Alpha virt. eigenvalues --   13.14718  13.16922  13.17655  13.74141  13.78034
 Alpha virt. eigenvalues --   13.83864  28.42384
  Beta  occ. eigenvalues -- -179.33958 -20.39374 -19.77457 -19.77184 -19.76182
  Beta  occ. eigenvalues --  -19.75669 -19.73699 -19.73280 -17.11519 -17.10717
  Beta  occ. eigenvalues --  -17.09367  -2.88850  -2.04000  -2.02084  -1.99223
  Beta  occ. eigenvalues --   -1.66717  -1.64798  -1.64446  -1.62639  -1.60997
  Beta  occ. eigenvalues --   -1.60623  -1.19817  -1.18377  -1.16340  -1.15813
  Beta  occ. eigenvalues --   -1.13820  -1.12593  -1.06953  -1.06776  -1.06224
  Beta  occ. eigenvalues --   -1.02831  -1.02032  -0.99547  -0.98463  -0.95874
  Beta  occ. eigenvalues --   -0.95496  -0.93686  -0.91838  -0.90853
  Beta virt. eigenvalues --   -0.57859  -0.56811  -0.55208  -0.54925  -0.50066
  Beta virt. eigenvalues --   -0.47890  -0.46941  -0.44405  -0.44097  -0.41196
  Beta virt. eigenvalues --   -0.40551  -0.39941  -0.39034  -0.36946  -0.35829
  Beta virt. eigenvalues --   -0.35388  -0.33724  -0.32589  -0.31887  -0.30922
  Beta virt. eigenvalues --   -0.29212  -0.28441  -0.28004  -0.27539  -0.27039
  Beta virt. eigenvalues --   -0.25178  -0.25091  -0.24503  -0.23618  -0.22271
  Beta virt. eigenvalues --   -0.21705  -0.21209  -0.20035  -0.19496  -0.18368
  Beta virt. eigenvalues --   -0.17265  -0.16460  -0.15784  -0.15604  -0.14795
  Beta virt. eigenvalues --   -0.14327  -0.12525  -0.11874  -0.11006  -0.09961
  Beta virt. eigenvalues --   -0.08454  -0.07669  -0.07483  -0.05911  -0.05120
  Beta virt. eigenvalues --   -0.04162  -0.02955  -0.01871   0.00335   0.01577
  Beta virt. eigenvalues --    0.03658   0.06182   0.08455   0.20941   0.21352
  Beta virt. eigenvalues --    0.22040   0.23726   0.25822   0.26480   0.26636
  Beta virt. eigenvalues --    0.27524   0.31512   0.32947   0.33795   0.34533
  Beta virt. eigenvalues --    0.34938   0.37608   0.37800   0.38521   0.38602
  Beta virt. eigenvalues --    0.40264   0.40695   0.44453   0.46100   0.47484
  Beta virt. eigenvalues --    0.47912   0.49171   0.50985   0.51820   0.52340
  Beta virt. eigenvalues --    0.53316   0.54806   0.56234   0.57305   0.57601
  Beta virt. eigenvalues --    0.60476   0.61267   0.63723   0.64274   0.67454
  Beta virt. eigenvalues --    0.69348   0.69899   0.72612   0.74421   0.77086
  Beta virt. eigenvalues --    0.77819   0.78292   0.78796   0.81175   0.83340
  Beta virt. eigenvalues --    0.84519   0.87726   0.88072   0.93728   0.94961
  Beta virt. eigenvalues --    0.98201   0.99590   1.03404   1.09750   1.10144
  Beta virt. eigenvalues --    1.12726   1.15651   1.20213   1.21084   1.25755
  Beta virt. eigenvalues --    1.27548   1.31353   1.34118   1.35541   1.37340
  Beta virt. eigenvalues --    1.39199   1.44319   1.48092   1.66745   1.67685
  Beta virt. eigenvalues --    1.70189   1.70698   1.71762   1.74870   1.74953
  Beta virt. eigenvalues --    1.76270   1.80533   1.83843   1.86533   1.87946
  Beta virt. eigenvalues --    1.89871   1.92066   1.95513   1.97117   1.99771
  Beta virt. eigenvalues --    2.04327   2.06748   2.11670   2.18349   2.19797
  Beta virt. eigenvalues --    2.25925   2.27863   2.30747   2.32519   2.34152
  Beta virt. eigenvalues --    2.35273   2.37449   2.38703   2.40362   2.42261
  Beta virt. eigenvalues --    2.43918   2.44756   2.46302   2.48271   2.48495
  Beta virt. eigenvalues --    2.50388   2.53875   2.60228   2.61866   2.63521
  Beta virt. eigenvalues --    2.65426   2.65696   2.66890   2.69714   2.73918
  Beta virt. eigenvalues --    2.75413   2.77788   2.82298   2.85968   2.89497
  Beta virt. eigenvalues --    3.04064   3.04541   3.05690   3.08113   3.11297
  Beta virt. eigenvalues --    3.49638   3.51621   3.54549   3.57337   3.59564
  Beta virt. eigenvalues --    3.60973   3.63603   3.64504   3.65517   3.66598
  Beta virt. eigenvalues --    3.67273   3.70757   3.73826   3.76053   3.78470
  Beta virt. eigenvalues --    3.85048   3.85793   3.88291   3.90827   3.96935
  Beta virt. eigenvalues --    3.97525   4.00458   4.03924   4.05941   4.07803
  Beta virt. eigenvalues --    4.16135   4.16642   4.17540   4.21513   4.22376
  Beta virt. eigenvalues --    4.30377   4.31724   4.34392   4.36398   4.38381
  Beta virt. eigenvalues --    4.39081   4.40942   4.49659   4.61475   4.66774
  Beta virt. eigenvalues --    4.68787   4.73380   4.74161   4.75998   4.84231
  Beta virt. eigenvalues --    4.85979   4.89620   4.89704   4.90214   4.90990
  Beta virt. eigenvalues --    4.96843   4.97605   4.99257   5.03285   5.05254
  Beta virt. eigenvalues --    5.06860   5.08321   5.11004   5.15610   5.16647
  Beta virt. eigenvalues --    5.20822   5.22959   5.23725   5.24931   5.26559
  Beta virt. eigenvalues --    5.27910   5.29206   5.33802   5.34516   5.36043
  Beta virt. eigenvalues --    5.37411   5.38130   5.40339   5.42318   5.43529
  Beta virt. eigenvalues --    5.47201   5.51858   5.79855   5.81930   5.86363
  Beta virt. eigenvalues --    6.89011   6.91642   6.92563   7.04048   7.09628
  Beta virt. eigenvalues --    7.13691  13.14801  13.16980  13.17702  13.74147
  Beta virt. eigenvalues --   13.78059  13.83870  28.43058
          Condensed to atoms (all electrons):
               1          2          3          4          5          6
     1  Ti  20.930070   0.049895  -0.006998   0.100226  -0.006109   0.043570
     2  O    0.049895   7.867309   0.304848  -0.020686  -0.000402  -0.022385
     3  H   -0.006998   0.304848   0.258320   0.001465  -0.000024  -0.000314
     4  O    0.100226  -0.020686   0.001465   7.947501   0.301572  -0.082206
     5  H   -0.006109  -0.000402  -0.000024   0.301572   0.279114   0.000055
     6  O    0.043570  -0.022385  -0.000314  -0.082206   0.000055   7.987287
     7  H   -0.019488   0.000915   0.000041  -0.004410   0.000072   0.313637
     8  O    0.017506   0.040565  -0.000676  -0.048520   0.000228  -0.098778
     9  H   -0.007438  -0.000998  -0.000018   0.003200  -0.000006  -0.001407
    10  O    0.105393   0.037534   0.006190   0.024145  -0.001035  -0.046976
    11  H   -0.007530   0.001953  -0.000516  -0.001288   0.000007   0.000519
    12  O    0.069202   0.002606  -0.003222   0.041280   0.000514   0.039627
    13  H   -0.013757  -0.005036   0.000167   0.007166   0.000040  -0.000379
    14  H   -0.005800   0.001609  -0.000072  -0.000947   0.000019  -0.000647
    15  H   -0.007004   0.003845  -0.000036   0.299616  -0.020068  -0.005276
    16  H   -0.013560   0.313992  -0.014731  -0.006430   0.000046   0.001580
    17  H   -0.009437  -0.000095   0.000206  -0.001494  -0.000005   0.002349
    18  H   -0.012975  -0.000485  -0.000007   0.015703  -0.001350   0.300145
    19  H   -0.014962  -0.001893   0.000010  -0.008798   0.000658   0.012227
               7          8          9         10         11         12
     1  Ti  -0.019488   0.017506  -0.007438   0.105393  -0.007530   0.069202
     2  O    0.000915   0.040565  -0.000998   0.037534   0.001953   0.002606
     3  H    0.000041  -0.000676  -0.000018   0.006190  -0.000516  -0.003222
     4  O   -0.004410  -0.048520   0.003200   0.024145  -0.001288   0.041280
     5  H    0.000072   0.000228  -0.000006  -0.001035   0.000007   0.000514
     6  O    0.313637  -0.098778  -0.001407  -0.046976   0.000519   0.039627
     7  H    0.302711   0.006645  -0.000656  -0.005070  -0.000070  -0.001785
     8  O    0.006645   7.999784   0.301792  -0.049215  -0.005288  -0.031750
     9  H   -0.000656   0.301792   0.273708   0.007081   0.000824  -0.003117
    10  O   -0.005070  -0.049215   0.007081   7.931387   0.295936  -0.041556
    11  H   -0.000070  -0.005288   0.000824   0.295936   0.279318   0.004644
    12  O   -0.001785  -0.031750  -0.003117  -0.041556   0.004644   7.859412
    13  H    0.000013  -0.002304   0.000013   0.003015  -0.000177   0.309771
    14  H   -0.000038   0.001154   0.000741  -0.008880   0.003009   0.304193
    15  H    0.000122   0.001361  -0.000032  -0.001423  -0.000001   0.001258
    16  H   -0.000160  -0.000282   0.000007  -0.001319   0.000027   0.000511
    17  H    0.001537   0.000247  -0.001365   0.300295  -0.021087   0.000655
    18  H   -0.020081  -0.003195   0.000118   0.002088  -0.000016  -0.001057
    19  H    0.005522   0.307019  -0.018058  -0.003968   0.000077   0.002335
              13         14         15         16         17         18
     1  Ti  -0.013757  -0.005800  -0.007004  -0.013560  -0.009437  -0.012975
     2  O   -0.005036   0.001609   0.003845   0.313992  -0.000095  -0.000485
     3  H    0.000167  -0.000072  -0.000036  -0.014731   0.000206  -0.000007
     4  O    0.007166  -0.000947   0.299616  -0.006430  -0.001494   0.015703
     5  H    0.000040   0.000019  -0.020068   0.000046  -0.000005  -0.001350
     6  O   -0.000379  -0.000647  -0.005276   0.001580   0.002349   0.300145
     7  H    0.000013  -0.000038   0.000122  -0.000160   0.001537  -0.020081
     8  O   -0.002304   0.001154   0.001361  -0.000282   0.000247  -0.003195
     9  H    0.000013   0.000741  -0.000032   0.000007  -0.001365   0.000118
    10  O    0.003015  -0.008880  -0.001423  -0.001319   0.300295   0.002088
    11  H   -0.000177   0.003009  -0.000001   0.000027  -0.021087  -0.000016
    12  O    0.309771   0.304193   0.001258   0.000511   0.000655  -0.001057
    13  H    0.258026  -0.016419  -0.000313  -0.000029  -0.000027  -0.000026
    14  H   -0.016419   0.296762   0.000008  -0.000024  -0.000060   0.000012
    15  H   -0.000313   0.000008   0.267858   0.000877   0.000008   0.000418
    16  H   -0.000029  -0.000024   0.000877   0.279901  -0.000009   0.000189
    17  H   -0.000027  -0.000060   0.000008  -0.000009   0.280522  -0.000119
    18  H   -0.000026   0.000012   0.000418   0.000189  -0.000119   0.278107
    19  H    0.000047  -0.000176   0.000008  -0.000030   0.000269  -0.001080
              19
     1  Ti  -0.014962
     2  O   -0.001893
     3  H    0.000010
     4  O   -0.008798
     5  H    0.000658
     6  O    0.012227
     7  H    0.005522
     8  O    0.307019
     9  H   -0.018058
    10  O   -0.003968
    11  H    0.000077
    12  O    0.002335
    13  H    0.000047
    14  H   -0.000176
    15  H    0.000008
    16  H   -0.000030
    17  H    0.000269
    18  H   -0.001080
    19  H    0.296792
          Atomic-Atomic Spin Densities.
               1          2          3          4          5          6
     1  Ti   1.160514  -0.015828  -0.001367  -0.030238  -0.000777  -0.016447
     2  O   -0.015828  -0.003573  -0.000562   0.004750  -0.000283   0.000310
     3  H   -0.001367  -0.000562   0.005308  -0.000310   0.000004   0.000092
     4  O   -0.030238   0.004750  -0.000310   0.021690   0.000683   0.001221
     5  H   -0.000777  -0.000283   0.000004   0.000683  -0.000155   0.000166
     6  O   -0.016447   0.000310   0.000092   0.001221   0.000166  -0.014023
     7  H   -0.015401  -0.001479   0.000043  -0.002250   0.000128   0.009752
     8  O   -0.013618  -0.000566   0.000032  -0.000763   0.000192   0.003713
     9  H   -0.004869   0.000160  -0.000009  -0.000048  -0.000035  -0.001605
    10  O   -0.018847  -0.002616   0.002300  -0.000166  -0.000042   0.003200
    11  H   -0.009019   0.000247  -0.000287   0.000009  -0.000003  -0.001106
    12  O   -0.015371   0.003373   0.000031   0.001345  -0.000080  -0.000610
    13  H   -0.005056  -0.000317   0.000105   0.003053   0.000063   0.000125
    14  H   -0.014588  -0.000016  -0.000083  -0.001214  -0.000025  -0.000448
    15  H   -0.005999   0.001773  -0.000053   0.003092  -0.000504   0.000304
    16  H   -0.009976   0.007608  -0.001644   0.001644  -0.000025   0.000630
    17  H   -0.005484  -0.000629   0.000133  -0.000225   0.000004   0.001849
    18  H   -0.007661   0.002572  -0.000058   0.005495  -0.000348   0.001530
    19  H   -0.010348  -0.000464   0.000007  -0.001122   0.000314   0.004088
               7          8          9         10         11         12
     1  Ti  -0.015401  -0.013618  -0.004869  -0.018847  -0.009019  -0.015371
     2  O   -0.001479  -0.000566   0.000160  -0.002616   0.000247   0.003373
     3  H    0.000043   0.000032  -0.000009   0.002300  -0.000287   0.000031
     4  O   -0.002250  -0.000763  -0.000048  -0.000166   0.000009   0.001345
     5  H    0.000128   0.000192  -0.000035  -0.000042  -0.000003  -0.000080
     6  O    0.009752   0.003713  -0.001605   0.003200  -0.001106  -0.000610
     7  H    0.017193   0.003261  -0.000489   0.000748  -0.000134  -0.000348
     8  O    0.003261  -0.009896   0.002632   0.002005   0.000584   0.002884
     9  H   -0.000489   0.002632   0.005710   0.001512   0.000799   0.001550
    10  O    0.000748   0.002005   0.001512   0.001905   0.002519   0.002735
    11  H   -0.000134   0.000584   0.000799   0.002519   0.011662   0.002703
    12  O   -0.000348   0.002884   0.001550   0.002735   0.002703  -0.013287
    13  H    0.000009  -0.000420  -0.000082  -0.000196  -0.000141   0.003179
    14  H   -0.000026   0.001712   0.000761   0.001456   0.001392   0.008008
    15  H   -0.000087  -0.000476   0.000008  -0.000096   0.000004  -0.000300
    16  H   -0.000154  -0.000208   0.000005  -0.001254   0.000040  -0.000266
    17  H    0.000886   0.000353  -0.000519   0.003427  -0.002027  -0.000636
    18  H   -0.004098  -0.001969   0.000065  -0.000510   0.000019   0.000020
    19  H    0.002870   0.004603  -0.002546  -0.000523  -0.000133  -0.000802
              13         14         15         16         17         18
     1  Ti  -0.005056  -0.014588  -0.005999  -0.009976  -0.005484  -0.007661
     2  O   -0.000317  -0.000016   0.001773   0.007608  -0.000629   0.002572
     3  H    0.000105  -0.000083  -0.000053  -0.001644   0.000133  -0.000058
     4  O    0.003053  -0.001214   0.003092   0.001644  -0.000225   0.005495
     5  H    0.000063  -0.000025  -0.000504  -0.000025   0.000004  -0.000348
     6  O    0.000125  -0.000448   0.000304   0.000630   0.001849   0.001530
     7  H    0.000009  -0.000026  -0.000087  -0.000154   0.000886  -0.004098
     8  O   -0.000420   0.001712  -0.000476  -0.000208   0.000353  -0.001969
     9  H   -0.000082   0.000761   0.000008   0.000005  -0.000519   0.000065
    10  O   -0.000196   0.001456  -0.000096  -0.001254   0.003427  -0.000510
    11  H   -0.000141   0.001392   0.000004   0.000040  -0.002027   0.000019
    12  O    0.003179   0.008008  -0.000300  -0.000266  -0.000636   0.000020
    13  H    0.008637  -0.002971  -0.000165  -0.000046   0.000013  -0.000016
    14  H   -0.002971   0.013152   0.000025   0.000017  -0.000118   0.000011
    15  H   -0.000165   0.000025   0.005128   0.000390  -0.000004   0.000768
    16  H   -0.000046   0.000017   0.000390   0.006583  -0.000053   0.000546
    17  H    0.000013  -0.000118  -0.000004  -0.000053   0.003209  -0.000098
    18  H   -0.000016   0.000011   0.000768   0.000546  -0.000098   0.012500
    19  H    0.000050  -0.000172  -0.000066  -0.000015   0.000274  -0.000779
              19
     1  Ti  -0.010348
     2  O   -0.000464
     3  H    0.000007
     4  O   -0.001122
     5  H    0.000314
     6  O    0.004088
     7  H    0.002870
     8  O    0.004603
     9  H   -0.002546
    10  O   -0.000523
    11  H   -0.000133
    12  O   -0.000802
    13  H    0.000050
    14  H   -0.000172
    15  H   -0.000066
    16  H   -0.000015
    17  H    0.000274
    18  H   -0.000779
    19  H    0.013435
 Mulliken charges and spin densities:
               1          2
     1  Ti   0.809195   0.959619
     2  O   -0.573092  -0.005540
     3  H    0.455366   0.003682
     4  O   -0.567092   0.006647
     5  H    0.446673  -0.000723
     6  O   -0.442629  -0.007259
     7  H    0.420544   0.010426
     8  O   -0.436292  -0.005945
     9  H    0.445610   0.002999
    10  O   -0.553621  -0.002444
    11  H    0.449656   0.007128
    12  O   -0.553522  -0.005871
    13  H    0.460209   0.005827
    14  H    0.425556   0.006874
    15  H    0.458774   0.003744
    16  H    0.439444   0.003823
    17  H    0.447610   0.000355
    18  H    0.443611   0.007989
    19  H    0.424000   0.008670
 Sum of Mulliken charges =   3.00000   1.00000
 Mulliken charges and spin densities with hydrogens summed into heavy atoms:
               1          2
     1  Ti   0.809195   0.959619
     2  O    0.321718   0.001964
     4  O    0.338355   0.009668
     6  O    0.421526   0.011156
     8  O    0.433318   0.005723
    10  O    0.343645   0.005040
    12  O    0.332242   0.006830
 APT charges:
               1
     1  Ti   2.302761
     2  O   -0.673772
     3  H    0.411777
     4  O   -0.646084
     5  H    0.373675
     6  O   -0.579154
     7  H    0.336829
     8  O   -0.617900
     9  H    0.377402
    10  O   -0.634740
    11  H    0.371865
    12  O   -0.636370
    13  H    0.409472
    14  H    0.364499
    15  H    0.380980
    16  H    0.381526
    17  H    0.373217
    18  H    0.360246
    19  H    0.343772
 Sum of APT charges =   3.00000
 APT charges with hydrogens summed into heavy atoms:
               1
     1  Ti   2.302761
     2  O    0.119531
     4  O    0.108571
     6  O    0.117920
     8  O    0.103274
    10  O    0.110342
    12  O    0.137601
 Electronic spatial extent (au):  <R**2>=            840.1955
 Charge=              3.0000 electrons
 Dipole moment (field-independent basis, Debye):
    X=              2.2984    Y=              3.7147    Z=             -1.0298  Tot=              4.4880
 Quadrupole moment (field-independent basis, Debye-Ang):
   XX=            -12.6943   YY=            -16.0586   ZZ=            -26.9913
   XY=             -4.1991   XZ=             -1.4096   YZ=             -0.8471
 Traceless Quadrupole moment (field-independent basis, Debye-Ang):
   XX=              5.8871   YY=              2.5228   ZZ=             -8.4099
   XY=             -4.1991   XZ=             -1.4096   YZ=             -0.8471
 Octapole moment (field-independent basis, Debye-Ang**2):
  XXX=             18.4586  YYY=             17.6444  ZZZ=              4.7903  XYY=              4.0732
  XXY=              9.0819  XXZ=              3.1842  XZZ=             -8.0548  YZZ=             -3.2336
  YYZ=            -14.6217  XYZ=             -3.1250
 Hexadecapole moment (field-independent basis, Debye-Ang**3):
 XXXX=           -170.6925 YYYY=           -177.5197 ZZZZ=           -216.2570 XXXY=            -21.4804
 XXXZ=              2.9215 YYYX=             -9.7908 YYYZ=             10.7113 ZZZX=            -16.1506
 ZZZY=            -14.6849 XXYY=            -48.2426 XXZZ=            -55.6616 YYZZ=            -52.0260
 XXYZ=              0.0689 YYXZ=              3.3924 ZZXY=              1.8969
 N-N= 7.010125872203D+02 E-N=-4.450151149792D+03  KE= 1.306133685185D+03
  Exact polarizability:      51.367      -0.518      50.318      -1.134      -0.074      46.854
 Approx polarizability:      70.482      -0.798      69.383      -2.207      -0.057      63.540
                          Isotropic Fermi Contact Couplings
        Atom                 a.u.       MegaHertz       Gauss      10(-4) cm-1
     1  Ti(47)            -0.02902       7.32554       2.61393       2.44354
     2  O(17)             -0.00946       5.73300       2.04568       1.91232
     3  H(1)               0.00239      10.69941       3.81782       3.56894
     4  O(17)              0.00358      -2.17067      -0.77455      -0.72406
     5  H(1)              -0.00020      -0.89529      -0.31946      -0.29864
     6  O(17)             -0.01381       8.37110       2.98701       2.79230
     7  H(1)               0.00664      29.68174      10.59118       9.90076
     8  O(17)             -0.00871       5.27787       1.88327       1.76051
     9  H(1)               0.00197       8.79864       3.13957       2.93491
    10  O(17)             -0.00288       1.74300       0.62195       0.58140
    11  H(1)               0.00521      23.28816       8.30979       7.76809
    12  O(17)             -0.01185       7.18445       2.56359       2.39647
    13  H(1)               0.00402      17.96046       6.40874       5.99096
    14  H(1)               0.00514      22.99737       8.20603       7.67110
    15  H(1)               0.00302      13.50004       4.81715       4.50313
    16  H(1)               0.00304      13.60958       4.85624       4.53967
    17  H(1)               0.00060       2.68391       0.95769       0.89526
    18  H(1)               0.00475      21.24350       7.58021       7.08607
    19  H(1)               0.00512      22.87183       8.16124       7.62922
 --------------------------------------------------------
       Center         ----  Spin Dipole Couplings  ----
                      3XX-RR        3YY-RR        3ZZ-RR
 --------------------------------------------------------
     1   Atom        0.216224      0.104356     -0.320580
[...]
    15  H   -0.000020   0.000003   0.281015   0.000004   0.000000   0.000004
    16  H   -0.000003   0.000003   0.000004   0.281063  -0.000020   0.000004
    17  H    0.000003  -0.000018   0.000000  -0.000020   0.284657  -0.000003
    18  H    0.000000   0.000000   0.000004   0.000004  -0.000003   0.281120
    19  H    0.000003   0.000002  -0.000003   0.000000   0.000003  -0.000020
              19
     1  Ti  -0.002728
     2  O   -0.000393
     3  H   -0.000000
     4  O    0.001822
     5  H   -0.000049
     6  O    0.001736
     7  H   -0.000050
     8  O    0.291184
     9  H   -0.014240
    10  O    0.001282
    11  H   -0.000018
    12  O    0.000274
    13  H    0.000003
    14  H    0.000002
    15  H   -0.000003
    16  H    0.000000
    17  H    0.000003
    18  H   -0.000020
    19  H    0.284738
          Atomic-Atomic Spin Densities.
               1          2          3          4          5          6
     1  Ti   1.065945  -0.005572  -0.001597  -0.005524  -0.001598  -0.005528
     2  O   -0.005572  -0.006361   0.001432   0.000960  -0.000024   0.000948
     3  H   -0.001597   0.001432   0.001880   0.000036   0.000001  -0.000024
     4  O   -0.005524   0.000960   0.000036  -0.006490   0.001428   0.000961
     5  H   -0.001598  -0.000024   0.000001   0.001428   0.001900   0.000037
     6  O   -0.005528   0.000948  -0.000024   0.000961   0.000037  -0.006382
     7  H   -0.001581   0.000038   0.000001  -0.000024   0.000001   0.001416
     8  O   -0.005577  -0.000018  -0.000013   0.001196   0.000234   0.001201
     9  H   -0.001136  -0.000010  -0.000000  -0.000130  -0.000017  -0.000092
    10  O   -0.005514   0.001211  -0.000042  -0.000014  -0.000013   0.001187
    11  H   -0.001143  -0.000093  -0.000002  -0.000010  -0.000000  -0.000130
    12  O   -0.005502   0.001198   0.000229   0.001193  -0.000043  -0.000015
    13  H   -0.001584  -0.000042   0.000024   0.000227   0.000024  -0.000013
    14  H   -0.001133  -0.000130  -0.000016  -0.000091  -0.000003  -0.000010
    15  H   -0.001144   0.000221  -0.000012   0.000808  -0.000581   0.000039
    16  H   -0.001136   0.000795  -0.000580   0.000040  -0.000002   0.000222
    17  H   -0.001594   0.000236   0.000024  -0.000013   0.000000  -0.000044
    18  H   -0.001131   0.000037  -0.000002   0.000222  -0.000012   0.000793
    19  H   -0.001603  -0.000013   0.000000  -0.000043   0.000024   0.000232
               7          8          9         10         11         12
     1  Ti  -0.001581  -0.005577  -0.001136  -0.005514  -0.001143  -0.005502
     2  O    0.000038  -0.000018  -0.000010   0.001211  -0.000093   0.001198
     3  H    0.000001  -0.000013  -0.000000  -0.000042  -0.000002   0.000229
     4  O   -0.000024   0.001196  -0.000130  -0.000014  -0.000010   0.001193
     5  H    0.000001   0.000234  -0.000017  -0.000013  -0.000000  -0.000043
     6  O    0.001416   0.001201  -0.000092   0.001187  -0.000130  -0.000015
     7  H    0.001869  -0.000043  -0.000002   0.000227  -0.000016  -0.000013
     8  O   -0.000043  -0.006361   0.000794   0.000960   0.000222   0.000953
     9  H   -0.000002   0.000794   0.002022   0.000039   0.000030   0.000222
    10  O    0.000227   0.000960   0.000039  -0.006482   0.000806   0.000953
    11  H   -0.000016   0.000222   0.000030   0.000806   0.002028   0.000037
    12  O   -0.000013   0.000953   0.000222   0.000953   0.000037  -0.006440
    13  H    0.000000   0.000038  -0.000012  -0.000024  -0.000002   0.001420
    14  H   -0.000000   0.000037   0.000030   0.000222   0.000030   0.000791
    15  H   -0.000002  -0.000093   0.000001  -0.000010   0.000000  -0.000130
    16  H   -0.000012  -0.000010   0.000000  -0.000130   0.000002  -0.000092
    17  H    0.000023  -0.000024  -0.000002   0.001423  -0.000580   0.000037
    18  H   -0.000575  -0.000130   0.000002  -0.000091   0.000001  -0.000010
    19  H    0.000024   0.001436  -0.000580   0.000035  -0.000012  -0.000024
              13         14         15         16         17         18
     1  Ti  -0.001584  -0.001133  -0.001144  -0.001136  -0.001594  -0.001131
     2  O   -0.000042  -0.000130   0.000221   0.000795   0.000236   0.000037
     3  H    0.000024  -0.000016  -0.000012  -0.000580   0.000024  -0.000002
     4  O    0.000227  -0.000091   0.000808   0.000040  -0.000013   0.000222
     5  H    0.000024  -0.000003  -0.000581  -0.000002   0.000000  -0.000012
     6  O   -0.000013  -0.000010   0.000039   0.000222  -0.000044   0.000793
     7  H    0.000000  -0.000000  -0.000002  -0.000012   0.000023  -0.000575
     8  O    0.000038   0.000037  -0.000093  -0.000010  -0.000024  -0.000130
     9  H   -0.000012   0.000030   0.000001   0.000000  -0.000002   0.000002
    10  O   -0.000024   0.000222  -0.000010  -0.000130   0.001423  -0.000091
    11  H   -0.000002   0.000030   0.000000   0.000002  -0.000580   0.000001
    12  O    0.001420   0.000791  -0.000130  -0.000092   0.000037  -0.000010
    13  H    0.001873  -0.000577  -0.000017  -0.000002   0.000001  -0.000000
    14  H   -0.000577   0.002013   0.000002   0.000002  -0.000012   0.000000
    15  H   -0.000017   0.000002   0.002025   0.000030  -0.000000   0.000030
    16  H   -0.000002   0.000002   0.000030   0.002020  -0.000017   0.000030
    17  H    0.000001  -0.000012  -0.000000  -0.000017   0.001892  -0.000002
    18  H   -0.000000   0.000000   0.000030   0.000030  -0.000002   0.002002
    19  H    0.000001  -0.000002  -0.000002  -0.000000   0.000001  -0.000017
              19
     1  Ti  -0.001603
     2  O   -0.000013
     3  H    0.000000
     4  O   -0.000043
     5  H    0.000024
     6  O    0.000232
     7  H    0.000024
     8  O    0.001436
     9  H   -0.000580
    10  O    0.000035
    11  H   -0.000012
    12  O   -0.000024
    13  H    0.000001
    14  H   -0.000002
    15  H   -0.000002
    16  H   -0.000000
    17  H    0.000001
    18  H   -0.000017
    19  H    0.001886
 Mulliken charges and spin densities:
               1          2
     1  Ti   1.728511   1.016347
     2  O   -0.666314  -0.005187
     3  H    0.436541   0.001337
     4  O   -0.666598  -0.005267
     5  H    0.436622   0.001356
     6  O   -0.666291  -0.005202
     7  H    0.436538   0.001331
     8  O   -0.665882  -0.005198
     9  H    0.441574   0.001158
    10  O   -0.666187  -0.005258
    11  H    0.441673   0.001167
    12  O   -0.666143  -0.005235
    13  H    0.436499   0.001336
    14  H    0.441574   0.001152
    15  H    0.441680   0.001165
    16  H    0.441619   0.001159
    17  H    0.436578   0.001350
    18  H    0.441550   0.001147
    19  H    0.436457   0.001343
 Sum of Mulliken charges =   3.00000   1.00000
 Mulliken charges and spin densities with hydrogens summed into heavy atoms:
               1          2
     1  Ti   1.728511   1.016347
     2  O    0.211846  -0.002691
     4  O    0.211705  -0.002747
     6  O    0.211797  -0.002725
     8  O    0.212149  -0.002696
    10  O    0.212063  -0.002741
    12  O    0.211930  -0.002747
 Electronic spatial extent (au):  <R**2>=           1097.3248
 Charge=              3.0000 electrons
 Dipole moment (field-independent basis, Debye):
    X=              0.0005    Y=             -0.0004    Z=              0.0004  Tot=              0.0008
 Quadrupole moment (field-independent basis, Debye-Ang):
   XX=             -7.8504   YY=             -7.8778   ZZ=             -6.0690
   XY=             -0.0077   XZ=              0.0066   YZ=             -0.0144
 Traceless Quadrupole moment (field-independent basis, Debye-Ang):
   XX=             -0.5846   YY=             -0.6121   ZZ=              1.1967
   XY=             -0.0077   XZ=              0.0066   YZ=             -0.0144
 Octapole moment (field-independent basis, Debye-Ang**2):
  XXX=             -0.0647  YYY=             -0.0248  ZZZ=             -0.0160  XYY=              0.0806
  XXY=              0.0529  XXZ=              0.0202  XZZ=             -0.0150  YZZ=             -0.0333
  YYZ=             -0.0084  XYZ=              0.0141
 Hexadecapole moment (field-independent basis, Debye-Ang**3):
 XXXX=           -166.0758 YYYY=           -166.1090 ZZZZ=           -151.2420 XXXY=              0.0240
 XXXZ=             22.8100 YYYX=             -0.0283 YYYZ=            -59.2667 ZZZX=              0.0792
 ZZZY=              0.0043 XXYY=            -55.3497 XXZZ=            -29.1797 YYZZ=            -29.2653
 XXYZ=             59.1510 YYXZ=            -22.8193 ZZXY=             -0.0527
 N-N= 6.110115709849D+02 E-N=-4.270336028977D+03  KE= 1.302667527169D+03
                          Isotropic Fermi Contact Couplings
        Atom                 a.u.       MegaHertz       Gauss      10(-4) cm-1
     1  Ti(47)            -0.02177       5.49393       1.96037       1.83258
     2  O(17)             -0.00852       5.16601       1.84336       1.72320
     3  H(1)               0.00099       4.41151       1.57414       1.47152
     4  O(17)             -0.00854       5.17565       1.84680       1.72641
     5  H(1)               0.00100       4.46607       1.59360       1.48972
     6  O(17)             -0.00851       5.15601       1.83979       1.71986
     7  H(1)               0.00098       4.38886       1.56606       1.46397
     8  O(17)             -0.00852       5.16778       1.84399       1.72378
     9  H(1)               0.00092       4.10672       1.46538       1.36985
    10  O(17)             -0.00854       5.17662       1.84715       1.72674
    11  H(1)               0.00092       4.12915       1.47338       1.37734
    12  O(17)             -0.00852       5.16549       1.84318       1.72302
    13  H(1)               0.00099       4.40502       1.57182       1.46936
    14  H(1)               0.00091       4.08141       1.45635       1.36141
    15  H(1)               0.00092       4.12575       1.47217       1.37620
    16  H(1)               0.00092       4.10735       1.46561       1.37007
    17  H(1)               0.00099       4.44739       1.58694       1.48349
    18  H(1)               0.00091       4.06416       1.45019       1.35566
    19  H(1)               0.00099       4.42813       1.58007       1.47706
 --------------------------------------------------------
       Center         ----  Spin Dipole Couplings  ----
                      3XX-RR        3YY-RR        3ZZ-RR
 --------------------------------------------------------
     1   Atom       -0.590739     -0.590674      1.181413
     2   Atom        0.001578     -0.006260      0.004683
     3   Atom        0.010329     -0.005440     -0.004889
     4   Atom       -0.015300      0.010585      0.004715
     5   Atom       -0.004218      0.009094     -0.004876
     6   Atom        0.006508     -0.011134      0.004626
     7   Atom        0.001226      0.003648     -0.004873
     8   Atom        0.001600     -0.006264      0.004664
     9   Atom        0.000118     -0.002900      0.002782
    10   Atom       -0.015283      0.010517      0.004766
    11   Atom       -0.006339      0.003601      0.002738
    12   Atom        0.006405     -0.011054      0.004649
    13   Atom        0.001208      0.003670     -0.004878
    14   Atom        0.002062     -0.004823      0.002761
    15   Atom       -0.006340      0.003581      0.002759
    16   Atom        0.000112     -0.002886      0.002775
    17   Atom       -0.004208      0.009096     -0.004888
    18   Atom        0.002084     -0.004846      0.002762
    19   Atom        0.010334     -0.005446     -0.004889
 --------------------------------------------------------
                        XY            XZ            YZ
 --------------------------------------------------------
     1   Atom        0.005566      0.001727     -0.001037
     2   Atom        0.012476      0.003693     -0.008752
     3   Atom        0.003130      0.005873      0.001244
     4   Atom       -0.002655     -0.009078      0.001061
     5   Atom        0.005248     -0.001860     -0.005726
     6   Atom       -0.009698      0.005587      0.007442
     7   Atom       -0.008379     -0.004019      0.004468
     8   Atom        0.012490      0.003684     -0.008752
     9   Atom        0.004847      0.008551      0.006260
    10   Atom       -0.002600     -0.009113      0.001053
    11   Atom       -0.001124      0.001142     -0.010523
    12   Atom       -0.009773      0.005516      0.007420
    13   Atom       -0.008381     -0.004012      0.004468
    14   Atom       -0.003740     -0.009679      0.004281
    15   Atom       -0.001135      0.001157     -0.010528
    16   Atom        0.004852      0.008542      0.006267
    17   Atom        0.005269     -0.001864     -0.005713
    18   Atom       -0.003720     -0.009691      0.004257
    19   Atom        0.003118      0.005877      0.001241
 --------------------------------------------------------


 ---------------------------------------------------------------------------------
              Anisotropic Spin Dipole Couplings in Principal Axis System
 ---------------------------------------------------------------------------------

       Atom             a.u.   MegaHertz   Gauss  10(-4) cm-1        Axes

              Baa    -0.5963    17.964     6.410     5.992  0.7092 -0.7050 -0.0011
     1 Ti(47) Bbb    -0.5851    17.628     6.290     5.880  0.7050  0.7092 -0.0003
              Bcc     1.1814   -35.592   -12.700   -11.872  0.0010 -0.0006  1.0000
 
              Baa    -0.0190     1.378     0.492     0.460 -0.5289  0.7662  0.3650
     2 O(17)  Bbb     0.0071    -0.516    -0.184    -0.172  0.5917  0.0247  0.8057
              Bcc     0.0119    -0.862    -0.308    -0.288  0.6083  0.6422 -0.4664
 
              Baa    -0.0069    -3.694    -1.318    -1.232 -0.2869 -0.1830  0.9403
     3 H(1)   Bbb    -0.0060    -3.214    -1.147    -1.072 -0.2276  0.9665  0.1187
              Bcc     0.0129     6.908     2.465     2.304  0.9305  0.1800  0.3190
 
              Baa    -0.0190     1.371     0.489     0.457  0.9324  0.0711  0.3544
     4 O(17)  Bbb     0.0072    -0.518    -0.185    -0.173 -0.2805 -0.4762  0.8334
              Bcc     0.0118    -0.853    -0.304    -0.285 -0.2280  0.8765  0.4241
 
              Baa    -0.0069    -3.694    -1.318    -1.232 -0.0150  0.3409  0.9400
     5 H(1)   Bbb    -0.0060    -3.214    -1.147    -1.072  0.9511 -0.2852  0.1186
              Bcc     0.0129     6.908     2.465     2.304  0.3086  0.8958 -0.3200
 
              Baa    -0.0189     1.370     0.489     0.457  0.4003  0.8423 -0.3610
     6 O(17)  Bbb     0.0071    -0.513    -0.183    -0.171 -0.2915  0.4905  0.8212
              Bcc     0.0118    -0.857    -0.306    -0.286  0.8688 -0.2235  0.4419
 
              Baa    -0.0069    -3.689    -1.316    -1.231  0.2990 -0.1607  0.9406
     7 H(1)   Bbb    -0.0060    -3.210    -1.145    -1.071  0.7240  0.6804 -0.1139
              Bcc     0.0129     6.899     2.462     2.301 -0.6217  0.7150  0.3198
 
              Baa    -0.0190     1.378     0.492     0.460 -0.5287  0.7664  0.3650
     8 O(17)  Bbb     0.0071    -0.515    -0.184    -0.172  0.5895  0.0221  0.8075
              Bcc     0.0119    -0.864    -0.308    -0.288  0.6107  0.6420 -0.4634
 
              Baa    -0.0074    -3.934    -1.404    -1.312 -0.5696 -0.3930  0.7219
     9 H(1)   Bbb    -0.0065    -3.451    -1.231    -1.151 -0.5803  0.8143 -0.0147
              Bcc     0.0138     7.385     2.635     2.463  0.5820  0.4273  0.6919
 
              Baa    -0.0189     1.371     0.489     0.457  0.9322  0.0696  0.3552
    10 O(17)  Bbb     0.0072    -0.523    -0.186    -0.174 -0.2794 -0.4853  0.8285
              Bcc     0.0117    -0.849    -0.303    -0.283 -0.2300  0.8716  0.4330
 
              Baa    -0.0074    -3.929    -1.402    -1.311 -0.0507  0.6888  0.7232
    11 H(1)   Bbb    -0.0065    -3.449    -1.231    -1.150  0.9956  0.0922 -0.0181
              Bcc     0.0138     7.378     2.633     2.461 -0.0792  0.7191 -0.6904
 
              Baa    -0.0189     1.368     0.488     0.456  0.4033  0.8415 -0.3595
    12 O(17)  Bbb     0.0072    -0.517    -0.185    -0.173 -0.2814  0.4879  0.8263
              Bcc     0.0118    -0.851    -0.304    -0.284  0.8707 -0.2320  0.4336
 
              Baa    -0.0069    -3.690    -1.317    -1.231  0.2997 -0.1598  0.9406
    13 H(1)   Bbb    -0.0060    -3.211    -1.146    -1.071  0.7243  0.6798 -0.1153
              Bcc     0.0129     6.901     2.462     2.302 -0.6209  0.7158  0.3194
 
              Baa    -0.0074    -3.928    -1.402    -1.310  0.6222 -0.3017  0.7224
    14 H(1)   Bbb    -0.0065    -3.448    -1.230    -1.150  0.4190  0.9078  0.0183
              Bcc     0.0138     7.376     2.632     2.461 -0.6613  0.2913  0.6912
 
              Baa    -0.0074    -3.931    -1.403    -1.311 -0.0516  0.6894  0.7225
    15 H(1)   Bbb    -0.0065    -3.451    -1.231    -1.151  0.9955  0.0935 -0.0181
              Bcc     0.0138     7.382     2.634     2.462 -0.0800  0.7183 -0.6911
 
              Baa    -0.0074    -3.933    -1.403    -1.312 -0.5696 -0.3927  0.7221
    16 H(1)   Bbb    -0.0065    -3.450    -1.231    -1.151 -0.5806  0.8140 -0.0153
              Bcc     0.0138     7.383     2.634     2.463  0.5818  0.4280  0.6917
 
              Baa    -0.0069    -3.695    -1.318    -1.233 -0.0137  0.3398  0.9404
    17 H(1)   Bbb    -0.0060    -3.216    -1.148    -1.073  0.9508 -0.2868  0.1175
              Bcc     0.0130     6.911     2.466     2.305  0.3097  0.8957 -0.3192
 
              Baa    -0.0074    -3.929    -1.402    -1.311  0.6218 -0.3026  0.7223
    18 H(1)   Bbb    -0.0065    -3.449    -1.231    -1.150  0.4183  0.9081  0.0204
              Bcc     0.0138     7.378     2.633     2.461 -0.6621  0.2895  0.6912
 
              Baa    -0.0069    -3.695    -1.318    -1.232 -0.2868 -0.1842  0.9401
    19 H(1)   Bbb    -0.0060    -3.215    -1.147    -1.072 -0.2273  0.9664  0.1200
              Bcc     0.0129     6.909     2.465     2.305  0.9306  0.1792  0.3191
 

 ---------------------------------------------------------------------------------

 No NMR shielding tensors so no spin-rotation constants.
 Leave Link  601 at Thu May 23 17:10:08 2024, MaxMem= 26843545600 cpu:              29.2 elap:               0.3
 (Enter /gpfs/fs1/soft/improv/software/custom-built/gaussian/g16/l9999.exe)
 Unable to Open any file for archive entry.
 1\1\GINC-I184\SP\UB3LYP\Gen\H12O6Ti1(3+,2)\HHARB\23-May-2024\0\\#p B3L
 YP empiricaldispersion=gd3 scf=(maxcycles=500,xqc,maxconventional=50) 
 scrf=(cpcm,solvent=water) geom=allcheck guess=read chkbasis\\Title\\3,
 2\Ti,-0.7850004763,0.7127292664,0.0316481031\O,-1.3508909761,2.7066271
 707,-0.2325270331\H,-1.6884204982,3.1083778742,-1.0563053821\O,1.23886
 76336,1.2309509943,0.0397402569\H,1.9922240653,0.6243679457,-0.0961437
 2\O,-0.8961601554,0.8979913029,2.1098161449\H,-1.5956517899,0.53522880
 36,2.6869273785\O,-0.2206095171,-1.2813468024,0.2965475376\H,-0.209502
 745,-1.9896925288,-0.3754709598\O,-2.8092902981,0.1967680118,0.0232429
 226\H,-3.1952460096,-0.6938538901,-0.0832799488\O,-0.6710775178,0.5264
 087385,-2.0461630701\H,0.0291504064,0.8894642153,-2.6221985372\H,-1.31
 28885279,0.0912667335,-2.6396531113\H,1.6232635384,2.1221643285,0.1468
 276708\H,-1.3624362014,3.4146625604,0.4398038135\H,-3.5616018332,0.804
 8510521,0.1583409264\H,-0.2527921524,1.3320926975,2.7023601088\H,0.116
 5454847,-1.682978704,1.120532309\\Version=ES64L-G16RevC.02\State=2-A\H
 F=-1307.7877371\S2=0.751473\S2-1=0.\S2A=0.750002\RMSD=8.069e-09\Dipole
 =0.0001608,0.0002324,-0.0001209\Quadrupole=-0.2538054,0.3432768,-0.089
 4714,0.4000277,0.2680336,0.5167105\PG=C01 [X(H12O6Ti1)]\\@
 The archive entry for this job was punched.


    THE DOUGHNUT CREED
 AS YOU RAMBLE ON THROUGH LIFE, BROTHER
 WHATEVER BE YOUR GOAL
 KEEP YOUR EYE UPON THE DOUGHNUT
 AND NOT UPON THE HOLE.
 Job cpu time:       0 days  0 hours 53 minutes 30.4 seconds.
 Elapsed time:       0 days  0 hours  0 minutes 29.1 seconds.
 File lengths (MBytes):  RWF=    121 Int=      0 D2E=      0 Chk=     32 Scr=      1
 Normal termination of Gaussian 16 at Thu May 23 17:10:08 2024.
