157
 energy: -270.201503250142 gnorm: 0.000663177710 xtb: 6.6.1 (8d0f1dd)
Fe           0.31402031628145        0.04336135324349        0.90483592133583
B            2.27169165149586        2.77259450237894        0.44487141950178
C            0.86075413696290        3.20416936289225        0.78942845954923
O            0.08332870583315        2.43296111130671        1.46023753310495
O            0.40365424519865        4.43162817952278        0.46595739410345
N            3.21615335051069        3.55855712096301       -0.14719679409020
C            4.44050646983002        3.84128241577872       -0.30228156250275
H           -0.53225759609909        4.51455720249571        0.72157492486867
H            4.76491000661831        4.46316083093538       -1.12925817757679
H            5.21539814085304        3.54379053207228        0.40544394391507
O            2.51310451202581        1.32641508128975        0.78455991604407
H            2.89053606898614        1.20216253345012        1.75883472618127
H            3.21159398384440        0.94267112734449        0.17235077009992
O           -0.28071669391887       -2.39819788465281        0.64074048404480
H           -0.67485520100170       -2.84409446497558        1.39092051460357
H            0.64847324659255       -2.64792043384930        0.60911362983357
O           -2.13412882079938        0.09836849307204        0.51936326615598
H           -2.61962665722643        0.24357017135129        1.34550107456224
H           -2.19948436806661        0.94328693260780        0.02264491647424
O           -0.61964046834908       -0.11668751808834        3.21160214871478
H           -0.11874299407791        0.54583645423715        3.70917339990304
H           -1.53946601032527        0.19032762921074        3.22461064346843
O            0.04127335416069        1.03842619232274       -1.32110308371956
H           -0.24537964981414        0.22892564796619       -1.78080423751817
H           -0.70833042571424        1.64372381595940       -1.35017009278233
O            3.27264019418911        0.97470508585413        3.13515162047144
H            4.04401734347668        1.54591260457592        3.30480226414406
H            2.50278311041333        1.35953388055516        3.60988307861779
O           -5.44712591421492       -3.31767927320999        4.06742931291946
H           -5.67262349220856       -3.55385680801169        4.97027200444066
H           -4.48657859876052       -3.35371261468196        3.99636850116471
O            0.95103931623426        2.01643006811073        3.96665437614636
H            0.63101653928552        2.24939510422273        3.06666053377453
H            0.78907073126823        2.76285641406865        4.54313310900892
O            1.77972653600460       -1.29028732442007        2.44167290785462
H            1.17838018975835       -1.39901522922762        3.18197105089932
H            2.54178496701258       -0.80550886575309        2.77902211022243
O           -3.12238749217941        1.02397636909380        2.91492143542662
H           -2.92404686458006        1.90923744088990        2.53711993722374
H           -3.83019366230121        1.15417681495862        3.55475607493028
O            5.39763524238030        2.64602338306520        3.43798393353386
H            6.28272464170799        2.29941941632253        3.57220826269931
H            5.28745601281489        3.37645207325416        4.06674093284529
O           -3.44139270563818       -1.18349919502142       -1.37280993458560
H           -3.93226430835427       -1.93786513597232       -1.04437136079182
H           -2.94621974390671       -0.79896789816635       -0.59366855412361
O           -2.37035393903835        3.32828220280331        1.70895814534450
H           -1.43150964059470        2.97630059353169        1.65337541568849
H           -2.35032612368563        4.14080889624093        2.22653440812431
O            4.26560779727014        0.18003349513315       -0.73256737727465
H            5.11994729971990       -0.03738514316551       -0.35393319574907
H            4.43328433779488        0.65581378102959       -1.56958563765534
O           -4.68639043803114        1.17972426945691       -1.87605341667722
H           -4.27702940919165        0.28731335064247       -1.81164037681865
H           -5.54913923699457        1.11446182957975       -1.46244613066621
O            0.56463624544306        5.67578777883936       -4.54615129582441
H            0.33529530056725        6.26242659192913       -3.81874710609890
H            0.88769362312653        4.85898353967802       -4.14949456330941
O            1.85752793777825       -1.22791605606675       -0.60659371403818
H            2.75549487757082       -0.90069496963492       -0.74469548168693
H            1.44033952329378       -1.27765178010614       -1.46839549960506
O           -2.41871864605482        2.39069060205576       -0.88213021862495
H           -3.25499340936131        2.14325539638101       -1.31005281204610
H           -2.63603277605025        2.90205872149181       -0.08616756532202
O            4.78472721494942        1.41473354508087       -3.07897335364935
H            4.08657449284228        1.52088901399344       -3.73154790663471
H            5.56417619887400        1.09310841182487       -3.55685297992530
O           -0.73528839609238       -1.49587669946846       -2.00698270087378
H           -0.59436338137505       -1.91384324741878       -1.14151438422981
H           -1.69711461007904       -1.41145327422471       -2.07584780908438
O           -1.81351405282170        1.83902446322896       -6.57588263672080
H           -2.10137993229015        1.37335387149908       -5.78325422775425
H           -0.94026165801777        1.50226570176745       -6.79911202437854
O            2.35258398427696        1.29405198314519        8.92674351310962
H            2.69495992759177        0.73284493424768        8.22199926237643
H            2.38367468810408        0.77765337015349        9.73600875027981
O           -2.05592248635974       -1.73315448965757        7.65606664731910
H           -1.32574001065060       -2.25392898644652        7.30476185151293
H           -1.72328124112022       -0.83980482404314        7.78825399324479
O            0.57714397467537        6.25884315949657        7.63213995359754
H            0.67251140391287        5.56263064413690        8.28981829671463
H            0.52607661130861        7.09318376603109        8.10550051740902
O            3.34004513514473       -3.54563660776404        6.74371435397866
H            4.18758124721817       -3.23789932385161        6.40705868880068
H            3.11429882333570       -4.33609330973596        6.24428057048704
O           -5.17959508795326        1.64097348725067        4.80343088624563
H           -5.41275086337291        1.15513300403665        5.59871138167297
H           -5.90118080522410        2.24255529396302        4.60285025970063
O            5.06510867601642        4.64517640540044        5.39615285675006
H            4.77389486783590        4.41473710888844        6.28373240786248
H            4.73650137468404        5.52883938438792        5.20777369940845
O           -0.96969491320667       -6.26694232838321        4.65399805239316
H           -0.32139022114635       -6.73306044087657        4.11708557195250
H           -0.88630407763428       -6.59595176161429        5.55237681482491
O           -2.31562654229766        5.85595060974405        3.04492006246250
H           -1.68204244326754        6.36592492347539        3.55796465649893
H           -3.16645760131720        6.29251967811951        3.12847865810821
O            7.48380178245681       -2.21184226761683        3.24871270635134
H            7.06267108035660       -2.90314378174563        2.72635004351118
H            8.19596702708907       -1.85023793779048        2.71386439989821
O           -7.20374049806234       -2.55119454979101        1.94975349574981
H           -6.62247508280197       -2.88673982897145        2.65144150816792
H           -7.29701287367390       -1.60799894658529        2.11588125202227
O            2.78046588110444        8.77497783480682        2.39621760632494
H            2.94641916443440        8.04622275734468        1.78767356586722
H            3.11170926772078        9.57317873471049        1.97628084520883
O            3.95083425695798       -6.67245871039654        2.24205129080151
H            3.63187204294265       -5.84356247346699        1.86588396525691
H            4.15681097341278       -7.25103782457794        1.50343568356826
O           -7.07427247487564        5.02977640641968        0.91970568055655
H           -6.60570178725863        5.33213837005206        0.13461302754621
H           -7.92112839012072        4.68502746642280        0.62370703993470
O            9.67182627478268        1.53479275406452       -0.12624893747533
H           10.57393650862623        1.85182055621510       -0.03568347298157
H            9.27009752854335        2.02167602746077       -0.85337044384724
O           -3.98800910115443       -6.48992737083334       -0.08097276593271
H           -3.64113968950496       -6.60748169923907        0.80939383666293
H           -4.92744080273546       -6.30505460848314        0.00486004308245
O           -1.79691325684952        9.29836214065571       -0.86632862310155
H           -1.07904656051274        9.00429230458677       -0.29596501667327
H           -2.46249889763996        8.60240931543922       -0.86115833445495
O            6.47465181301567       -4.48923432159405       -1.73590077615878
H            6.73277222340492       -5.35234521950986       -2.06755534554713
H            5.58937851278474       -4.31061855932494       -2.07320802964094
O           -9.39796319678121        3.01005609662936       -3.40872845252371
H          -10.04853733140081        2.72981213654824       -4.05829468015347
H           -8.72481350742058        3.51281870940215       -3.87952285802492
O            5.75900005965664        6.02551291381830       -2.91265604204053
H            6.41254584504568        5.72754873983401       -3.55201804743263
H            5.15916276622825        6.61520073243397       -3.37954519112756
O            1.25323661988502       -6.44104083237124       -2.17623641462265
H            1.25730169435334       -5.77379438128618       -2.87027445833158
H            0.34105281747513       -6.53400937393675       -1.88428070752344
O           -4.71158745053022        6.07967564339587       -4.18316308641900
H           -4.41328261726036        5.21987407352184       -4.49926249798372
H           -4.24938211095171        6.74415327812688       -4.70180779397257
O            6.90400142475880        0.26619764651410       -4.55793461183400
H            7.29069347467926       -0.55965295810511       -4.25071951436104
H            6.89821051796406        0.23864730776746       -5.51860520220077
O           -5.02422743139808       -2.43607307293851       -6.57923928957739
H           -5.15101049070744       -2.15431270090495       -5.66692370394608
H           -5.32842204339599       -1.71689968510874       -7.14082902019211
O            1.87707606660685        6.66820871246361       -6.82984481293942
H            1.42508339565760        6.29292615033575       -6.05104150386536
H            1.21959654183430        7.20121142728489       -7.28415913334696
O            3.33047268579572       -2.82326544310753       -5.93035628120236
H            3.47149466690047       -2.86877914267087       -6.87885919700370
H            2.51745571466541       -2.32543046415491       -5.79125682145474
O           -3.73784500493067        2.54417186519869       -8.50214165534527
H           -3.07913844944088        2.28658034824852       -7.83073976377383
H           -3.41913565761549        3.36873750732765       -8.87916171482687
O            3.46920463842388        1.58654067551266       -8.42544622301094
H            3.02428181470831        1.43012093987667       -9.26288972493073
H            3.41130862630920        2.53002528979883       -8.24399155398823
O           -0.62264840550092       -2.47496395562146       -9.30411063996971
H           -1.38142738911308       -2.05357011076066       -9.71854266135463
H           -0.96046272887115       -3.21206710359108       -8.78515565961411
