11
MnO4_2H2O.log	Energy: -1007045.6958218
Mn        -0.82904        0.04034        0.00001
O         -0.26789       -0.70953        1.30014
O         -2.41667        0.01735        0.00082
O         -0.26919       -0.71269       -1.29889
O         -0.30612        1.55170       -0.00208
O          2.69157        1.40238        0.00004
H          2.71844        0.43175       -0.00023
O          2.20299       -1.56719       -0.00007
H          1.59536       -1.44721        0.74854
H          1.59413       -1.44781       -0.74785
H          1.74061        1.59856       -0.00038
