      -----------------------------------------------------------      
     |                   =====================                   |     
     |                           x T B                           |     
     |                   =====================                   |     
     |                         S. Grimme                         |     
     |          Mulliken Center for Theoretical Chemistry        |     
     |                    University of Bonn                     |     
      -----------------------------------------------------------      

   * xtb version 6.6.0 (conda-forge) compiled by 'runner@Mac-1676020848589.local' on 2023-02-10

   xtb is free software: you can redistribute it and/or modify it under
   the terms of the GNU Lesser General Public License as published by
   the Free Software Foundation, either version 3 of the License, or
   (at your option) any later version.
   
   xtb is distributed in the hope that it will be useful,
   but WITHOUT ANY WARRANTY; without even the implied warranty of
   MERCHANTABILITY or FITNESS FOR A PARTICULAR PURPOSE.  See the
   GNU Lesser General Public License for more details.
   
   Cite this work as:
   * C. Bannwarth, E. Caldeweyher, S. Ehlert, A. Hansen, P. Pracht,
     J. Seibert, S. Spicher, S. Grimme, WIREs Comput. Mol. Sci., 2020, 11,
     e01493. DOI: 10.1002/wcms.1493
   
   for GFN2-xTB:
   * C. Bannwarth, S. Ehlert and S. Grimme., J. Chem. Theory Comput., 2019,
     15, 1652-1671. DOI: 10.1021/acs.jctc.8b01176
   for GFN1-xTB:
   * S. Grimme, C. Bannwarth, P. Shushkov, J. Chem. Theory Comput., 2017,
     13, 1989-2009. DOI: 10.1021/acs.jctc.7b00118
   for GFN0-xTB:
   * P. Pracht, E. Caldeweyher, S. Ehlert, S. Grimme, ChemRxiv, 2019, preprint.
     DOI: 10.26434/chemrxiv.8326202.v1
   for GFN-FF:
   * S. Spicher and S. Grimme, Angew. Chem. Int. Ed., 2020, 59, 15665-15673.
     DOI: 10.1002/anie.202004239
   
   for ALPB and GBSA implicit solvation:
   * S. Ehlert, M. Stahn, S. Spicher, S. Grimme, J. Chem. Theory Comput.,
     2021, 17, 4250-4261. DOI: 10.1021/acs.jctc.1c00471
   
   for DFT-D4:
   * E. Caldeweyher, C. Bannwarth and S. Grimme, J. Chem. Phys., 2017,
     147, 034112. DOI: 10.1063/1.4993215
   * E. Caldeweyher, S. Ehlert, A. Hansen, H. Neugebauer, S. Spicher,
     C. Bannwarth and S. Grimme, J. Chem. Phys., 2019, 150, 154122.
     DOI: 10.1063/1.5090222
   * E. Caldeweyher, J.-M. Mewes, S. Ehlert and S. Grimme, Phys. Chem. Chem. Phys.
     2020, 22, 8499-8512. DOI: 10.1039/D0CP00502A
   
   for sTDA-xTB:
   * S. Grimme and C. Bannwarth, J. Chem. Phys., 2016, 145, 054103.
     DOI: 10.1063/1.4959605
   
   in the mass-spec context:
   * V. Asgeirsson, C. Bauer and S. Grimme, Chem. Sci., 2017, 8, 4879.
     DOI: 10.1039/c7sc00601b
   * J. Koopman and S. Grimme, ACS Omega 2019, 4, 12, 15120-15133.
     DOI: 10.1021/acsomega.9b02011
   
   for metadynamics refer to:
   * S. Grimme, J. Chem. Theory Comput., 2019, 155, 2847-2862
     DOI: 10.1021/acs.jctc.9b00143
   
   for SPH calculations refer to:
   * S. Spicher and S. Grimme, J. Chem. Theory Comput., 2021, 17, 1701-1714
     DOI: 10.1021/acs.jctc.0c01306
   
   with help from (in alphabetical order)
   P. Atkinson, C. Bannwarth, F. Bohle, G. Brandenburg, E. Caldeweyher
   M. Checinski, S. Dohm, S. Ehlert, S. Ehrlich, I. Gerasimov, C. Hölzer
   A. Katbashev, J. Koopman, C. Lavigne, S. Lehtola, F. März, M. Müller,
   F. Musil, H. Neugebauer, J. Pisarek, C. Plett, P. Pracht, F. Pultar,
   J. Seibert, P. Shushkov, S. Spicher, M. Stahn, M. Steiner, T. Strunk,
   J. Stückrath, T. Rose, and J. Unsleber
   
 * started run on 2024/05/10 at 17:53:04.426     

           -------------------------------------------------
          |                Calculation Setup                |
           -------------------------------------------------

          program call               : xtb Fe_18H2O_0_5.xyz --gfn2 --chrg 0 --uhf 5 --hess --alpb water
          coordinate file            : Fe_18H2O_0_5.xyz
          omp threads                :                     8

   ID    Z sym.   atoms
    1   26 Fe     1
    2    8 O      2-7, 20-31
    3    1 H      8-19, 32-55

molecular fragmentation (1/2 indicates fragments):
1212222222222221222222222222222222222222222222222222222
# atoms in fragment 1/2:     3    52
 fragment masses (1/2) :       72.85      307.27
CMA distance (Bohr)    :   1.648
constraining FC (au)   :  0.0500

           -------------------------------------------------
          |                 G F N 2 - x T B                 |
           -------------------------------------------------

        Reference                      10.1021/acs.jctc.8b01176
      * Hamiltonian:
        H0-scaling (s, p, d)           1.850000    2.230000    2.230000
        zeta-weighting                 0.500000
      * Dispersion:
        s8                             2.700000
        a1                             0.520000
        a2                             5.000000
        s9                             5.000000
      * Repulsion:
        kExp                           1.500000    1.000000
        rExp                           1.000000
      * Coulomb:
        alpha                          2.000000
        third order                    shell-resolved
        anisotropic                    true
        a3                             3.000000
        a5                             4.000000
        cn-shift                       1.200000
        cn-exp                         4.000000
        max-rad                        5.000000

      * Solvation model:               ALPB
        Solvent                        water
        Parameter file                 internal GFN2-xTB/ALPB
        Dielectric constant                8.0200E+01
        Reference state                gsolv [1 M gas/solution]
        Free energy shift                  1.0808E-03 Eh       6.7819E-01 kcal/mol
        Temperature                        2.9815E+02 K
        Density                            1.0000E+00 kg/L
        Solvent mass                       1.8000E+01 g/mol
        Interaction kernel             P16
        Born radius scaling (c1)           1.4744E+00
        Born radii integrator          GBOBC
        Born offset                        0.0000E+00 a0       0.0000E+00 AA
        H-bond correction              true
        Ion screening                  false
        Surface tension                    1.0000E-05 Eh       1.5569E+01 dyn/cm
        Grid points                               230 per atom
q/qsh data taken from xtbrestart
CAMM data taken from xtbrestart

          ...................................................
          :                      SETUP                      :
          :.................................................:
          :  # basis functions                 118          :
          :  # atomic orbitals                 117          :
          :  # shells                           75          :
          :  # electrons                       152          :
          :  max. iterations                   250          :
          :  Hamiltonian                  GFN2-xTB          :
          :  restarted?                       true          :
          :  GBSA solvation                   true          :
          :  PC potential                    false          :
          :  electronic temp.          300.0000000     K    :
          :  accuracy                    1.0000000          :
          :  -> integral cutoff          0.2500000E+02      :
          :  -> integral neglect         0.1000000E-07      :
          :  -> SCF convergence          0.1000000E-05 Eh   :
          :  -> wf. convergence          0.1000000E-03 e    :
          :  Broyden damping             0.4000000          :
          ...................................................

 iter      E             dE          RMSdq      gap      omega  full diag
   1    -95.5323171 -0.955323E+02  0.315E-05    7.16       0.0  T
   2    -95.5323171 -0.525802E-12  0.323E-05    7.16     417.3  T
   3    -95.5323171 -0.136424E-11  0.135E-05    7.16    1000.5  T

   *** convergence criteria satisfied after 3 iterations ***

         #    Occupation            Energy/Eh            Energy/eV
      -------------------------------------------------------------
         1        2.0000           -0.6569362             -17.8761
       ...           ...                  ...                  ...
        72        2.0000           -0.3588088              -9.7637
        73        2.0000           -0.3547537              -9.6533
        74        1.8290           -0.3193137              -8.6890
        75        1.1569           -0.3162171              -8.6047
        76        1.0107           -0.3135171              -8.5312
        77        1.0033           -0.3124007              -8.5009
        78        1.0000           -0.3076956              -8.3728 (HOMO)
        79                         -0.0445594              -1.2125 (LUMO)
        80                          0.0203491               0.5537
        81                          0.0309999               0.8436
        82                          0.0513251               1.3966
        83                          0.0863716               2.3503
       ...                                ...                  ...
       117                          1.0791904              29.3663
      -------------------------------------------------------------
                  HL-Gap            0.2631362 Eh            7.1603 eV
             Fermi-level           -0.2469709 Eh           -6.7204 eV

 SCC (total)                   0 d,  0 h,  0 min,  0.032 sec
 SCC setup                      ...        0 min,  0.001 sec (  4.539%)
 Dispersion                     ...        0 min,  0.001 sec (  1.608%)
 classical contributions        ...        0 min,  0.000 sec (  0.628%)
 integral evaluation            ...        0 min,  0.002 sec (  7.286%)
 iterations                     ...        0 min,  0.018 sec ( 56.459%)
 molecular gradient             ...        0 min,  0.009 sec ( 28.343%)
 printout                       ...        0 min,  0.000 sec (  1.071%)

         :::::::::::::::::::::::::::::::::::::::::::::::::::::
         ::                     SUMMARY                     ::
         :::::::::::::::::::::::::::::::::::::::::::::::::::::
         :: total energy             -94.984083631353 Eh    ::
         :: total w/o Gsasa/hb       -94.812707517899 Eh    ::
         :: gradient norm              0.000037850926 Eh/a0 ::
         :: HOMO-LUMO gap              7.160299802348 eV    ::
         ::.................................................::
         :: SCC energy               -95.532317057429 Eh    ::
         :: -> isotropic ES            0.781206064420 Eh    ::
         :: -> anisotropic ES         -0.116554321603 Eh    ::
         :: -> anisotropic XC         -0.006782756002 Eh    ::
         :: -> dispersion             -0.044874884591 Eh    ::
         :: -> Gsolv                  -0.441795104314 Eh    ::
         ::    -> Gelec               -0.270418990861 Eh    ::
         ::    -> Gsasa                0.006235818235 Eh    ::
         ::    -> Ghb                 -0.178692691387 Eh    ::
         ::    -> Gshift               0.001080759698 Eh    ::
         :: repulsion energy           0.546142062981 Eh    ::
         :: add. restraining           0.000000000000 Eh    ::
         :: total charge              -0.000000000021 e     ::
         :::::::::::::::::::::::::::::::::::::::::::::::::::::

           ------------------------------------------------- 
          |                Numerical Hessian                |
           ------------------------------------------------- 
step length          :   0.00500
SCC accuracy         :   0.30000
Hessian scale factor :   1.00000
frozen atoms in %    :   0.00000    0
RMS gradient         :   0.00004
estimated CPU  time      2.75 min
estimated wall time      0.36 min

writing file <hessian>.

 projected vibrational frequencies (cm⁻¹)
eigval :       -0.00    -0.00    -0.00    -0.00     0.00     0.00
eigval :       26.13    36.59    43.12    44.38    51.74    55.01
eigval :       56.49    60.73    63.69    65.39    70.81    76.67
eigval :       80.03    83.91    86.03    87.72    94.76    97.56
eigval :      107.83   114.27   119.95   126.73   131.79   136.66
eigval :      140.68   149.26   152.44   163.75   167.32   175.26
eigval :      179.19   182.68   193.26   196.36   197.23   202.78
eigval :      205.96   214.69   220.27   222.26   226.11   232.37
eigval :      235.33   243.26   244.55   248.83   255.13   266.82
eigval :      271.63   275.16   283.26   290.14   293.33   301.63
eigval :      315.63   318.63   321.23   326.08   333.78   335.19
eigval :      354.47   356.58   367.94   371.24   376.38   382.68
eigval :      388.85   399.55   410.80   438.80   452.39   458.37
eigval :      473.35   482.22   496.21   500.63   501.06   508.05
eigval :      517.92   526.97   531.59   548.22   555.35   564.74
eigval :      570.70   582.54   592.74   604.88   612.59   625.96
eigval :      630.29   651.89   653.08   662.48   682.50   705.61
eigval :      712.33   716.04   726.99   760.90   771.40   784.84
eigval :      818.93   843.40   850.24  1017.25  1121.92  1455.31
eigval :     1461.70  1469.17  1471.32  1478.31  1480.99  1481.62
eigval :     1485.67  1492.85  1495.13  1508.25  1512.26  1517.50
eigval :     1525.91  1533.92  1537.38  1555.33  1766.50  2865.88
eigval :     3045.08  3136.63  3191.88  3273.59  3290.81  3296.15
eigval :     3341.98  3369.50  3372.09  3374.04  3381.78  3397.13
eigval :     3409.42  3421.38  3424.54  3429.64  3448.70  3458.67
eigval :     3509.90  3529.99  3545.47  3578.20  3595.36  3603.06
eigval :     3617.71  3633.11  3648.55  3650.16  3652.12  3661.32
eigval :     3665.44  3711.81  3769.26
           -------------------------------------------------
          |                Property Printout                |
           -------------------------------------------------

    * Orbital Energies and Occupations

         #    Occupation            Energy/Eh            Energy/eV
      -------------------------------------------------------------
         1        2.0000           -0.6569363             -17.8761
       ...           ...                  ...                  ...
        66        2.0000           -0.4093319             -11.1385
        67        2.0000           -0.4079118             -11.0998
        68        2.0000           -0.4039645             -10.9924
        69        2.0000           -0.4017067             -10.9310
        70        2.0000           -0.4007563             -10.9051
        71        2.0000           -0.3984813             -10.8432
        72        2.0000           -0.3588087              -9.7637
        73        2.0000           -0.3547536              -9.6533
        74        1.8290           -0.3193138              -8.6890
        75        1.1569           -0.3162171              -8.6047
        76        1.0107           -0.3135172              -8.5312
        77        1.0033           -0.3124007              -8.5009
        78        1.0000           -0.3076956              -8.3728 (HOMO)
        79                         -0.0445594              -1.2125 (LUMO)
        80                          0.0203491               0.5537
        81                          0.0309999               0.8435
        82                          0.0513251               1.3966
        83                          0.0863716               2.3503
        84                          0.1125477               3.0626
        85                          0.1222594               3.3268
        86                          0.1403420               3.8189
        87                          0.1407168               3.8291
        88                          0.1673278               4.5532
        89                          0.1709108               4.6507
       ...                                ...                  ...
       117                          1.0791903              29.3663
      -------------------------------------------------------------
                  HL-Gap            0.2631362 Eh            7.1603 eV
             Fermi-level           -0.2469709 Eh           -6.7204 eV

     #   Z          covCN         q      C6AA      α(0)
     1  26 Fe       0.583     1.094   425.292    59.706
     2   8 O        1.646    -0.615    25.535     6.821
     3   8 O        1.719    -0.622    25.676     6.842
     4   8 O        1.709    -0.621    25.641     6.837
     5   8 O        1.682    -0.591    24.931     6.741
     6   8 O        1.677    -0.615    25.519     6.820
     7   8 O        1.712    -0.634    25.973     6.881
     8   1 H        0.805     0.337     0.620     1.236
     9   1 H        0.804     0.347     0.595     1.211
    10   1 H        0.804     0.353     0.580     1.197
    11   1 H        0.804     0.351     0.585     1.202
    12   1 H        0.806     0.344     0.603     1.219
    13   1 H        0.803     0.338     0.617     1.234
    14   1 H        0.803     0.367     0.551     1.166
    15   1 H        0.804     0.349     0.589     1.206
    16   1 H        0.804     0.353     0.581     1.197
    17   1 H        0.804     0.358     0.570     1.186
    18   1 H        0.805     0.338     0.617     1.234
    19   1 H        0.804     0.331     0.635     1.252
    20   8 O        1.659    -0.618    25.584     6.828
    21   8 O        1.609    -0.664    26.779     6.984
    22   8 O        1.579    -0.740    28.829     7.245
    23   8 O        1.646    -0.613    25.467     6.812
    24   8 O        1.609    -0.679    27.147     7.032
    25   8 O        0.884    -0.914    35.252     7.961
    26   8 O        1.610    -0.677    27.095     7.025
    27   8 O        1.608    -0.684    27.299     7.052
    28   8 O        1.610    -0.670    26.914     7.002
    29   8 O        1.607    -0.692    27.495     7.077
    30   8 O        1.609    -0.673    26.993     7.012
    31   8 O        1.607    -0.692    27.489     7.076
    32   1 H        0.850     0.311     0.682     1.294
    33   1 H        0.806     0.191     1.168     1.697
    34   1 H        0.805     0.346     0.596     1.213
    35   1 H        0.805     0.367     0.549     1.164
    36   1 H        0.804     0.338     0.618     1.235
    37   1 H        0.805     0.349     0.590     1.207
    38   1 H        0.805     0.329     0.640     1.257
    39   1 H        0.802     0.364     0.557     1.173
    40   1 H        0.806     0.288     0.758     1.367
    41   1 H        0.000    -1.000  3074.319   101.384
    42   1 H        0.802     0.334     0.627     1.244
    43   1 H        0.805     0.349     0.591     1.207
    44   1 H        0.806     0.336     0.621     1.238
    45   1 H        0.802     0.356     0.575     1.191
    46   1 H        0.805     0.347     0.595     1.212
    47   1 H        0.804     0.357     0.573     1.189
    48   1 H        0.805     0.350     0.588     1.204
    49   1 H        0.804     0.355     0.577     1.193
    50   1 H        0.804     0.346     0.598     1.214
    51   1 H        0.804     0.348     0.593     1.210
    52   1 H        0.805     0.343     0.604     1.221
    53   1 H        0.804     0.351     0.585     1.202
    54   1 H        0.805     0.347     0.595     1.212
    55   1 H        0.804     0.351     0.587     1.203

 Mol. C6AA /au·bohr⁶  :      37086.907730
 Mol. C8AA /au·bohr⁸  :     771761.829265
 Mol. α(0) /au        :        330.225811


Wiberg/Mayer (AO) data.
largest (>0.10) Wiberg bond orders for each atom

 ---------------------------------------------------------------------------
     #   Z sym  total        # sym  WBO       # sym  WBO       # sym  WBO
 ---------------------------------------------------------------------------
     1  26 Fe   1.459 --     3 O    0.215     7 O    0.196     4 O    0.188
                             6 O    0.171     5 O    0.163    20 O    0.153
                            23 O    0.146     2 O    0.137
     2   8 O    1.927 --    12 H    0.877    13 H    0.824     1 Fe   0.137
     3   8 O    1.942 --    16 H    0.830    17 H    0.811     1 Fe   0.215
     4   8 O    1.974 --    15 H    0.830    14 H    0.813     1 Fe   0.188
     5   8 O    1.943 --    18 H    0.873    19 H    0.849     1 Fe   0.163
     6   8 O    1.919 --     8 H    0.858     9 H    0.831     1 Fe   0.171
     7   8 O    1.920 --    11 H    0.830    10 H    0.822     1 Fe   0.196
     8   1 H    0.886 --     6 O    0.858
     9   1 H    0.879 --     6 O    0.831
    10   1 H    0.874 --     7 O    0.822
    11   1 H    0.876 --     7 O    0.830
    12   1 H    0.881 --     2 O    0.877
    13   1 H    0.885 --     2 O    0.824
    14   1 H    0.864 --     4 O    0.813
    15   1 H    0.877 --     4 O    0.830
    16   1 H    0.874 --     3 O    0.830
    17   1 H    0.871 --     3 O    0.811
    18   1 H    0.885 --     5 O    0.873
    19   1 H    0.890 --     5 O    0.849
    20   8 O    1.914 --    34 H    0.874    35 H    0.847     1 Fe   0.153
    21   8 O    1.842 --    54 H    0.873    55 H    0.839
    22   8 O    1.736 --    40 H    0.910    32 H    0.682
    23   8 O    1.963 --    43 H    0.865    42 H    0.789     1 Fe   0.146
    24   8 O    1.810 --    37 H    0.862    36 H    0.846
    25   8 O    1.460 --    33 H    0.946    32 H    0.221
    26   8 O    1.811 --    52 H    0.878    53 H    0.851
    27   8 O    1.829 --    50 H    0.846    51 H    0.839
    28   8 O    1.831 --    48 H    0.867    49 H    0.850
    29   8 O    1.811 --    38 H    0.875    39 H    0.804
    30   8 O    1.834 --    46 H    0.873    47 H    0.837
    31   8 O    1.812 --    44 H    0.876    45 H    0.800
    32   1 H    0.903 --    22 O    0.682    25 O    0.221
    33   1 H    0.964 --    25 O    0.946
    34   1 H    0.880 --    20 O    0.874
    35   1 H    0.865 --    20 O    0.847
    36   1 H    0.886 --    24 O    0.846
    37   1 H    0.878 --    24 O    0.862
    38   1 H    0.892 --    29 O    0.875
    39   1 H    0.868 --    29 O    0.804
    40   1 H    0.917 --    22 O    0.910
    41   1 H    0.000
    42   1 H    0.888 --    23 O    0.789
    43   1 H    0.878 --    23 O    0.865
    44   1 H    0.887 --    31 O    0.876
    45   1 H    0.873 --    31 O    0.800
    46   1 H    0.879 --    30 O    0.873
    47   1 H    0.873 --    30 O    0.837
    48   1 H    0.877 --    28 O    0.867
    49   1 H    0.874 --    28 O    0.850
    50   1 H    0.880 --    27 O    0.846
    51   1 H    0.879 --    27 O    0.839
    52   1 H    0.882 --    26 O    0.878
    53   1 H    0.877 --    26 O    0.851
    54   1 H    0.880 --    21 O    0.873
    55   1 H    0.877 --    21 O    0.839
 ---------------------------------------------------------------------------

Topologies differ in total number of bonds
Writing topology from bond orders to xtbtopo.mol

molecular dipole:
                 x           y           z       tot (Debye)
 q only:       16.608      10.964      10.571
   full:       16.097       9.523       9.945      53.841
molecular quadrupole (traceless):
                xx          xy          yy          xz          yz          zz
 q only:      -85.873    -197.858      21.966    -163.008    -125.223      63.907
  q+dip:      -82.252    -191.182      22.143    -158.722    -123.916      60.109
   full:      -82.476    -190.923      22.024    -158.230    -123.862      60.452

           -------------------------------------------------
          |               Frequency Printout                |
           -------------------------------------------------
 projected vibrational frequencies (cm⁻¹)
eigval :       -0.00    -0.00    -0.00    -0.00     0.00     0.00
eigval :       26.13    36.59    43.12    44.38    51.74    55.01
eigval :       56.49    60.73    63.69    65.39    70.81    76.67
eigval :       80.03    83.91    86.03    87.72    94.76    97.56
eigval :      107.83   114.27   119.95   126.73   131.79   136.66
eigval :      140.68   149.26   152.44   163.75   167.32   175.26
eigval :      179.19   182.68   193.26   196.36   197.23   202.78
eigval :      205.96   214.69   220.27   222.26   226.11   232.37
eigval :      235.33   243.26   244.55   248.83   255.13   266.82
eigval :      271.63   275.16   283.26   290.14   293.33   301.63
eigval :      315.63   318.63   321.23   326.08   333.78   335.19
eigval :      354.47   356.58   367.94   371.24   376.38   382.68
eigval :      388.85   399.55   410.80   438.80   452.39   458.37
eigval :      473.35   482.22   496.21   500.63   501.06   508.05
eigval :      517.92   526.97   531.59   548.22   555.35   564.74
eigval :      570.70   582.54   592.74   604.88   612.59   625.96
eigval :      630.29   651.89   653.08   662.48   682.50   705.61
eigval :      712.33   716.04   726.99   760.90   771.40   784.84
eigval :      818.93   843.40   850.24  1017.25  1121.92  1455.31
eigval :     1461.70  1469.17  1471.32  1478.31  1480.99  1481.62
eigval :     1485.67  1492.85  1495.13  1508.25  1512.26  1517.50
eigval :     1525.91  1533.92  1537.38  1555.33  1766.50  2865.88
eigval :     3045.08  3136.63  3191.88  3273.59  3290.81  3296.15
eigval :     3341.98  3369.50  3372.09  3374.04  3381.78  3397.13
eigval :     3409.42  3421.38  3424.54  3429.64  3448.70  3458.67
eigval :     3509.90  3529.99  3545.47  3578.20  3595.36  3603.06
eigval :     3617.71  3633.11  3648.55  3650.16  3652.12  3661.32
eigval :     3665.44  3711.81  3769.26
 reduced masses (amu)
   1: 15.21   2: 16.89   3: 17.17   4: 18.70   5: 18.60   6: 17.08   7: 14.68   8: 14.83
   9: 14.57  10: 14.26  11: 16.60  12: 14.76  13: 14.33  14:  8.84  15: 15.05  16: 14.50
  17: 19.40  18: 14.84  19: 14.33  20: 17.64  21: 14.99  22: 15.31  23: 16.62  24: 15.87
  25: 18.23  26: 19.56  27: 11.45  28: 15.45  29: 15.03  30: 13.74  31: 15.46  32: 14.34
  33: 12.96  34: 13.45  35: 13.51  36: 13.94  37: 14.73  38: 15.37  39:  9.80  40: 13.80
  41: 13.42  42: 10.46  43: 15.49  44: 11.34  45: 12.41  46: 14.74  47: 11.85  48: 13.30
  49: 14.57  50: 13.16  51: 17.43  52: 12.97  53: 13.81  54: 11.64  55: 12.51  56:  9.82
  57: 11.25  58:  9.38  59: 13.86  60: 13.95  61: 13.51  62:  6.53  63:  8.86  64:  5.09
  65:  3.48  66:  3.83  67:  4.11  68:  2.88  69:  6.80  70:  3.94  71:  5.61  72:  3.71
  73:  2.26  74:  2.76  75: 10.46  76:  1.99  77:  1.94  78:  2.30  79:  3.73  80:  6.93
  81:  2.72  82:  4.99  83:  4.78  84:  5.73  85:  2.30  86:  2.53  87:  4.00  88:  2.08
  89:  1.84  90:  1.88  91:  1.81  92:  1.79  93:  2.48  94:  1.71  95:  1.76  96:  1.76
  97:  1.85  98:  2.15  99:  1.66 100:  1.93 101:  1.84 102:  1.65 103:  1.83 104:  1.96
 105:  2.05 106:  2.17 107:  2.18 108:  2.13 109:  1.62 110:  1.76 111:  2.16 112:  1.53
 113:  1.70 114:  2.08 115:  2.15 116:  2.10 117:  2.10 118:  2.08 119:  2.04 120:  2.14
 121:  2.04 122:  2.07 123:  2.07 124:  1.98 125:  2.14 126:  2.02 127:  2.03 128:  1.99
 129:  1.96 130:  1.84 131:  2.04 132:  1.93 133:  1.90 134:  1.89 135:  1.89 136:  2.04
 137:  2.01 138:  2.11 139:  2.03 140:  1.91 141:  1.83 142:  1.80 143:  1.90 144:  1.78
 145:  1.73 146:  1.70 147:  1.84 148:  1.97 149:  1.70 150:  1.90 151:  1.89 152:  1.75
 153:  1.79 154:  1.82 155:  1.82 156:  1.80 157:  1.79 158:  1.79 159:  1.83 160:  1.82
 161:  1.84 162:  1.82 163:  1.84 164:  1.85 165:  1.88
 IR intensities (km·mol⁻¹)
   1:  5.68   2: 19.53   3: 13.63   4: 13.50   5: 16.06   6: 14.83   7: 38.00   8: 30.32
   9: 59.68  10:  8.45  11: 27.51  12: 45.67  13:107.02  14:484.92  15:  5.71  16: 53.98
  17: 38.42  18: 25.42  19: 63.27  20:  3.28  21: 79.74  22:  4.87  23:  3.79  24: 19.72
  25: 35.64  26: 23.90  27:132.25  28: 32.92  29: 27.23  30: 36.88  31:  5.88  32:177.08
  33: 39.47  34: 44.60  35: 11.18  36: 20.62  37: 39.35  38:  1.70  39: 82.05  40:105.68
  41: 72.67  42: 36.00  43:196.81  44: 28.92  45: 25.65  46:171.43  47: 63.97  48:112.52
  49: 87.48  50:  3.78  51: 53.47  52:200.44  53: 98.51  54: 30.70  55: 19.53  56: 97.41
  57: 52.09  58: 47.09  59: 69.02  60: 57.39  61: 22.73  62: 66.46  63: 15.59  64:128.41
  65: 90.10  66:208.86  67:  7.17  68: 11.72  69:322.14  70: 27.73  71:262.30  72: 44.04
  73: 78.34  74: 69.80  75: 46.00  76: 90.67  77: 35.88  78:285.76  79:176.49  80:173.28
  81:327.78  82: 65.33  83:365.99  84:246.92  85:219.28  86:242.98  87: 65.80  88:270.46
  89:310.43  90:155.59  91:204.26  92:105.18  93:358.20  94:198.99  95:180.42  96:150.34
  97: 85.14  98:301.33  99:144.38 100:365.69 101:374.38 102:325.87 103:259.79 104: 51.67
 105:332.59 106:832.36 107:110.58 108:875.45 109:197.65 110:555.31 111:173.60 112: 58.22
 113:308.25 114:313.20 115:288.91 116:222.29 117:371.26 118:280.68 119: 27.43 120:271.34
 121:227.04 122: 89.42 123:190.51 124: 65.29 125:184.79 126:360.49 127: 34.74 128:230.59
Molecule has no symmetry elements
It seems to be the C1 point group
 129:135.63 130:376.78 131:****** 132:****** 133:683.82 134:991.41 135:****** 136:999.97
 137:838.44 138:842.63 139:733.99 140:388.02 141:851.51 142:108.94 143:613.71 144:837.90
 145:624.82 146:490.29 147:404.53 148:255.55 149: 22.60 150:392.80 151:122.90 152: 97.98
 153:215.46 154: 63.08 155:133.68 156: 59.32 157: 51.77 158: 63.96 159: 72.17 160: 79.90
 161: 55.08 162: 51.78 163: 55.18 164: 21.54 165:  4.33
 Raman intensities (amu)
   1:  0.00   2:  0.00   3:  0.00   4:  0.00   5:  0.00   6:  0.00   7:  0.00   8:  0.00
   9:  0.00  10:  0.00  11:  0.00  12:  0.00  13:  0.00  14:  0.00  15:  0.00  16:  0.00
  17:  0.00  18:  0.00  19:  0.00  20:  0.00  21:  0.00  22:  0.00  23:  0.00  24:  0.00
  25:  0.00  26:  0.00  27:  0.00  28:  0.00  29:  0.00  30:  0.00  31:  0.00  32:  0.00
  33:  0.00  34:  0.00  35:  0.00  36:  0.00  37:  0.00  38:  0.00  39:  0.00  40:  0.00
  41:  0.00  42:  0.00  43:  0.00  44:  0.00  45:  0.00  46:  0.00  47:  0.00  48:  0.00
  49:  0.00  50:  0.00  51:  0.00  52:  0.00  53:  0.00  54:  0.00  55:  0.00  56:  0.00
  57:  0.00  58:  0.00  59:  0.00  60:  0.00  61:  0.00  62:  0.00  63:  0.00  64:  0.00
  65:  0.00  66:  0.00  67:  0.00  68:  0.00  69:  0.00  70:  0.00  71:  0.00  72:  0.00
  73:  0.00  74:  0.00  75:  0.00  76:  0.00  77:  0.00  78:  0.00  79:  0.00  80:  0.00
  81:  0.00  82:  0.00  83:  0.00  84:  0.00  85:  0.00  86:  0.00  87:  0.00  88:  0.00
  89:  0.00  90:  0.00  91:  0.00  92:  0.00  93:  0.00  94:  0.00  95:  0.00  96:  0.00
  97:  0.00  98:  0.00  99:  0.00 100:  0.00 101:  0.00 102:  0.00 103:  0.00 104:  0.00
 105:  0.00 106:  0.00 107:  0.00 108:  0.00 109:  0.00 110:  0.00 111:  0.00 112:  0.00
 113:  0.00 114:  0.00 115:  0.00 116:  0.00 117:  0.00 118:  0.00 119:  0.00 120:  0.00
 121:  0.00 122:  0.00 123:  0.00 124:  0.00 125:  0.00 126:  0.00 127:  0.00 128:  0.00
 129:  0.00 130:  0.00 131:  0.00 132:  0.00 133:  0.00 134:  0.00 135:  0.00 136:  0.00
 137:  0.00 138:  0.00 139:  0.00 140:  0.00 141:  0.00 142:  0.00 143:  0.00 144:  0.00
 145:  0.00 146:  0.00 147:  0.00 148:  0.00 149:  0.00 150:  0.00 151:  0.00 152:  0.00
 153:  0.00 154:  0.00 155:  0.00 156:  0.00 157:  0.00 158:  0.00 159:  0.00 160:  0.00
 161:  0.00 162:  0.00 163:  0.00 164:  0.00 165:  0.00
 output can be read by thermo (or use thermo option).
 writing <g98.out> molden fake output.
 recommended (thermochemical) frequency scaling factor: 1.0
           -------------------------------------------------
          |             Thermodynamic Functions             |
           -------------------------------------------------

c1  symmetry found (for desy threshold:  0.10E+00) used in thermo

          ...................................................
          :                      SETUP                      :
          :.................................................:
          :  # frequencies                         159      :
          :  # imaginary freq.                       0      :
          :  linear?                             false      :
          :  only rotor calc.                    false      :
          :  symmetry                               c1      :
          :  rotational number                       1      :
          :  scaling factor                  1.0000000      :
          :  rotor cutoff                   50.0000000 cm⁻¹ :
          :  imag. cutoff                  -20.0000000 cm⁻¹ :
          :.................................................:

    mode    ω/cm⁻¹     T·S(HO)/kcal·mol⁻¹    T·S(FR)/kcal·mol⁻¹   T·S(vib)
   ------------------------------------------------------------------------
       1     26.13    -1.81983 (  6.94%)    -1.24877 ( 93.06%)    -1.28838
       2     36.59    -1.62063 ( 22.29%)    -1.14900 ( 77.71%)    -1.25412
       3     43.12    -1.52368 ( 35.61%)    -1.10038 ( 64.39%)    -1.25111
       4     44.38    -1.50666 ( 38.29%)    -1.09184 ( 61.71%)    -1.25069
       5     51.74    -1.41609 ( 53.42%)    -1.04636 ( 46.58%)    -1.24388
       6     55.01    -1.38002 ( 59.43%)    -1.02823 ( 40.57%)    -1.23732
       7     56.49    -1.36443 ( 61.96%)    -1.02038 ( 38.04%)    -1.23356
       8     60.73    -1.32181 ( 68.51%)    -0.99894 ( 31.49%)    -1.22015
       9     63.69    -1.29377 ( 72.48%)    -0.98481 ( 27.52%)    -1.20874
      10     65.39    -1.27835 ( 74.52%)    -0.97704 ( 25.48%)    -1.20158
      11     70.81    -1.23159 ( 80.09%)    -0.95345 ( 19.91%)    -1.17620
      12     76.67    -1.18498 ( 84.68%)    -0.92990 ( 15.32%)    -1.14591
      13     80.03    -1.15984 ( 86.78%)    -0.91718 ( 13.22%)    -1.12776
      14     83.91    -1.13215 ( 88.80%)    -0.90315 ( 11.20%)    -1.10651
      15     86.03    -1.11756 ( 89.76%)    -0.89576 ( 10.24%)    -1.09485
      16     87.72    -1.10620 ( 90.45%)    -0.88999 (  9.55%)    -1.08556
      17     94.76    -1.06124 ( 92.81%)    -0.86715 (  7.19%)    -1.04727
      18     97.56    -1.04425 ( 93.55%)    -0.85850 (  6.45%)    -1.03226
      19    107.83    -0.98618 ( 95.58%)    -0.82887 (  4.42%)    -0.97923
      20    114.27    -0.95261 ( 96.46%)    -0.81168 (  3.54%)    -0.94763
      21    119.95    -0.92460 ( 97.07%)    -0.79730 (  2.93%)    -0.92087
      22    126.73    -0.89298 ( 97.63%)    -0.78102 (  2.37%)    -0.89033
      23    131.79    -0.87052 ( 97.97%)    -0.76942 (  2.03%)    -0.86847
      24    136.66    -0.84976 ( 98.24%)    -0.75868 (  1.76%)    -0.84816
      25    140.68    -0.83321 ( 98.43%)    -0.75009 (  1.57%)    -0.83191
      26    149.26    -0.79953 ( 98.76%)    -0.73255 (  1.24%)    -0.79870
      27    152.44    -0.78758 ( 98.86%)    -0.72630 (  1.14%)    -0.78688
      28    163.75    -0.74717 ( 99.14%)    -0.70510 (  0.86%)    -0.74681
      29    167.32    -0.73504 ( 99.21%)    -0.69871 (  0.79%)    -0.73475
      30    175.26    -0.70909 ( 99.34%)    -0.68498 (  0.66%)    -0.70894
      31    179.19    -0.69673 ( 99.40%)    -0.67841 (  0.60%)    -0.69662
      32    182.68    -0.68601 ( 99.44%)    -0.67270 (  0.56%)    -0.68593
      33    193.26    -0.65482 ( 99.55%)    -0.65601 (  0.45%)    -0.65483
      34    196.36    -0.64606 ( 99.58%)    -0.65130 (  0.42%)    -0.64608
      35    197.23    -0.64363 ( 99.59%)    -0.64999 (  0.41%)    -0.64365
      36    202.78    -0.62842 ( 99.63%)    -0.64178 (  0.37%)    -0.62847
      37    205.96    -0.61992 ( 99.65%)    -0.63717 (  0.35%)    -0.61998
      38    214.69    -0.59732 ( 99.71%)    -0.62486 (  0.29%)    -0.59740
      39    220.27    -0.58343 ( 99.74%)    -0.61726 (  0.26%)    -0.58352
      40    222.26    -0.57859 ( 99.74%)    -0.61460 (  0.26%)    -0.57868
      41    226.11    -0.56935 ( 99.76%)    -0.60951 (  0.24%)    -0.56944
      42    232.37    -0.55472 ( 99.79%)    -0.60142 (  0.21%)    -0.55482
      43    235.33    -0.54798 ( 99.80%)    -0.59767 (  0.20%)    -0.54808
      44    243.26    -0.53038 ( 99.82%)    -0.58786 (  0.18%)    -0.53049
      45    244.55    -0.52759 ( 99.83%)    -0.58629 (  0.17%)    -0.52769
      46    248.83    -0.51844 ( 99.84%)    -0.58115 (  0.16%)    -0.51854
      47    255.13    -0.50532 ( 99.85%)    -0.57374 (  0.15%)    -0.50542
      48    266.82    -0.48203 ( 99.88%)    -0.56048 (  0.12%)    -0.48213
      49    271.63    -0.47280 ( 99.89%)    -0.55518 (  0.11%)    -0.47290
      50    275.16    -0.46617 ( 99.89%)    -0.55135 (  0.11%)    -0.46627
      51    283.26    -0.45137 ( 99.90%)    -0.54276 (  0.10%)    -0.45146
      52    290.14    -0.43922 ( 99.91%)    -0.53565 (  0.09%)    -0.43930
      53    293.33    -0.43371 ( 99.92%)    -0.53241 (  0.08%)    -0.43379
   ------------------------------------------------------------------------

   temp. (K)  partition function   enthalpy   heat capacity  entropy
                                   cal/mol     cal/K/mol   cal/K/mol   J/K/mol
 298.15  VIB  0.570E+21            28797.317    156.793    183.579
         ROT  0.103E+08              888.752      2.981     35.076
         INT  0.589E+28            29686.069    159.774    218.655
         TR   0.717E+28             1481.254      4.968     43.678
         TOT                       31167.3230   164.7421   262.3336  1097.6036

       T/K    H(0)-H(T)+PV         H(T)/Eh          T*S/Eh         G(T)/Eh
   ------------------------------------------------------------------------
    298.15    0.496683E-01    0.465873E+00    0.124643E+00    0.341230E+00
   ------------------------------------------------------------------------

         :::::::::::::::::::::::::::::::::::::::::::::::::::::
         ::                  THERMODYNAMIC                  ::
         :::::::::::::::::::::::::::::::::::::::::::::::::::::
         :: total free energy         -94.642853659665 Eh   ::
         ::.................................................::
         :: total energy              -94.984083626500 Eh   ::
         :: zero point energy           0.416204813074 Eh   ::
         :: G(RRHO) w/o ZPVE           -0.074974846239 Eh   ::
         :: G(RRHO) contrib.            0.341229966835 Eh   ::
         :::::::::::::::::::::::::::::::::::::::::::::::::::::

           -------------------------------------------------
          | TOTAL ENERGY              -94.984083626500 Eh   |
          | TOTAL ENTHALPY            -94.518210522717 Eh   |
          | TOTAL FREE ENERGY         -94.642853659665 Eh   |
          | GRADIENT NORM               0.000037860618 Eh/α |
          | HOMO-LUMO GAP               7.160299156638 eV   |
           -------------------------------------------------

------------------------------------------------------------------------
 * finished run on 2024/05/10 at 17:53:07.358     
------------------------------------------------------------------------
 total:
 * wall-time:     0 d,  0 h,  0 min,  2.932 sec
 *  cpu-time:     0 d,  0 h,  0 min, 22.208 sec
 * ratio c/w:     7.574 speedup
 SCF:
 * wall-time:     0 d,  0 h,  0 min,  0.032 sec
 *  cpu-time:     0 d,  0 h,  0 min,  0.211 sec
 * ratio c/w:     6.591 speedup
 analytical hessian:
 * wall-time:     0 d,  0 h,  0 min,  2.712 sec
 *  cpu-time:     0 d,  0 h,  0 min, 20.555 sec
 * ratio c/w:     7.579 speedup

