      -----------------------------------------------------------      
     |                   =====================                   |     
     |                           x T B                           |     
     |                   =====================                   |     
     |                         S. Grimme                         |     
     |          Mulliken Center for Theoretical Chemistry        |     
     |                    University of Bonn                     |     
      -----------------------------------------------------------      

   * xtb version 6.6.0 (conda-forge) compiled by 'runner@Mac-1676020848589.local' on 2023-02-10

   xtb is free software: you can redistribute it and/or modify it under
   the terms of the GNU Lesser General Public License as published by
   the Free Software Foundation, either version 3 of the License, or
   (at your option) any later version.
   
   xtb is distributed in the hope that it will be useful,
   but WITHOUT ANY WARRANTY; without even the implied warranty of
   MERCHANTABILITY or FITNESS FOR A PARTICULAR PURPOSE.  See the
   GNU Lesser General Public License for more details.
   
   Cite this work as:
   * C. Bannwarth, E. Caldeweyher, S. Ehlert, A. Hansen, P. Pracht,
     J. Seibert, S. Spicher, S. Grimme, WIREs Comput. Mol. Sci., 2020, 11,
     e01493. DOI: 10.1002/wcms.1493
   
   for GFN2-xTB:
   * C. Bannwarth, S. Ehlert and S. Grimme., J. Chem. Theory Comput., 2019,
     15, 1652-1671. DOI: 10.1021/acs.jctc.8b01176
   for GFN1-xTB:
   * S. Grimme, C. Bannwarth, P. Shushkov, J. Chem. Theory Comput., 2017,
     13, 1989-2009. DOI: 10.1021/acs.jctc.7b00118
   for GFN0-xTB:
   * P. Pracht, E. Caldeweyher, S. Ehlert, S. Grimme, ChemRxiv, 2019, preprint.
     DOI: 10.26434/chemrxiv.8326202.v1
   for GFN-FF:
   * S. Spicher and S. Grimme, Angew. Chem. Int. Ed., 2020, 59, 15665-15673.
     DOI: 10.1002/anie.202004239
   
   for ALPB and GBSA implicit solvation:
   * S. Ehlert, M. Stahn, S. Spicher, S. Grimme, J. Chem. Theory Comput.,
     2021, 17, 4250-4261. DOI: 10.1021/acs.jctc.1c00471
   
   for DFT-D4:
   * E. Caldeweyher, C. Bannwarth and S. Grimme, J. Chem. Phys., 2017,
     147, 034112. DOI: 10.1063/1.4993215
   * E. Caldeweyher, S. Ehlert, A. Hansen, H. Neugebauer, S. Spicher,
     C. Bannwarth and S. Grimme, J. Chem. Phys., 2019, 150, 154122.
     DOI: 10.1063/1.5090222
   * E. Caldeweyher, J.-M. Mewes, S. Ehlert and S. Grimme, Phys. Chem. Chem. Phys.
     2020, 22, 8499-8512. DOI: 10.1039/D0CP00502A
   
   for sTDA-xTB:
   * S. Grimme and C. Bannwarth, J. Chem. Phys., 2016, 145, 054103.
     DOI: 10.1063/1.4959605
   
   in the mass-spec context:
   * V. Asgeirsson, C. Bauer and S. Grimme, Chem. Sci., 2017, 8, 4879.
     DOI: 10.1039/c7sc00601b
   * J. Koopman and S. Grimme, ACS Omega 2019, 4, 12, 15120-15133.
     DOI: 10.1021/acsomega.9b02011
   
   for metadynamics refer to:
   * S. Grimme, J. Chem. Theory Comput., 2019, 155, 2847-2862
     DOI: 10.1021/acs.jctc.9b00143
   
   for SPH calculations refer to:
   * S. Spicher and S. Grimme, J. Chem. Theory Comput., 2021, 17, 1701-1714
     DOI: 10.1021/acs.jctc.0c01306
   
   with help from (in alphabetical order)
   P. Atkinson, C. Bannwarth, F. Bohle, G. Brandenburg, E. Caldeweyher
   M. Checinski, S. Dohm, S. Ehlert, S. Ehrlich, I. Gerasimov, C. Hölzer
   A. Katbashev, J. Koopman, C. Lavigne, S. Lehtola, F. März, M. Müller,
   F. Musil, H. Neugebauer, J. Pisarek, C. Plett, P. Pracht, F. Pultar,
   J. Seibert, P. Shushkov, S. Spicher, M. Stahn, M. Steiner, T. Strunk,
   J. Stückrath, T. Rose, and J. Unsleber
   
 * started run on 2024/05/10 at 17:52:46.749     

           -------------------------------------------------
          |                Calculation Setup                |
           -------------------------------------------------

          program call               : xtb Fe_18H2O.xyz --opt extreme --gfn2 --chrg 2 --uhf 5 --alpb water
          coordinate file            : Fe_18H2O.xyz
          omp threads                :                     8

   ID    Z sym.   atoms
    1   26 Fe     1
    2    8 O      2-7, 20-31
    3    1 H      8-19, 32-55

molecular fragmentation (1/2 indicates fragments):
1112222222212221222222222222222222222222222222222222222
# atoms in fragment 1/2:     5    50
 fragment masses (1/2) :       89.86      290.26
CMA distance (Bohr)    :   0.999
constraining FC (au)   :  0.0500

           -------------------------------------------------
          |                 G F N 2 - x T B                 |
           -------------------------------------------------

        Reference                      10.1021/acs.jctc.8b01176
      * Hamiltonian:
        H0-scaling (s, p, d)           1.850000    2.230000    2.230000
        zeta-weighting                 0.500000
      * Dispersion:
        s8                             2.700000
        a1                             0.520000
        a2                             5.000000
        s9                             5.000000
      * Repulsion:
        kExp                           1.500000    1.000000
        rExp                           1.000000
      * Coulomb:
        alpha                          2.000000
        third order                    shell-resolved
        anisotropic                    true
        a3                             3.000000
        a5                             4.000000
        cn-shift                       1.200000
        cn-exp                         4.000000
        max-rad                        5.000000

      * Solvation model:               ALPB
        Solvent                        water
        Parameter file                 internal GFN2-xTB/ALPB
        Dielectric constant                8.0200E+01
        Reference state                gsolv [1 M gas/solution]
        Free energy shift                  1.0808E-03 Eh       6.7819E-01 kcal/mol
        Temperature                        2.9815E+02 K
        Density                            1.0000E+00 kg/L
        Solvent mass                       1.8000E+01 g/mol
        Interaction kernel             P16
        Born radius scaling (c1)           1.4744E+00
        Born radii integrator          GBOBC
        Born offset                        0.0000E+00 a0       0.0000E+00 AA
        H-bond correction              true
        Ion screening                  false
        Surface tension                    1.0000E-05 Eh       1.5569E+01 dyn/cm
        Grid points                               230 per atom
q/qsh data taken from xtbrestart
CAMM data taken from xtbrestart

          ...................................................
          :                      SETUP                      :
          :.................................................:
          :  # basis functions                 118          :
          :  # atomic orbitals                 117          :
          :  # shells                           75          :
          :  # electrons                       150          :
          :  max. iterations                   250          :
          :  Hamiltonian                  GFN2-xTB          :
          :  restarted?                       true          :
          :  GBSA solvation                   true          :
          :  PC potential                    false          :
          :  electronic temp.          300.0000000     K    :
          :  accuracy                    1.0000000          :
          :  -> integral cutoff          0.2500000E+02      :
          :  -> integral neglect         0.1000000E-07      :
          :  -> SCF convergence          0.1000000E-05 Eh   :
          :  -> wf. convergence          0.1000000E-03 e    :
          :  Broyden damping             0.4000000          :
          ...................................................

 iter      E             dE          RMSdq      gap      omega  full diag
   1    -94.7700859 -0.947701E+02  0.208E+00    8.47       0.0  T
   2    -94.8143026 -0.442167E-01  0.169E+00    7.03       1.0  T
   3    -94.8197527 -0.545006E-02  0.872E-01    6.84       1.0  T
   4    -94.8220617 -0.230895E-02  0.308E-01    6.51       1.0  T
   5    -94.8222016 -0.139911E-03  0.292E-01    6.38       1.0  T
   6    -94.8223465 -0.144937E-03  0.622E-02    6.37       1.0  T
   7    -94.8223721 -0.256053E-04  0.303E-02    6.40       1.0  T
   8    -94.8223758 -0.366797E-05  0.163E-02    6.42       1.0  T
   9    -94.8223778 -0.198585E-05  0.694E-03    6.42       1.9  T
  10    -94.8223779 -0.147298E-06  0.216E-03    6.41       6.2  T
  11    -94.8223779 -0.142275E-07  0.967E-04    6.41      13.9  T
  12    -94.8223779 -0.264583E-08  0.421E-04    6.41      32.0  T

   *** convergence criteria satisfied after 12 iterations ***

         #    Occupation            Energy/Eh            Energy/eV
      -------------------------------------------------------------
         1        2.0000           -0.6651425             -18.0994
       ...           ...                  ...                  ...
        71        2.0000           -0.3617382              -9.8434
        72        2.0000           -0.3550294              -9.6608
        73        1.6659           -0.2640289              -7.1846
        74        1.3341           -0.2627183              -7.1489
        75        1.0000           -0.2536074              -6.9010
        76        1.0000           -0.2482254              -6.7546
        77        1.0000           -0.2425019              -6.5988 (HOMO)
        78                         -0.0067992              -0.1850 (LUMO)
        79                          0.0244331               0.6649
        80                          0.0458333               1.2472
        81                          0.0696146               1.8943
        82                          0.0774306               2.1070
       ...                                ...                  ...
       117                          1.1441569              31.1341
      -------------------------------------------------------------
                  HL-Gap            0.2357027 Eh            6.4138 eV
             Fermi-level           -0.1940121 Eh           -5.2793 eV

 SCC (total)                   0 d,  0 h,  0 min,  0.048 sec
 SCC setup                      ...        0 min,  0.001 sec (  2.749%)
 Dispersion                     ...        0 min,  0.001 sec (  1.039%)
 classical contributions        ...        0 min,  0.000 sec (  0.332%)
 integral evaluation            ...        0 min,  0.002 sec (  4.660%)
 iterations                     ...        0 min,  0.036 sec ( 75.186%)
 molecular gradient             ...        0 min,  0.007 sec ( 15.473%)
 printout                       ...        0 min,  0.000 sec (  0.522%)

         :::::::::::::::::::::::::::::::::::::::::::::::::::::
         ::                     SUMMARY                     ::
         :::::::::::::::::::::::::::::::::::::::::::::::::::::
         :: total energy             -94.270241122204 Eh    ::
         :: total w/o Gsasa/hb       -94.169757646623 Eh    ::
         :: gradient norm              0.090461217213 Eh/a0 ::
         :: HOMO-LUMO gap              6.413797729726 eV    ::
         ::.................................................::
         :: SCC energy               -94.822377922579 Eh    ::
         :: -> isotropic ES            0.645227471217 Eh    ::
         :: -> anisotropic ES         -0.065440738229 Eh    ::
         :: -> anisotropic XC         -0.003876767010 Eh    ::
         :: -> dispersion             -0.029549090916 Eh    ::
         :: -> Gsolv                  -0.320202730989 Eh    ::
         ::    -> Gelec               -0.219719255407 Eh    ::
         ::    -> Gsasa                0.002840763083 Eh    ::
         ::    -> Ghb                 -0.104404998363 Eh    ::
         ::    -> Gshift               0.001080759698 Eh    ::
         :: repulsion energy           0.550908293624 Eh    ::
         :: add. restraining           0.000000000000 Eh    ::
         :: total charge               2.000001376066 e     ::
         :::::::::::::::::::::::::::::::::::::::::::::::::::::

      ----------------------------------------------------------- 
     |                   =====================                   |
     |                        A N C O P T                        |
     |                   =====================                   |
     |               Approximate Normal Coordinate               |
     |                Rational Function Optimizer                |
      ----------------------------------------------------------- 

          ...................................................
          :                      SETUP                      :
          :.................................................:
          :   optimization level           extreme          :
          :   max. optcycles                  1100          :
          :   ANC micro-cycles                  20          :
          :   degrees of freedom               159          :
          :.................................................:
          :   RF solver                   davidson          :
          :   write xtbopt.log                true          :
          :   linear?                        false          :
          :   energy convergence         0.5000000E-07 Eh   :
          :   grad. convergence          0.5000000E-04 Eh/α :
          :   maxmium RF displ.          1.0000000          :
          :   Hlow (freq-cutoff)         0.1000000E-01      :
          :   Hmax (freq-cutoff)         5.0000000          :
          :   S6 in model hess.         20.0000000          :
          ...................................................

generating ANC from model Hessian ...
Using Lindh-Hessian (1995)
 Shifting diagonal of input Hessian by    1.0167786140325617E-002
 Lowest  eigenvalues of input Hessian
    0.010000    0.010035    0.010084    0.010102    0.010107    0.010131
    0.000000    0.000000    0.000000    0.000000    0.000000    0.000000
    0.010177    0.010194    0.010251    0.010385    0.010428    0.010592
 Highest eigenvalues
    1.424062    1.424571    1.430283    1.431439    1.431826    1.444902


........................................................................
.............................. CYCLE    1 ..............................
........................................................................

 iter      E             dE          RMSdq      gap      omega  full diag
   1    -94.8223779 -0.948224E+02  0.142E-04    6.41       0.0  T
   2    -94.8223779  0.507896E-10  0.215E-04    6.41      62.7  T
   3    -94.8223779 -0.101309E-09  0.185E-05    6.41     730.1  T
     SCC iter.                  ...        0 min,  0.007 sec
     gradient                   ...        0 min,  0.009 sec
 * total energy  :   -94.2702411 Eh     change       -0.4091021E-09 Eh
   gradient norm :     0.0904618 Eh/α   predicted     0.0000000E+00 (-100.00%)
   displ. norm   :     0.5519583 α      lambda       -0.2773729E-01
   maximum displ.:     0.2270110 α      in ANC's #91, #90, #73, ...

........................................................................
.............................. CYCLE    2 ..............................
........................................................................

 iter      E             dE          RMSdq      gap      omega  full diag
   1    -94.8487657 -0.948488E+02  0.478E-01    6.66       0.0  T
   2    -94.8485812  0.184425E-03  0.626E-01    6.67       1.0  T
   3    -94.8491340 -0.552803E-03  0.124E-01    6.66       1.0  T
   4    -94.8491519 -0.178498E-04  0.733E-02    6.66       1.0  T
   5    -94.8491545 -0.260361E-05  0.552E-02    6.67       1.0  T
   6    -94.8491613 -0.682890E-05  0.978E-03    6.67       1.4  T
   7    -94.8491618 -0.446220E-06  0.371E-03    6.67       3.6  T
   8    -94.8491618 -0.489974E-07  0.164E-03    6.67       8.2  T
   9    -94.8491618 -0.175640E-07  0.109E-03    6.67      12.4  T
  10    -94.8491618 -0.290872E-08  0.318E-04    6.67      42.4  T
  11    -94.8491618 -0.262943E-09  0.129E-04    6.67     104.5  T
     SCC iter.                  ...        0 min,  0.037 sec
     gradient                   ...        0 min,  0.008 sec
 * total energy  :   -94.2897501 Eh     change       -0.1950893E-01 Eh
   gradient norm :     0.0532037 Eh/α   predicted    -0.1809561E-01 (  -7.24%)
   displ. norm   :     0.4567296 α      lambda       -0.1121728E-01
   maximum displ.:     0.1455061 α      in ANC's #91, #65, #73, ...

........................................................................
.............................. CYCLE    3 ..............................
........................................................................

 iter      E             dE          RMSdq      gap      omega  full diag
   1    -94.8656303 -0.948656E+02  0.197E-01    6.84       0.0  T
   2    -94.8656589 -0.286021E-04  0.200E-01    6.86       1.0  T
   3    -94.8657086 -0.497783E-04  0.837E-02    6.86       1.0  T
   4    -94.8657188 -0.101847E-04  0.448E-02    6.87       1.0  T
   5    -94.8657211 -0.229646E-05  0.253E-02    6.87       1.0  T
   6    -94.8657226 -0.145073E-05  0.653E-03    6.87       2.1  T
   7    -94.8657228 -0.226842E-06  0.223E-03    6.87       6.0  T
   8    -94.8657228 -0.229775E-07  0.103E-03    6.87      13.1  T
   9    -94.8657228 -0.625020E-08  0.272E-04    6.87      49.6  T
  10    -94.8657228 -0.559083E-09  0.124E-04    6.87     109.0  T
     SCC iter.                  ...        0 min,  0.024 sec
     gradient                   ...        0 min,  0.007 sec
 * total energy  :   -94.2968655 Eh     change       -0.7115456E-02 Eh
   gradient norm :     0.0296667 Eh/α   predicted    -0.6778621E-02 (  -4.73%)
   displ. norm   :     0.3778042 α      lambda       -0.3776629E-02
   maximum displ.:     0.1089885 α      in ANC's #17, #67, #65, ...

........................................................................
.............................. CYCLE    4 ..............................
........................................................................

 iter      E             dE          RMSdq      gap      omega  full diag
   1    -94.8779781 -0.948780E+02  0.180E-01    6.98       0.0  T
   2    -94.8779585  0.195387E-04  0.237E-01    6.99       1.0  T
   3    -94.8780364 -0.779007E-04  0.511E-02    6.99       1.0  T
   4    -94.8780396 -0.319871E-05  0.328E-02    6.99       1.0  T
   5    -94.8780409 -0.130717E-05  0.166E-02    6.99       1.0  T
   6    -94.8780416 -0.640883E-06  0.381E-03    6.99       3.5  T
   7    -94.8780417 -0.833310E-07  0.156E-03    6.99       8.6  T
   8    -94.8780417 -0.803047E-08  0.790E-04    6.99      17.1  T
   9    -94.8780417 -0.299632E-08  0.184E-04    6.99      73.4  T
     SCC iter.                  ...        0 min,  0.025 sec
     gradient                   ...        0 min,  0.007 sec
 * total energy  :   -94.2990838 Eh     change       -0.2218308E-02 Eh
   gradient norm :     0.0194837 Eh/α   predicted    -0.2157860E-02 (  -2.72%)
   displ. norm   :     0.3357051 α      lambda       -0.1858458E-02
   maximum displ.:     0.1117114 α      in ANC's #50, #6, #16, ...

........................................................................
.............................. CYCLE    5 ..............................
........................................................................

 iter      E             dE          RMSdq      gap      omega  full diag
   1    -94.8860136 -0.948860E+02  0.842E-02    7.05       0.0  T
   2    -94.8860229 -0.930960E-05  0.590E-02    7.06       1.0  T
   3    -94.8860254 -0.255625E-05  0.451E-02    7.06       1.0  T
   4    -94.8860280 -0.259389E-05  0.182E-02    7.06       1.0  T
   5    -94.8860285 -0.436151E-06  0.710E-03    7.06       1.9  T
   6    -94.8860286 -0.902828E-07  0.366E-03    7.06       3.7  T
   7    -94.8860286 -0.400073E-07  0.990E-04    7.06      13.6  T
   8    -94.8860286 -0.331330E-08  0.330E-04    7.06      40.9  T
     SCC iter.                  ...        0 min,  0.017 sec
     gradient                   ...        0 min,  0.008 sec
 * total energy  :   -94.2999703 Eh     change       -0.8864684E-03 Eh
   gradient norm :     0.0210419 Eh/α   predicted    -0.1033953E-02 (  16.64%)
   displ. norm   :     0.2671565 α      lambda       -0.1165095E-02
   maximum displ.:     0.0867420 α      in ANC's #6, #17, #12, ...

........................................................................
.............................. CYCLE    6 ..............................
........................................................................

 iter      E             dE          RMSdq      gap      omega  full diag
   1    -94.8890899 -0.948891E+02  0.727E-02    7.07       0.0  T
   2    -94.8890904 -0.547596E-06  0.663E-02    7.07       1.0  T
   3    -94.8890963 -0.585115E-05  0.341E-02    7.08       1.0  T
   4    -94.8890977 -0.143886E-05  0.156E-02    7.08       1.0  T
   5    -94.8890980 -0.273706E-06  0.112E-02    7.08       1.2  T
   6    -94.8890981 -0.175429E-06  0.210E-03    7.08       6.4  T
   7    -94.8890982 -0.124722E-07  0.676E-04    7.08      20.0  T
   8    -94.8890982 -0.120642E-08  0.261E-04    7.08      51.7  T
     SCC iter.                  ...        0 min,  0.017 sec
     gradient                   ...        0 min,  0.008 sec
 * total energy  :   -94.3004906 Eh     change       -0.5203280E-03 Eh
   gradient norm :     0.0174058 Eh/α   predicted    -0.6241282E-03 (  19.95%)
   displ. norm   :     0.2826248 α      lambda       -0.1003334E-02
   maximum displ.:     0.0998625 α      in ANC's #6, #16, #51, ...

........................................................................
.............................. CYCLE    7 ..............................
........................................................................

 iter      E             dE          RMSdq      gap      omega  full diag
   1    -94.8839349 -0.948839E+02  0.633E-02    7.04       0.0  T
   2    -94.8839367 -0.183332E-05  0.522E-02    7.04       1.0  T
   3    -94.8839385 -0.176958E-05  0.392E-02    7.04       1.0  T
   4    -94.8839404 -0.191265E-05  0.880E-03    7.04       1.5  T
   5    -94.8839405 -0.100238E-06  0.363E-03    7.04       3.7  T
   6    -94.8839405 -0.193438E-07  0.203E-03    7.04       6.6  T
   7    -94.8839405 -0.956219E-08  0.585E-04    7.04      23.0  T
   8    -94.8839405 -0.117744E-08  0.196E-04    7.04      68.7  T
     SCC iter.                  ...        0 min,  0.013 sec
     gradient                   ...        0 min,  0.007 sec
 * total energy  :   -94.3009617 Eh     change       -0.4711106E-03 Eh
   gradient norm :     0.0121044 Eh/α   predicted    -0.5417385E-03 (  14.99%)
   displ. norm   :     0.1897616 α      lambda       -0.4958984E-03
   maximum displ.:     0.0908744 α      in ANC's #6, #16, #2, ...

........................................................................
.............................. CYCLE    8 ..............................
........................................................................

 iter      E             dE          RMSdq      gap      omega  full diag
   1    -94.8836651 -0.948837E+02  0.410E-02    7.03       0.0  T
   2    -94.8836645  0.630547E-06  0.442E-02    7.03       1.0  T
   3    -94.8836670 -0.255442E-05  0.194E-02    7.03       1.0  T
   4    -94.8836674 -0.415683E-06  0.443E-03    7.03       3.0  T
   5    -94.8836675 -0.293477E-07  0.157E-03    7.03       8.6  T
   6    -94.8836675 -0.306443E-08  0.131E-03    7.03      10.3  T
   7    -94.8836675 -0.354342E-08  0.363E-04    7.03      37.1  T
   8    -94.8836675 -0.355016E-09  0.134E-04    7.03     100.9  T
     SCC iter.                  ...        0 min,  0.013 sec
     gradient                   ...        0 min,  0.008 sec
 * total energy  :   -94.3012994 Eh     change       -0.3377202E-03 Eh
   gradient norm :     0.0098186 Eh/α   predicted    -0.2568785E-03 ( -23.94%)
   displ. norm   :     0.3501952 α      lambda       -0.6726067E-03
   maximum displ.:     0.1771788 α      in ANC's #6, #2, #16, ...

........................................................................
.............................. CYCLE    9 ..............................
........................................................................

 iter      E             dE          RMSdq      gap      omega  full diag
   1    -94.8853350 -0.948853E+02  0.673E-02    7.03       0.0  T
   2    -94.8853360 -0.108607E-05  0.602E-02    7.03       1.0  T
   3    -94.8853399 -0.384278E-05  0.318E-02    7.03       1.0  T
   4    -94.8853409 -0.105704E-05  0.968E-03    7.03       1.4  T
   5    -94.8853411 -0.124001E-06  0.454E-03    7.03       3.0  T
   6    -94.8853411 -0.374732E-07  0.187E-03    7.03       7.2  T
   7    -94.8853411 -0.131216E-07  0.626E-04    7.03      21.5  T
   8    -94.8853411 -0.103074E-08  0.300E-04    7.03      44.9  T
     SCC iter.                  ...        0 min,  0.017 sec
     gradient                   ...        0 min,  0.008 sec
 * total energy  :   -94.3016915 Eh     change       -0.3920402E-03 Eh
   gradient norm :     0.0106972 Eh/α   predicted    -0.3775468E-03 (  -3.70%)
   displ. norm   :     0.3944229 α      lambda       -0.5463642E-03
   maximum displ.:     0.2066224 α      in ANC's #6, #12, #2, ...

........................................................................
.............................. CYCLE   10 ..............................
........................................................................

 iter      E             dE          RMSdq      gap      omega  full diag
   1    -94.8827713 -0.948828E+02  0.620E-02    7.03       0.0  T
   2    -94.8827718 -0.497207E-06  0.550E-02    7.03       1.0  T
   3    -94.8827747 -0.286734E-05  0.354E-02    7.03       1.0  T
   4    -94.8827761 -0.147344E-05  0.998E-03    7.03       1.4  T
   5    -94.8827763 -0.126753E-06  0.275E-03    7.03       4.9  T
   6    -94.8827763 -0.158011E-07  0.208E-03    7.03       6.5  T
   7    -94.8827763 -0.132316E-07  0.549E-04    7.03      24.6  T
   8    -94.8827763 -0.146503E-08  0.258E-04    7.03      52.2  T
     SCC iter.                  ...        0 min,  0.017 sec
     gradient                   ...        0 min,  0.007 sec
 * total energy  :   -94.3020175 Eh     change       -0.3260101E-03 Eh
   gradient norm :     0.0137712 Eh/α   predicted    -0.3156831E-03 (  -3.17%)
   displ. norm   :     0.3655997 α      lambda       -0.5737600E-03
   maximum displ.:     0.1938810 α      in ANC's #6, #2, #12, ...

........................................................................
.............................. CYCLE   11 ..............................
........................................................................

 iter      E             dE          RMSdq      gap      omega  full diag
   1    -94.8840555 -0.948841E+02  0.673E-02    7.04       0.0  T
   2    -94.8840525  0.293790E-05  0.820E-02    7.04       1.0  T
   3    -94.8840617 -0.910712E-05  0.262E-02    7.04       1.0  T
   4    -94.8840623 -0.623060E-06  0.125E-02    7.04       1.1  T
   5    -94.8840624 -0.100773E-06  0.737E-03    7.04       1.8  T
   6    -94.8840625 -0.111187E-06  0.146E-03    7.04       9.2  T
   7    -94.8840625 -0.103911E-07  0.457E-04    7.04      29.5  T
   8    -94.8840625 -0.103498E-08  0.138E-04    7.04      97.5  T
     SCC iter.                  ...        0 min,  0.016 sec
     gradient                   ...        0 min,  0.008 sec
 * total energy  :   -94.3023822 Eh     change       -0.3647138E-03 Eh
   gradient norm :     0.0122883 Eh/α   predicted    -0.3252299E-03 ( -10.83%)
   displ. norm   :     0.4341365 α      lambda       -0.6810668E-03
   maximum displ.:     0.2474036 α      in ANC's #6, #2, #12, ...

........................................................................
.............................. CYCLE   12 ..............................
........................................................................

 iter      E             dE          RMSdq      gap      omega  full diag
   1    -94.8862801 -0.948863E+02  0.576E-02    7.05       0.0  T
   2    -94.8862821 -0.202323E-05  0.472E-02    7.05       1.0  T
   3    -94.8862838 -0.168259E-05  0.342E-02    7.05       1.0  T
   4    -94.8862854 -0.153078E-05  0.115E-02    7.05       1.2  T
   5    -94.8862855 -0.170020E-06  0.222E-03    7.05       6.1  T
   6    -94.8862855 -0.156079E-07  0.218E-03    7.05       6.2  T
   7    -94.8862856 -0.928750E-08  0.624E-04    7.05      21.6  T
   8    -94.8862856 -0.151181E-08  0.231E-04    7.05      58.3  T
     SCC iter.                  ...        0 min,  0.017 sec
     gradient                   ...        0 min,  0.008 sec
 * total energy  :   -94.3028578 Eh     change       -0.4755752E-03 Eh
   gradient norm :     0.0094820 Eh/α   predicted    -0.4047221E-03 ( -14.90%)
   displ. norm   :     0.5876664 α      lambda       -0.7808876E-03
   maximum displ.:     0.3518077 α      in ANC's #6, #2, #12, ...

........................................................................
.............................. CYCLE   13 ..............................
........................................................................

 iter      E             dE          RMSdq      gap      omega  full diag
   1    -94.8807670 -0.948808E+02  0.742E-02    7.03       0.0  T
   2    -94.8807708 -0.377990E-05  0.496E-02    7.03       1.0  T
   3    -94.8807696  0.118961E-05  0.512E-02    7.03       1.0  T
   4    -94.8807734 -0.379697E-05  0.113E-02    7.03       1.2  T
   5    -94.8807736 -0.204794E-06  0.271E-03    7.03       5.0  T
   6    -94.8807736 -0.264534E-07  0.257E-03    7.03       5.2  T
   7    -94.8807736 -0.142740E-07  0.722E-04    7.03      18.7  T
   8    -94.8807736 -0.310041E-08  0.278E-04    7.03      48.5  T
     SCC iter.                  ...        0 min,  0.015 sec
     gradient                   ...        0 min,  0.008 sec
 * total energy  :   -94.3032484 Eh     change       -0.3906524E-03 Eh
   gradient norm :     0.0197922 Eh/α   predicted    -0.5252864E-03 (  34.46%)
   displ. norm   :     0.4021372 α      lambda       -0.8100360E-03
   maximum displ.:     0.2449791 α      in ANC's #6, #2, #12, ...

........................................................................
.............................. CYCLE   14 ..............................
........................................................................

 iter      E             dE          RMSdq      gap      omega  full diag
   1    -94.8868333 -0.948868E+02  0.496E-02    7.03       0.0  T
   2    -94.8868347 -0.139972E-05  0.454E-02    7.03       1.0  T
   3    -94.8868367 -0.205873E-05  0.253E-02    7.03       1.0  T
   4    -94.8868375 -0.804189E-06  0.862E-03    7.03       1.6  T
   5    -94.8868376 -0.924453E-07  0.473E-03    7.03       2.9  T
   6    -94.8868377 -0.545258E-07  0.169E-03    7.03       8.0  T
   7    -94.8868377 -0.113483E-07  0.581E-04    7.03      23.2  T
   8    -94.8868377 -0.168281E-08  0.111E-04    7.03     121.1  T
     SCC iter.                  ...        0 min,  0.017 sec
     gradient                   ...        0 min,  0.008 sec
 * total energy  :   -94.3036109 Eh     change       -0.3624855E-03 Eh
   gradient norm :     0.0187218 Eh/α   predicted    -0.4705214E-03 (  29.80%)
   displ. norm   :     0.4418847 α      lambda       -0.1200337E-02
   maximum displ.:     0.2481955 α      in ANC's #6, #2, #1, ...

........................................................................
.............................. CYCLE   15 ..............................
........................................................................

 iter      E             dE          RMSdq      gap      omega  full diag
   1    -94.8859345 -0.948859E+02  0.950E-02    7.00       0.0  T
   2    -94.8859320  0.255214E-05  0.104E-01    7.00       1.0  T
   3    -94.8859457 -0.137195E-04  0.383E-02    7.00       1.0  T
   4    -94.8859470 -0.132939E-05  0.171E-02    7.00       1.0  T
   5    -94.8859473 -0.274791E-06  0.992E-03    7.00       1.4  T
   6    -94.8859475 -0.206450E-06  0.228E-03    7.00       5.9  T
   7    -94.8859475 -0.215814E-07  0.823E-04    7.00      16.4  T
   8    -94.8859475 -0.302138E-08  0.211E-04    7.00      63.9  T
     SCC iter.                  ...        0 min,  0.014 sec
     gradient                   ...        0 min,  0.008 sec
 * total energy  :   -94.3037939 Eh     change       -0.1829837E-03 Eh
   gradient norm :     0.0257323 Eh/α   predicted    -0.7173633E-03 ( 292.04%)
   displ. norm   :     0.2921943 α      lambda       -0.1210290E-02
   maximum displ.:     0.1755221 α      in ANC's #6, #2, #12, ...

........................................................................
.............................. CYCLE   16 ..............................
........................................................................

 iter      E             dE          RMSdq      gap      omega  full diag
   1    -94.8840516 -0.948841E+02  0.573E-02    6.99       0.0  T
   2    -94.8840516  0.829322E-07  0.499E-02    6.99       1.0  T
   3    -94.8840541 -0.257205E-05  0.290E-02    6.99       1.0  T
   4    -94.8840551 -0.100400E-05  0.787E-03    6.99       1.7  T
   5    -94.8840552 -0.959500E-07  0.428E-03    6.99       3.1  T
   6    -94.8840553 -0.307866E-07  0.148E-03    6.99       9.1  T
   7    -94.8840553 -0.877763E-08  0.382E-04    6.99      35.3  T
   8    -94.8840553 -0.925610E-09  0.128E-04    6.99     105.7  T
     SCC iter.                  ...        0 min,  0.019 sec
     gradient                   ...        0 min,  0.008 sec
 * total energy  :   -94.3043844 Eh     change       -0.5905441E-03 Eh
   gradient norm :     0.0181099 Eh/α   predicted    -0.6568118E-03 (  11.22%)
   displ. norm   :     0.3354431 α      lambda       -0.1028074E-02
   maximum displ.:     0.2146867 α      in ANC's #6, #12, #2, ...

........................................................................
.............................. CYCLE   17 ..............................
........................................................................

 iter      E             dE          RMSdq      gap      omega  full diag
   1    -94.8858988 -0.948859E+02  0.676E-02    6.98       0.0  T
   2    -94.8858987  0.106105E-06  0.650E-02    6.98       1.0  T
   3    -94.8859031 -0.440425E-05  0.331E-02    6.98       1.0  T
   4    -94.8859044 -0.123092E-05  0.115E-02    6.98       1.2  T
   5    -94.8859046 -0.238380E-06  0.328E-03    6.98       4.1  T
   6    -94.8859046 -0.319522E-07  0.173E-03    6.98       7.8  T
   7    -94.8859046 -0.110726E-07  0.476E-04    6.98      28.4  T
   8    -94.8859046 -0.146274E-08  0.161E-04    6.98      83.6  T
     SCC iter.                  ...        0 min,  0.015 sec
     gradient                   ...        0 min,  0.009 sec
 * total energy  :   -94.3045221 Eh     change       -0.1376175E-03 Eh
   gradient norm :     0.0254344 Eh/α   predicted    -0.5718818E-03 ( 315.56%)
   displ. norm   :     0.3516218 α      lambda       -0.1015767E-02
   maximum displ.:     0.2125364 α      in ANC's #6, #2, #12, ...

........................................................................
.............................. CYCLE   18 ..............................
........................................................................

 iter      E             dE          RMSdq      gap      omega  full diag
   1    -94.8822510 -0.948823E+02  0.518E-02    6.97       0.0  T
   2    -94.8822514 -0.464095E-06  0.415E-02    6.97       1.0  T
   3    -94.8822524 -0.100577E-05  0.306E-02    6.97       1.0  T
   4    -94.8822537 -0.129506E-05  0.888E-03    6.97       1.5  T
   5    -94.8822538 -0.105200E-06  0.410E-03    6.97       3.3  T
   6    -94.8822539 -0.294597E-07  0.136E-03    6.97       9.9  T
   7    -94.8822539 -0.739095E-08  0.388E-04    6.97      34.7  T
   8    -94.8822539 -0.773625E-09  0.170E-04    6.97      79.2  T
     SCC iter.                  ...        0 min,  0.017 sec
     gradient                   ...        0 min,  0.008 sec
 * total energy  :   -94.3051346 Eh     change       -0.6125733E-03 Eh
   gradient norm :     0.0166561 Eh/α   predicted    -0.5706784E-03 (  -6.84%)
   displ. norm   :     0.3762664 α      lambda       -0.1130770E-02
   maximum displ.:     0.2041710 α      in ANC's #6, #13, #9, ...

........................................................................
.............................. CYCLE   19 ..............................
........................................................................

 iter      E             dE          RMSdq      gap      omega  full diag
   1    -94.8972745 -0.948973E+02  0.881E-02    7.00       0.0  T
   2    -94.8972708  0.369324E-05  0.983E-02    7.00       1.0  T
   3    -94.8972836 -0.128371E-04  0.338E-02    7.00       1.0  T
   4    -94.8972847 -0.107399E-05  0.147E-02    7.00       1.0  T
   5    -94.8972849 -0.200793E-06  0.823E-03    7.00       1.6  T
   6    -94.8972851 -0.135240E-06  0.203E-03    7.00       6.6  T
   7    -94.8972851 -0.123064E-07  0.589E-04    7.00      22.9  T
   8    -94.8972851 -0.126755E-08  0.146E-04    7.00      92.2  T
     SCC iter.                  ...        0 min,  0.019 sec
     gradient                   ...        0 min,  0.007 sec
 * total energy  :   -94.3048661 Eh     change        0.2685602E-03 Eh
   gradient norm :     0.0342088 Eh/α   predicted    -0.6454321E-03 (-340.33%)
   displ. norm   :     0.3440637 α      lambda       -0.1997850E-02
   maximum displ.:     0.2100574 α      in ANC's #6, #2, #12, ...

........................................................................
.............................. CYCLE   20 ..............................
........................................................................

 iter      E             dE          RMSdq      gap      omega  full diag
   1    -94.8872829 -0.948873E+02  0.688E-02    6.97       0.0  T
   2    -94.8872858 -0.283900E-05  0.418E-02    6.97       1.0  T
   3    -94.8872859 -0.139170E-06  0.333E-02    6.97       1.0  T
   4    -94.8872872 -0.127733E-05  0.124E-02    6.97       1.1  T
   5    -94.8872874 -0.242174E-06  0.288E-03    6.97       4.7  T
   6    -94.8872874 -0.908985E-08  0.300E-03    6.97       4.5  T
   7    -94.8872874 -0.205143E-07  0.519E-04    6.97      26.0  T
   8    -94.8872874 -0.147402E-08  0.206E-04    6.97      65.5  T
     SCC iter.                  ...        0 min,  0.015 sec
     gradient                   ...        0 min,  0.008 sec
 * total energy  :   -94.3056766 Eh     change       -0.8105029E-03 Eh
   gradient norm :     0.0262035 Eh/α   predicted    -0.1117181E-02 (  37.84%)
   displ. norm   :     0.3268401 α      lambda       -0.1725159E-02
   maximum displ.:     0.1716724 α      in ANC's #6, #7, #12, ...
 * RMSD in coord.:     0.7262788 α      energy gain  -0.3543546E-01 Eh

generating ANC from model Hessian ...
Using Lindh-Hessian (1995)
 Shifting diagonal of input Hessian by    1.0101136007423598E-002
 Lowest  eigenvalues of input Hessian
    0.010000    0.010002    0.010087    0.000000    0.000000    0.000000
    0.000000    0.000000    0.000000    0.010104    0.010172    0.010217
    0.010227    0.010295    0.010336    0.010392    0.010452    0.010651
 Highest eigenvalues
    1.427525    1.436745    1.441323    1.444930    1.446720    1.451886


........................................................................
.............................. CYCLE   21 ..............................
........................................................................

 iter      E             dE          RMSdq      gap      omega  full diag
   1    -94.8746327 -0.948746E+02  0.113E-01    6.92       0.0  T
   2    -94.8746278  0.487098E-05  0.124E-01    6.92       1.0  T
   3    -94.8746468 -0.190066E-04  0.456E-02    6.92       1.0  T
   4    -94.8746488 -0.199803E-05  0.230E-02    6.92       1.0  T
   5    -94.8746494 -0.591758E-06  0.103E-02    6.92       1.3  T
   6    -94.8746497 -0.239976E-06  0.285E-03    6.92       4.7  T
   7    -94.8746497 -0.259618E-07  0.806E-04    6.92      16.7  T
   8    -94.8746497 -0.249482E-08  0.340E-04    6.92      39.6  T
     SCC iter.                  ...        0 min,  0.016 sec
     gradient                   ...        0 min,  0.007 sec
 * total energy  :   -94.3055340 Eh     change        0.1426029E-03 Eh
   gradient norm :     0.0356041 Eh/α   predicted     0.0000000E+00 (-100.00%)
   displ. norm   :     0.1953898 α      lambda       -0.1903460E-02
   maximum displ.:     0.0590984 α      in ANC's #50, #3, #41, ...

........................................................................
.............................. CYCLE   22 ..............................
........................................................................

 iter      E             dE          RMSdq      gap      omega  full diag
   1    -94.8841059 -0.948841E+02  0.650E-02    6.95       0.0  T
   2    -94.8841071 -0.113457E-05  0.527E-02    6.95       1.0  T
   3    -94.8841090 -0.189604E-05  0.362E-02    6.95       1.0  T
   4    -94.8841104 -0.138534E-05  0.115E-02    6.95       1.2  T
   5    -94.8841105 -0.136262E-06  0.564E-03    6.95       2.4  T
   6    -94.8841106 -0.663908E-07  0.170E-03    6.95       7.9  T
   7    -94.8841106 -0.809244E-08  0.480E-04    6.95      28.1  T
   8    -94.8841106 -0.767969E-09  0.234E-04    6.95      57.7  T
     SCC iter.                  ...        0 min,  0.016 sec
     gradient                   ...        0 min,  0.007 sec
 * total energy  :   -94.3068848 Eh     change       -0.1350854E-02 Eh
   gradient norm :     0.0122818 Eh/α   predicted    -0.9881003E-03 ( -26.85%)
   displ. norm   :     0.3002556 α      lambda       -0.1037663E-02
   maximum displ.:     0.0934974 α      in ANC's #3, #32, #11, ...

........................................................................
.............................. CYCLE   23 ..............................
........................................................................

 iter      E             dE          RMSdq      gap      omega  full diag
   1    -94.8887526 -0.948888E+02  0.764E-02    6.96       0.0  T
   2    -94.8887531 -0.526544E-06  0.644E-02    6.96       1.0  T
   3    -94.8887560 -0.282885E-05  0.461E-02    6.96       1.0  T
   4    -94.8887586 -0.261734E-05  0.776E-03    6.96       1.7  T
   5    -94.8887587 -0.111578E-06  0.289E-03    6.96       4.7  T
   6    -94.8887587 -0.146465E-07  0.207E-03    6.96       6.5  T
   7    -94.8887587 -0.119871E-07  0.606E-04    6.96      22.2  T
   8    -94.8887587 -0.145357E-08  0.281E-04    6.96      48.0  T
     SCC iter.                  ...        0 min,  0.015 sec
     gradient                   ...        0 min,  0.007 sec
 * total energy  :   -94.3076244 Eh     change       -0.7396055E-03 Eh
   gradient norm :     0.0107722 Eh/α   predicted    -0.5656788E-03 ( -23.52%)
   displ. norm   :     0.4067604 α      lambda       -0.8417005E-03
   maximum displ.:     0.1464796 α      in ANC's #3, #11, #4, ...

........................................................................
.............................. CYCLE   24 ..............................
........................................................................

 iter      E             dE          RMSdq      gap      omega  full diag
   1    -94.8877839 -0.948878E+02  0.902E-02    6.94       0.0  T
   2    -94.8877829  0.997140E-06  0.816E-02    6.94       1.0  T
   3    -94.8877889 -0.601888E-05  0.511E-02    6.94       1.0  T
   4    -94.8877917 -0.283128E-05  0.920E-03    6.95       1.5  T
   5    -94.8877919 -0.129249E-06  0.448E-03    6.95       3.0  T
   6    -94.8877919 -0.377663E-07  0.198E-03    6.95       6.8  T
   7    -94.8877919 -0.152044E-07  0.702E-04    6.95      19.2  T
   8    -94.8877919 -0.197589E-08  0.348E-04    6.95      38.8  T
     SCC iter.                  ...        0 min,  0.014 sec
     gradient                   ...        0 min,  0.007 sec
 * total energy  :   -94.3083003 Eh     change       -0.6758468E-03 Eh
   gradient norm :     0.0174903 Eh/α   predicted    -0.4904861E-03 ( -27.43%)
   displ. norm   :     0.5532734 α      lambda       -0.1115672E-02
   maximum displ.:     0.2168492 α      in ANC's #3, #11, #13, ...

........................................................................
.............................. CYCLE   25 ..............................
........................................................................

 iter      E             dE          RMSdq      gap      omega  full diag
   1    -94.8848503 -0.948849E+02  0.107E-01    6.92       0.0  T
   2    -94.8848475  0.278217E-05  0.101E-01    6.92       1.0  T
   3    -94.8848582 -0.106863E-04  0.576E-02    6.92       1.0  T
   4    -94.8848615 -0.333030E-05  0.142E-02    6.92       1.0  T
   5    -94.8848617 -0.216037E-06  0.956E-03    6.92       1.4  T
   6    -94.8848619 -0.159709E-06  0.199E-03    6.92       6.8  T
   7    -94.8848619 -0.210881E-07  0.727E-04    6.92      18.5  T
   8    -94.8848619 -0.285634E-08  0.303E-04    6.92      44.5  T
     SCC iter.                  ...        0 min,  0.016 sec
     gradient                   ...        0 min,  0.007 sec
 * total energy  :   -94.3091133 Eh     change       -0.8129758E-03 Eh
   gradient norm :     0.0216822 Eh/α   predicted    -0.7286143E-03 ( -10.38%)
   displ. norm   :     0.4743630 α      lambda       -0.1191220E-02
   maximum displ.:     0.1986990 α      in ANC's #3, #11, #4, ...

........................................................................
.............................. CYCLE   26 ..............................
........................................................................

 iter      E             dE          RMSdq      gap      omega  full diag
   1    -94.8884834 -0.948885E+02  0.768E-02    6.91       0.0  T
   2    -94.8884796  0.376354E-05  0.836E-02    6.91       1.0  T
   3    -94.8884900 -0.103668E-04  0.335E-02    6.91       1.0  T
   4    -94.8884909 -0.898730E-06  0.181E-02    6.91       1.0  T
   5    -94.8884913 -0.446009E-06  0.738E-03    6.91       1.8  T
   6    -94.8884914 -0.100439E-06  0.166E-03    6.91       8.1  T
   7    -94.8884914 -0.126347E-07  0.623E-04    6.91      21.7  T
   8    -94.8884914 -0.164464E-08  0.263E-04    6.91      51.2  T
     SCC iter.                  ...        0 min,  0.017 sec
     gradient                   ...        0 min,  0.008 sec
 * total energy  :   -94.3100253 Eh     change       -0.9119918E-03 Eh
   gradient norm :     0.0119723 Eh/α   predicted    -0.7296341E-03 ( -20.00%)
   displ. norm   :     0.6331829 α      lambda       -0.1385457E-02
   maximum displ.:     0.2848764 α      in ANC's #3, #11, #4, ...

........................................................................
.............................. CYCLE   27 ..............................
........................................................................

 iter      E             dE          RMSdq      gap      omega  full diag
   1    -94.8929245 -0.948929E+02  0.935E-02    6.91       0.0  T
   2    -94.8929185  0.600672E-05  0.998E-02    6.92       1.0  T
   3    -94.8929327 -0.142565E-04  0.410E-02    6.92       1.0  T
   4    -94.8929338 -0.103666E-05  0.228E-02    6.92       1.0  T
   5    -94.8929345 -0.753013E-06  0.804E-03    6.92       1.7  T
   6    -94.8929346 -0.109454E-06  0.190E-03    6.92       7.1  T
   7    -94.8929346 -0.115649E-07  0.605E-04    6.92      22.3  T
   8    -94.8929346 -0.147115E-08  0.245E-04    6.92      55.1  T
     SCC iter.                  ...        0 min,  0.014 sec
     gradient                   ...        0 min,  0.007 sec
 * total energy  :   -94.3110303 Eh     change       -0.1005028E-02 Eh
   gradient norm :     0.0179687 Eh/α   predicted    -0.9705153E-03 (  -3.43%)
   displ. norm   :     0.7579992 α      lambda       -0.1634329E-02
   maximum displ.:     0.3040108 α      in ANC's #3, #11, #4, ...

........................................................................
.............................. CYCLE   28 ..............................
........................................................................

 iter      E             dE          RMSdq      gap      omega  full diag
   1    -94.8871950 -0.948872E+02  0.983E-02    6.87       0.0  T
   2    -94.8871974 -0.241090E-05  0.790E-02    6.88       1.0  T
   3    -94.8872023 -0.486083E-05  0.538E-02    6.88       1.0  T
   4    -94.8872058 -0.349284E-05  0.210E-02    6.88       1.0  T
   5    -94.8872065 -0.737221E-06  0.113E-02    6.88       1.2  T
   6    -94.8872067 -0.191218E-06  0.274E-03    6.88       4.9  T
   7    -94.8872067 -0.259625E-07  0.728E-04    6.88      18.5  T
   8    -94.8872068 -0.270811E-08  0.272E-04    6.88      49.5  T
     SCC iter.                  ...        0 min,  0.017 sec
     gradient                   ...        0 min,  0.006 sec
 * total energy  :   -94.3122574 Eh     change       -0.1227147E-02 Eh
   gradient norm :     0.0219007 Eh/α   predicted    -0.1286690E-02 (   4.85%)
   displ. norm   :     0.6383646 α      lambda       -0.2543340E-02
   maximum displ.:     0.2065652 α      in ANC's #4, #11, #3, ...

........................................................................
.............................. CYCLE   29 ..............................
........................................................................

 iter      E             dE          RMSdq      gap      omega  full diag
   1    -94.8963072 -0.948963E+02  0.917E-02    6.90       0.0  T
   2    -94.8963145 -0.721762E-05  0.714E-02    6.91       1.0  T
   3    -94.8963168 -0.229766E-05  0.605E-02    6.91       1.0  T
   4    -94.8963223 -0.552016E-05  0.153E-02    6.91       1.0  T
   5    -94.8963226 -0.360324E-06  0.593E-03    6.91       2.3  T
   6    -94.8963227 -0.604545E-07  0.372E-03    6.91       3.6  T
   7    -94.8963227 -0.411468E-07  0.125E-03    6.91      10.8  T
   8    -94.8963227 -0.429517E-08  0.569E-04    6.91      23.7  T
   9    -94.8963227 -0.172595E-08  0.943E-05    6.91     143.0  T
     SCC iter.                  ...        0 min,  0.017 sec
     gradient                   ...        0 min,  0.007 sec
 * total energy  :   -94.3125257 Eh     change       -0.2682825E-03 Eh
   gradient norm :     0.0459453 Eh/α   predicted    -0.1789889E-02 ( 567.17%)
   displ. norm   :     0.4220823 α      lambda       -0.3527727E-02
   maximum displ.:     0.2030542 α      in ANC's #3, #11, #8, ...

........................................................................
.............................. CYCLE   30 ..............................
........................................................................

 iter      E             dE          RMSdq      gap      omega  full diag
   1    -94.8884618 -0.948885E+02  0.986E-02    6.86       0.0  T
   2    -94.8884550  0.681449E-05  0.107E-01    6.86       1.0  T
   3    -94.8884712 -0.161725E-04  0.470E-02    6.86       1.0  T
   4    -94.8884729 -0.173010E-05  0.199E-02    6.86       1.0  T
   5    -94.8884735 -0.590488E-06  0.798E-03    6.86       1.7  T
   6    -94.8884736 -0.977122E-07  0.235E-03    6.86       5.7  T
   7    -94.8884736 -0.187454E-07  0.697E-04    6.86      19.3  T
   8    -94.8884736 -0.219964E-08  0.271E-04    6.86      49.8  T
     SCC iter.                  ...        0 min,  0.013 sec
     gradient                   ...        0 min,  0.008 sec
 * total energy  :   -94.3143036 Eh     change       -0.1777934E-02 Eh
   gradient norm :     0.0319605 Eh/α   predicted    -0.2078101E-02 (  16.88%)
   displ. norm   :     0.4489530 α      lambda       -0.3366404E-02
   maximum displ.:     0.1342283 α      in ANC's #4, #6, #12, ...

........................................................................
.............................. CYCLE   31 ..............................
........................................................................

 iter      E             dE          RMSdq      gap      omega  full diag
   1    -94.8851830 -0.948852E+02  0.115E-01    6.85       0.0  T
   2    -94.8851877 -0.464144E-05  0.997E-02    6.85       1.0  T
   3    -94.8851972 -0.956751E-05  0.643E-02    6.85       1.0  T
   4    -94.8852033 -0.601347E-05  0.218E-02    6.85       1.0  T
   5    -94.8852040 -0.717549E-06  0.133E-02    6.85       1.0  T
   6    -94.8852043 -0.280173E-06  0.382E-03    6.85       3.5  T
   7    -94.8852043 -0.661095E-07  0.131E-03    6.85      10.3  T
   8    -94.8852043 -0.840552E-08  0.544E-04    6.85      24.8  T
   9    -94.8852043 -0.219615E-08  0.133E-04    6.85     101.1  T
     SCC iter.                  ...        0 min,  0.021 sec
     gradient                   ...        0 min,  0.007 sec
 * total energy  :   -94.3130291 Eh     change        0.1274569E-02 Eh
   gradient norm :     0.0603075 Eh/α   predicted    -0.2022471E-02 (-258.68%)
   displ. norm   :     0.2815618 α      lambda       -0.5448239E-02
   maximum displ.:     0.0811190 α      in ANC's #3, #36, #11, ...

........................................................................
.............................. CYCLE   32 ..............................
........................................................................

 iter      E             dE          RMSdq      gap      omega  full diag
   1    -94.8910578 -0.948911E+02  0.823E-02    6.86       0.0  T
   2    -94.8910639 -0.611204E-05  0.543E-02    6.86       1.0  T
   3    -94.8910614  0.255670E-05  0.647E-02    6.86       1.0  T
   4    -94.8910688 -0.745275E-05  0.796E-03    6.86       1.7  T
   5    -94.8910690 -0.136606E-06  0.613E-03    6.86       2.2  T
   6    -94.8910691 -0.875472E-07  0.314E-03    6.86       4.3  T
   7    -94.8910691 -0.349816E-07  0.871E-04    6.86      15.5  T
   8    -94.8910691 -0.635958E-08  0.178E-04    6.86      75.9  T
     SCC iter.                  ...        0 min,  0.017 sec
     gradient                   ...        0 min,  0.007 sec
 * total energy  :   -94.3156447 Eh     change       -0.2615663E-02 Eh
   gradient norm :     0.0269973 Eh/α   predicted    -0.2940080E-02 (  12.40%)
   displ. norm   :     0.4519320 α      lambda       -0.3941774E-02
   maximum displ.:     0.1418225 α      in ANC's #3, #9, #53, ...

........................................................................
.............................. CYCLE   33 ..............................
........................................................................

 iter      E             dE          RMSdq      gap      omega  full diag
   1    -94.8859440 -0.948859E+02  0.132E-01    6.80       0.0  T
   2    -94.8859608 -0.168208E-04  0.795E-02    6.80       1.0  T
   3    -94.8859669 -0.606308E-05  0.413E-02    6.80       1.0  T
   4    -94.8859690 -0.214948E-05  0.262E-02    6.80       1.0  T
   5    -94.8859700 -0.983161E-06  0.600E-03    6.80       2.2  T
   6    -94.8859701 -0.894404E-07  0.506E-03    6.80       2.7  T
   7    -94.8859701 -0.465678E-07  0.150E-03    6.80       9.0  T
   8    -94.8859702 -0.106917E-07  0.351E-04    6.80      38.5  T
   9    -94.8859702 -0.513680E-09  0.143E-04    6.80      94.3  T
     SCC iter.                  ...        0 min,  0.016 sec
     gradient                   ...        0 min,  0.007 sec
 * total energy  :   -94.3124288 Eh     change        0.3215891E-02 Eh
   gradient norm :     0.0801129 Eh/α   predicted    -0.2373425E-02 (-173.80%)
   displ. norm   :     0.2607617 α      lambda       -0.8596647E-02
   maximum displ.:     0.0997971 α      in ANC's #54, #4, #53, ...

........................................................................
.............................. CYCLE   34 ..............................
........................................................................

 iter      E             dE          RMSdq      gap      omega  full diag
   1    -94.8896574 -0.948897E+02  0.924E-02    6.86       0.0  T
   2    -94.8896646 -0.721481E-05  0.573E-02    6.86       1.0  T
   3    -94.8896626  0.197379E-05  0.628E-02    6.86       1.0  T
   4    -94.8896692 -0.656452E-05  0.864E-03    6.86       1.6  T
   5    -94.8896693 -0.149293E-06  0.404E-03    6.86       3.3  T
   6    -94.8896694 -0.561949E-07  0.192E-03    6.86       7.0  T
   7    -94.8896694 -0.642069E-08  0.990E-04    6.86      13.6  T
   8    -94.8896694 -0.404147E-08  0.296E-04    6.86      45.5  T
     SCC iter.                  ...        0 min,  0.014 sec
     gradient                   ...        0 min,  0.007 sec
 * total energy  :   -94.3169800 Eh     change       -0.4551174E-02 Eh
   gradient norm :     0.0221938 Eh/α   predicted    -0.4590605E-02 (   0.87%)
   displ. norm   :     0.4365821 α      lambda       -0.1704283E-02
   maximum displ.:     0.1424563 α      in ANC's #3, #12, #6, ...

........................................................................
.............................. CYCLE   35 ..............................
........................................................................

 iter      E             dE          RMSdq      gap      omega  full diag
   1    -94.8933261 -0.948933E+02  0.740E-02    6.85       0.0  T
   2    -94.8933323 -0.615720E-05  0.632E-02    6.85       1.0  T
   3    -94.8933368 -0.450785E-05  0.396E-02    6.85       1.0  T
   4    -94.8933399 -0.307377E-05  0.123E-02    6.86       1.1  T
   5    -94.8933402 -0.293822E-06  0.860E-03    6.86       1.6  T
   6    -94.8933403 -0.122486E-06  0.342E-03    6.86       3.9  T
   7    -94.8933403 -0.456839E-07  0.988E-04    6.86      13.6  T
   8    -94.8933403 -0.453039E-08  0.485E-04    6.86      27.8  T
     SCC iter.                  ...        0 min,  0.016 sec
     gradient                   ...        0 min,  0.007 sec
 * total energy  :   -94.3172595 Eh     change       -0.2795169E-03 Eh
   gradient norm :     0.0303105 Eh/α   predicted    -0.1014566E-02 ( 262.97%)
   displ. norm   :     0.4266807 α      lambda       -0.2148020E-02
   maximum displ.:     0.1562797 α      in ANC's #4, #3, #6, ...

........................................................................
.............................. CYCLE   36 ..............................
........................................................................

 iter      E             dE          RMSdq      gap      omega  full diag
   1    -94.8822888 -0.948823E+02  0.767E-02    6.81       0.0  T
   2    -94.8822936 -0.480690E-05  0.628E-02    6.81       1.0  T
   3    -94.8822961 -0.251974E-05  0.451E-02    6.81       1.0  T
   4    -94.8822984 -0.227561E-05  0.153E-02    6.82       1.0  T
   5    -94.8822987 -0.345572E-06  0.709E-03    6.82       1.9  T
   6    -94.8822989 -0.110567E-06  0.266E-03    6.82       5.1  T
   7    -94.8822989 -0.296202E-07  0.881E-04    6.82      15.3  T
   8    -94.8822989 -0.318227E-08  0.370E-04    6.82      36.4  T
     SCC iter.                  ...        0 min,  0.016 sec
     gradient                   ...        0 min,  0.007 sec
 * total energy  :   -94.3181265 Eh     change       -0.8669852E-03 Eh
   gradient norm :     0.0329376 Eh/α   predicted    -0.1269542E-02 (  46.43%)
   displ. norm   :     0.5002403 α      lambda       -0.3276770E-02
   maximum displ.:     0.1657512 α      in ANC's #11, #41, #49, ...

........................................................................
.............................. CYCLE   37 ..............................
........................................................................

 iter      E             dE          RMSdq      gap      omega  full diag
   1    -94.8985887 -0.948986E+02  0.140E-01    6.90       0.0  T
   2    -94.8986208 -0.321058E-04  0.130E-01    6.90       1.0  T
   3    -94.8986434 -0.226314E-04  0.625E-02    6.90       1.0  T
   4    -94.8986532 -0.976684E-05  0.247E-02    6.89       1.0  T
   5    -94.8986547 -0.149777E-05  0.899E-03    6.89       1.5  T
   6    -94.8986549 -0.216741E-06  0.102E-02    6.89       1.3  T
   7    -94.8986551 -0.209611E-06  0.227E-03    6.89       5.9  T
   8    -94.8986551 -0.259146E-07  0.822E-04    6.89      16.4  T
   9    -94.8986551 -0.410819E-08  0.262E-04    6.89      51.4  T
     SCC iter.                  ...        0 min,  0.020 sec
     gradient                   ...        0 min,  0.008 sec
 * total energy  :   -94.3167667 Eh     change        0.1359871E-02 Eh
   gradient norm :     0.0560781 Eh/α   predicted    -0.2048380E-02 (-250.63%)
   displ. norm   :     0.2102509 α      lambda       -0.4006045E-02
   maximum displ.:     0.0630848 α      in ANC's #49, #9, #13, ...

........................................................................
.............................. CYCLE   38 ..............................
........................................................................

 iter      E             dE          RMSdq      gap      omega  full diag
   1    -94.8942263 -0.948942E+02  0.770E-02    6.85       0.0  T
   2    -94.8942351 -0.879519E-05  0.647E-02    6.85       1.0  T
   3    -94.8942398 -0.473834E-05  0.422E-02    6.85       1.0  T
   4    -94.8942439 -0.405826E-05  0.141E-02    6.86       1.0  T
   5    -94.8942442 -0.332825E-06  0.111E-02    6.86       1.2  T
   6    -94.8942444 -0.212707E-06  0.328E-03    6.86       4.1  T
   7    -94.8942445 -0.519861E-07  0.119E-03    6.86      11.4  T
   8    -94.8942445 -0.741419E-08  0.443E-04    6.86      30.4  T
   9    -94.8942445 -0.118581E-08  0.130E-04    6.86     103.6  T
     SCC iter.                  ...        0 min,  0.016 sec
     gradient                   ...        0 min,  0.007 sec
 * total energy  :   -94.3190066 Eh     change       -0.2239944E-02 Eh
   gradient norm :     0.0195597 Eh/α   predicted    -0.2091573E-02 (  -6.62%)
   displ. norm   :     0.5176840 α      lambda       -0.1937410E-02
   maximum displ.:     0.1811005 α      in ANC's #3, #13, #4, ...

........................................................................
.............................. CYCLE   39 ..............................
........................................................................

 iter      E             dE          RMSdq      gap      omega  full diag
   1    -94.8804922 -0.948805E+02  0.137E-01    6.82       0.0  T
   2    -94.8805272 -0.349724E-04  0.117E-01    6.83       1.0  T
   3    -94.8805423 -0.151536E-04  0.758E-02    6.83       1.0  T
   4    -94.8805523 -0.100141E-04  0.302E-02    6.83       1.0  T
   5    -94.8805537 -0.132271E-05  0.154E-02    6.83       1.0  T
   6    -94.8805542 -0.589449E-06  0.584E-03    6.83       2.3  T
   7    -94.8805544 -0.119077E-06  0.184E-03    6.83       7.3  T
   8    -94.8805544 -0.162662E-07  0.450E-04    6.83      29.9  T
   9    -94.8805544 -0.101805E-08  0.183E-04    6.83      73.7  T
     SCC iter.                  ...        0 min,  0.018 sec
     gradient                   ...        0 min,  0.007 sec
 * total energy  :   -94.3173534 Eh     change        0.1653166E-02 Eh
   gradient norm :     0.0534086 Eh/α   predicted    -0.1228317E-02 (-174.30%)
   displ. norm   :     0.2331969 α      lambda       -0.5348125E-02
   maximum displ.:     0.0952950 α      in ANC's #31, #30, #32, ...

........................................................................
.............................. CYCLE   40 ..............................
........................................................................

 iter      E             dE          RMSdq      gap      omega  full diag
   1    -94.8904480 -0.948904E+02  0.118E-01    6.85       0.0  T
   2    -94.8904599 -0.118465E-04  0.974E-02    6.85       1.0  T
   3    -94.8904687 -0.885093E-05  0.647E-02    6.85       1.0  T
   4    -94.8904759 -0.719328E-05  0.140E-02    6.85       1.0  T
   5    -94.8904762 -0.275656E-06  0.121E-02    6.85       1.1  T
   6    -94.8904765 -0.296801E-06  0.345E-03    6.85       3.9  T
   7    -94.8904766 -0.471188E-07  0.127E-03    6.85      10.6  T
   8    -94.8904766 -0.875387E-08  0.352E-04    6.85      38.3  T
   9    -94.8904766 -0.648527E-09  0.119E-04    6.85     113.7  T
     SCC iter.                  ...        0 min,  0.017 sec
     gradient                   ...        0 min,  0.007 sec
 * total energy  :   -94.3194088 Eh     change       -0.2055355E-02 Eh
   gradient norm :     0.0191934 Eh/α   predicted    -0.2819483E-02 (  37.18%)
   displ. norm   :     0.5817143 α      lambda       -0.2267805E-02
   maximum displ.:     0.2567074 α      in ANC's #11, #3, #8, ...

........................................................................
.............................. CYCLE   41 ..............................
........................................................................

 iter      E             dE          RMSdq      gap      omega  full diag
   1    -94.8954626 -0.948955E+02  0.107E-01    6.86       0.0  T
   2    -94.8955013 -0.386702E-04  0.667E-02    6.85       1.0  T
   3    -94.8955072 -0.594846E-05  0.498E-02    6.85       1.0  T
   4    -94.8955107 -0.353250E-05  0.281E-02    6.85       1.0  T
   5    -94.8955120 -0.125754E-05  0.725E-03    6.85       1.9  T
   6    -94.8955121 -0.152944E-06  0.861E-03    6.85       1.6  T
   7    -94.8955123 -0.124816E-06  0.155E-03    6.85       8.7  T
   8    -94.8955123 -0.796457E-08  0.812E-04    6.85      16.6  T
   9    -94.8955123 -0.355931E-08  0.183E-04    6.85      73.7  T
     SCC iter.                  ...        0 min,  0.022 sec
     gradient                   ...        0 min,  0.008 sec
 * total energy  :   -94.3188493 Eh     change        0.5595152E-03 Eh
   gradient norm :     0.0296746 Eh/α   predicted    -0.1517606E-02 (-371.24%)
   displ. norm   :     0.2822627 α      lambda       -0.2006178E-02
   maximum displ.:     0.1362806 α      in ANC's #3, #4, #13, ...

........................................................................
.............................. CYCLE   42 ..............................
........................................................................

 iter      E             dE          RMSdq      gap      omega  full diag
   1    -94.8936103 -0.948936E+02  0.535E-02    6.84       0.0  T
   2    -94.8936168 -0.652467E-05  0.339E-02    6.85       1.0  T
   3    -94.8936176 -0.743679E-06  0.314E-02    6.85       1.0  T
   4    -94.8936188 -0.125850E-05  0.107E-02    6.85       1.3  T
   5    -94.8936190 -0.167321E-06  0.419E-03    6.85       3.2  T
   6    -94.8936190 -0.311711E-07  0.377E-03    6.85       3.6  T
   7    -94.8936191 -0.317977E-07  0.745E-04    6.85      18.1  T
   8    -94.8936191 -0.222020E-08  0.254E-04    6.85      53.1  T
     SCC iter.                  ...        0 min,  0.023 sec
     gradient                   ...        0 min,  0.007 sec
 * total energy  :   -94.3200797 Eh     change       -0.1230450E-02 Eh
   gradient norm :     0.0130225 Eh/α   predicted    -0.1083007E-02 ( -11.98%)
   displ. norm   :     0.4322469 α      lambda       -0.1018903E-02
   maximum displ.:     0.1664446 α      in ANC's #3, #6, #4, ...
 * RMSD in coord.:     0.8163771 α      energy gain  -0.1440314E-01 Eh

generating ANC from model Hessian ...
Using Lindh-Hessian (1995)
 Shifting diagonal of input Hessian by    1.0083269594840150E-002
 Lowest  eigenvalues of input Hessian
    0.010000    0.010022    0.000000    0.000000    0.000000    0.000000
    0.000000    0.000000    0.010111    0.010134    0.010210    0.010290
    0.010393    0.010418    0.010509    0.010760    0.010798    0.010822
 Highest eigenvalues
    1.434153    1.435328    1.437835    1.439373    1.441245    1.441951


........................................................................
.............................. CYCLE   43 ..............................
........................................................................

 iter      E             dE          RMSdq      gap      omega  full diag
   1    -94.8905009 -0.948905E+02  0.666E-02    6.84       0.0  T
   2    -94.8905157 -0.148268E-04  0.614E-02    6.84       1.0  T
   3    -94.8905203 -0.453297E-05  0.363E-02    6.85       1.0  T
   4    -94.8905227 -0.245324E-05  0.123E-02    6.85       1.1  T
   5    -94.8905229 -0.190957E-06  0.445E-03    6.85       3.0  T
   6    -94.8905230 -0.800328E-07  0.395E-03    6.85       3.4  T
   7    -94.8905230 -0.283963E-07  0.894E-04    6.85      15.1  T
   8    -94.8905230 -0.256011E-08  0.400E-04    6.85      33.7  T
     SCC iter.                  ...        0 min,  0.015 sec
     gradient                   ...        0 min,  0.007 sec
 * total energy  :   -94.3204466 Eh     change       -0.3669004E-03 Eh
   gradient norm :     0.0166810 Eh/α   predicted     0.0000000E+00 (-100.00%)
   displ. norm   :     0.2188462 α      lambda       -0.1261732E-02
   maximum displ.:     0.0496362 α      in ANC's #57, #45, #74, ...

........................................................................
.............................. CYCLE   44 ..............................
........................................................................

 iter      E             dE          RMSdq      gap      omega  full diag
   1    -94.8932366 -0.948932E+02  0.539E-02    6.85       0.0  T
   2    -94.8932372 -0.611292E-06  0.418E-02    6.85       1.0  T
   3    -94.8932380 -0.771659E-06  0.305E-02    6.85       1.0  T
   4    -94.8932389 -0.914031E-06  0.834E-03    6.85       1.6  T
   5    -94.8932390 -0.772047E-07  0.287E-03    6.85       4.7  T
   6    -94.8932390 -0.120344E-07  0.172E-03    6.85       7.8  T
   7    -94.8932390 -0.709474E-08  0.357E-04    6.85      37.7  T
   8    -94.8932390 -0.577899E-09  0.170E-04    6.85      79.3  T
     SCC iter.                  ...        0 min,  0.014 sec
     gradient                   ...        0 min,  0.007 sec
 * total energy  :   -94.3213378 Eh     change       -0.8911955E-03 Eh
   gradient norm :     0.0071714 Eh/α   predicted    -0.6610892E-03 ( -25.82%)
   displ. norm   :     0.2855775 α      lambda       -0.7980743E-03
   maximum displ.:     0.0732265 α      in ANC's #4, #35, #57, ...

........................................................................
.............................. CYCLE   45 ..............................
........................................................................

 iter      E             dE          RMSdq      gap      omega  full diag
   1    -94.8935257 -0.948935E+02  0.774E-02    6.84       0.0  T
   2    -94.8935236  0.201505E-05  0.826E-02    6.84       1.0  T
   3    -94.8935310 -0.738689E-05  0.352E-02    6.84       1.0  T
   4    -94.8935317 -0.686882E-06  0.179E-02    6.84       1.0  T
   5    -94.8935319 -0.194066E-06  0.979E-03    6.84       1.4  T
   6    -94.8935321 -0.189716E-06  0.143E-03    6.84       9.5  T
   7    -94.8935321 -0.973280E-08  0.605E-04    6.84      22.3  T
   8    -94.8935321 -0.133481E-08  0.285E-04    6.84      47.4  T
     SCC iter.                  ...        0 min,  0.016 sec
     gradient                   ...        0 min,  0.007 sec
 * total energy  :   -94.3218871 Eh     change       -0.5492560E-03 Eh
   gradient norm :     0.0088447 Eh/α   predicted    -0.4316628E-03 ( -21.41%)
   displ. norm   :     0.2800634 α      lambda       -0.4908349E-03
   maximum displ.:     0.0809815 α      in ANC's #4, #5, #12, ...

........................................................................
.............................. CYCLE   46 ..............................
........................................................................

 iter      E             dE          RMSdq      gap      omega  full diag
   1    -94.8933984 -0.948934E+02  0.635E-02    6.83       0.0  T
   2    -94.8933987 -0.216659E-06  0.630E-02    6.84       1.0  T
   3    -94.8934028 -0.412089E-05  0.300E-02    6.84       1.0  T
   4    -94.8934035 -0.702528E-06  0.952E-03    6.84       1.4  T
   5    -94.8934036 -0.759044E-07  0.606E-03    6.84       2.2  T
   6    -94.8934036 -0.691755E-07  0.150E-03    6.84       9.0  T
   7    -94.8934036 -0.104135E-07  0.565E-04    6.84      23.8  T
   8    -94.8934036 -0.936438E-09  0.295E-04    6.84      45.6  T
     SCC iter.                  ...        0 min,  0.016 sec
     gradient                   ...        0 min,  0.007 sec
 * total energy  :   -94.3222526 Eh     change       -0.3655238E-03 Eh
   gradient norm :     0.0095231 Eh/α   predicted    -0.2646732E-03 ( -27.59%)
   displ. norm   :     0.3192399 α      lambda       -0.4724622E-03
   maximum displ.:     0.1070271 α      in ANC's #4, #12, #5, ...

........................................................................
.............................. CYCLE   47 ..............................
........................................................................

 iter      E             dE          RMSdq      gap      omega  full diag
   1    -94.8953569 -0.948954E+02  0.590E-02    6.85       0.0  T
   2    -94.8953593 -0.239243E-05  0.511E-02    6.85       1.0  T
   3    -94.8953616 -0.227562E-05  0.310E-02    6.85       1.0  T
   4    -94.8953626 -0.102298E-05  0.806E-03    6.85       1.7  T
   5    -94.8953627 -0.109744E-06  0.400E-03    6.85       3.4  T
   6    -94.8953628 -0.297216E-07  0.228E-03    6.85       5.9  T
   7    -94.8953628 -0.139533E-07  0.544E-04    6.85      24.8  T
   8    -94.8953628 -0.655120E-09  0.299E-04    6.85      45.0  T
     SCC iter.                  ...        0 min,  0.014 sec
     gradient                   ...        0 min,  0.008 sec
 * total energy  :   -94.3225871 Eh     change       -0.3345189E-03 Eh
   gradient norm :     0.0057852 Eh/α   predicted    -0.2603111E-03 ( -22.18%)
   displ. norm   :     0.3420273 α      lambda       -0.3091265E-03
   maximum displ.:     0.1273309 α      in ANC's #4, #12, #5, ...

........................................................................
.............................. CYCLE   48 ..............................
........................................................................

 iter      E             dE          RMSdq      gap      omega  full diag
   1    -94.8951349 -0.948951E+02  0.603E-02    6.85       0.0  T
   2    -94.8951377 -0.273543E-05  0.530E-02    6.85       1.0  T
   3    -94.8951401 -0.238475E-05  0.315E-02    6.85       1.0  T
   4    -94.8951411 -0.100290E-05  0.799E-03    6.85       1.7  T
   5    -94.8951412 -0.124904E-06  0.229E-03    6.85       5.9  T
   6    -94.8951412 -0.169323E-07  0.249E-03    6.85       5.4  T
   7    -94.8951412 -0.120958E-07  0.490E-04    6.85      27.5  T
   8    -94.8951412 -0.737884E-09  0.205E-04    6.85      65.9  T
     SCC iter.                  ...        0 min,  0.017 sec
     gradient                   ...        0 min,  0.008 sec
 * total energy  :   -94.3227965 Eh     change       -0.2094155E-03 Eh
   gradient norm :     0.0080216 Eh/α   predicted    -0.1726556E-03 ( -17.55%)
   displ. norm   :     0.3078119 α      lambda       -0.2868473E-03
   maximum displ.:     0.1183579 α      in ANC's #4, #5, #12, ...

........................................................................
.............................. CYCLE   49 ..............................
........................................................................

 iter      E             dE          RMSdq      gap      omega  full diag
   1    -94.8982432 -0.948982E+02  0.478E-02    6.86       0.0  T
   2    -94.8982467 -0.344691E-05  0.367E-02    6.86       1.0  T
   3    -94.8982477 -0.986223E-06  0.258E-02    6.86       1.0  T
   4    -94.8982485 -0.796560E-06  0.122E-02    6.87       1.1  T
   5    -94.8982487 -0.224609E-06  0.511E-03    6.87       2.6  T
   6    -94.8982487 -0.421707E-07  0.206E-03    6.87       6.5  T
   7    -94.8982488 -0.163441E-07  0.516E-04    6.87      26.1  T
   8    -94.8982488 -0.846214E-09  0.289E-04    6.87      46.7  T
     SCC iter.                  ...        0 min,  0.016 sec
     gradient                   ...        0 min,  0.008 sec
 * total energy  :   -94.3229386 Eh     change       -0.1420887E-03 Eh
   gradient norm :     0.0057446 Eh/α   predicted    -0.1570189E-03 (  10.51%)
   displ. norm   :     0.2415048 α      lambda       -0.1633726E-03
   maximum displ.:     0.0986265 α      in ANC's #4, #5, #12, ...

........................................................................
.............................. CYCLE   50 ..............................
........................................................................

 iter      E             dE          RMSdq      gap      omega  full diag
   1    -94.8960466 -0.948960E+02  0.437E-02    6.85       0.0  T
   2    -94.8960480 -0.138603E-05  0.325E-02    6.85       1.0  T
   3    -94.8960485 -0.416589E-06  0.251E-02    6.85       1.0  T
   4    -94.8960491 -0.669336E-06  0.109E-02    6.86       1.2  T
   5    -94.8960493 -0.194127E-06  0.418E-03    6.86       3.2  T
   6    -94.8960493 -0.260687E-07  0.118E-03    6.86      11.4  T
   7    -94.8960493 -0.674702E-08  0.478E-04    6.86      28.2  T
   8    -94.8960493 -0.519492E-09  0.218E-04    6.86      61.8  T
     SCC iter.                  ...        0 min,  0.014 sec
     gradient                   ...        0 min,  0.007 sec
 * total energy  :   -94.3230090 Eh     change       -0.7037774E-04 Eh
   gradient norm :     0.0068330 Eh/α   predicted    -0.8645173E-04 (  22.84%)
   displ. norm   :     0.0922382 α      lambda       -0.1206181E-03
   maximum displ.:     0.0279096 α      in ANC's #17, #5, #4, ...

........................................................................
.............................. CYCLE   51 ..............................
........................................................................

 iter      E             dE          RMSdq      gap      omega  full diag
   1    -94.8974322 -0.948974E+02  0.180E-02    6.85       0.0  T
   2    -94.8974323 -0.143068E-06  0.165E-02    6.85       1.0  T
   3    -94.8974326 -0.270024E-06  0.986E-03    6.85       1.4  T
   4    -94.8974327 -0.116863E-06  0.395E-03    6.85       3.4  T
   5    -94.8974327 -0.215515E-07  0.856E-04    6.85      15.8  T
   6    -94.8974327 -0.151327E-08  0.706E-04    6.85      19.1  T
     SCC iter.                  ...        0 min,  0.014 sec
     gradient                   ...        0 min,  0.008 sec
 * total energy  :   -94.3230760 Eh     change       -0.6702807E-04 Eh
   gradient norm :     0.0061927 Eh/α   predicted    -0.6083884E-04 (  -9.23%)
   displ. norm   :     0.1553073 α      lambda       -0.1479614E-03
   maximum displ.:     0.0533218 α      in ANC's #17, #5, #4, ...

........................................................................
.............................. CYCLE   52 ..............................
........................................................................

 iter      E             dE          RMSdq      gap      omega  full diag
   1    -94.8973930 -0.948974E+02  0.286E-02    6.84       0.0  T
   2    -94.8973940 -0.991660E-06  0.199E-02    6.85       1.0  T
   3    -94.8973942 -0.116003E-06  0.178E-02    6.85       1.0  T
   4    -94.8973945 -0.378659E-06  0.726E-03    6.85       1.9  T
   5    -94.8973946 -0.669694E-07  0.193E-03    6.85       7.0  T
   6    -94.8973946 -0.550430E-08  0.152E-03    6.85       8.9  T
   7    -94.8973946 -0.559881E-08  0.429E-04    6.85      31.4  T
   8    -94.8973946 -0.459238E-09  0.177E-04    6.85      76.2  T
     SCC iter.                  ...        0 min,  0.015 sec
     gradient                   ...        0 min,  0.008 sec
 * total energy  :   -94.3231087 Eh     change       -0.3268709E-04 Eh
   gradient norm :     0.0064400 Eh/α   predicted    -0.7577664E-04 ( 131.82%)
   displ. norm   :     0.0853434 α      lambda       -0.1035509E-03
   maximum displ.:     0.0358731 α      in ANC's #4, #5, #3, ...

........................................................................
.............................. CYCLE   53 ..............................
........................................................................

[...]
H13-O2-H12=105.61              H16-O3-Fe1=114.67              H17-O3-Fe1=108.22              H17-O3-H16=106.09              
H15-O4-H14=107.76              H19-O5-H18=105.46              H9-O6-H8=106.66                H11-O7-H10=104.78              

 selected dihedral angles (degree)
 ---------------------------------


 CMA Distance (Angstroems)
 ---------------------------
R(CMA):  0.6870
           -------------------------------------------------
          |                Final Singlepoint                |
           -------------------------------------------------

          ...................................................
          :                      SETUP                      :
          :.................................................:
          :  # basis functions                 118          :
          :  # atomic orbitals                 117          :
          :  # shells                           75          :
          :  # electrons                       150          :
          :  max. iterations                   250          :
          :  Hamiltonian                  GFN2-xTB          :
          :  restarted?                      false          :
          :  GBSA solvation                   true          :
          :  PC potential                    false          :
          :  electronic temp.          300.0000000     K    :
          :  accuracy                    1.0000000          :
          :  -> integral cutoff          0.2500000E+02      :
          :  -> integral neglect         0.1000000E-07      :
          :  -> SCF convergence          0.1000000E-05 Eh   :
          :  -> wf. convergence          0.1000000E-03 e    :
          :  Broyden damping             0.4000000          :
          ...................................................

 iter      E             dE          RMSdq      gap      omega  full diag
   1    -94.9196718 -0.949197E+02  0.120E-04    7.08       0.0  T
   2    -94.9196718 -0.491696E-11  0.107E-04    7.08     126.4  T
   3    -94.9196718 -0.139693E-10  0.542E-05    7.08     248.7  T

   *** convergence criteria satisfied after 3 iterations ***

         #    Occupation            Energy/Eh            Energy/eV
      -------------------------------------------------------------
         1        2.0000           -0.6570425             -17.8790
       ...           ...                  ...                  ...
        71        2.0000           -0.4086906             -11.1210
        72        2.0000           -0.4061605             -11.0522
        73        1.7133           -0.3231097              -8.7923
        74        1.2765           -0.3213301              -8.7438
        75        1.0077           -0.3176285              -8.6431
        76        1.0025           -0.3165624              -8.6141
        77        1.0000           -0.3107573              -8.4561 (HOMO)
        78                         -0.0505237              -1.3748 (LUMO)
        79                          0.0149247               0.4061
        80                          0.0260594               0.7091
        81                          0.0356178               0.9692
        82                          0.0839073               2.2832
       ...                                ...                  ...
       117                          1.0313256              28.0638
      -------------------------------------------------------------
                  HL-Gap            0.2602336 Eh            7.0813 eV
             Fermi-level           -0.2514422 Eh           -6.8421 eV

 SCC (total)                   0 d,  0 h,  0 min,  0.017 sec
 SCC setup                      ...        0 min,  0.000 sec (  3.013%)
 Dispersion                     ...        0 min,  0.000 sec (  1.310%)
 classical contributions        ...        0 min,  0.000 sec (  0.597%)
 integral evaluation            ...        0 min,  0.001 sec (  8.350%)
 iterations                     ...        0 min,  0.006 sec ( 36.932%)
 molecular gradient             ...        0 min,  0.008 sec ( 48.040%)
 printout                       ...        0 min,  0.000 sec (  1.684%)

         :::::::::::::::::::::::::::::::::::::::::::::::::::::
         ::                     SUMMARY                     ::
         :::::::::::::::::::::::::::::::::::::::::::::::::::::
         :: total energy             -94.345743213983 Eh    ::
         :: total w/o Gsasa/hb       -94.265034192260 Eh    ::
         :: gradient norm              0.000051597817 Eh/a0 ::
         :: HOMO-LUMO gap              7.081317569623 eV    ::
         ::.................................................::
         :: SCC energy               -94.919671832086 Eh    ::
         :: -> isotropic ES            0.686647496943 Eh    ::
         :: -> anisotropic ES         -0.100572117748 Eh    ::
         :: -> anisotropic XC         -0.005731921395 Eh    ::
         :: -> dispersion             -0.042764207539 Eh    ::
         :: -> Gsolv                  -0.364523612880 Eh    ::
         ::    -> Gelec               -0.283814591157 Eh    ::
         ::    -> Gsasa                0.004293711419 Eh    ::
         ::    -> Ghb                 -0.086083492840 Eh    ::
         ::    -> Gshift               0.001080759698 Eh    ::
         :: repulsion energy           0.571893202339 Eh    ::
         :: add. restraining           0.000000000000 Eh    ::
         :: total charge               2.000000000000 e     ::
         :::::::::::::::::::::::::::::::::::::::::::::::::::::

           -------------------------------------------------
          |                Property Printout                |
           -------------------------------------------------

    * Orbital Energies and Occupations

         #    Occupation            Energy/Eh            Energy/eV
      -------------------------------------------------------------
         1        2.0000           -0.6570425             -17.8790
       ...           ...                  ...                  ...
        65        2.0000           -0.4156943             -11.3116
        66        2.0000           -0.4142850             -11.2733
        67        2.0000           -0.4134437             -11.2504
        68        2.0000           -0.4116613             -11.2019
        69        2.0000           -0.4112137             -11.1897
        70        2.0000           -0.4091219             -11.1328
        71        2.0000           -0.4086906             -11.1210
        72        2.0000           -0.4061605             -11.0522
        73        1.7133           -0.3231097              -8.7923
        74        1.2765           -0.3213301              -8.7438
        75        1.0077           -0.3176285              -8.6431
        76        1.0025           -0.3165624              -8.6141
        77        1.0000           -0.3107573              -8.4561 (HOMO)
        78                         -0.0505237              -1.3748 (LUMO)
        79                          0.0149247               0.4061
        80                          0.0260594               0.7091
        81                          0.0356178               0.9692
        82                          0.0839073               2.2832
        83                          0.1107353               3.0133
        84                          0.1175711               3.1993
        85                          0.1244987               3.3878
        86                          0.1406105               3.8262
        87                          0.1525675               4.1516
        88                          0.1709118               4.6507
       ...                                ...                  ...
       117                          1.0313256              28.0638
      -------------------------------------------------------------
                  HL-Gap            0.2602336 Eh            7.0813 eV
             Fermi-level           -0.2514422 Eh           -6.8421 eV

     #   Z          covCN         q      C6AA      α(0)
     1  26 Fe       0.614     1.143   405.466    58.327
     2   8 O        1.674    -0.626    25.787     6.856
     3   8 O        1.725    -0.628    25.823     6.861
     4   8 O        1.708    -0.627    25.801     6.858
     5   8 O        1.677    -0.626    25.769     6.853
     6   8 O        1.718    -0.607    25.312     6.793
     7   8 O        1.689    -0.626    25.770     6.854
     8   1 H        0.804     0.350     0.589     1.206
     9   1 H        0.806     0.343     0.605     1.221
    10   1 H        0.804     0.349     0.590     1.207
    11   1 H        0.804     0.349     0.590     1.206
    12   1 H        0.803     0.362     0.562     1.177
    13   1 H        0.806     0.352     0.583     1.199
    14   1 H        0.804     0.354     0.579     1.195
    15   1 H        0.805     0.350     0.587     1.204
    16   1 H        0.805     0.359     0.568     1.184
    17   1 H        0.803     0.366     0.553     1.168
    18   1 H        0.804     0.356     0.575     1.191
    19   1 H        0.805     0.348     0.593     1.210
    20   8 O        1.607    -0.683    27.271     7.048
    21   8 O        1.609    -0.674    27.021     7.016
    22   8 O        1.609    -0.679    27.154     7.033
    23   8 O        1.667    -0.616    25.549     6.824
    24   8 O        1.609    -0.693    27.528     7.081
    25   8 O        1.609    -0.682    27.233     7.043
    26   8 O        1.610    -0.674    27.026     7.016
    27   8 O        1.608    -0.678    27.140     7.031
    28   8 O        1.609    -0.681    27.202     7.039
    29   8 O        1.627    -0.632    25.962     6.877
    30   8 O        1.609    -0.677    27.102     7.026
    31   8 O        1.608    -0.690    27.446     7.071
    32   1 H        0.804     0.355     0.577     1.194
    33   1 H        0.806     0.338     0.618     1.234
    34   1 H        0.805     0.336     0.623     1.240
    35   1 H        0.802     0.370     0.545     1.159
    36   1 H        0.805     0.343     0.605     1.222
    37   1 H        0.803     0.355     0.578     1.194
    38   1 H        0.805     0.361     0.564     1.179
    39   1 H        0.805     0.353     0.582     1.198
    40   1 H        0.806     0.339     0.614     1.231
    41   1 H        0.803     0.365     0.555     1.170
    42   1 H        0.804     0.360     0.566     1.182
    43   1 H        0.805     0.356     0.574     1.190
    44   1 H        0.806     0.342     0.608     1.225
    45   1 H        0.802     0.366     0.553     1.168
    46   1 H        0.806     0.337     0.618     1.235
    47   1 H        0.803     0.356     0.574     1.191
    48   1 H        0.806     0.342     0.606     1.223
    49   1 H        0.803     0.366     0.553     1.168
    50   1 H        0.804     0.344     0.601     1.218
    51   1 H        0.804     0.350     0.589     1.205
    52   1 H        0.806     0.337     0.620     1.236
    53   1 H        0.804     0.355     0.577     1.193
    54   1 H        0.806     0.341     0.610     1.226
    55   1 H        0.803     0.354     0.578     1.195

 Mol. C6AA /au·bohr⁶  :      18795.558199
 Mol. C8AA /au·bohr⁸  :     464045.116147
 Mol. α(0) /au        :        226.751345


Wiberg/Mayer (AO) data.
largest (>0.10) Wiberg bond orders for each atom

 ---------------------------------------------------------------------------
     #   Z sym  total        # sym  WBO       # sym  WBO       # sym  WBO
 ---------------------------------------------------------------------------
     1  26 Fe   1.393 --     3 O    0.191     7 O    0.187     6 O    0.186
                             4 O    0.183     5 O    0.159    23 O    0.158
                             2 O    0.153    29 O    0.112
     2   8 O    1.932 --    13 H    0.869    12 H    0.808     1 Fe   0.153
     3   8 O    1.960 --    16 H    0.830    17 H    0.800     1 Fe   0.191
     4   8 O    1.933 --    15 H    0.837    14 H    0.831     1 Fe   0.183
     5   8 O    1.912 --    19 H    0.870    18 H    0.829     1 Fe   0.159
     6   8 O    1.935 --     9 H    0.877     8 H    0.830     1 Fe   0.186
     7   8 O    1.924 --    10 H    0.836    11 H    0.831     1 Fe   0.187
     8   1 H    0.876 --     6 O    0.830
     9   1 H    0.881 --     6 O    0.877
    10   1 H    0.877 --     7 O    0.836
    11   1 H    0.877 --     7 O    0.831
    12   1 H    0.869 --     2 O    0.808
    13   1 H    0.875 --     2 O    0.869
    14   1 H    0.873 --     4 O    0.831
    15   1 H    0.876 --     4 O    0.837
    16   1 H    0.870 --     3 O    0.830
    17   1 H    0.865 --     3 O    0.800
    18   1 H    0.873 --     5 O    0.829
    19   1 H    0.878 --     5 O    0.870
    20   8 O    1.843 --    34 H    0.862    35 H    0.802
    21   8 O    1.829 --    54 H    0.877    55 H    0.826
    22   8 O    1.829 --    40 H    0.875    41 H    0.817
    23   8 O    1.952 --    43 H    0.864    42 H    0.816     1 Fe   0.158
    24   8 O    1.796 --    36 H    0.879    37 H    0.833
    25   8 O    1.805 --    33 H    0.879    32 H    0.834
    26   8 O    1.812 --    52 H    0.881    53 H    0.846
    27   8 O    1.840 --    50 H    0.842    51 H    0.839
    28   8 O    1.828 --    48 H    0.873    49 H    0.821
    29   8 O    1.899 --    39 H    0.854    38 H    0.845     1 Fe   0.112
    30   8 O    1.826 --    46 H    0.878    47 H    0.824
    31   8 O    1.818 --    44 H    0.873    45 H    0.810
    32   1 H    0.874 --    25 O    0.834
    33   1 H    0.886 --    25 O    0.879
    34   1 H    0.887 --    20 O    0.862
    35   1 H    0.863 --    20 O    0.802
    36   1 H    0.882 --    24 O    0.879
    37   1 H    0.874 --    24 O    0.833
    38   1 H    0.870 --    29 O    0.845
    39   1 H    0.875 --    29 O    0.854
    40   1 H    0.885 --    22 O    0.875
    41   1 H    0.867 --    22 O    0.817
    42   1 H    0.870 --    23 O    0.816
    43   1 H    0.873 --    23 O    0.864
    44   1 H    0.883 --    31 O    0.873
    45   1 H    0.866 --    31 O    0.810
    46   1 H    0.886 --    30 O    0.878
    47   1 H    0.873 --    30 O    0.824
    48   1 H    0.883 --    28 O    0.873
    49   1 H    0.866 --    28 O    0.821
    50   1 H    0.881 --    27 O    0.842
    51   1 H    0.878 --    27 O    0.839
    52   1 H    0.886 --    26 O    0.881
    53   1 H    0.874 --    26 O    0.846
    54   1 H    0.884 --    21 O    0.877
    55   1 H    0.874 --    21 O    0.826
 ---------------------------------------------------------------------------

Topologies differ in total number of bonds
Writing topology from bond orders to xtbtopo.mol

molecular dipole:
                 x           y           z       tot (Debye)
 q only:        0.563      -0.564      -1.296
   full:        1.057      -0.721      -1.165       4.400
molecular quadrupole (traceless):
                xx          xy          yy          xz          yz          zz
 q only:       -2.009       2.957      14.190       4.358      -1.779     -12.181
  q+dip:       -2.485       3.369      18.836       4.911      -2.318     -16.351
   full:       -2.476       2.875      19.173       5.126      -2.271     -16.697

           -------------------------------------------------
          |                Geometry Summary                 |
           -------------------------------------------------

      molecular mass/u    :      380.1203000
   center of mass at/Å    :       -0.0596511       0.0000666      -0.0987766
  moments of inertia/u·Å² :        0.2237077E+04   0.2639244E+04   0.3053939E+04
rotational constants/cm⁻¹ :        0.7535562E-02   0.6387295E-02   0.5519963E-02

 * 36 selected distances

     #   Z          #   Z                                           value/Å
     6   8 O        8   1 H                                       0.9720845
     6   8 O        9   1 H                                       0.9563453 (min)
     7   8 O       10   1 H                                       0.9692675
     7   8 O       11   1 H                                       0.9702064
     2   8 O       12   1 H                                       0.9781174
     2   8 O       13   1 H                                       0.9585882
     4   8 O       14   1 H                                       0.9702167
     4   8 O       15   1 H                                       0.9658398
     3   8 O       16   1 H                                       0.9674041
     3   8 O       17   1 H                                       0.9789757
     5   8 O       18   1 H                                       0.9719453
     5   8 O       19   1 H                                       0.9595514
    25   8 O       32   1 H                                       0.9751669
    25   8 O       33   1 H                                       0.9574935
    20   8 O       34   1 H                                       0.9636644
    20   8 O       35   1 H                                       0.9834747
    24   8 O       36   1 H                                       0.9588613
    24   8 O       37   1 H                                       0.9759241
    29   8 O       38   1 H                                       0.9667228
    29   8 O       39   1 H                                       0.9617882
    22   8 O       40   1 H                                       0.9575901
    22   8 O       41   1 H                                       0.9785603
    23   8 O       42   1 H                                       0.9750879
    23   8 O       43   1 H                                       0.9613749
    31   8 O       44   1 H                                       0.9575878
    31   8 O       45   1 H                                       0.9835913 (max)
    30   8 O       46   1 H                                       0.9575695
    30   8 O       47   1 H                                       0.9794723
    28   8 O       48   1 H                                       0.9577117
    28   8 O       49   1 H                                       0.9785226
    27   8 O       50   1 H                                       0.9701906
    27   8 O       51   1 H                                       0.9729976
    26   8 O       52   1 H                                       0.9578249
    26   8 O       53   1 H                                       0.9717496
    21   8 O       54   1 H                                       0.9578679
    21   8 O       55   1 H                                       0.9767953

 * 1 distinct bonds (by element types)

   Z      Z             #   av. dist./Å        max./Å        min./Å
   1 H    8 O          36     0.9682259     0.9835913     0.9563453


optimized geometry written to: xtbopt.xyz


           -------------------------------------------------
          | TOTAL ENERGY              -94.345743213983 Eh   |
          | GRADIENT NORM               0.000051597817 Eh/α |
          | HOMO-LUMO GAP               7.081317569623 eV   |
           -------------------------------------------------
########################################################################
[WARNING] Runtime exception occurred
-2- restart_readRestart: Multiplicity missmatch in restart file.
-1- restart_readRestart: Number of electron missmatch in restart file.
########################################################################

------------------------------------------------------------------------
 * finished run on 2024/05/10 at 17:52:53.206     
------------------------------------------------------------------------
 total:
 * wall-time:     0 d,  0 h,  0 min,  6.457 sec
 *  cpu-time:     0 d,  0 h,  0 min, 48.960 sec
 * ratio c/w:     7.582 speedup
 SCF:
 * wall-time:     0 d,  0 h,  0 min,  0.048 sec
 *  cpu-time:     0 d,  0 h,  0 min,  0.322 sec
 * ratio c/w:     6.655 speedup
 ANC optimizer:
 * wall-time:     0 d,  0 h,  0 min,  6.156 sec
 *  cpu-time:     0 d,  0 h,  0 min, 47.634 sec
 * ratio c/w:     7.738 speedup

