      -----------------------------------------------------------      
     |                   =====================                   |     
     |                           x T B                           |     
     |                   =====================                   |     
     |                         S. Grimme                         |     
     |          Mulliken Center for Theoretical Chemistry        |     
     |                    University of Bonn                     |     
      -----------------------------------------------------------      

   * xtb version 6.6.0 (conda-forge) compiled by 'runner@Mac-1676020848589.local' on 2023-02-10

   xtb is free software: you can redistribute it and/or modify it under
   the terms of the GNU Lesser General Public License as published by
   the Free Software Foundation, either version 3 of the License, or
   (at your option) any later version.
   
   xtb is distributed in the hope that it will be useful,
   but WITHOUT ANY WARRANTY; without even the implied warranty of
   MERCHANTABILITY or FITNESS FOR A PARTICULAR PURPOSE.  See the
   GNU Lesser General Public License for more details.
   
   Cite this work as:
   * C. Bannwarth, E. Caldeweyher, S. Ehlert, A. Hansen, P. Pracht,
     J. Seibert, S. Spicher, S. Grimme, WIREs Comput. Mol. Sci., 2020, 11,
     e01493. DOI: 10.1002/wcms.1493
   
   for GFN2-xTB:
   * C. Bannwarth, S. Ehlert and S. Grimme., J. Chem. Theory Comput., 2019,
     15, 1652-1671. DOI: 10.1021/acs.jctc.8b01176
   for GFN1-xTB:
   * S. Grimme, C. Bannwarth, P. Shushkov, J. Chem. Theory Comput., 2017,
     13, 1989-2009. DOI: 10.1021/acs.jctc.7b00118
   for GFN0-xTB:
   * P. Pracht, E. Caldeweyher, S. Ehlert, S. Grimme, ChemRxiv, 2019, preprint.
     DOI: 10.26434/chemrxiv.8326202.v1
   for GFN-FF:
   * S. Spicher and S. Grimme, Angew. Chem. Int. Ed., 2020, 59, 15665-15673.
     DOI: 10.1002/anie.202004239
   
   for ALPB and GBSA implicit solvation:
   * S. Ehlert, M. Stahn, S. Spicher, S. Grimme, J. Chem. Theory Comput.,
     2021, 17, 4250-4261. DOI: 10.1021/acs.jctc.1c00471
   
   for DFT-D4:
   * E. Caldeweyher, C. Bannwarth and S. Grimme, J. Chem. Phys., 2017,
     147, 034112. DOI: 10.1063/1.4993215
   * E. Caldeweyher, S. Ehlert, A. Hansen, H. Neugebauer, S. Spicher,
     C. Bannwarth and S. Grimme, J. Chem. Phys., 2019, 150, 154122.
     DOI: 10.1063/1.5090222
   * E. Caldeweyher, J.-M. Mewes, S. Ehlert and S. Grimme, Phys. Chem. Chem. Phys.
     2020, 22, 8499-8512. DOI: 10.1039/D0CP00502A
   
   for sTDA-xTB:
   * S. Grimme and C. Bannwarth, J. Chem. Phys., 2016, 145, 054103.
     DOI: 10.1063/1.4959605
   
   in the mass-spec context:
   * V. Asgeirsson, C. Bauer and S. Grimme, Chem. Sci., 2017, 8, 4879.
     DOI: 10.1039/c7sc00601b
   * J. Koopman and S. Grimme, ACS Omega 2019, 4, 12, 15120-15133.
     DOI: 10.1021/acsomega.9b02011
   
   for metadynamics refer to:
   * S. Grimme, J. Chem. Theory Comput., 2019, 155, 2847-2862
     DOI: 10.1021/acs.jctc.9b00143
   
   for SPH calculations refer to:
   * S. Spicher and S. Grimme, J. Chem. Theory Comput., 2021, 17, 1701-1714
     DOI: 10.1021/acs.jctc.0c01306
   
   with help from (in alphabetical order)
   P. Atkinson, C. Bannwarth, F. Bohle, G. Brandenburg, E. Caldeweyher
   M. Checinski, S. Dohm, S. Ehlert, S. Ehrlich, I. Gerasimov, C. Hölzer
   A. Katbashev, J. Koopman, C. Lavigne, S. Lehtola, F. März, M. Müller,
   F. Musil, H. Neugebauer, J. Pisarek, C. Plett, P. Pracht, F. Pultar,
   J. Seibert, P. Shushkov, S. Spicher, M. Stahn, M. Steiner, T. Strunk,
   J. Stückrath, T. Rose, and J. Unsleber
   
 * started run on 2024/05/10 at 17:52:53.237     

           -------------------------------------------------
          |                Calculation Setup                |
           -------------------------------------------------

          program call               : xtb Fe_18H2O_2_5.xyz --gfn2 --chrg 2 --uhf 5 --hess --alpb water
          coordinate file            : Fe_18H2O_2_5.xyz
          omp threads                :                     8

   ID    Z sym.   atoms
    1   26 Fe     1
    2    8 O      2-7, 20-31
    3    1 H      8-19, 32-55

molecular fragmentation (1/2 indicates fragments):
1212222222222221222222222222222222222222222222222222222
# atoms in fragment 1/2:     3    52
 fragment masses (1/2) :       72.85      307.27
CMA distance (Bohr)    :   0.847
constraining FC (au)   :  0.0500

           -------------------------------------------------
          |                 G F N 2 - x T B                 |
           -------------------------------------------------

        Reference                      10.1021/acs.jctc.8b01176
      * Hamiltonian:
        H0-scaling (s, p, d)           1.850000    2.230000    2.230000
        zeta-weighting                 0.500000
      * Dispersion:
        s8                             2.700000
        a1                             0.520000
        a2                             5.000000
        s9                             5.000000
      * Repulsion:
        kExp                           1.500000    1.000000
        rExp                           1.000000
      * Coulomb:
        alpha                          2.000000
        third order                    shell-resolved
        anisotropic                    true
        a3                             3.000000
        a5                             4.000000
        cn-shift                       1.200000
        cn-exp                         4.000000
        max-rad                        5.000000

      * Solvation model:               ALPB
        Solvent                        water
        Parameter file                 internal GFN2-xTB/ALPB
        Dielectric constant                8.0200E+01
        Reference state                gsolv [1 M gas/solution]
        Free energy shift                  1.0808E-03 Eh       6.7819E-01 kcal/mol
        Temperature                        2.9815E+02 K
        Density                            1.0000E+00 kg/L
        Solvent mass                       1.8000E+01 g/mol
        Interaction kernel             P16
        Born radius scaling (c1)           1.4744E+00
        Born radii integrator          GBOBC
        Born offset                        0.0000E+00 a0       0.0000E+00 AA
        H-bond correction              true
        Ion screening                  false
        Surface tension                    1.0000E-05 Eh       1.5569E+01 dyn/cm
        Grid points                               230 per atom
q/qsh data taken from xtbrestart
CAMM data taken from xtbrestart

          ...................................................
          :                      SETUP                      :
          :.................................................:
          :  # basis functions                 118          :
          :  # atomic orbitals                 117          :
          :  # shells                           75          :
          :  # electrons                       150          :
          :  max. iterations                   250          :
          :  Hamiltonian                  GFN2-xTB          :
          :  restarted?                       true          :
          :  GBSA solvation                   true          :
          :  PC potential                    false          :
          :  electronic temp.          300.0000000     K    :
          :  accuracy                    1.0000000          :
          :  -> integral cutoff          0.2500000E+02      :
          :  -> integral neglect         0.1000000E-07      :
          :  -> SCF convergence          0.1000000E-05 Eh   :
          :  -> wf. convergence          0.1000000E-03 e    :
          :  Broyden damping             0.4000000          :
          ...................................................

 iter      E             dE          RMSdq      gap      omega  full diag
   1    -94.9196718 -0.949197E+02  0.351E-05    7.08       0.0  T
   2    -94.9196718  0.895284E-12  0.414E-05    7.08     326.0  T
   3    -94.9196718 -0.284217E-11  0.143E-05    7.08     944.8  T

   *** convergence criteria satisfied after 3 iterations ***

         #    Occupation            Energy/Eh            Energy/eV
      -------------------------------------------------------------
         1        2.0000           -0.6570426             -17.8790
       ...           ...                  ...                  ...
        71        2.0000           -0.4086907             -11.1210
        72        2.0000           -0.4061605             -11.0522
        73        1.7133           -0.3231097              -8.7923
        74        1.2765           -0.3213301              -8.7438
        75        1.0077           -0.3176285              -8.6431
        76        1.0025           -0.3165624              -8.6141
        77        1.0000           -0.3107573              -8.4561 (HOMO)
        78                         -0.0505237              -1.3748 (LUMO)
        79                          0.0149247               0.4061
        80                          0.0260594               0.7091
        81                          0.0356178               0.9692
        82                          0.0839073               2.2832
       ...                                ...                  ...
       117                          1.0313257              28.0638
      -------------------------------------------------------------
                  HL-Gap            0.2602336 Eh            7.0813 eV
             Fermi-level           -0.2514422 Eh           -6.8421 eV

 SCC (total)                   0 d,  0 h,  0 min,  0.029 sec
 SCC setup                      ...        0 min,  0.001 sec (  5.084%)
 Dispersion                     ...        0 min,  0.000 sec (  1.649%)
 classical contributions        ...        0 min,  0.000 sec (  0.303%)
 integral evaluation            ...        0 min,  0.002 sec (  6.916%)
 iterations                     ...        0 min,  0.018 sec ( 59.736%)
 molecular gradient             ...        0 min,  0.008 sec ( 25.609%)
 printout                       ...        0 min,  0.000 sec (  0.647%)

         :::::::::::::::::::::::::::::::::::::::::::::::::::::
         ::                     SUMMARY                     ::
         :::::::::::::::::::::::::::::::::::::::::::::::::::::
         :: total energy             -94.345743213987 Eh    ::
         :: total w/o Gsasa/hb       -94.265034183840 Eh    ::
         :: gradient norm              0.000051600945 Eh/a0 ::
         :: HOMO-LUMO gap              7.081316472913 eV    ::
         ::.................................................::
         :: SCC energy               -94.919671832089 Eh    ::
         :: -> isotropic ES            0.686647475855 Eh    ::
         :: -> anisotropic ES         -0.100572124165 Eh    ::
         :: -> anisotropic XC         -0.005731923458 Eh    ::
         :: -> dispersion             -0.042764208096 Eh    ::
         :: -> Gsolv                  -0.364523676259 Eh    ::
         ::    -> Gelec               -0.283814646113 Eh    ::
         ::    -> Gsasa                0.004293711419 Eh    ::
         ::    -> Ghb                 -0.086083501264 Eh    ::
         ::    -> Gshift               0.001080759698 Eh    ::
         :: repulsion energy           0.571893202339 Eh    ::
         :: add. restraining           0.000000000000 Eh    ::
         :: total charge               2.000000000000 e     ::
         :::::::::::::::::::::::::::::::::::::::::::::::::::::

           ------------------------------------------------- 
          |                Numerical Hessian                |
           ------------------------------------------------- 
step length          :   0.00500
SCC accuracy         :   0.30000
Hessian scale factor :   1.00000
frozen atoms in %    :   0.00000    0
RMS gradient         :   0.00005
estimated CPU  time      2.65 min
estimated wall time      0.34 min

writing file <hessian>.

 projected vibrational frequencies (cm⁻¹)
eigval :       -0.00    -0.00    -0.00    -0.00     0.00     0.00
eigval :       33.94    41.94    44.42    50.47    52.93    58.66
eigval :       61.48    63.24    67.68    70.14    74.67    76.14
eigval :       83.57    84.37    87.18    92.99   104.26   114.58
eigval :      116.60   121.00   126.77   132.84   137.99   151.75
eigval :      154.49   155.75   164.21   173.55   178.41   184.94
eigval :      190.23   195.67   199.27   203.18   211.05   217.35
eigval :      222.31   226.50   237.14   240.03   240.97   244.89
eigval :      249.29   255.08   257.21   260.17   266.59   269.15
eigval :      273.00   277.49   282.97   288.66   292.94   300.39
eigval :      301.59   306.49   312.13   323.04   334.09   338.81
eigval :      348.86   357.93   370.56   379.11   380.00   390.69
eigval :      405.00   408.76   414.14   424.77   435.09   445.85
eigval :      450.13   458.14   466.61   469.79   490.40   496.96
eigval :      509.98   518.31   531.50   539.32   554.77   556.87
eigval :      579.18   585.93   592.01   604.02   606.32   619.89
eigval :      629.20   633.04   646.67   659.99   673.12   689.72
eigval :      704.51   718.79   741.95   757.19   764.85   772.01
eigval :      796.22   803.93   866.80  1462.05  1463.59  1466.35
eigval :     1468.99  1471.66  1476.20  1477.19  1477.90  1480.04
eigval :     1482.48  1483.10  1484.59  1489.03  1497.08  1505.59
eigval :     1509.92  1513.96  1530.23  3143.48  3151.99  3208.95
eigval :     3221.62  3226.42  3272.72  3274.63  3281.19  3297.45
eigval :     3312.57  3336.63  3358.57  3359.80  3368.22  3378.24
eigval :     3383.72  3409.18  3431.54  3450.81  3457.83  3465.99
eigval :     3489.54  3552.65  3578.14  3595.23  3628.91  3640.13
eigval :     3652.33  3659.69  3660.21  3662.14  3663.92  3664.71
eigval :     3667.29  3668.38  3681.59
           -------------------------------------------------
          |                Property Printout                |
           -------------------------------------------------

    * Orbital Energies and Occupations

         #    Occupation            Energy/Eh            Energy/eV
      -------------------------------------------------------------
         1        2.0000           -0.6570425             -17.8790
       ...           ...                  ...                  ...
        65        2.0000           -0.4156942             -11.3116
        66        2.0000           -0.4142849             -11.2733
        67        2.0000           -0.4134438             -11.2504
        68        2.0000           -0.4116611             -11.2019
        69        2.0000           -0.4112138             -11.1897
        70        2.0000           -0.4091220             -11.1328
        71        2.0000           -0.4086907             -11.1210
        72        2.0000           -0.4061604             -11.0522
        73        1.7133           -0.3231097              -8.7923
        74        1.2765           -0.3213301              -8.7438
        75        1.0077           -0.3176285              -8.6431
        76        1.0025           -0.3165623              -8.6141
        77        1.0000           -0.3107572              -8.4561 (HOMO)
        78                         -0.0505237              -1.3748 (LUMO)
        79                          0.0149247               0.4061
        80                          0.0260594               0.7091
        81                          0.0356178               0.9692
        82                          0.0839073               2.2832
        83                          0.1107354               3.0133
        84                          0.1175711               3.1993
        85                          0.1244987               3.3878
        86                          0.1406106               3.8262
        87                          0.1525676               4.1516
        88                          0.1709117               4.6507
       ...                                ...                  ...
       117                          1.0313257              28.0638
      -------------------------------------------------------------
                  HL-Gap            0.2602336 Eh            7.0813 eV
             Fermi-level           -0.2514422 Eh           -6.8421 eV

     #   Z          covCN         q      C6AA      α(0)
     1  26 Fe       0.614     1.143   405.466    58.327
     2   8 O        1.674    -0.626    25.787     6.856
     3   8 O        1.725    -0.628    25.823     6.861
     4   8 O        1.708    -0.627    25.801     6.858
     5   8 O        1.677    -0.626    25.769     6.853
     6   8 O        1.718    -0.607    25.312     6.793
     7   8 O        1.689    -0.626    25.770     6.854
     8   1 H        0.804     0.350     0.589     1.206
     9   1 H        0.806     0.343     0.605     1.221
    10   1 H        0.804     0.349     0.590     1.207
    11   1 H        0.804     0.349     0.590     1.206
    12   1 H        0.803     0.362     0.562     1.177
    13   1 H        0.806     0.352     0.583     1.199
    14   1 H        0.804     0.354     0.579     1.195
    15   1 H        0.805     0.350     0.587     1.204
    16   1 H        0.805     0.359     0.568     1.184
    17   1 H        0.803     0.366     0.553     1.168
    18   1 H        0.804     0.356     0.575     1.191
    19   1 H        0.805     0.348     0.593     1.210
    20   8 O        1.607    -0.683    27.271     7.048
    21   8 O        1.609    -0.674    27.021     7.016
    22   8 O        1.609    -0.679    27.154     7.033
    23   8 O        1.667    -0.616    25.549     6.824
    24   8 O        1.609    -0.693    27.528     7.081
    25   8 O        1.609    -0.682    27.233     7.043
    26   8 O        1.610    -0.674    27.026     7.016
    27   8 O        1.608    -0.678    27.140     7.031
    28   8 O        1.609    -0.681    27.202     7.039
    29   8 O        1.627    -0.632    25.962     6.877
    30   8 O        1.609    -0.677    27.102     7.026
    31   8 O        1.608    -0.690    27.446     7.071
    32   1 H        0.804     0.355     0.577     1.194
    33   1 H        0.806     0.338     0.618     1.234
    34   1 H        0.805     0.336     0.623     1.240
    35   1 H        0.802     0.370     0.545     1.159
    36   1 H        0.805     0.343     0.605     1.222
    37   1 H        0.803     0.355     0.578     1.194
    38   1 H        0.805     0.361     0.564     1.179
    39   1 H        0.805     0.353     0.582     1.198
    40   1 H        0.806     0.339     0.614     1.231
    41   1 H        0.803     0.365     0.555     1.170
    42   1 H        0.804     0.360     0.566     1.182
    43   1 H        0.805     0.356     0.574     1.190
    44   1 H        0.806     0.342     0.608     1.225
    45   1 H        0.802     0.366     0.553     1.168
    46   1 H        0.806     0.337     0.618     1.235
    47   1 H        0.803     0.356     0.574     1.191
    48   1 H        0.806     0.342     0.606     1.223
    49   1 H        0.803     0.366     0.553     1.168
    50   1 H        0.804     0.344     0.601     1.218
    51   1 H        0.804     0.350     0.589     1.205
    52   1 H        0.806     0.337     0.620     1.236
    53   1 H        0.804     0.355     0.577     1.193
    54   1 H        0.806     0.341     0.610     1.226
    55   1 H        0.803     0.354     0.578     1.195

 Mol. C6AA /au·bohr⁶  :      18795.558766
 Mol. C8AA /au·bohr⁸  :     464045.120804
 Mol. α(0) /au        :        226.751346


Wiberg/Mayer (AO) data.
largest (>0.10) Wiberg bond orders for each atom

 ---------------------------------------------------------------------------
     #   Z sym  total        # sym  WBO       # sym  WBO       # sym  WBO
 ---------------------------------------------------------------------------
     1  26 Fe   1.393 --     3 O    0.191     7 O    0.187     6 O    0.186
                             4 O    0.183     5 O    0.159    23 O    0.158
                             2 O    0.153    29 O    0.112
     2   8 O    1.932 --    13 H    0.869    12 H    0.808     1 Fe   0.153
     3   8 O    1.960 --    16 H    0.830    17 H    0.800     1 Fe   0.191
     4   8 O    1.933 --    15 H    0.837    14 H    0.831     1 Fe   0.183
     5   8 O    1.912 --    19 H    0.870    18 H    0.829     1 Fe   0.159
     6   8 O    1.935 --     9 H    0.877     8 H    0.830     1 Fe   0.186
     7   8 O    1.924 --    10 H    0.836    11 H    0.831     1 Fe   0.187
     8   1 H    0.876 --     6 O    0.830
     9   1 H    0.881 --     6 O    0.877
    10   1 H    0.877 --     7 O    0.836
    11   1 H    0.877 --     7 O    0.831
    12   1 H    0.869 --     2 O    0.808
    13   1 H    0.875 --     2 O    0.869
    14   1 H    0.873 --     4 O    0.831
    15   1 H    0.876 --     4 O    0.837
    16   1 H    0.870 --     3 O    0.830
    17   1 H    0.865 --     3 O    0.800
    18   1 H    0.873 --     5 O    0.829
    19   1 H    0.878 --     5 O    0.870
    20   8 O    1.843 --    34 H    0.862    35 H    0.802
    21   8 O    1.829 --    54 H    0.877    55 H    0.826
    22   8 O    1.829 --    40 H    0.875    41 H    0.817
    23   8 O    1.952 --    43 H    0.864    42 H    0.816     1 Fe   0.158
    24   8 O    1.796 --    36 H    0.879    37 H    0.833
    25   8 O    1.805 --    33 H    0.879    32 H    0.834
    26   8 O    1.812 --    52 H    0.881    53 H    0.846
    27   8 O    1.840 --    50 H    0.842    51 H    0.839
    28   8 O    1.828 --    48 H    0.873    49 H    0.821
    29   8 O    1.899 --    39 H    0.854    38 H    0.845     1 Fe   0.112
    30   8 O    1.826 --    46 H    0.878    47 H    0.824
    31   8 O    1.818 --    44 H    0.873    45 H    0.810
    32   1 H    0.874 --    25 O    0.834
    33   1 H    0.886 --    25 O    0.879
    34   1 H    0.887 --    20 O    0.862
    35   1 H    0.863 --    20 O    0.802
    36   1 H    0.882 --    24 O    0.879
    37   1 H    0.874 --    24 O    0.833
    38   1 H    0.870 --    29 O    0.845
    39   1 H    0.875 --    29 O    0.854
    40   1 H    0.885 --    22 O    0.875
    41   1 H    0.867 --    22 O    0.817
    42   1 H    0.870 --    23 O    0.816
    43   1 H    0.873 --    23 O    0.864
    44   1 H    0.883 --    31 O    0.873
    45   1 H    0.866 --    31 O    0.810
    46   1 H    0.886 --    30 O    0.878
    47   1 H    0.873 --    30 O    0.824
    48   1 H    0.883 --    28 O    0.873
    49   1 H    0.866 --    28 O    0.821
    50   1 H    0.881 --    27 O    0.842
    51   1 H    0.878 --    27 O    0.839
    52   1 H    0.886 --    26 O    0.881
    53   1 H    0.874 --    26 O    0.846
    54   1 H    0.884 --    21 O    0.877
    55   1 H    0.874 --    21 O    0.826
 ---------------------------------------------------------------------------

Topologies differ in total number of bonds
Writing topology from bond orders to xtbtopo.mol

molecular dipole:
                 x           y           z       tot (Debye)
 q only:        0.563      -0.564      -1.296
   full:        1.057      -0.721      -1.165       4.400
molecular quadrupole (traceless):
                xx          xy          yy          xz          yz          zz
 q only:       -2.009       2.957      14.190       4.358      -1.779     -12.181
  q+dip:       -2.485       3.369      18.836       4.911      -2.318     -16.351
   full:       -2.476       2.875      19.173       5.126      -2.271     -16.697

           -------------------------------------------------
          |               Frequency Printout                |
           -------------------------------------------------
 projected vibrational frequencies (cm⁻¹)
eigval :       -0.00    -0.00    -0.00    -0.00     0.00     0.00
eigval :       33.94    41.94    44.42    50.47    52.93    58.66
eigval :       61.48    63.24    67.68    70.14    74.67    76.14
eigval :       83.57    84.37    87.18    92.99   104.26   114.58
eigval :      116.60   121.00   126.77   132.84   137.99   151.75
eigval :      154.49   155.75   164.21   173.55   178.41   184.94
eigval :      190.23   195.67   199.27   203.18   211.05   217.35
eigval :      222.31   226.50   237.14   240.03   240.97   244.89
eigval :      249.29   255.08   257.21   260.17   266.59   269.15
eigval :      273.00   277.49   282.97   288.66   292.94   300.39
eigval :      301.59   306.49   312.13   323.04   334.09   338.81
eigval :      348.86   357.93   370.56   379.11   380.00   390.69
eigval :      405.00   408.76   414.14   424.77   435.09   445.85
eigval :      450.13   458.14   466.61   469.79   490.40   496.96
eigval :      509.98   518.31   531.50   539.32   554.77   556.87
eigval :      579.18   585.93   592.01   604.02   606.32   619.89
eigval :      629.20   633.04   646.67   659.99   673.12   689.72
eigval :      704.51   718.79   741.95   757.19   764.85   772.01
eigval :      796.22   803.93   866.80  1462.05  1463.59  1466.35
eigval :     1468.99  1471.66  1476.20  1477.19  1477.90  1480.04
eigval :     1482.48  1483.10  1484.59  1489.03  1497.08  1505.59
eigval :     1509.92  1513.96  1530.23  3143.48  3151.99  3208.95
eigval :     3221.62  3226.42  3272.72  3274.63  3281.19  3297.45
eigval :     3312.57  3336.63  3358.57  3359.80  3368.22  3378.24
eigval :     3383.72  3409.18  3431.54  3450.81  3457.83  3465.99
eigval :     3489.54  3552.65  3578.14  3595.23  3628.91  3640.13
eigval :     3652.33  3659.69  3660.21  3662.14  3663.92  3664.71
eigval :     3667.29  3668.38  3681.59
 reduced masses (amu)
   1: 15.75   2: 15.65   3: 18.56   4: 18.38   5: 19.67   6: 16.01   7: 16.24   8: 15.08
   9: 14.34  10: 15.73  11: 15.59  12: 16.61  13: 17.70  14: 14.70  15: 17.17  16: 16.70
  17: 14.45  18: 17.15  19: 17.47  20: 18.30  21: 15.66  22: 20.94  23: 14.39  24: 18.50
  25: 15.37  26: 12.16  27: 14.22  28: 14.52  29: 13.71  30: 14.14  31:  9.98  32: 15.54
  33: 13.46  34: 12.77  35: 14.56  36: 13.99  37: 14.52  38: 13.34  39: 12.28  40: 12.26
  41: 13.57  42: 11.73  43: 12.31  44: 10.57  45: 13.65  46: 13.11  47: 15.76  48: 12.79
  49: 11.47  50:  5.58  51: 11.90  52: 14.64  53: 10.06  54: 10.00  55: 10.93  56: 10.19
  57: 10.16  58: 11.63  59: 13.38  60:  6.83  61: 14.08  62: 14.48  63:  3.97  64: 16.59
  65: 12.30  66: 11.60  67:  3.27  68:  6.55  69:  4.16  70:  2.67  71:  3.89  72:  3.07
  73:  2.42  74:  2.14  75:  2.31  76:  1.96  77:  2.43  78:  2.29  79:  2.08  80:  1.93
  81:  2.09  82:  2.30  83:  2.53  84:  2.24  85:  2.05  86:  2.12  87:  2.99  88:  2.01
  89:  2.33  90:  2.07  91:  3.14  92:  5.41  93:  2.34  94:  3.48  95:  1.74  96:  4.54
  97:  1.74  98:  2.99  99:  1.80 100:  2.01 101:  2.07 102:  1.99 103:  1.99 104:  1.84
 105:  1.86 106:  1.89 107:  1.97 108:  1.92 109:  2.15 110:  2.19 111:  2.54 112:  2.12
 113:  2.10 114:  2.09 115:  2.08 116:  2.09 117:  2.10 118:  2.07 119:  2.08 120:  2.07
 121:  2.07 122:  2.07 123:  2.04 124:  2.07 125:  2.09 126:  2.04 127:  1.97 128:  2.08
 129:  2.00 130:  1.90 131:  1.88 132:  1.95 133:  1.92 134:  1.89 135:  1.88 136:  1.87
 137:  1.89 138:  1.90 139:  1.88 140:  1.88 141:  2.10 142:  1.88 143:  1.89 144:  2.10
 145:  2.04 146:  1.85 147:  1.65 148:  1.61 149:  1.74 150:  1.77 151:  1.86 152:  1.80
 153:  1.76 154:  1.81 155:  1.81 156:  1.82 157:  1.84 158:  1.84 159:  1.84 160:  1.83
 161:  1.83 162:  1.83 163:  1.84 164:  1.82 165:  1.82
 IR intensities (km·mol⁻¹)
   1:  5.13   2:  2.56   3:  9.24   4:  6.48   5:  6.82   6:  1.46   7:  1.68   8:  3.31
   9:  0.79  10:  1.46  11:  1.23  12:  4.80  13:  1.64  14:  1.52  15:  8.01  16:  0.84
  17:  3.28  18:  0.91  19: 17.04  20:  5.74  21:  1.75  22:  4.69  23:  4.78  24:  7.08
  25:  3.47  26:  6.55  27: 55.39  28: 16.97  29:  2.09  30: 18.46  31: 47.53  32: 27.46
  33:  3.16  34: 37.91  35: 14.87  36: 14.70  37: 15.18  38: 21.53  39: 26.05  40: 48.95
  41: 14.41  42: 40.15  43: 74.46  44: 15.13  45:  7.53  46: 23.71  47: 14.69  48: 49.86
  49: 15.61  50:118.54  51: 45.91  52: 16.69  53: 15.68  54: 31.05  55: 96.56  56: 23.68
  57:222.92  58: 95.98  59:101.26  60: 43.48  61: 30.68  62:  6.99  63: 56.93  64: 82.25
  65: 29.82  66: 36.11  67: 83.37  68: 60.04  69: 63.69  70:143.25  71:127.43  72:179.11
  73:119.46  74: 61.38  75:118.55  76:183.25  77:132.59  78:123.23  79:236.75  80: 29.82
  81: 26.35  82: 61.16  83:183.13  84:224.90  85:309.97  86: 52.33  87:245.83  88: 12.52
  89:305.99  90:236.62  91:137.87  92: 38.27  93: 27.88  94:457.27  95: 50.63  96:221.21
  97:457.13  98:215.63  99:179.08 100:225.15 101:871.17 102:364.91 103: 76.52 104: 78.90
 105:655.12 106:647.24 107:328.97 108:170.59 109:602.06 110:389.85 111:295.77 112:202.65
 113:397.28 114:491.49 115:127.61 116:142.53 117:172.14 118:134.48 119: 90.77 120:552.14
 121:135.44 122:482.26 123: 58.51 124:412.86 125:  7.08 126:135.20 127: 59.74 128: 77.90
Molecule has no symmetry elements
It seems to be the C1 point group
 129:155.17 130:****** 131:****** 132:834.49 133:****** 134:607.17 135:333.52 136:877.32
 137:588.68 138:772.90 139:484.11 140:499.50 141:435.87 142:****** 143:426.25 144:460.31
 145:959.97 146:650.33 147:340.97 148:288.27 149:377.40 150:473.06 151: 40.94 152:138.04
 153: 86.34 154: 75.53 155: 89.40 156: 67.64 157: 69.90 158: 64.80 159: 67.98 160: 52.99
 161: 62.67 162: 65.59 163: 51.67 164: 61.22 165: 62.98
 Raman intensities (amu)
   1:  0.00   2:  0.00   3:  0.00   4:  0.00   5:  0.00   6:  0.00   7:  0.00   8:  0.00
   9:  0.00  10:  0.00  11:  0.00  12:  0.00  13:  0.00  14:  0.00  15:  0.00  16:  0.00
  17:  0.00  18:  0.00  19:  0.00  20:  0.00  21:  0.00  22:  0.00  23:  0.00  24:  0.00
  25:  0.00  26:  0.00  27:  0.00  28:  0.00  29:  0.00  30:  0.00  31:  0.00  32:  0.00
  33:  0.00  34:  0.00  35:  0.00  36:  0.00  37:  0.00  38:  0.00  39:  0.00  40:  0.00
  41:  0.00  42:  0.00  43:  0.00  44:  0.00  45:  0.00  46:  0.00  47:  0.00  48:  0.00
  49:  0.00  50:  0.00  51:  0.00  52:  0.00  53:  0.00  54:  0.00  55:  0.00  56:  0.00
  57:  0.00  58:  0.00  59:  0.00  60:  0.00  61:  0.00  62:  0.00  63:  0.00  64:  0.00
  65:  0.00  66:  0.00  67:  0.00  68:  0.00  69:  0.00  70:  0.00  71:  0.00  72:  0.00
  73:  0.00  74:  0.00  75:  0.00  76:  0.00  77:  0.00  78:  0.00  79:  0.00  80:  0.00
  81:  0.00  82:  0.00  83:  0.00  84:  0.00  85:  0.00  86:  0.00  87:  0.00  88:  0.00
  89:  0.00  90:  0.00  91:  0.00  92:  0.00  93:  0.00  94:  0.00  95:  0.00  96:  0.00
  97:  0.00  98:  0.00  99:  0.00 100:  0.00 101:  0.00 102:  0.00 103:  0.00 104:  0.00
 105:  0.00 106:  0.00 107:  0.00 108:  0.00 109:  0.00 110:  0.00 111:  0.00 112:  0.00
 113:  0.00 114:  0.00 115:  0.00 116:  0.00 117:  0.00 118:  0.00 119:  0.00 120:  0.00
 121:  0.00 122:  0.00 123:  0.00 124:  0.00 125:  0.00 126:  0.00 127:  0.00 128:  0.00
 129:  0.00 130:  0.00 131:  0.00 132:  0.00 133:  0.00 134:  0.00 135:  0.00 136:  0.00
 137:  0.00 138:  0.00 139:  0.00 140:  0.00 141:  0.00 142:  0.00 143:  0.00 144:  0.00
 145:  0.00 146:  0.00 147:  0.00 148:  0.00 149:  0.00 150:  0.00 151:  0.00 152:  0.00
 153:  0.00 154:  0.00 155:  0.00 156:  0.00 157:  0.00 158:  0.00 159:  0.00 160:  0.00
 161:  0.00 162:  0.00 163:  0.00 164:  0.00 165:  0.00
 output can be read by thermo (or use thermo option).
 writing <g98.out> molden fake output.
 recommended (thermochemical) frequency scaling factor: 1.0
           -------------------------------------------------
          |             Thermodynamic Functions             |
           -------------------------------------------------

c1  symmetry found (for desy threshold:  0.10E+00) used in thermo

          ...................................................
          :                      SETUP                      :
          :.................................................:
          :  # frequencies                         159      :
          :  # imaginary freq.                       0      :
          :  linear?                             false      :
          :  only rotor calc.                    false      :
          :  symmetry                               c1      :
          :  rotational number                       1      :
          :  scaling factor                  1.0000000      :
          :  rotor cutoff                   50.0000000 cm⁻¹ :
          :  imag. cutoff                  -20.0000000 cm⁻¹ :
          :.................................................:

    mode    ω/cm⁻¹     T·S(HO)/kcal·mol⁻¹    T·S(FR)/kcal·mol⁻¹   T·S(vib)
   ------------------------------------------------------------------------
       1     33.94    -1.66509 ( 17.51%)    -1.17128 ( 82.49%)    -1.25775
       2     41.94    -1.54009 ( 33.10%)    -1.10861 ( 66.90%)    -1.25144
       3     44.42    -1.50611 ( 38.38%)    -1.09156 ( 61.62%)    -1.25068
       4     50.47    -1.43083 ( 50.93%)    -1.05376 ( 49.07%)    -1.24580
       5     52.93    -1.40270 ( 55.68%)    -1.03963 ( 44.32%)    -1.24177
       6     58.66    -1.34223 ( 65.45%)    -1.00922 ( 34.55%)    -1.22716
       7     61.48    -1.31459 ( 69.56%)    -0.99530 ( 30.44%)    -1.21741
       8     63.24    -1.29795 ( 71.91%)    -0.98691 ( 28.09%)    -1.21057
       9     67.68    -1.25811 ( 77.05%)    -0.96683 ( 22.95%)    -1.19126
      10     70.14    -1.23713 ( 79.48%)    -0.95625 ( 20.52%)    -1.17949
      11     74.67    -1.20043 ( 83.26%)    -0.93771 ( 16.74%)    -1.15646
      12     76.14    -1.18905 ( 84.32%)    -0.93196 ( 15.68%)    -1.14873
      13     83.57    -1.13455 ( 88.64%)    -0.90437 ( 11.36%)    -1.10840
      14     84.37    -1.12895 ( 89.02%)    -0.90153 ( 10.98%)    -1.10398
      15     87.18    -1.10985 ( 90.24%)    -0.89184 (  9.76%)    -1.08856
      16     92.99    -1.07221 ( 92.29%)    -0.87273 (  7.71%)    -1.05682
      17    104.26    -1.00567 ( 94.98%)    -0.83883 (  5.02%)    -0.99729
      18    114.58    -0.95102 ( 96.50%)    -0.81087 (  3.50%)    -0.94612
      19    116.60    -0.94096 ( 96.73%)    -0.80571 (  3.27%)    -0.93654
      20    121.00    -0.91958 ( 97.17%)    -0.79472 (  2.83%)    -0.91604
      21    126.77    -0.89279 ( 97.64%)    -0.78092 (  2.36%)    -0.89014
      22    132.84    -0.86596 ( 98.03%)    -0.76706 (  1.97%)    -0.86402
      23    137.99    -0.84424 ( 98.31%)    -0.75581 (  1.69%)    -0.84274
      24    151.75    -0.79016 ( 98.84%)    -0.72765 (  1.16%)    -0.78943
      25    154.49    -0.78000 ( 98.91%)    -0.72234 (  1.09%)    -0.77938
      26    155.75    -0.77542 ( 98.95%)    -0.71994 (  1.05%)    -0.77484
      27    164.21    -0.74558 ( 99.15%)    -0.70426 (  0.85%)    -0.74522
      28    173.55    -0.71456 ( 99.32%)    -0.68788 (  0.68%)    -0.71438
      29    178.41    -0.69917 ( 99.39%)    -0.67971 (  0.61%)    -0.69905
      30    184.94    -0.67918 ( 99.47%)    -0.66906 (  0.53%)    -0.67913
      31    190.23    -0.66356 ( 99.52%)    -0.66070 (  0.48%)    -0.66355
      32    195.67    -0.64801 ( 99.58%)    -0.65235 (  0.42%)    -0.64803
      33    199.27    -0.63799 ( 99.61%)    -0.64695 (  0.39%)    -0.63802
      34    203.18    -0.62733 ( 99.63%)    -0.64119 (  0.37%)    -0.62738
      35    211.05    -0.60660 ( 99.69%)    -0.62993 (  0.31%)    -0.60668
      36    217.35    -0.59064 ( 99.72%)    -0.62121 (  0.28%)    -0.59073
      37    222.31    -0.57847 ( 99.74%)    -0.61454 (  0.26%)    -0.57856
      38    226.50    -0.56842 ( 99.76%)    -0.60900 (  0.24%)    -0.56852
      39    237.14    -0.54388 ( 99.80%)    -0.59540 (  0.20%)    -0.54399
      40    240.03    -0.53747 ( 99.81%)    -0.59182 (  0.19%)    -0.53757
      41    240.97    -0.53538 ( 99.81%)    -0.59065 (  0.19%)    -0.53549
      42    244.89    -0.52684 ( 99.83%)    -0.58587 (  0.17%)    -0.52694
      43    249.29    -0.51747 ( 99.84%)    -0.58060 (  0.16%)    -0.51757
      44    255.08    -0.50543 ( 99.85%)    -0.57380 (  0.15%)    -0.50553
      45    257.21    -0.50107 ( 99.86%)    -0.57133 (  0.14%)    -0.50117
      46    260.17    -0.49513 ( 99.86%)    -0.56795 (  0.14%)    -0.49522
      47    266.59    -0.48247 ( 99.88%)    -0.56073 (  0.12%)    -0.48257
      48    269.15    -0.47753 ( 99.88%)    -0.55789 (  0.12%)    -0.47762
      49    273.00    -0.47022 ( 99.89%)    -0.55369 (  0.11%)    -0.47032
      50    277.49    -0.46185 ( 99.89%)    -0.54885 (  0.11%)    -0.46194
      51    282.97    -0.45190 ( 99.90%)    -0.54307 (  0.10%)    -0.45199
      52    288.66    -0.44180 ( 99.91%)    -0.53717 (  0.09%)    -0.44189
      53    292.94    -0.43438 ( 99.92%)    -0.53280 (  0.08%)    -0.43446
   ------------------------------------------------------------------------

   temp. (K)  partition function   enthalpy   heat capacity  entropy
                                   cal/mol     cal/K/mol   cal/K/mol   J/K/mol
 298.15  VIB  0.703E+20            28461.078    157.236    179.833
         ROT  0.103E+08              888.752      2.981     35.062
         INT  0.721E+27            29349.830    160.217    214.895
         TR   0.717E+28             1481.254      4.968     43.678
         TOT                       30831.0839   165.1852   258.5737  1081.8722

       T/K    H(0)-H(T)+PV         H(T)/Eh          T*S/Eh         G(T)/Eh
   ------------------------------------------------------------------------
    298.15    0.491325E-01    0.475432E+00    0.122857E+00    0.352575E+00
   ------------------------------------------------------------------------

         :::::::::::::::::::::::::::::::::::::::::::::::::::::
         ::                  THERMODYNAMIC                  ::
         :::::::::::::::::::::::::::::::::::::::::::::::::::::
         :: total free energy         -93.993167833958 Eh   ::
         ::.................................................::
         :: total energy              -94.345743218594 Eh   ::
         :: zero point energy           0.426299615577 Eh   ::
         :: G(RRHO) w/o ZPVE           -0.073724230942 Eh   ::
         :: G(RRHO) contrib.            0.352575384636 Eh   ::
         :::::::::::::::::::::::::::::::::::::::::::::::::::::

           -------------------------------------------------
          | TOTAL ENERGY              -94.345743218594 Eh   |
          | TOTAL ENTHALPY            -93.870311143456 Eh   |
          | TOTAL FREE ENERGY         -93.993167833958 Eh   |
          | GRADIENT NORM               0.000051575786 Eh/α |
          | HOMO-LUMO GAP               7.081316036832 eV   |
           -------------------------------------------------

------------------------------------------------------------------------
 * finished run on 2024/05/10 at 17:52:56.062     
------------------------------------------------------------------------
 total:
 * wall-time:     0 d,  0 h,  0 min,  2.825 sec
 *  cpu-time:     0 d,  0 h,  0 min, 21.652 sec
 * ratio c/w:     7.665 speedup
 SCF:
 * wall-time:     0 d,  0 h,  0 min,  0.030 sec
 *  cpu-time:     0 d,  0 h,  0 min,  0.193 sec
 * ratio c/w:     6.527 speedup
 analytical hessian:
 * wall-time:     0 d,  0 h,  0 min,  2.609 sec
 *  cpu-time:     0 d,  0 h,  0 min, 20.028 sec
 * ratio c/w:     7.678 speedup

