55
 energy: -93.340601036603 gnorm: 0.000024778980 xtb: 6.6.0 (conda-forge)
Fe          -0.12686420587406       -0.26063717658594       -0.04496627135615
O           -2.00672964112442       -0.75202637098455        1.18820887079266
O            1.38150945608063        1.19743813577002        0.71175356674676
O            1.61425899195784       -0.64908470159621       -1.48925160847437
O           -1.25886625721143       -0.32375127491623       -2.10226425021708
O           -1.28587633281734        1.74895629095178       -0.19648556999689
O            1.00740572019214       -1.51564045940076        1.51865282539648
H           -2.26656454842601        1.72271408771725       -0.21940238074165
H           -1.01405328301457        2.49795801073965       -0.75943053062816
H            1.13072620416531       -1.05967541996158        2.39274530390714
H            1.90834349732261       -1.83015383526691        1.27333308020698
H           -2.58694328224023       -0.20202929273728        1.75231472621120
H           -2.54688450742473       -1.51162740004623        0.89007495068521
H            2.36004442258160        0.01227439595475       -1.47241617387233
H            2.03288813917157       -1.51123671644445       -1.67852366047218
H            1.56685993747248        2.07108364509404        0.29263085363903
H            2.23856715395684        0.91505741424016        1.13804895514413
H           -2.24000953103823       -0.45100348740301       -2.08886295360675
H           -0.91094082425098       -0.90880032931207       -2.78131781503534
O           -3.87783123891077        0.69945816694267        2.54356638808634
O            3.48305884668419       -2.24309869135298        0.78650675999583
O           -3.88610722216932       -0.59902997669673       -1.81866566847435
O           -0.52921886499217       -2.58351829534007       -0.54057859412759
O           -3.98963913663329        1.53841777166974       -0.09654620689976
O           -3.19749341349763       -2.70823089864868       -0.21368089599565
O            1.59132218509602       -0.17736895542731        3.68091466523665
O            3.63215679004909        0.36287878241820        1.74488744693706
O            1.98932044084267        3.38507583822912       -0.65152770452875
O           -0.51078364099050        3.93878335291121       -1.72251224051657
O            3.51953871976320        1.14213025686402       -1.37999351697470
O            3.12210017199768       -2.91253563008061       -1.88569854935468
H           -3.63744168662120       -2.14266837846184       -0.87383352186315
H           -3.74810197398942       -3.48676686852755       -0.08475601368600
H           -4.58632611024341        0.18989595537171        2.95298499710011
H           -3.59509657554854        1.33994360645570        3.20503563875677
H           -4.58289366982563        2.27758040703954       -0.26346369137870
H           -4.10362892499756        1.29428690114758        0.84056750238046
H           -0.86674286763155        4.79210347075500       -1.45024368799319
H           -0.57271352448716        3.91553399979991       -2.68330197795434
H           -4.49409252295397       -0.55691547129916       -2.56346306591845
H           -4.07705851104879        0.16657983544298       -1.24250060517920
H           -1.48845667851315       -2.79416176127243       -0.52610375596219
H           -0.12711259400208       -3.15593025223967        0.12078864562093
H            3.86306608232975       -2.78673851289635       -2.48887452146831
H            2.74732355110842       -3.77234991578676       -2.10324720182833
H            4.16190143252909        1.20612990210410       -2.09222380672163
H            3.12847320950147        2.02374298212465       -1.27255257905595
H            2.38538591249868        4.16332770915692       -0.24738509680342
H            1.17334186726271        3.67592421672651       -1.09702058281278
H            4.42595216468946        0.88563057683267        1.60260577214954
H            3.79688596671517       -0.51871206863283        1.37000507351026
H            1.55217741941718       -0.42384504010555        4.60960637692925
H            2.46564070078256        0.19631952962749        3.51174521810349
H            3.95501755949141       -2.91258292317854        1.29154075801445
H            3.48627502691075       -2.53279513755863       -0.14309367565245
