      -----------------------------------------------------------      
     |                   =====================                   |     
     |                           x T B                           |     
     |                   =====================                   |     
     |                         S. Grimme                         |     
     |          Mulliken Center for Theoretical Chemistry        |     
     |                    University of Bonn                     |     
      -----------------------------------------------------------      

   * xtb version 6.6.0 (conda-forge) compiled by 'runner@Mac-1676020848589.local' on 2023-02-10

   xtb is free software: you can redistribute it and/or modify it under
   the terms of the GNU Lesser General Public License as published by
   the Free Software Foundation, either version 3 of the License, or
   (at your option) any later version.
   
   xtb is distributed in the hope that it will be useful,
   but WITHOUT ANY WARRANTY; without even the implied warranty of
   MERCHANTABILITY or FITNESS FOR A PARTICULAR PURPOSE.  See the
   GNU Lesser General Public License for more details.
   
   Cite this work as:
   * C. Bannwarth, E. Caldeweyher, S. Ehlert, A. Hansen, P. Pracht,
     J. Seibert, S. Spicher, S. Grimme, WIREs Comput. Mol. Sci., 2020, 11,
     e01493. DOI: 10.1002/wcms.1493
   
   for GFN2-xTB:
   * C. Bannwarth, S. Ehlert and S. Grimme., J. Chem. Theory Comput., 2019,
     15, 1652-1671. DOI: 10.1021/acs.jctc.8b01176
   for GFN1-xTB:
   * S. Grimme, C. Bannwarth, P. Shushkov, J. Chem. Theory Comput., 2017,
     13, 1989-2009. DOI: 10.1021/acs.jctc.7b00118
   for GFN0-xTB:
   * P. Pracht, E. Caldeweyher, S. Ehlert, S. Grimme, ChemRxiv, 2019, preprint.
     DOI: 10.26434/chemrxiv.8326202.v1
   for GFN-FF:
   * S. Spicher and S. Grimme, Angew. Chem. Int. Ed., 2020, 59, 15665-15673.
     DOI: 10.1002/anie.202004239
   
   for ALPB and GBSA implicit solvation:
   * S. Ehlert, M. Stahn, S. Spicher, S. Grimme, J. Chem. Theory Comput.,
     2021, 17, 4250-4261. DOI: 10.1021/acs.jctc.1c00471
   
   for DFT-D4:
   * E. Caldeweyher, C. Bannwarth and S. Grimme, J. Chem. Phys., 2017,
     147, 034112. DOI: 10.1063/1.4993215
   * E. Caldeweyher, S. Ehlert, A. Hansen, H. Neugebauer, S. Spicher,
     C. Bannwarth and S. Grimme, J. Chem. Phys., 2019, 150, 154122.
     DOI: 10.1063/1.5090222
   * E. Caldeweyher, J.-M. Mewes, S. Ehlert and S. Grimme, Phys. Chem. Chem. Phys.
     2020, 22, 8499-8512. DOI: 10.1039/D0CP00502A
   
   for sTDA-xTB:
   * S. Grimme and C. Bannwarth, J. Chem. Phys., 2016, 145, 054103.
     DOI: 10.1063/1.4959605
   
   in the mass-spec context:
   * V. Asgeirsson, C. Bauer and S. Grimme, Chem. Sci., 2017, 8, 4879.
     DOI: 10.1039/c7sc00601b
   * J. Koopman and S. Grimme, ACS Omega 2019, 4, 12, 15120-15133.
     DOI: 10.1021/acsomega.9b02011
   
   for metadynamics refer to:
   * S. Grimme, J. Chem. Theory Comput., 2019, 155, 2847-2862
     DOI: 10.1021/acs.jctc.9b00143
   
   for SPH calculations refer to:
   * S. Spicher and S. Grimme, J. Chem. Theory Comput., 2021, 17, 1701-1714
     DOI: 10.1021/acs.jctc.0c01306
   
   with help from (in alphabetical order)
   P. Atkinson, C. Bannwarth, F. Bohle, G. Brandenburg, E. Caldeweyher
   M. Checinski, S. Dohm, S. Ehlert, S. Ehrlich, I. Gerasimov, C. Hölzer
   A. Katbashev, J. Koopman, C. Lavigne, S. Lehtola, F. März, M. Müller,
   F. Musil, H. Neugebauer, J. Pisarek, C. Plett, P. Pracht, F. Pultar,
   J. Seibert, P. Shushkov, S. Spicher, M. Stahn, M. Steiner, T. Strunk,
   J. Stückrath, T. Rose, and J. Unsleber
   
 * started run on 2024/05/10 at 17:52:41.182     

           -------------------------------------------------
          |                Calculation Setup                |
           -------------------------------------------------

          program call               : xtb Fe_18H2O.xyz --opt extreme --gfn2 --chrg 3 --uhf 6 --alpb water
          coordinate file            : Fe_18H2O.xyz
          omp threads                :                     8

   ID    Z sym.   atoms
    1   26 Fe     1
    2    8 O      2-7, 20-31
    3    1 H      8-19, 32-55

molecular fragmentation (1/2 indicates fragments):
1112222222212221222222222222222222222222222222222222222
# atoms in fragment 1/2:     5    50
 fragment masses (1/2) :       89.86      290.26
CMA distance (Bohr)    :   0.999
constraining FC (au)   :  0.0500

           -------------------------------------------------
          |                 G F N 2 - x T B                 |
           -------------------------------------------------

        Reference                      10.1021/acs.jctc.8b01176
      * Hamiltonian:
        H0-scaling (s, p, d)           1.850000    2.230000    2.230000
        zeta-weighting                 0.500000
      * Dispersion:
        s8                             2.700000
        a1                             0.520000
        a2                             5.000000
        s9                             5.000000
      * Repulsion:
        kExp                           1.500000    1.000000
        rExp                           1.000000
      * Coulomb:
        alpha                          2.000000
        third order                    shell-resolved
        anisotropic                    true
        a3                             3.000000
        a5                             4.000000
        cn-shift                       1.200000
        cn-exp                         4.000000
        max-rad                        5.000000

      * Solvation model:               ALPB
        Solvent                        water
        Parameter file                 internal GFN2-xTB/ALPB
        Dielectric constant                8.0200E+01
        Reference state                gsolv [1 M gas/solution]
        Free energy shift                  1.0808E-03 Eh       6.7819E-01 kcal/mol
        Temperature                        2.9815E+02 K
        Density                            1.0000E+00 kg/L
        Solvent mass                       1.8000E+01 g/mol
        Interaction kernel             P16
        Born radius scaling (c1)           1.4744E+00
        Born radii integrator          GBOBC
        Born offset                        0.0000E+00 a0       0.0000E+00 AA
        H-bond correction              true
        Ion screening                  false
        Surface tension                    1.0000E-05 Eh       1.5569E+01 dyn/cm
        Grid points                               230 per atom

          ...................................................
          :                      SETUP                      :
          :.................................................:
          :  # basis functions                 118          :
          :  # atomic orbitals                 117          :
          :  # shells                           75          :
          :  # electrons                       149          :
          :  max. iterations                   250          :
          :  Hamiltonian                  GFN2-xTB          :
          :  restarted?                      false          :
          :  GBSA solvation                   true          :
          :  PC potential                    false          :
          :  electronic temp.          300.0000000     K    :
          :  accuracy                    1.0000000          :
          :  -> integral cutoff          0.2500000E+02      :
          :  -> integral neglect         0.1000000E-07      :
          :  -> SCF convergence          0.1000000E-05 Eh   :
          :  -> wf. convergence          0.1000000E-03 e    :
          :  Broyden damping             0.4000000          :
          ...................................................

 iter      E             dE          RMSdq      gap      omega  full diag
   1    -94.4531688 -0.944532E+02  0.448E+00    7.04       0.0  T
   2    -94.4935226 -0.403537E-01  0.254E+00    7.86       1.0  T
   3    -94.4894158  0.410674E-02  0.935E-01    8.45       1.0  T
   4    -94.5027842 -0.133684E-01  0.517E-01    8.04       1.0  T
   5    -94.5052846 -0.250036E-02  0.243E-01    8.31       1.0  T
   6    -94.5055023 -0.217739E-03  0.161E-01    8.20       1.0  T
   7    -94.5058188 -0.316464E-03  0.118E-01    8.32       1.0  T
   8    -94.5060408 -0.222044E-03  0.541E-02    8.30       1.0  T
   9    -94.5061002 -0.593685E-04  0.470E-03    8.28       2.9  T
  10    -94.5060998  0.426969E-06  0.583E-03    8.28       2.3  T
  11    -94.5061003 -0.536760E-06  0.188E-03    8.28       7.2  T
  12    -94.5061004 -0.577998E-07  0.401E-04    8.28      33.6  T
  13    -94.5061004 -0.347151E-08  0.770E-05    8.28     175.2  T

   *** convergence criteria satisfied after 13 iterations ***

         #    Occupation            Energy/Eh            Energy/eV
      -------------------------------------------------------------
         1        2.0000           -0.6676310             -18.1672
       ...           ...                  ...                  ...
        71        2.0000           -0.4024331             -10.9508
        72        2.0000           -0.3979748             -10.8294
        73        1.0000           -0.3593224              -9.7777
        74        1.0000           -0.3555787              -9.6758
        75        1.0000           -0.3438119              -9.3556
        76        1.0000           -0.3365453              -9.1579
        77        1.0000           -0.3322833              -9.0419 (HOMO)
        78                         -0.0279731              -0.7612 (LUMO)
        79                          0.0160542               0.4369
        80                          0.0392219               1.0673
        81                          0.0631778               1.7192
        82                          0.0713501               1.9415
       ...                                ...                  ...
       117                          1.1358759              30.9088
      -------------------------------------------------------------
                  HL-Gap            0.3043102 Eh            8.2807 eV
             Fermi-level           -0.2793904 Eh           -7.6026 eV

 SCC (total)                   0 d,  0 h,  0 min,  0.064 sec
 SCC setup                      ...        0 min,  0.004 sec (  5.991%)
 Dispersion                     ...        0 min,  0.001 sec (  1.290%)
 classical contributions        ...        0 min,  0.000 sec (  0.424%)
 integral evaluation            ...        0 min,  0.004 sec (  6.798%)
 iterations                     ...        0 min,  0.045 sec ( 70.267%)
 molecular gradient             ...        0 min,  0.009 sec ( 13.998%)
 printout                       ...        0 min,  0.001 sec (  1.196%)

         :::::::::::::::::::::::::::::::::::::::::::::::::::::
         ::                     SUMMARY                     ::
         :::::::::::::::::::::::::::::::::::::::::::::::::::::
         :: total energy             -93.953963582901 Eh    ::
         :: total w/o Gsasa/hb       -93.850880184080 Eh    ::
         :: gradient norm              0.045717023908 Eh/a0 ::
         :: HOMO-LUMO gap              8.280702118844 eV    ::
         ::.................................................::
         :: SCC energy               -94.506100383276 Eh    ::
         :: -> isotropic ES            0.917127063195 Eh    ::
         :: -> anisotropic ES         -0.093817551413 Eh    ::
         :: -> anisotropic XC         -0.003717403645 Eh    ::
         :: -> dispersion             -0.029126636801 Eh    ::
         :: -> Gsolv                  -0.632535319184 Eh    ::
         ::    -> Gelec               -0.529451920364 Eh    ::
         ::    -> Gsasa                0.002840763083 Eh    ::
         ::    -> Ghb                 -0.107004921602 Eh    ::
         ::    -> Gshift               0.001080759698 Eh    ::
         :: repulsion energy           0.550908293624 Eh    ::
         :: add. restraining           0.000000000000 Eh    ::
         :: total charge               2.999999999988 e     ::
         :::::::::::::::::::::::::::::::::::::::::::::::::::::

      ----------------------------------------------------------- 
     |                   =====================                   |
     |                        A N C O P T                        |
     |                   =====================                   |
     |               Approximate Normal Coordinate               |
     |                Rational Function Optimizer                |
      ----------------------------------------------------------- 

          ...................................................
          :                      SETUP                      :
          :.................................................:
          :   optimization level           extreme          :
          :   max. optcycles                  1100          :
          :   ANC micro-cycles                  20          :
          :   degrees of freedom               159          :
          :.................................................:
          :   RF solver                   davidson          :
          :   write xtbopt.log                true          :
          :   linear?                        false          :
          :   energy convergence         0.5000000E-07 Eh   :
          :   grad. convergence          0.5000000E-04 Eh/α :
          :   maxmium RF displ.          1.0000000          :
          :   Hlow (freq-cutoff)         0.1000000E-01      :
          :   Hmax (freq-cutoff)         5.0000000          :
          :   S6 in model hess.         20.0000000          :
          ...................................................

generating ANC from model Hessian ...
Using Lindh-Hessian (1995)
 Shifting diagonal of input Hessian by    1.0167786140325617E-002
 Lowest  eigenvalues of input Hessian
    0.010000    0.010035    0.010084    0.010102    0.010107    0.010131
    0.000000    0.000000    0.000000    0.000000    0.000000    0.000000
    0.010177    0.010194    0.010251    0.010385    0.010428    0.010592
 Highest eigenvalues
    1.424062    1.424571    1.430283    1.431439    1.431826    1.444902


........................................................................
.............................. CYCLE    1 ..............................
........................................................................

 iter      E             dE          RMSdq      gap      omega  full diag
   1    -94.5061004 -0.945061E+02  0.264E-05    8.28       0.0  T
   2    -94.5061004 -0.569855E-11  0.116E-05    8.28    1166.3  T
   3    -94.5061004 -0.298428E-12  0.625E-06    8.28    2156.5  T
     SCC iter.                  ...        0 min,  0.006 sec
     gradient                   ...        0 min,  0.007 sec
 * total energy  :   -93.9539636 Eh     change       -0.9953283E-10 Eh
   gradient norm :     0.0457170 Eh/α   predicted     0.0000000E+00 (-100.00%)
   displ. norm   :     0.4178724 α      lambda       -0.9861222E-02
   maximum displ.:     0.1276028 α      in ANC's #75, #84, #91, ...

........................................................................
.............................. CYCLE    2 ..............................
........................................................................

 iter      E             dE          RMSdq      gap      omega  full diag
   1    -94.5195567 -0.945196E+02  0.153E-01    8.20       0.0  T
   2    -94.5196186 -0.619124E-04  0.691E-02    8.23       1.0  T
   3    -94.5196286 -0.100277E-04  0.348E-02    8.24       1.0  T
   4    -94.5196304 -0.178364E-05  0.800E-03    8.25       1.7  T
   5    -94.5196307 -0.325646E-06  0.281E-03    8.24       4.8  T
   6    -94.5196308 -0.463962E-07  0.109E-03    8.24      12.3  T
   7    -94.5196308 -0.695711E-08  0.437E-04    8.24      30.9  T
   8    -94.5196308 -0.181795E-08  0.135E-04    8.24      99.6  T
     SCC iter.                  ...        0 min,  0.019 sec
     gradient                   ...        0 min,  0.007 sec
 * total energy  :   -93.9608157 Eh     change       -0.6852128E-02 Eh
   gradient norm :     0.0256067 Eh/α   predicted    -0.5791861E-02 ( -15.47%)
   displ. norm   :     0.3998465 α      lambda       -0.4658503E-02
   maximum displ.:     0.0922711 α      in ANC's #84, #96, #94, ...

........................................................................
.............................. CYCLE    3 ..............................
........................................................................

 iter      E             dE          RMSdq      gap      omega  full diag
   1    -94.5296300 -0.945296E+02  0.134E-01    8.14       0.0  T
   2    -94.5297540 -0.124079E-03  0.626E-02    8.20       1.0  T
   3    -94.5297623 -0.827690E-05  0.371E-02    8.21       1.0  T
   4    -94.5297642 -0.189655E-05  0.639E-03    8.22       2.1  T
   5    -94.5297645 -0.271090E-06  0.239E-03    8.22       5.6  T
   6    -94.5297645 -0.307723E-07  0.111E-03    8.22      12.2  T
   7    -94.5297645 -0.659088E-08  0.282E-04    8.22      47.8  T
   8    -94.5297645 -0.766789E-09  0.105E-04    8.22     128.7  T
     SCC iter.                  ...        0 min,  0.017 sec
     gradient                   ...        0 min,  0.009 sec
 * total energy  :   -93.9635581 Eh     change       -0.2742350E-02 Eh
   gradient norm :     0.0159944 Eh/α   predicted    -0.2701643E-02 (  -1.48%)
   displ. norm   :     0.2781863 α      lambda       -0.1211443E-02
   maximum displ.:     0.0731389 α      in ANC's #20, #26, #17, ...

........................................................................
.............................. CYCLE    4 ..............................
........................................................................

 iter      E             dE          RMSdq      gap      omega  full diag
   1    -94.5364498 -0.945364E+02  0.707E-02    8.17       0.0  T
   2    -94.5364633 -0.135578E-04  0.335E-02    8.19       1.0  T
   3    -94.5364648 -0.145904E-05  0.172E-02    8.19       1.0  T
   4    -94.5364651 -0.324223E-06  0.298E-03    8.19       4.5  T
   5    -94.5364652 -0.487072E-07  0.118E-03    8.19      11.4  T
   6    -94.5364652 -0.704675E-08  0.504E-04    8.19      26.8  T
   7    -94.5364652 -0.129091E-08  0.157E-04    8.19      85.7  T
     SCC iter.                  ...        0 min,  0.012 sec
     gradient                   ...        0 min,  0.008 sec
 * total energy  :   -93.9643087 Eh     change       -0.7506695E-03 Eh
   gradient norm :     0.0110390 Eh/α   predicted    -0.6526030E-03 ( -13.06%)
   displ. norm   :     0.2499657 α      lambda       -0.6481936E-03
   maximum displ.:     0.0719735 α      in ANC's #26, #7, #6, ...

........................................................................
.............................. CYCLE    5 ..............................
........................................................................

 iter      E             dE          RMSdq      gap      omega  full diag
   1    -94.5400945 -0.945401E+02  0.416E-02    8.18       0.0  T
   2    -94.5400976 -0.310105E-05  0.245E-02    8.19       1.0  T
   3    -94.5400982 -0.536552E-06  0.720E-03    8.19       1.9  T
   4    -94.5400983 -0.801874E-07  0.187E-03    8.19       7.2  T
   5    -94.5400983 -0.152094E-07  0.748E-04    8.19      18.0  T
   6    -94.5400983 -0.149277E-08  0.287E-04    8.19      47.0  T
     SCC iter.                  ...        0 min,  0.012 sec
     gradient                   ...        0 min,  0.007 sec
 * total energy  :   -93.9647898 Eh     change       -0.4810452E-03 Eh
   gradient norm :     0.0068013 Eh/α   predicted    -0.3443505E-03 ( -28.42%)
   displ. norm   :     0.3858760 α      lambda       -0.6879959E-03
   maximum displ.:     0.1205180 α      in ANC's #6, #5, #7, ...

........................................................................
.............................. CYCLE    6 ..............................
........................................................................

 iter      E             dE          RMSdq      gap      omega  full diag
   1    -94.5386262 -0.945386E+02  0.595E-02    8.18       0.0  T
   2    -94.5386305 -0.425478E-05  0.348E-02    8.18       1.0  T
   3    -94.5386314 -0.946727E-06  0.113E-02    8.18       1.2  T
   4    -94.5386316 -0.133076E-06  0.202E-03    8.18       6.7  T
   5    -94.5386316 -0.251878E-07  0.905E-04    8.18      14.9  T
   6    -94.5386316 -0.480807E-08  0.353E-04    8.18      38.2  T
     SCC iter.                  ...        0 min,  0.012 sec
     gradient                   ...        0 min,  0.007 sec
 * total energy  :   -93.9652821 Eh     change       -0.4923343E-03 Eh
   gradient norm :     0.0076053 Eh/α   predicted    -0.3952306E-03 ( -19.72%)
   displ. norm   :     0.3921959 α      lambda       -0.5399046E-03
   maximum displ.:     0.1460110 α      in ANC's #5, #6, #7, ...

........................................................................
.............................. CYCLE    7 ..............................
........................................................................

 iter      E             dE          RMSdq      gap      omega  full diag
   1    -94.5391470 -0.945391E+02  0.489E-02    8.19       0.0  T
   2    -94.5391514 -0.437875E-05  0.287E-02    8.18       1.0  T
   3    -94.5391523 -0.874410E-06  0.975E-03    8.18       1.4  T
   4    -94.5391524 -0.107424E-06  0.217E-03    8.18       6.2  T
   5    -94.5391524 -0.324853E-07  0.774E-04    8.18      17.4  T
   6    -94.5391524 -0.312072E-08  0.361E-04    8.18      37.4  T
     SCC iter.                  ...        0 min,  0.012 sec
     gradient                   ...        0 min,  0.008 sec
 * total energy  :   -93.9656459 Eh     change       -0.3637884E-03 Eh
   gradient norm :     0.0062927 Eh/α   predicted    -0.3114756E-03 ( -14.38%)
   displ. norm   :     0.4158128 α      lambda       -0.4386877E-03
   maximum displ.:     0.1697798 α      in ANC's #6, #5, #7, ...

........................................................................
.............................. CYCLE    8 ..............................
........................................................................

 iter      E             dE          RMSdq      gap      omega  full diag
   1    -94.5363117 -0.945363E+02  0.533E-02    8.17       0.0  T
   2    -94.5363154 -0.367404E-05  0.317E-02    8.17       1.0  T
   3    -94.5363165 -0.108813E-05  0.787E-03    8.17       1.7  T
   4    -94.5363166 -0.113084E-06  0.210E-03    8.17       6.4  T
   5    -94.5363166 -0.260597E-07  0.938E-04    8.17      14.4  T
   6    -94.5363166 -0.447665E-08  0.363E-04    8.17      37.1  T
     SCC iter.                  ...        0 min,  0.011 sec
     gradient                   ...        0 min,  0.008 sec
 * total energy  :   -93.9659252 Eh     change       -0.2792721E-03 Eh
   gradient norm :     0.0102925 Eh/α   predicted    -0.2572693E-03 (  -7.88%)
   displ. norm   :     0.3956917 α      lambda       -0.5059327E-03
   maximum displ.:     0.1766444 α      in ANC's #6, #5, #7, ...

........................................................................
.............................. CYCLE    9 ..............................
........................................................................

 iter      E             dE          RMSdq      gap      omega  full diag
   1    -94.5385443 -0.945385E+02  0.444E-02    8.17       0.0  T
   2    -94.5385470 -0.269657E-05  0.235E-02    8.17       1.0  T
   3    -94.5385476 -0.592744E-06  0.955E-03    8.17       1.4  T
   4    -94.5385477 -0.103527E-06  0.170E-03    8.17       8.0  T
   5    -94.5385477 -0.133701E-07  0.786E-04    8.17      17.1  T
   6    -94.5385477 -0.258997E-08  0.275E-04    8.17      49.0  T
     SCC iter.                  ...        0 min,  0.010 sec
     gradient                   ...        0 min,  0.008 sec
 * total energy  :   -93.9663020 Eh     change       -0.3768745E-03 Eh
   gradient norm :     0.0069329 Eh/α   predicted    -0.2925735E-03 ( -22.37%)
   displ. norm   :     0.5156401 α      lambda       -0.5595349E-03
   maximum displ.:     0.2440865 α      in ANC's #6, #5, #1, ...

........................................................................
.............................. CYCLE   10 ..............................
........................................................................

 iter      E             dE          RMSdq      gap      omega  full diag
   1    -94.5372347 -0.945372E+02  0.593E-02    8.14       0.0  T
   2    -94.5372379 -0.319391E-05  0.311E-02    8.14       1.0  T
   3    -94.5372386 -0.708552E-06  0.129E-02    8.14       1.0  T
   4    -94.5372388 -0.165427E-06  0.200E-03    8.14       6.7  T
   5    -94.5372388 -0.146359E-07  0.984E-04    8.14      13.7  T
   6    -94.5372388 -0.385400E-08  0.310E-04    8.14      43.5  T
     SCC iter.                  ...        0 min,  0.012 sec
     gradient                   ...        0 min,  0.009 sec
 * total energy  :   -93.9667233 Eh     change       -0.4213032E-03 Eh
   gradient norm :     0.0104001 Eh/α   predicted    -0.3541537E-03 ( -15.94%)
   displ. norm   :     0.5637238 α      lambda       -0.6688476E-03
   maximum displ.:     0.2717080 α      in ANC's #6, #5, #1, ...

........................................................................
.............................. CYCLE   11 ..............................
........................................................................

 iter      E             dE          RMSdq      gap      omega  full diag
   1    -94.5394394 -0.945394E+02  0.625E-02    8.10       0.0  T
   2    -94.5394441 -0.463917E-05  0.337E-02    8.10       1.0  T
   3    -94.5394453 -0.123572E-05  0.127E-02    8.10       1.1  T
   4    -94.5394455 -0.226011E-06  0.219E-03    8.10       6.1  T
   5    -94.5394455 -0.192567E-07  0.104E-03    8.10      12.9  T
   6    -94.5394455 -0.387827E-08  0.347E-04    8.10      38.9  T
   7    -94.5394455 -0.689425E-09  0.947E-05    8.10     142.3  T
     SCC iter.                  ...        0 min,  0.019 sec
     gradient                   ...        0 min,  0.010 sec
 * total energy  :   -93.9670710 Eh     change       -0.3476207E-03 Eh
   gradient norm :     0.0144869 Eh/α   predicted    -0.4406984E-03 (  26.78%)
   displ. norm   :     0.5445263 α      lambda       -0.7089883E-03
   maximum displ.:     0.2880143 α      in ANC's #6, #5, #1, ...

........................................................................
.............................. CYCLE   12 ..............................
........................................................................

 iter      E             dE          RMSdq      gap      omega  full diag
   1    -94.5358325 -0.945358E+02  0.626E-02    8.07       0.0  T
   2    -94.5358348 -0.235148E-05  0.370E-02    8.07       1.0  T
   3    -94.5358358 -0.100239E-05  0.789E-03    8.07       1.7  T
   4    -94.5358359 -0.108704E-06  0.199E-03    8.07       6.8  T
   5    -94.5358359 -0.151764E-07  0.976E-04    8.07      13.8  T
   6    -94.5358360 -0.459372E-08  0.253E-04    8.07      53.3  T
     SCC iter.                  ...        0 min,  0.013 sec
     gradient                   ...        0 min,  0.008 sec
 * total energy  :   -93.9673990 Eh     change       -0.3280076E-03 Eh
   gradient norm :     0.0157094 Eh/α   predicted    -0.4596051E-03 (  40.12%)
   displ. norm   :     0.3779065 α      lambda       -0.7913061E-03
   maximum displ.:     0.2092370 α      in ANC's #6, #5, #1, ...

........................................................................
.............................. CYCLE   13 ..............................
........................................................................

 iter      E             dE          RMSdq      gap      omega  full diag
   1    -94.5365607 -0.945366E+02  0.516E-02    8.08       0.0  T
   2    -94.5365631 -0.235003E-05  0.306E-02    8.08       1.0  T
   3    -94.5365640 -0.975698E-06  0.558E-03    8.08       2.4  T
   4    -94.5365641 -0.784524E-07  0.209E-03    8.08       6.4  T
   5    -94.5365641 -0.156941E-07  0.989E-04    8.08      13.6  T
   6    -94.5365641 -0.419371E-08  0.269E-04    8.08      50.2  T
     SCC iter.                  ...        0 min,  0.012 sec
     gradient                   ...        0 min,  0.007 sec
 * total energy  :   -93.9676985 Eh     change       -0.2995042E-03 Eh
   gradient norm :     0.0218531 Eh/α   predicted    -0.4521579E-03 (  50.97%)
   displ. norm   :     0.2237101 α      lambda       -0.8352954E-03
   maximum displ.:     0.1196556 α      in ANC's #6, #13, #1, ...

........................................................................
.............................. CYCLE   14 ..............................
........................................................................

 iter      E             dE          RMSdq      gap      omega  full diag
   1    -94.5421753 -0.945422E+02  0.415E-02    8.11       0.0  T
   2    -94.5421778 -0.249480E-05  0.216E-02    8.11       1.0  T
   3    -94.5421782 -0.408505E-06  0.990E-03    8.11       1.4  T
   4    -94.5421783 -0.132628E-06  0.167E-03    8.11       8.1  T
   5    -94.5421783 -0.970613E-08  0.810E-04    8.11      16.6  T
   6    -94.5421783 -0.233520E-08  0.252E-04    8.11      53.6  T
     SCC iter.                  ...        0 min,  0.015 sec
     gradient                   ...        0 min,  0.008 sec
 * total energy  :   -93.9681102 Eh     change       -0.4117472E-03 Eh
   gradient norm :     0.0138610 Eh/α   predicted    -0.4385502E-03 (   6.51%)
   displ. norm   :     0.4770208 α      lambda       -0.8251267E-03
   maximum displ.:     0.2591053 α      in ANC's #6, #5, #1, ...

........................................................................
.............................. CYCLE   15 ..............................
........................................................................

 iter      E             dE          RMSdq      gap      omega  full diag
   1    -94.5351971 -0.945352E+02  0.679E-02    8.09       0.0  T
   2    -94.5352057 -0.861529E-05  0.388E-02    8.08       1.0  T
   3    -94.5352072 -0.154702E-05  0.153E-02    8.09       1.0  T
   4    -94.5352077 -0.492533E-06  0.301E-03    8.08       4.5  T
   5    -94.5352078 -0.288632E-07  0.158E-03    8.09       8.6  T
   6    -94.5352078 -0.946252E-08  0.505E-04    8.09      26.7  T
   7    -94.5352078 -0.126676E-08  0.153E-04    8.09      88.2  T
     SCC iter.                  ...        0 min,  0.015 sec
     gradient                   ...        0 min,  0.008 sec
 * total energy  :   -93.9682429 Eh     change       -0.1326725E-03 Eh
   gradient norm :     0.0232861 Eh/α   predicted    -0.5064429E-03 ( 281.72%)
   displ. norm   :     0.2713044 α      lambda       -0.9152794E-03
   maximum displ.:     0.1542812 α      in ANC's #6, #1, #3, ...

........................................................................
.............................. CYCLE   16 ..............................
........................................................................

 iter      E             dE          RMSdq      gap      omega  full diag
   1    -94.5429532 -0.945430E+02  0.447E-02    8.10       0.0  T
   2    -94.5429547 -0.159007E-05  0.269E-02    8.10       1.0  T
   3    -94.5429556 -0.854725E-06  0.523E-03    8.10       2.6  T
   4    -94.5429557 -0.755040E-07  0.200E-03    8.11       6.7  T
   5    -94.5429557 -0.162787E-07  0.627E-04    8.11      21.5  T
   6    -94.5429557 -0.200752E-08  0.165E-04    8.11      81.9  T
     SCC iter.                  ...        0 min,  0.013 sec
     gradient                   ...        0 min,  0.007 sec
 * total energy  :   -93.9686862 Eh     change       -0.4432504E-03 Eh
   gradient norm :     0.0143282 Eh/α   predicted    -0.4913289E-03 (  10.85%)
   displ. norm   :     0.4440082 α      lambda       -0.7323358E-03
   maximum displ.:     0.2610159 α      in ANC's #6, #5, #7, ...

........................................................................
.............................. CYCLE   17 ..............................
........................................................................

 iter      E             dE          RMSdq      gap      omega  full diag
   1    -94.5364316 -0.945364E+02  0.663E-02    8.07       0.0  T
   2    -94.5364367 -0.500796E-05  0.370E-02    8.07       1.0  T
   3    -94.5364377 -0.101542E-05  0.143E-02    8.07       1.0  T
   4    -94.5364379 -0.270762E-06  0.257E-03    8.07       5.2  T
   5    -94.5364380 -0.140357E-07  0.131E-03    8.07      10.3  T
   6    -94.5364380 -0.445874E-08  0.320E-04    8.07      42.1  T
   7    -94.5364380 -0.493458E-09  0.110E-04    8.07     122.9  T
     SCC iter.                  ...        0 min,  0.019 sec
     gradient                   ...        0 min,  0.008 sec
 * total energy  :   -93.9687151 Eh     change       -0.2890053E-04 Eh
   gradient norm :     0.0262911 Eh/α   predicted    -0.4383571E-03 (1416.78%)
   displ. norm   :     0.2010563 α      lambda       -0.1054436E-02
   maximum displ.:     0.0963067 α      in ANC's #6, #20, #3, ...

........................................................................
.............................. CYCLE   18 ..............................
........................................................................

 iter      E             dE          RMSdq      gap      omega  full diag
   1    -94.5426005 -0.945426E+02  0.419E-02    8.08       0.0  T
   2    -94.5426023 -0.174345E-05  0.246E-02    8.08       1.0  T
   3    -94.5426030 -0.708420E-06  0.518E-03    8.08       2.6  T
   4    -94.5426031 -0.662809E-07  0.179E-03    8.08       7.5  T
   5    -94.5426031 -0.118464E-07  0.672E-04    8.08      20.1  T
   6    -94.5426031 -0.168042E-08  0.218E-04    8.08      61.8  T
     SCC iter.                  ...        0 min,  0.013 sec
     gradient                   ...        0 min,  0.007 sec
 * total energy  :   -93.9690252 Eh     change       -0.3101131E-03 Eh
   gradient norm :     0.0191325 Eh/α   predicted    -0.5485329E-03 (  76.88%)
   displ. norm   :     0.2979642 α      lambda       -0.1193785E-02
   maximum displ.:     0.1487915 α      in ANC's #6, #7, #30, ...

........................................................................
.............................. CYCLE   19 ..............................
........................................................................

 iter      E             dE          RMSdq      gap      omega  full diag
   1    -94.5417223 -0.945417E+02  0.681E-02    8.08       0.0  T
   2    -94.5417319 -0.964992E-05  0.377E-02    8.07       1.0  T
   3    -94.5417337 -0.179046E-05  0.162E-02    8.07       1.0  T
   4    -94.5417343 -0.571539E-06  0.330E-03    8.07       4.1  T
   5    -94.5417343 -0.300382E-07  0.171E-03    8.07       7.9  T
   6    -94.5417343 -0.874238E-08  0.477E-04    8.07      28.3  T
   7    -94.5417343 -0.965883E-09  0.163E-04    8.07      82.7  T
     SCC iter.                  ...        0 min,  0.015 sec
     gradient                   ...        0 min,  0.008 sec
 * total energy  :   -93.9691457 Eh     change       -0.1204868E-03 Eh
   gradient norm :     0.0272435 Eh/α   predicted    -0.6498892E-03 ( 439.39%)
   displ. norm   :     0.2276444 α      lambda       -0.1108384E-02
   maximum displ.:     0.1201236 α      in ANC's #6, #1, #5, ...

........................................................................
.............................. CYCLE   20 ..............................
........................................................................

 iter      E             dE          RMSdq      gap      omega  full diag
   1    -94.5433374 -0.945433E+02  0.515E-02    8.08       0.0  T
   2    -94.5433398 -0.236112E-05  0.297E-02    8.08       1.0  T
   3    -94.5433407 -0.949680E-06  0.836E-03    8.08       1.6  T
   4    -94.5433408 -0.125402E-06  0.240E-03    8.08       5.6  T
   5    -94.5433409 -0.129815E-07  0.112E-03    8.08      12.1  T
   6    -94.5433409 -0.264039E-08  0.243E-04    8.08      55.5  T
   7    -94.5433409 -0.233101E-09  0.825E-05    8.08     163.4  T
     SCC iter.                  ...        0 min,  0.012 sec
     gradient                   ...        0 min,  0.007 sec
 * total energy  :   -93.9695332 Eh     change       -0.3875930E-03 Eh
   gradient norm :     0.0188095 Eh/α   predicted    -0.5829130E-03 (  50.39%)
   displ. norm   :     0.2936239 α      lambda       -0.1095826E-02
   maximum displ.:     0.1575347 α      in ANC's #6, #7, #3, ...
 * RMSD in coord.:     0.7683270 α      energy gain  -0.1556966E-01 Eh

generating ANC from model Hessian ...
Using Lindh-Hessian (1995)
 Shifting diagonal of input Hessian by    1.0128665652598654E-002
 Lowest  eigenvalues of input Hessian
    0.010000    0.010020    0.010087    0.000000    0.000000    0.000000
    0.000000    0.000000    0.000000    0.010156    0.010181    0.010215
    0.010288    0.010339    0.010359    0.010413    0.010556    0.010806
 Highest eigenvalues
    1.435184    1.436920    1.439655    1.441593    1.443236    1.472837


........................................................................
.............................. CYCLE   21 ..............................
........................................................................

 iter      E             dE          RMSdq      gap      omega  full diag
   1    -94.5365708 -0.945366E+02  0.679E-02    8.04       0.0  T
   2    -94.5365760 -0.516670E-05  0.390E-02    8.05       1.0  T
   3    -94.5365775 -0.154162E-05  0.120E-02    8.05       1.1  T
   4    -94.5365778 -0.300911E-06  0.289E-03    8.05       4.7  T
   5    -94.5365779 -0.254096E-07  0.142E-03    8.05       9.5  T
   6    -94.5365779 -0.658002E-08  0.419E-04    8.05      32.2  T
   7    -94.5365779 -0.844295E-09  0.126E-04    8.05     107.1  T
     SCC iter.                  ...        0 min,  0.013 sec
     gradient                   ...        0 min,  0.009 sec
 * total energy  :   -93.9691292 Eh     change        0.4040930E-03 Eh
   gradient norm :     0.0342915 Eh/α   predicted     0.0000000E+00 (-100.00%)
   displ. norm   :     0.1358790 α      lambda       -0.1449458E-02
   maximum displ.:     0.0343999 α      in ANC's #30, #36, #52, ...

........................................................................
.............................. CYCLE   22 ..............................
........................................................................

 iter      E             dE          RMSdq      gap      omega  full diag
   1    -94.5408258 -0.945408E+02  0.444E-02    8.06       0.0  T
   2    -94.5408281 -0.230569E-05  0.258E-02    8.06       1.0  T
   3    -94.5408289 -0.825797E-06  0.686E-03    8.06       2.0  T
   4    -94.5408291 -0.119933E-06  0.201E-03    8.06       6.7  T
   5    -94.5408291 -0.125139E-07  0.103E-03    8.06      13.1  T
   6    -94.5408291 -0.364263E-08  0.222E-04    8.06      60.7  T
   7    -94.5408291 -0.262915E-09  0.103E-04    8.06     131.2  T
     SCC iter.                  ...        0 min,  0.016 sec
     gradient                   ...        0 min,  0.009 sec
 * total energy  :   -93.9701170 Eh     change       -0.9878308E-03 Eh
   gradient norm :     0.0098908 Eh/α   predicted    -0.7381183E-03 ( -25.28%)
   displ. norm   :     0.1913958 α      lambda       -0.5370065E-03
   maximum displ.:     0.0587608 α      in ANC's #30, #39, #25, ...

........................................................................
.............................. CYCLE   23 ..............................
........................................................................

 iter      E             dE          RMSdq      gap      omega  full diag
   1    -94.5422672 -0.945423E+02  0.452E-02    8.06       0.0  T
   2    -94.5422689 -0.168440E-05  0.277E-02    8.06       1.0  T
   3    -94.5422698 -0.929277E-06  0.322E-03    8.06       4.2  T
   4    -94.5422698 -0.420884E-07  0.156E-03    8.06       8.6  T
   5    -94.5422698 -0.980529E-08  0.716E-04    8.06      18.8  T
   6    -94.5422698 -0.222805E-08  0.169E-04    8.06      79.9  T
     SCC iter.                  ...        0 min,  0.011 sec
     gradient                   ...        0 min,  0.008 sec
 * total energy  :   -93.9704494 Eh     change       -0.3324654E-03 Eh
   gradient norm :     0.0085386 Eh/α   predicted    -0.2783707E-03 ( -16.27%)
   displ. norm   :     0.1791937 α      lambda       -0.2443044E-03
   maximum displ.:     0.0560655 α      in ANC's #25, #30, #6, ...

........................................................................
.............................. CYCLE   24 ..............................
........................................................................

 iter      E             dE          RMSdq      gap      omega  full diag
   1    -94.5417670 -0.945418E+02  0.344E-02    8.06       0.0  T
   2    -94.5417678 -0.864329E-06  0.209E-02    8.06       1.0  T
   3    -94.5417682 -0.368700E-06  0.314E-03    8.06       4.3  T
   4    -94.5417682 -0.252617E-07  0.107E-03    8.06      12.6  T
   5    -94.5417682 -0.643132E-08  0.478E-04    8.06      28.2  T
   6    -94.5417683 -0.957925E-09  0.187E-04    8.06      72.2  T
     SCC iter.                  ...        0 min,  0.012 sec
     gradient                   ...        0 min,  0.007 sec
 * total energy  :   -93.9706581 Eh     change       -0.2086096E-03 Eh
   gradient norm :     0.0111576 Eh/α   predicted    -0.1260776E-03 ( -39.56%)
   displ. norm   :     0.5082700 α      lambda       -0.6820186E-03
   maximum displ.:     0.1582774 α      in ANC's #8, #6, #16, ...

........................................................................
.............................. CYCLE   25 ..............................
........................................................................

 iter      E             dE          RMSdq      gap      omega  full diag
   1    -94.5373537 -0.945374E+02  0.871E-02    8.03       0.0  T
   2    -94.5373584 -0.478521E-05  0.528E-02    8.03       1.0  T
   3    -94.5373603 -0.182724E-05  0.784E-03    8.03       1.7  T
   4    -94.5373604 -0.138850E-06  0.248E-03    8.03       5.4  T
   5    -94.5373604 -0.346597E-07  0.109E-03    8.03      12.3  T
   6    -94.5373605 -0.465811E-08  0.477E-04    8.03      28.3  T
   7    -94.5373605 -0.138409E-08  0.100E-04    8.03     134.8  T
     SCC iter.                  ...        0 min,  0.018 sec
     gradient                   ...        0 min,  0.008 sec
 * total energy  :   -93.9710892 Eh     change       -0.4311117E-03 Eh
   gradient norm :     0.0159903 Eh/α   predicted    -0.4291326E-03 (  -0.46%)
   displ. norm   :     0.2219745 α      lambda       -0.3896198E-03
   maximum displ.:     0.0806670 α      in ANC's #6, #8, #16, ...

........................................................................
.............................. CYCLE   26 ..............................
........................................................................

 iter      E             dE          RMSdq      gap      omega  full diag
   1    -94.5397733 -0.945398E+02  0.244E-02    8.04       0.0  T
   2    -94.5397738 -0.492729E-06  0.146E-02    8.04       1.0  T
   3    -94.5397740 -0.144898E-06  0.244E-03    8.04       5.5  T
   4    -94.5397740 -0.145468E-07  0.806E-04    8.04      16.7  T
   5    -94.5397740 -0.388330E-08  0.323E-04    8.04      41.7  T
     SCC iter.                  ...        0 min,  0.012 sec
     gradient                   ...        0 min,  0.007 sec
 * total energy  :   -93.9713966 Eh     change       -0.3074519E-03 Eh
   gradient norm :     0.0089486 Eh/α   predicted    -0.2044089E-03 ( -33.52%)
   displ. norm   :     0.4862902 α      lambda       -0.6136936E-03
   maximum displ.:     0.1693710 α      in ANC's #6, #8, #11, ...

........................................................................
.............................. CYCLE   27 ..............................
........................................................................

 iter      E             dE          RMSdq      gap      omega  full diag
   1    -94.5421529 -0.945422E+02  0.544E-02    8.03       0.0  T
   2    -94.5421554 -0.256998E-05  0.331E-02    8.03       1.0  T
   3    -94.5421565 -0.107816E-05  0.430E-03    8.03       3.1  T
   4    -94.5421566 -0.791921E-07  0.186E-03    8.03       7.2  T
   5    -94.5421566 -0.164434E-07  0.755E-04    8.03      17.9  T
   6    -94.5421566 -0.213571E-08  0.276E-04    8.03      48.9  T
     SCC iter.                  ...        0 min,  0.011 sec
     gradient                   ...        0 min,  0.008 sec
 * total energy  :   -93.9718343 Eh     change       -0.4376929E-03 Eh
   gradient norm :     0.0064405 Eh/α   predicted    -0.3794416E-03 ( -13.31%)
   displ. norm   :     0.5951487 α      lambda       -0.5775461E-03
   maximum displ.:     0.2379234 α      in ANC's #8, #6, #11, ...

........................................................................
.............................. CYCLE   28 ..............................
........................................................................

 iter      E             dE          RMSdq      gap      omega  full diag
   1    -94.5400023 -0.945400E+02  0.639E-02    8.01       0.0  T
   2    -94.5400053 -0.300308E-05  0.387E-02    8.01       1.0  T
   3    -94.5400065 -0.119661E-05  0.575E-03    8.01       2.3  T
   4    -94.5400066 -0.929237E-07  0.207E-03    8.01       6.5  T
   5    -94.5400066 -0.233765E-07  0.933E-04    8.01      14.4  T
   6    -94.5400066 -0.420619E-08  0.297E-04    8.01      45.3  T
     SCC iter.                  ...        0 min,  0.012 sec
     gradient                   ...        0 min,  0.007 sec
 * total energy  :   -93.9722269 Eh     change       -0.3926318E-03 Eh
   gradient norm :     0.0132648 Eh/α   predicted    -0.3910575E-03 (  -0.40%)
   displ. norm   :     0.4229660 α      lambda       -0.5870202E-03
   maximum displ.:     0.1573655 α      in ANC's #8, #11, #6, ...

........................................................................
.............................. CYCLE   29 ..............................
........................................................................

 iter      E             dE          RMSdq      gap      omega  full diag
   1    -94.5463506 -0.945464E+02  0.463E-02    8.02       0.0  T
   2    -94.5463538 -0.321992E-05  0.264E-02    8.03       1.0  T
   3    -94.5463548 -0.953886E-06  0.101E-02    8.03       1.3  T
   4    -94.5463549 -0.169067E-06  0.219E-03    8.03       6.2  T
   5    -94.5463549 -0.250363E-07  0.939E-04    8.03      14.4  T
   6    -94.5463550 -0.337482E-08  0.377E-04    8.03      35.8  T
     SCC iter.                  ...        0 min,  0.012 sec
     gradient                   ...        0 min,  0.009 sec
 * total energy  :   -93.9723859 Eh     change       -0.1589865E-03 Eh
   gradient norm :     0.0226060 Eh/α   predicted    -0.3460207E-03 ( 117.64%)
   displ. norm   :     0.3950907 α      lambda       -0.7957318E-03
   maximum displ.:     0.1383068 α      in ANC's #8, #11, #3, ...

........................................................................
.............................. CYCLE   30 ..............................
........................................................................

 iter      E             dE          RMSdq      gap      omega  full diag
   1    -94.5395908 -0.945396E+02  0.573E-02    7.99       0.0  T
   2    -94.5395961 -0.529733E-05  0.347E-02    7.99       1.0  T
   3    -94.5395982 -0.210183E-05  0.773E-03    7.99       1.7  T
   4    -94.5395984 -0.163877E-06  0.268E-03    7.99       5.0  T
   5    -94.5395984 -0.358857E-07  0.122E-03    7.99      11.0  T
   6    -94.5395984 -0.497195E-08  0.360E-04    7.99      37.4  T
   7    -94.5395984 -0.875161E-09  0.712E-05    7.99     189.4  T
     SCC iter.                  ...        0 min,  0.014 sec
     gradient                   ...        0 min,  0.008 sec
 * total energy  :   -93.9726353 Eh     change       -0.2493950E-03 Eh
   gradient norm :     0.0181739 Eh/α   predicted    -0.4599780E-03 (  84.44%)
   displ. norm   :     0.2147246 α      lambda       -0.9525793E-03
   maximum displ.:     0.1048502 α      in ANC's #18, #30, #32, ...

........................................................................
.............................. CYCLE   31 ..............................
........................................................................

 iter      E             dE          RMSdq      gap      omega  full diag
   1    -94.5387816 -0.945388E+02  0.463E-02    8.00       0.0  T
   2    -94.5387847 -0.307895E-05  0.277E-02    7.99       1.0  T
   3    -94.5387856 -0.903268E-06  0.493E-03    7.99       2.7  T
   4    -94.5387857 -0.947743E-07  0.192E-03    7.99       7.0  T
   5    -94.5387857 -0.212096E-07  0.807E-04    7.99      16.7  T
   6    -94.5387857 -0.390523E-08  0.245E-04    7.99      55.0  T
     SCC iter.                  ...        0 min,  0.010 sec
     gradient                   ...        0 min,  0.007 sec
 * total energy  :   -93.9727689 Eh     change       -0.1336218E-03 Eh
   gradient norm :     0.0240468 Eh/α   predicted    -0.4982533E-03 ( 272.88%)
   displ. norm   :     0.1652346 α      lambda       -0.9146330E-03
   maximum displ.:     0.0538288 α      in ANC's #3, #17, #39, ...

........................................................................
.............................. CYCLE   32 ..............................
........................................................................

 iter      E             dE          RMSdq      gap      omega  full diag
   1    -94.5426306 -0.945426E+02  0.391E-02    8.01       0.0  T
   2    -94.5426323 -0.171132E-05  0.235E-02    8.01       1.0  T
   3    -94.5426333 -0.916312E-06  0.481E-03    8.00       2.8  T
   4    -94.5426333 -0.734189E-07  0.182E-03    8.00       7.4  T
   5    -94.5426333 -0.151282E-07  0.750E-04    8.01      18.0  T
   6    -94.5426334 -0.253283E-08  0.193E-04    8.01      70.0  T
     SCC iter.                  ...        0 min,  0.010 sec
     gradient                   ...        0 min,  0.010 sec
 * total energy  :   -93.9732611 Eh     change       -0.4921906E-03 Eh
   gradient norm :     0.0097891 Eh/α   predicted    -0.4698093E-03 (  -4.55%)
   displ. norm   :     0.4642923 α      lambda       -0.5072265E-03
   maximum displ.:     0.1752966 α      in ANC's #8, #11, #3, ...

........................................................................
.............................. CYCLE   33 ..............................
........................................................................

 iter      E             dE          RMSdq      gap      omega  full diag
   1    -94.5403580 -0.945404E+02  0.466E-02    7.99       0.0  T
   2    -94.5403634 -0.543882E-05  0.281E-02    7.99       1.0  T
   3    -94.5403646 -0.114065E-05  0.654E-03    7.99       2.1  T
   4    -94.5403647 -0.121988E-06  0.233E-03    7.99       5.8  T
   5    -94.5403647 -0.393292E-07  0.777E-04    7.99      17.3  T
   6    -94.5403647 -0.236729E-08  0.392E-04    7.99      34.4  T
     SCC iter.                  ...        0 min,  0.012 sec
     gradient                   ...        0 min,  0.008 sec
 * total energy  :   -93.9735499 Eh     change       -0.2887559E-03 Eh
   gradient norm :     0.0167537 Eh/α   predicted    -0.3082841E-03 (   6.76%)
   displ. norm   :     0.3230817 α      lambda       -0.6274180E-03
   maximum displ.:     0.1569380 α      in ANC's #3, #10, #18, ...

........................................................................
.............................. CYCLE   34 ..............................
........................................................................

 iter      E             dE          RMSdq      gap      omega  full diag
   1    -94.5428645 -0.945429E+02  0.346E-02    8.00       0.0  T
   2    -94.5428660 -0.149790E-05  0.205E-02    8.00       1.0  T
   3    -94.5428665 -0.493094E-06  0.436E-03    8.00       3.1  T
   4    -94.5428665 -0.371871E-07  0.145E-03    8.00       9.3  T
   5    -94.5428665 -0.110452E-07  0.580E-04    8.00      23.3  T
   6    -94.5428665 -0.113995E-08  0.204E-04    8.00      66.2  T
     SCC iter.                  ...        0 min,  0.012 sec
     gradient                   ...        0 min,  0.009 sec
 * total energy  :   -93.9739218 Eh     change       -0.3718784E-03 Eh
   gradient norm :     0.0114225 Eh/α   predicted    -0.3464589E-03 (  -6.84%)
   displ. norm   :     0.4632851 α      lambda       -0.6330229E-03
   maximum displ.:     0.2240327 α      in ANC's #3, #4, #11, ...

........................................................................
.............................. CYCLE   35 ..............................
........................................................................

 iter      E             dE          RMSdq      gap      omega  full diag
   1    -94.5389184 -0.945389E+02  0.591E-02    7.99       0.0  T
   2    -94.5389215 -0.312780E-05  0.353E-02    7.99       1.0  T
   3    -94.5389225 -0.102065E-05  0.540E-03    7.99       2.5  T
   4    -94.5389226 -0.949209E-07  0.200E-03    7.99       6.7  T
   5    -94.5389226 -0.234142E-07  0.877E-04    7.99      15.4  T
   6    -94.5389226 -0.379576E-08  0.321E-04    7.99      42.0  T
     SCC iter.                  ...        0 min,  0.013 sec
     gradient                   ...        0 min,  0.008 sec
 * total energy  :   -93.9742258 Eh     change       -0.3040244E-03 Eh
   gradient norm :     0.0159445 Eh/α   predicted    -0.3844454E-03 (  26.45%)
   displ. norm   :     0.2636712 α      lambda       -0.4665971E-03
   maximum displ.:     0.1101489 α      in ANC's #3, #4, #18, ...

........................................................................
.............................. CYCLE   36 ..............................
........................................................................

 iter      E             dE          RMSdq      gap      omega  full diag
   1    -94.5396333 -0.945396E+02  0.336E-02    8.00       0.0  T
   2    -94.5396354 -0.209966E-05  0.196E-02    8.00       1.0  T
   3    -94.5396359 -0.523184E-06  0.578E-03    8.00       2.3  T
   4    -94.5396360 -0.546177E-07  0.163E-03    8.00       8.3  T
   5    -94.5396360 -0.128070E-07  0.691E-04    8.00      19.5  T
   6    -94.5396360 -0.169135E-08  0.268E-04    8.00      50.3  T
     SCC iter.                  ...        0 min,  0.011 sec
     gradient                   ...        0 min,  0.008 sec
 * total energy  :   -93.9745316 Eh     change       -0.3057656E-03 Eh
   gradient norm :     0.0097633 Eh/α   predicted    -0.2495201E-03 ( -18.39%)
   displ. norm   :     0.4618791 α      lambda       -0.4874614E-03
   maximum displ.:     0.1937390 α      in ANC's #3, #4, #7, ...

........................................................................
.............................. CYCLE   37 ..............................
........................................................................

 iter      E             dE          RMSdq      gap      omega  full diag
   1    -94.5398360 -0.945398E+02  0.506E-02    8.00       0.0  T
   2    -94.5398417 -0.571326E-05  0.301E-02    8.00       1.0  T
   3    -94.5398431 -0.135947E-05  0.782E-03    8.01       1.7  T
   4    -94.5398432 -0.115815E-06  0.238E-03    8.01       5.7  T
   5    -94.5398432 -0.370901E-07  0.839E-04    8.01      16.1  T
   6    -94.5398432 -0.290238E-08  0.340E-04    8.01      39.7  T
     SCC iter.                  ...        0 min,  0.014 sec
     gradient                   ...        0 min,  0.007 sec
 * total energy  :   -93.9748774 Eh     change       -0.3458824E-03 Eh
   gradient norm :     0.0088803 Eh/α   predicted    -0.2957308E-03 ( -14.50%)
   displ. norm   :     0.5568113 α      lambda       -0.7457616E-03
   maximum displ.:     0.2573910 α      in ANC's #4, #3, #16, ...

........................................................................
.............................. CYCLE   38 ..............................
........................................................................

 iter      E             dE          RMSdq      gap      omega  full diag
   1    -94.5391836 -0.945392E+02  0.738E-02    8.01       0.0  T
   2    -94.5391914 -0.781903E-05  0.428E-02    8.01       1.0  T
   3    -94.5391936 -0.221471E-05  0.120E-02    8.01       1.1  T
   4    -94.5391939 -0.226193E-06  0.323E-03    8.01       4.2  T
   5    -94.5391939 -0.550305E-07  0.124E-03    8.01      10.9  T
   6    -94.5391939 -0.533643E-08  0.531E-04    8.01      25.4  T
   7    -94.5391939 -0.173632E-08  0.120E-04    8.01     112.5  T
     SCC iter.                  ...        0 min,  0.014 sec
     gradient                   ...        0 min,  0.007 sec
 * total energy  :   -93.9750986 Eh     change       -0.2211400E-03 Eh
   gradient norm :     0.0218202 Eh/α   predicted    -0.4884891E-03 ( 120.90%)
   displ. norm   :     0.2733012 α      lambda       -0.9084779E-03
   maximum displ.:     0.1028558 α      in ANC's #4, #19, #50, ...

........................................................................
.............................. CYCLE   39 ..............................
........................................................................

 iter      E             dE          RMSdq      gap      omega  full diag
   1    -94.5413889 -0.945414E+02  0.479E-02    8.02       0.0  T
   2    -94.5413918 -0.285685E-05  0.277E-02    8.02       1.0  T
   3    -94.5413927 -0.856272E-06  0.881E-03    8.02       1.5  T
   4    -94.5413928 -0.145945E-06  0.211E-03    8.02       6.4  T
   5    -94.5413928 -0.186771E-07  0.914E-04    8.02      14.7  T
   6    -94.5413928 -0.295186E-08  0.376E-04    8.02      35.8  T
     SCC iter.                  ...        0 min,  0.012 sec
     gradient                   ...        0 min,  0.007 sec
 * total energy  :   -93.9754789 Eh     change       -0.3802701E-03 Eh
   gradient norm :     0.0155060 Eh/α   predicted    -0.4881696E-03 (  28.37%)
   displ. norm   :     0.1870613 α      lambda       -0.6015945E-03
   maximum displ.:     0.0736713 α      in ANC's #23, #4, #26, ...

........................................................................
.............................. CYCLE   40 ..............................
........................................................................

 iter      E             dE          RMSdq      gap      omega  full diag
   1    -94.5434656 -0.945435E+02  0.388E-02    8.02       0.0  T
   2    -94.5434675 -0.189802E-05  0.206E-02    8.02       1.0  T
   3    -94.5434680 -0.523560E-06  0.866E-03    8.02       1.6  T
   4    -94.5434682 -0.112719E-06  0.184E-03    8.02       7.3  T
   5    -94.5434682 -0.106433E-07  0.861E-04    8.02      15.7  T
   6    -94.5434682 -0.188064E-08  0.265E-04    8.02      50.8  T
     SCC iter.                  ...        0 min,  0.015 sec
     gradient                   ...        0 min,  0.007 sec
 * total energy  :   -93.9756955 Eh     change       -0.2166641E-03 Eh
   gradient norm :     0.0124854 Eh/α   predicted    -0.3113235E-03 (  43.69%)
   displ. norm   :     0.2760801 α      lambda       -0.5372351E-03
   maximum displ.:     0.1415482 α      in ANC's #4, #16, #6, ...

........................................................................
.............................. CYCLE   41 ..............................
........................................................................

 iter      E             dE          RMSdq      gap      omega  full diag
   1    -94.5396213 -0.945396E+02  0.391E-02    8.00       0.0  T
   2    -94.5396236 -0.229871E-05  0.230E-02    8.00       1.0  T
   3    -94.5396241 -0.560170E-06  0.640E-03    8.00       2.1  T
   4    -94.5396242 -0.702683E-07  0.166E-03    8.00       8.1  T
   5    -94.5396242 -0.172378E-07  0.679E-04    8.00      19.9  T
   6    -94.5396242 -0.195016E-08  0.308E-04    8.00      43.8  T
     SCC iter.                  ...        0 min,  0.014 sec
     gradient                   ...        0 min,  0.007 sec
 * total energy  :   -93.9760143 Eh     change       -0.3187369E-03 Eh
   gradient norm :     0.0129300 Eh/α   predicted    -0.2890943E-03 (  -9.30%)
   displ. norm   :     0.3661825 α      lambda       -0.7532940E-03
   maximum displ.:     0.1522815 α      in ANC's #17, #4, #21, ...

........................................................................
.............................. CYCLE   42 ..............................
........................................................................

 iter      E             dE          RMSdq      gap      omega  full diag
   1    -94.5475274 -0.945475E+02  0.613E-02    8.03       0.0  T
   2    -94.5475334 -0.604389E-05  0.359E-02    8.03       1.0  T
   3    -94.5475351 -0.163092E-05  0.115E-02    8.03       1.2  T
   4    -94.5475353 -0.230589E-06  0.298E-03    8.03       4.5  T
   5    -94.5475353 -0.331379E-07  0.107E-03    8.03      12.6  T
   6    -94.5475353 -0.247971E-08  0.479E-04    8.03      28.1  T
   7    -94.5475353 -0.106165E-08  0.110E-04    8.03     122.4  T
     SCC iter.                  ...        0 min,  0.015 sec
     gradient                   ...        0 min,  0.008 sec
 * total energy  :   -93.9760221 Eh     change       -0.7868599E-05 Eh
   gradient norm :     0.0222185 Eh/α   predicted    -0.4271556E-03 (5328.61%)
   displ. norm   :     0.4124736 α      lambda       -0.9198771E-03
   maximum displ.:     0.1903022 α      in ANC's #4, #3, #10, ...
 * RMSD in coord.:     0.7420589 α      energy gain  -0.6488881E-02 Eh

generating ANC from model Hessian ...
Using Lindh-Hessian (1995)
 Shifting diagonal of input Hessian by    1.0103971406927002E-002
 Lowest  eigenvalues of input Hessian
    0.010000    0.010036    0.000000    0.000000    0.000000    0.000000
    0.000000    0.000000    0.010122    0.010136    0.010275    0.010339
    0.010438    0.010465    0.010595    0.010751    0.010857    0.010988
 Highest eigenvalues
    1.437866    1.438709    1.441688    1.441935    1.442775    1.455365


........................................................................
.............................. CYCLE   43 ..............................
........................................................................

 iter      E             dE          RMSdq      gap      omega  full diag
   1    -94.5373502 -0.945374E+02  0.571E-02    7.98       0.0  T
   2    -94.5373540 -0.375904E-05  0.341E-02    7.99       1.0  T
   3    -94.5373550 -0.971032E-06  0.645E-03    7.99       2.1  T
   4    -94.5373550 -0.838295E-07  0.190E-03    7.99       7.1  T
   5    -94.5373551 -0.241172E-07  0.755E-04    7.99      17.9  T
   6    -94.5373551 -0.187887E-08  0.343E-04    7.99      39.3  T
     SCC iter.                  ...        0 min,  0.014 sec
     gradient                   ...        0 min,  0.007 sec
 * total energy  :   -93.9763168 Eh     change       -0.2947081E-03 Eh
   gradient norm :     0.0224693 Eh/α   predicted     0.0000000E+00 (-100.00%)
   displ. norm   :     0.1598058 α      lambda       -0.9790098E-03
   maximum displ.:     0.0514059 α      in ANC's #41, #43, #55, ...

........................................................................
.............................. CYCLE   44 ..............................
........................................................................

 iter      E             dE          RMSdq      gap      omega  full diag
   1    -94.5410177 -0.945410E+02  0.430E-02    8.00       0.0  T
   2    -94.5410190 -0.126631E-05  0.257E-02    8.00       1.0  T
   3    -94.5410195 -0.527535E-06  0.296E-03    8.00       4.5  T
   4    -94.5410195 -0.345260E-07  0.135E-03    8.00      10.0  T
   5    -94.5410195 -0.606471E-08  0.598E-04    8.00      22.6  T
   6    -94.5410195 -0.143622E-08  0.180E-04    8.00      74.8  T
     SCC iter.                  ...        0 min,  0.012 sec
     gradient                   ...        0 min,  0.009 sec
 * total energy  :   -93.9769459 Eh     change       -0.6290216E-03 Eh
   gradient norm :     0.0074969 Eh/α   predicted    -0.5020129E-03 ( -20.19%)
   displ. norm   :     0.1699251 α      lambda       -0.3879175E-03
   maximum displ.:     0.0709310 α      in ANC's #41, #24, #15, ...

........................................................................
.............................. CYCLE   45 ..............................
........................................................................

 iter      E             dE          RMSdq      gap      omega  full diag
   1    -94.5428672 -0.945429E+02  0.361E-02    8.00       0.0  T
   2    -94.5428687 -0.144406E-05  0.213E-02    8.00       1.0  T
   3    -94.5428690 -0.330454E-06  0.480E-03    8.00       2.8  T
   4    -94.5428690 -0.309889E-07  0.130E-03    8.00      10.4  T
   5    -94.5428690 -0.103597E-07  0.520E-04    8.00      25.9  T
   6    -94.5428690 -0.123237E-08  0.233E-04    8.00      57.9  T
     SCC iter.                  ...        0 min,  0.014 sec
     gradient                   ...        0 min,  0.008 sec
 * total energy  :   -93.9772476 Eh     change       -0.3017216E-03 Eh
   gradient norm :     0.0046243 Eh/α   predicted    -0.1996584E-03 ( -33.83%)
   displ. norm   :     0.4132533 α      lambda       -0.6210406E-03
   maximum displ.:     0.1723055 α      in ANC's #41, #24, #15, ...

........................................................................
.............................. CYCLE   46 ..............................
........................................................................

 iter      E             dE          RMSdq      gap      omega  full diag
   1    -94.5405744 -0.945406E+02  0.760E-02    7.97       0.0  T
   2    -94.5405814 -0.698936E-05  0.461E-02    7.97       1.0  T
   3    -94.5405828 -0.136774E-05  0.676E-03    7.98       2.0  T
   4    -94.5405830 -0.202118E-06  0.216E-03    7.98       6.2  T
   5    -94.5405830 -0.435111E-07  0.747E-04    7.98      18.0  T
   6    -94.5405830 -0.209010E-08  0.414E-04    7.98      32.6  T
     SCC iter.                  ...        0 min,  0.014 sec
     gradient                   ...        0 min,  0.008 sec
 * total energy  :   -93.9774391 Eh     change       -0.1915444E-03 Eh
   gradient norm :     0.0168714 Eh/α   predicted    -0.3635649E-03 (  89.81%)
   displ. norm   :     0.0937708 α      lambda       -0.4904529E-03
   maximum displ.:     0.0310351 α      in ANC's #55, #41, #56, ...

........................................................................
.............................. CYCLE   47 ..............................
........................................................................

 iter      E             dE          RMSdq      gap      omega  full diag
   1    -94.5434270 -0.945434E+02  0.247E-02    7.99       0.0  T
   2    -94.5434274 -0.463532E-06  0.145E-02    7.99       1.0  T
   3    -94.5434276 -0.144835E-06  0.336E-03    7.99       4.0  T
   4    -94.5434276 -0.222165E-07  0.896E-04    7.99      15.1  T
   5    -94.5434276 -0.218976E-08  0.410E-04    7.99      32.9  T
     SCC iter.                  ...        0 min,  0.009 sec
     gradient                   ...        0 min,  0.008 sec
 * total energy  :   -93.9776754 Eh     change       -0.2362617E-03 Eh
   gradient norm :     0.0056269 Eh/α   predicted    -0.2473887E-03 (   4.71%)
   displ. norm   :     0.1380477 α      lambda       -0.1327264E-03
   maximum displ.:     0.0441977 α      in ANC's #24, #11, #15, ...

........................................................................
.............................. CYCLE   48 ..............................
........................................................................

 iter      E             dE          RMSdq      gap      omega  full diag
   1    -94.5429730 -0.945430E+02  0.217E-02    7.99       0.0  T
   2    -94.5429739 -0.895090E-06  0.128E-02    7.99       1.1  T
   3    -94.5429741 -0.161861E-06  0.314E-03    7.99       4.3  T
   4    -94.5429741 -0.111305E-07  0.829E-04    7.99      16.3  T
   5    -94.5429741 -0.491077E-08  0.243E-04    7.99      55.6  T
     SCC iter.                  ...        0 min,  0.027 sec
     gradient                   ...        0 min,  0.011 sec
 * total energy  :   -93.9777806 Eh     change       -0.1051718E-03 Eh
   gradient norm :     0.0029509 Eh/α   predicted    -0.6762932E-04 ( -35.70%)
   displ. norm   :     0.2670841 α      lambda       -0.1770573E-03
   maximum displ.:     0.0731399 α      in ANC's #24, #11, #15, ...

........................................................................
.............................. CYCLE   49 ..............................
........................................................................

 iter      E             dE          RMSdq      gap      omega  full diag
   1    -94.5415236 -0.945415E+02  0.397E-02    7.97       0.0  T
   2    -94.5415264 -0.272292E-05  0.237E-02    7.98       1.0  T
   3    -94.5415269 -0.519528E-06  0.528E-03    7.98       2.6  T
   4    -94.5415269 -0.470665E-07  0.149E-03    7.98       9.1  T
   5    -94.5415269 -0.141734E-07  0.511E-04    7.98      26.4  T
   6    -94.5415269 -0.661004E-09  0.243E-04    7.98      55.5  T
     SCC iter.                  ...        0 min,  0.016 sec
     gradient                   ...        0 min,  0.007 sec
 * total energy  :   -93.9778670 Eh     change       -0.8644624E-04 Eh
   gradient norm :     0.0049965 Eh/α   predicted    -0.9484443E-04 (   9.71%)
   displ. norm   :     0.0568237 α      lambda       -0.5486130E-04
   maximum displ.:     0.0222389 α      in ANC's #7, #5, #2, ...

........................................................................
.............................. CYCLE   50 ..............................
........................................................................

 iter      E             dE          RMSdq      gap      omega  full diag
   1    -94.5424761 -0.945425E+02  0.889E-03    7.98       0.0  T
   2    -94.5424763 -0.146231E-06  0.518E-03    7.98       2.6  T
   3    -94.5424763 -0.305530E-07  0.193E-03    7.98       7.0  T
   4    -94.5424763 -0.457791E-08  0.403E-04    7.98      33.5  T
   5    -94.5424763 -0.818630E-09  0.181E-04    7.98      74.3  T
     SCC iter.                  ...        0 min,  0.014 sec
     gradient                   ...        0 min,  0.007 sec
 * total energy  :   -93.9779053 Eh     change       -0.3833827E-04 Eh
   gradient norm :     0.0027901 Eh/α   predicted    -0.2751949E-04 ( -28.22%)
   displ. norm   :     0.1258244 α      lambda       -0.5752119E-04
   maximum displ.:     0.0463091 α      in ANC's #7, #2, #5, ...

........................................................................
.............................. CYCLE   51 ..............................
........................................................................

 iter      E             dE          RMSdq      gap      omega  full diag
   1    -94.5430325 -0.945430E+02  0.167E-02    7.97       0.0  T
   2    -94.5430328 -0.305655E-06  0.992E-03    7.98       1.4  T
   3    -94.5430329 -0.872779E-07  0.308E-03    7.97       4.4  T
   4    -94.5430329 -0.132230E-07  0.634E-04    7.97      21.3  T
   5    -94.5430329 -0.158742E-08  0.309E-04    7.97      43.6  T
     SCC iter.                  ...        0 min,  0.013 sec
     gradient                   ...        0 min,  0.008 sec
 * total energy  :   -93.9779443 Eh     change       -0.3894186E-04 Eh
   gradient norm :     0.0027096 Eh/α   predicted    -0.2922001E-04 ( -24.97%)
   displ. norm   :     0.1438479 α      lambda       -0.4569442E-04
   maximum displ.:     0.0535813 α      in ANC's #7, #2, #4, ...

........................................................................
.............................. CYCLE   52 ..............................
........................................................................

 iter      E             dE          RMSdq      gap      omega  full diag
   1    -94.5429999 -0.945430E+02  0.184E-02    7.97       0.0  T
   2    -94.5430002 -0.329505E-06  0.110E-02    7.97       1.2  T
   3    -94.5430003 -0.101730E-06  0.275E-03    7.97       4.9  T
   4    -94.5430003 -0.121635E-07  0.723E-04    7.97      18.7  T
   5    -94.5430003 -0.268034E-08  0.304E-04    7.97      44.4  T
     SCC iter.                  ...        0 min,  0.011 sec
     gradient                   ...        0 min,  0.007 sec
 * total energy  :   -93.9779706 Eh     change       -0.2627637E-04 Eh
   gradient norm :     0.0021872 Eh/α   predicted    -0.2332269E-04 ( -11.24%)
   displ. norm   :     0.1131500 α      lambda       -0.3081231E-04
   maximum displ.:     0.0421334 α      in ANC's #4, #2, #7, ...

........................................................................
.............................. CYCLE   53 ..............................
........................................................................

 iter      E             dE          RMSdq      gap      omega  full diag
   1    -94.5429262 -0.945429E+02  0.154E-02    7.96       0.0  T
   2    -94.5429265 -0.236021E-06  0.931E-03    7.96       1.4  T
   3    -94.5429266 -0.906864E-07  0.195E-03    7.96       6.9  T
   4    -94.5429266 -0.668022E-08  0.554E-04    7.96      24.3  T
   5    -94.5429266 -0.160735E-08  0.212E-04    7.96      63.6  T
     SCC iter.                  ...        0 min,  0.010 sec
     gradient                   ...        0 min,  0.007 sec
 * total energy  :   -93.9779917 Eh     change       -0.2119054E-04 Eh
   gradient norm :     0.0025259 Eh/α   predicted    -0.1560442E-04 ( -26.36%)
   displ. norm   :     0.1544446 α      lambda       -0.3224118E-04
   maximum displ.:     0.0616346 α      in ANC's #4, #2, #7, ...

........................................................................
.............................. CYCLE   54 ..............................
........................................................................

 iter      E             dE          RMSdq      gap      omega  full diag
   1    -94.5426995 -0.945427E+02  0.189E-02    7.96       0.0  T
   2    -94.5426999 -0.396409E-06  0.114E-02    7.96       1.2  T
   3    -94.5427000 -0.122404E-06  0.250E-03    7.96       5.4  T
   4    -94.5427000 -0.953909E-08  0.662E-04    7.96      20.4  T
   5    -94.5427000 -0.264811E-08  0.243E-04    7.96      55.4  T
     SCC iter.                  ...        0 min,  0.011 sec
     gradient                   ...        0 min,  0.007 sec
 * total energy  :   -93.9780174 Eh     change       -0.2568472E-04 Eh
   gradient norm :     0.0024827 Eh/α   predicted    -0.1650787E-04 ( -35.73%)
   displ. norm   :     0.2002977 α      lambda       -0.3961913E-04
   maximum displ.:     0.0852936 α      in ANC's #4, #2, #7, ...

........................................................................
.............................. CYCLE   55 ..............................
........................................................................

 iter      E             dE          RMSdq      gap      omega  full diag
   1    -94.5424407 -0.945424E+02  0.228E-02    7.96       0.0  T
   2    -94.5424413 -0.555828E-06  0.136E-02    7.96       1.0  T
   3    -94.5424415 -0.177126E-06  0.343E-03    7.96       3.9  T
   4    -94.5424415 -0.162585E-07  0.769E-04    7.96      17.5  T
   5    -94.5424415 -0.328941E-08  0.324E-04    7.96      41.6  T
     SCC iter.                  ...        0 min,  0.008 sec
     gradient                   ...        0 min,  0.007 sec
 * total energy  :   -93.9780384 Eh     change       -0.2095176E-04 Eh
   gradient norm :     0.0024202 Eh/α   predicted    -0.2060503E-04 (  -1.65%)
   displ. norm   :     0.0439377 α      lambda       -0.1988726E-04
   maximum displ.:     0.0152870 α      in ANC's #6, #47, #2, ...

........................................................................
.............................. CYCLE   56 ..............................
........................................................................

 iter      E             dE          RMSdq      gap      omega  full diag
   1    -94.5432589 -0.945433E+02  0.691E-03    7.96       0.0  T
   2    -94.5432590 -0.575691E-07  0.407E-03    7.96       3.3  T
   3    -94.5432590 -0.170116E-07  0.112E-03    7.96      12.1  T
   4    -94.5432590 -0.126610E-08  0.265E-04    7.96      50.8  T
   5    -94.5432590 -0.406843E-09  0.976E-05    7.96     138.2  T
     SCC iter.                  ...        0 min,  0.011 sec
     gradient                   ...        0 min,  0.007 sec
 * total energy  :   -93.9780518 Eh     change       -0.1345859E-04 Eh
   gradient norm :     0.0019603 Eh/α   predicted    -0.9963146E-05 ( -25.97%)
   displ. norm   :     0.1257895 α      lambda       -0.2628195E-04
   maximum displ.:     0.0596215 α      in ANC's #2, #4, #10, ...

........................................................................
.............................. CYCLE   57 ..............................
........................................................................

 iter      E             dE          RMSdq      gap      omega  full diag
   1    -94.5432439 -0.945432E+02  0.148E-02    7.96       0.0  T
   2    -94.5432443 -0.352143E-06  0.874E-03    7.96       1.5  T
   3    -94.5432444 -0.983437E-07  0.224E-03    7.96       6.0  T
   4    -94.5432444 -0.942858E-08  0.674E-04    7.96      20.0  T
   5    -94.5432444 -0.272649E-08  0.260E-04    7.96      51.8  T
     SCC iter.                  ...        0 min,  0.011 sec
     gradient                   ...        0 min,  0.007 sec
 * total energy  :   -93.9780703 Eh     change       -0.1845535E-04 Eh
   gradient norm :     0.0021508 Eh/α   predicted    -0.1323386E-04 ( -28.29%)
   displ. norm   :     0.0524939 α      lambda       -0.1412651E-04
   maximum displ.:     0.0255846 α      in ANC's #2, #4, #8, ...

........................................................................
.............................. CYCLE   58 ..............................
........................................................................

 iter      E             dE          RMSdq      gap      omega  full diag
   1    -94.5434515 -0.945435E+02  0.592E-03    7.96       0.0  T
   2    -94.5434515 -0.607745E-07  0.334E-03    7.96       4.0  T
   3    -94.5434515 -0.127621E-07  0.113E-03    7.96      12.0  T
   4    -94.5434515 -0.104963E-08  0.221E-04    7.96      61.0  T
   5    -94.5434515 -0.339114E-09  0.807E-05    7.96     167.1  T
     SCC iter.                  ...        0 min,  0.011 sec
     gradient                   ...        0 min,  0.007 sec
 * total energy  :   -93.9780810 Eh     change       -0.1069301E-04 Eh
   gradient norm :     0.0021101 Eh/α   predicted    -0.7084358E-05 ( -33.75%)
   displ. norm   :     0.1069815 α      lambda       -0.2286209E-04
   maximum displ.:     0.0584079 α      in ANC's #2, #4, #8, ...

........................................................................
.............................. CYCLE   59 ..............................
........................................................................

 iter      E             dE          RMSdq      gap      omega  full diag
   1    -94.5432611 -0.945433E+02  0.109E-02    7.96       0.0  T
   2    -94.5432613 -0.198988E-06  0.559E-03    7.96       2.4  T
   3    -94.5432613 -0.344597E-07  0.255E-03    7.96       5.3  T
   4    -94.5432613 -0.660603E-08  0.413E-04    7.96      32.7  T
   5    -94.5432613 -0.974140E-09  0.179E-04    7.96      75.4  T
     SCC iter.                  ...        0 min,  0.011 sec
     gradient                   ...        0 min,  0.007 sec
 * total energy  :   -93.9780973 Eh     change       -0.1634657E-04 Eh
   gradient norm :     0.0014838 Eh/α   predicted    -0.1156323E-04 ( -29.26%)
[...]
H8-O6-Fe1-O7=263.00           H8-O6-Fe1-O23= 20.61          H9-O6-Fe1-O2=206.07           H9-O6-Fe1-O3= 77.82           
H9-O6-Fe1-O4=  5.99           H9-O6-Fe1-O5=301.47           H9-O6-Fe1-O7=136.43           H9-O6-Fe1-O23=254.04          
H10-O7-Fe1-O2=267.87          H10-O7-Fe1-O3= 33.32          H10-O7-Fe1-O4=112.40          H10-O7-Fe1-O5=181.51          
H10-O7-Fe1-O6=335.06          H10-O7-Fe1-O23=193.32         H11-O7-Fe1-O2=145.07          H11-O7-Fe1-O3=270.52          
H11-O7-Fe1-O4=349.60          H11-O7-Fe1-O5= 58.71          H11-O7-Fe1-O6=212.26          H11-O7-Fe1-O23= 70.52         

 CMA Distance (Angstroems)
 ---------------------------
R(CMA):  0.6648
           -------------------------------------------------
          |                Final Singlepoint                |
           -------------------------------------------------

          ...................................................
          :                      SETUP                      :
          :.................................................:
          :  # basis functions                 118          :
          :  # atomic orbitals                 117          :
          :  # shells                           75          :
          :  # electrons                       149          :
          :  max. iterations                   250          :
          :  Hamiltonian                  GFN2-xTB          :
          :  restarted?                      false          :
          :  GBSA solvation                   true          :
          :  PC potential                    false          :
          :  electronic temp.          300.0000000     K    :
          :  accuracy                    1.0000000          :
          :  -> integral cutoff          0.2500000E+02      :
          :  -> integral neglect         0.1000000E-07      :
          :  -> SCF convergence          0.1000000E-05 Eh   :
          :  -> wf. convergence          0.1000000E-03 e    :
          :  Broyden damping             0.4000000          :
          ...................................................

 iter      E             dE          RMSdq      gap      omega  full diag
   1    -94.5437321 -0.945437E+02  0.140E-05    7.94       0.0  T
   2    -94.5437321 -0.497380E-12  0.847E-06    7.94    1592.3  T
   3    -94.5437321 -0.383693E-12  0.217E-06    7.94    6223.3  T

   *** convergence criteria satisfied after 3 iterations ***

         #    Occupation            Energy/Eh            Energy/eV
      -------------------------------------------------------------
         1        2.0000           -0.6624020             -18.0249
       ...           ...                  ...                  ...
        71        2.0000           -0.4109498             -11.1825
        72        2.0000           -0.4086571             -11.1201
        73        1.0000           -0.3704628             -10.0808
        74        1.0000           -0.3669434              -9.9850
        75        1.0000           -0.3548986              -9.6573
        76        1.0000           -0.3443792              -9.3710
        77        1.0000           -0.3378173              -9.1925 (HOMO)
        78                         -0.0458527              -1.2477 (LUMO)
        79                          0.0078070               0.2124
        80                          0.0296136               0.8058
        81                          0.0529806               1.4417
        82                          0.0809441               2.2026
       ...                                ...                  ...
       117                          1.2776115              34.7656
      -------------------------------------------------------------
                  HL-Gap            0.2919646 Eh            7.9448 eV
             Fermi-level           -0.2906829 Eh           -7.9099 eV

 SCC (total)                   0 d,  0 h,  0 min,  0.016 sec
 SCC setup                      ...        0 min,  0.001 sec (  3.133%)
 Dispersion                     ...        0 min,  0.000 sec (  1.529%)
 classical contributions        ...        0 min,  0.000 sec (  0.559%)
 integral evaluation            ...        0 min,  0.002 sec ( 10.966%)
 iterations                     ...        0 min,  0.006 sec ( 37.955%)
 molecular gradient             ...        0 min,  0.007 sec ( 44.042%)
 printout                       ...        0 min,  0.000 sec (  1.715%)

         :::::::::::::::::::::::::::::::::::::::::::::::::::::
         ::                     SUMMARY                     ::
         :::::::::::::::::::::::::::::::::::::::::::::::::::::
         :: total energy             -93.978281571610 Eh    ::
         :: total w/o Gsasa/hb       -93.889038865446 Eh    ::
         :: gradient norm              0.000042501008 Eh/a0 ::
         :: HOMO-LUMO gap              7.944762384757 eV    ::
         ::.................................................::
         :: SCC energy               -94.543732102434 Eh    ::
         :: -> isotropic ES            0.977874765347 Eh    ::
         :: -> anisotropic ES         -0.115688116557 Eh    ::
         :: -> anisotropic XC         -0.004288846762 Eh    ::
         :: -> dispersion             -0.032173781060 Eh    ::
         :: -> Gsolv                  -0.704946415232 Eh    ::
         ::    -> Gelec               -0.615703709068 Eh    ::
         ::    -> Gsasa                0.003310275009 Eh    ::
         ::    -> Ghb                 -0.093633740871 Eh    ::
         ::    -> Gshift               0.001080759698 Eh    ::
         :: repulsion energy           0.563772959291 Eh    ::
         :: add. restraining           0.000000000000 Eh    ::
         :: total charge               3.000000000121 e     ::
         :::::::::::::::::::::::::::::::::::::::::::::::::::::

           -------------------------------------------------
          |                Property Printout                |
           -------------------------------------------------

    * Orbital Energies and Occupations

         #    Occupation            Energy/Eh            Energy/eV
      -------------------------------------------------------------
         1        2.0000           -0.6624020             -18.0249
       ...           ...                  ...                  ...
        65        2.0000           -0.4222020             -11.4887
        66        2.0000           -0.4221516             -11.4873
        67        2.0000           -0.4212359             -11.4624
        68        2.0000           -0.4206347             -11.4461
        69        2.0000           -0.4201380             -11.4325
        70        2.0000           -0.4193563             -11.4113
        71        2.0000           -0.4109498             -11.1825
        72        2.0000           -0.4086571             -11.1201
        73        1.0000           -0.3704628             -10.0808
        74        1.0000           -0.3669434              -9.9850
        75        1.0000           -0.3548986              -9.6573
        76        1.0000           -0.3443792              -9.3710
        77        1.0000           -0.3378173              -9.1925 (HOMO)
        78                         -0.0458527              -1.2477 (LUMO)
        79                          0.0078070               0.2124
        80                          0.0296136               0.8058
        81                          0.0529806               1.4417
        82                          0.0809441               2.2026
        83                          0.0940312               2.5587
        84                          0.0990792               2.6961
        85                          0.1316240               3.5817
        86                          0.1431418               3.8951
        87                          0.1673410               4.5536
        88                          0.1683154               4.5801
       ...                                ...                  ...
       117                          1.2776115              34.7656
      -------------------------------------------------------------
                  HL-Gap            0.2919646 Eh            7.9448 eV
             Fermi-level           -0.2906829 Eh           -7.9099 eV

     #   Z          covCN         q      C6AA      α(0)
     1  26 Fe       2.325     1.678     4.558     6.887
     2   8 O        2.037    -0.632    25.868     6.869
     3   8 O        2.080    -0.630    25.815     6.862
     4   8 O        2.000    -0.632    25.877     6.870
     5   8 O        1.839    -0.633    25.923     6.876
     6   8 O        1.928    -0.630    25.831     6.864
     7   8 O        1.950    -0.634    25.921     6.876
     8   1 H        0.803     0.383     0.516     1.129
     9   1 H        0.804     0.379     0.525     1.139
    10   1 H        0.803     0.380     0.522     1.135
    11   1 H        0.803     0.381     0.521     1.134
    12   1 H        0.804     0.385     0.514     1.126
    13   1 H        0.805     0.391     0.501     1.112
    14   1 H        0.803     0.387     0.510     1.122
    15   1 H        0.804     0.382     0.518     1.131
    16   1 H        0.803     0.389     0.505     1.116
    17   1 H        0.802     0.391     0.501     1.112
    18   1 H        0.802     0.385     0.512     1.124
    19   1 H        0.805     0.375     0.532     1.146
    20   8 O        1.610    -0.667    26.840     6.992
    21   8 O        1.609    -0.666    26.822     6.990
    22   8 O        1.609    -0.660    26.673     6.970
    23   8 O        1.741    -0.625    25.726     6.849
    24   8 O        1.610    -0.661    26.702     6.974
    25   8 O        1.609    -0.672    26.986     7.011
    26   8 O        1.610    -0.669    26.897     7.000
    27   8 O        1.608    -0.680    27.188     7.037
    28   8 O        1.608    -0.671    26.950     7.007
    29   8 O        1.609    -0.676    27.085     7.024
    30   8 O        1.609    -0.670    26.919     7.002
    31   8 O        1.608    -0.685    27.312     7.053
    32   1 H        0.803     0.361     0.563     1.179
    33   1 H        0.806     0.333     0.628     1.245
    34   1 H        0.806     0.348     0.592     1.209
    35   1 H        0.805     0.371     0.543     1.157
    36   1 H        0.806     0.344     0.602     1.218
    37   1 H        0.804     0.364     0.557     1.173
    38   1 H        0.806     0.343     0.603     1.220
    39   1 H        0.804     0.369     0.545     1.160
    40   1 H        0.806     0.344     0.602     1.218
    41   1 H        0.803     0.365     0.554     1.169
    42   1 H        0.803     0.381     0.522     1.135
    43   1 H        0.805     0.370     0.543     1.158
    44   1 H        0.806     0.339     0.614     1.231
    45   1 H        0.803     0.373     0.537     1.151
    46   1 H        0.806     0.336     0.621     1.238
    47   1 H        0.803     0.362     0.560     1.176
    48   1 H        0.806     0.339     0.615     1.232
    49   1 H        0.803     0.364     0.556     1.172
    50   1 H        0.804     0.350     0.587     1.204
    51   1 H        0.804     0.358     0.571     1.187
    52   1 H        0.806     0.332     0.633     1.249
    53   1 H        0.804     0.356     0.575     1.191
    54   1 H        0.806     0.339     0.616     1.232
    55   1 H        0.803     0.363     0.558     1.174

 Mol. C6AA /au·bohr⁶  :      14493.849075
 Mol. C8AA /au·bohr⁸  :     270688.055064
 Mol. α(0) /au        :        174.217460


Wiberg/Mayer (AO) data.
largest (>0.10) Wiberg bond orders for each atom

 ---------------------------------------------------------------------------
     #   Z sym  total        # sym  WBO       # sym  WBO       # sym  WBO
 ---------------------------------------------------------------------------
     1  26 Fe   1.768 --     3 O    0.295     4 O    0.270     2 O    0.263
                             7 O    0.248     6 O    0.241     5 O    0.206
                            23 O    0.176
     2   8 O    1.924 --    13 H    0.810    12 H    0.795     1 Fe   0.263
     3   8 O    1.923 --    16 H    0.791    17 H    0.763     1 Fe   0.295
     4   8 O    1.924 --    15 H    0.805    14 H    0.784     1 Fe   0.270
     5   8 O    1.932 --    19 H    0.853    18 H    0.783     1 Fe   0.206
     6   8 O    1.923 --     9 H    0.821     8 H    0.794     1 Fe   0.241
     7   8 O    1.916 --    10 H    0.804    11 H    0.790     1 Fe   0.248
     8   1 H    0.850 --     6 O    0.794
     9   1 H    0.854 --     6 O    0.821
    10   1 H    0.853 --     7 O    0.804
    11   1 H    0.852 --     7 O    0.790
    12   1 H    0.848 --     2 O    0.795
    13   1 H    0.841 --     2 O    0.810
    14   1 H    0.847 --     4 O    0.784
    15   1 H    0.849 --     4 O    0.805
    16   1 H    0.845 --     3 O    0.791
    17   1 H    0.844 --     3 O    0.763
    18   1 H    0.850 --     5 O    0.783
    19   1 H    0.857 --     5 O    0.853
    20   8 O    1.840 --    34 H    0.871    35 H    0.854
    21   8 O    1.852 --    54 H    0.878    55 H    0.818
    22   8 O    1.871 --    40 H    0.873    41 H    0.822
    23   8 O    1.934 --    43 H    0.854    42 H    0.797     1 Fe   0.176
    24   8 O    1.853 --    36 H    0.874    37 H    0.834
    25   8 O    1.831 --    33 H    0.880    32 H    0.821
    26   8 O    1.810 --    52 H    0.884    53 H    0.851
    27   8 O    1.848 --    50 H    0.841    51 H    0.830
    28   8 O    1.851 --    48 H    0.876    49 H    0.811
    29   8 O    1.834 --    38 H    0.873    39 H    0.825
    30   8 O    1.844 --    46 H    0.879    47 H    0.818
    31   8 O    1.827 --    44 H    0.874    45 H    0.811
    32   1 H    0.870 --    25 O    0.821
    33   1 H    0.889 --    25 O    0.880
    34   1 H    0.879 --    20 O    0.871
    35   1 H    0.863 --    20 O    0.854
    36   1 H    0.881 --    24 O    0.874
    37   1 H    0.868 --    24 O    0.834
    38   1 H    0.882 --    29 O    0.873
    39   1 H    0.864 --    29 O    0.825
    40   1 H    0.881 --    22 O    0.873
    41   1 H    0.867 --    22 O    0.822
    42   1 H    0.854 --    23 O    0.797
    43   1 H    0.863 --    23 O    0.854
    44   1 H    0.885 --    31 O    0.874
    45   1 H    0.861 --    31 O    0.811
    46   1 H    0.887 --    30 O    0.879
    47   1 H    0.869 --    30 O    0.818
    48   1 H    0.885 --    28 O    0.876
    49   1 H    0.867 --    28 O    0.811
    50   1 H    0.877 --    27 O    0.841
    51   1 H    0.872 --    27 O    0.830
    52   1 H    0.890 --    26 O    0.884
    53   1 H    0.874 --    26 O    0.851
    54   1 H    0.885 --    21 O    0.878
    55   1 H    0.868 --    21 O    0.818
 ---------------------------------------------------------------------------

Topologies differ in total number of bonds
Writing topology from bond orders to xtbtopo.mol

molecular dipole:
                 x           y           z       tot (Debye)
 q only:       -1.962      -0.444      -1.696
   full:       -2.193      -0.383      -2.225       8.000
molecular quadrupole (traceless):
                xx          xy          yy          xz          yz          zz
 q only:       21.737      -8.051      -2.714       5.559      -1.103     -19.022
  q+dip:       24.748     -10.566      -2.444       6.533      -1.723     -22.303
   full:       24.703     -10.574      -2.384       6.606      -1.708     -22.319

           -------------------------------------------------
          |                Geometry Summary                 |
           -------------------------------------------------

      molecular mass/u    :      380.1203000
   center of mass at/Å    :        0.0265361      -0.0207053       0.0401137
  moments of inertia/u·Å² :        0.1968083E+04   0.2863879E+04   0.3082678E+04
rotational constants/cm⁻¹ :        0.8565508E-02   0.5886293E-02   0.5468503E-02

 * 36 selected distances

     #   Z          #   Z                                           value/Å
     6   8 O        8   1 H                                       0.9770089
     6   8 O        9   1 H                                       0.9681075
     7   8 O       10   1 H                                       0.9759904
     7   8 O       11   1 H                                       0.9797073
     2   8 O       12   1 H                                       0.9729936
     2   8 O       13   1 H                                       0.9674951
     4   8 O       14   1 H                                       0.9797465
     4   8 O       15   1 H                                       0.9709369
     3   8 O       16   1 H                                       0.9760265
     3   8 O       17   1 H                                       0.9870523 (max)
     5   8 O       18   1 H                                       0.9835292
     5   8 O       19   1 H                                       0.9595892
    25   8 O       32   1 H                                       0.9776509
    25   8 O       33   1 H                                       0.9563211 (min)
    20   8 O       34   1 H                                       0.9578682
    20   8 O       35   1 H                                       0.9672018
    24   8 O       36   1 H                                       0.9579645
    24   8 O       37   1 H                                       0.9722924
    29   8 O       38   1 H                                       0.9574455
    29   8 O       39   1 H                                       0.9748387
    22   8 O       40   1 H                                       0.9580579
    22   8 O       41   1 H                                       0.9773563
    23   8 O       42   1 H                                       0.9787305
    23   8 O       43   1 H                                       0.9623987
    31   8 O       44   1 H                                       0.9567478
    31   8 O       45   1 H                                       0.9807211
    30   8 O       46   1 H                                       0.9569298
    30   8 O       47   1 H                                       0.9797201
    28   8 O       48   1 H                                       0.9570969
    28   8 O       49   1 H                                       0.9818027
    27   8 O       50   1 H                                       0.9697449
    27   8 O       51   1 H                                       0.9747073
    26   8 O       52   1 H                                       0.9565136
    26   8 O       53   1 H                                       0.9695957
    21   8 O       54   1 H                                       0.9569399
    21   8 O       55   1 H                                       0.9778864

 * 1 distinct bonds (by element types)

   Z      Z             #   av. dist./Å        max./Å        min./Å
   1 H    8 O          36     0.9698532     0.9870523     0.9563211


optimized geometry written to: xtbopt.xyz


           -------------------------------------------------
          | TOTAL ENERGY              -93.978281571610 Eh   |
          | GRADIENT NORM               0.000042501008 Eh/α |
          | HOMO-LUMO GAP               7.944762384757 eV   |
           -------------------------------------------------

------------------------------------------------------------------------
 * finished run on 2024/05/10 at 17:52:44.020     
------------------------------------------------------------------------
 total:
 * wall-time:     0 d,  0 h,  0 min,  2.837 sec
 *  cpu-time:     0 d,  0 h,  0 min, 20.640 sec
 * ratio c/w:     7.274 speedup
 SCF:
 * wall-time:     0 d,  0 h,  0 min,  0.066 sec
 *  cpu-time:     0 d,  0 h,  0 min,  0.419 sec
 * ratio c/w:     6.403 speedup
 ANC optimizer:
 * wall-time:     0 d,  0 h,  0 min,  2.513 sec
 *  cpu-time:     0 d,  0 h,  0 min, 18.619 sec
 * ratio c/w:     7.409 speedup

