      -----------------------------------------------------------      
     |                   =====================                   |     
     |                           x T B                           |     
     |                   =====================                   |     
     |                         S. Grimme                         |     
     |          Mulliken Center for Theoretical Chemistry        |     
     |                    University of Bonn                     |     
      -----------------------------------------------------------      

   * xtb version 6.6.0 (conda-forge) compiled by 'runner@Mac-1676020848589.local' on 2023-02-10

   xtb is free software: you can redistribute it and/or modify it under
   the terms of the GNU Lesser General Public License as published by
   the Free Software Foundation, either version 3 of the License, or
   (at your option) any later version.
   
   xtb is distributed in the hope that it will be useful,
   but WITHOUT ANY WARRANTY; without even the implied warranty of
   MERCHANTABILITY or FITNESS FOR A PARTICULAR PURPOSE.  See the
   GNU Lesser General Public License for more details.
   
   Cite this work as:
   * C. Bannwarth, E. Caldeweyher, S. Ehlert, A. Hansen, P. Pracht,
     J. Seibert, S. Spicher, S. Grimme, WIREs Comput. Mol. Sci., 2020, 11,
     e01493. DOI: 10.1002/wcms.1493
   
   for GFN2-xTB:
   * C. Bannwarth, S. Ehlert and S. Grimme., J. Chem. Theory Comput., 2019,
     15, 1652-1671. DOI: 10.1021/acs.jctc.8b01176
   for GFN1-xTB:
   * S. Grimme, C. Bannwarth, P. Shushkov, J. Chem. Theory Comput., 2017,
     13, 1989-2009. DOI: 10.1021/acs.jctc.7b00118
   for GFN0-xTB:
   * P. Pracht, E. Caldeweyher, S. Ehlert, S. Grimme, ChemRxiv, 2019, preprint.
     DOI: 10.26434/chemrxiv.8326202.v1
   for GFN-FF:
   * S. Spicher and S. Grimme, Angew. Chem. Int. Ed., 2020, 59, 15665-15673.
     DOI: 10.1002/anie.202004239
   
   for ALPB and GBSA implicit solvation:
   * S. Ehlert, M. Stahn, S. Spicher, S. Grimme, J. Chem. Theory Comput.,
     2021, 17, 4250-4261. DOI: 10.1021/acs.jctc.1c00471
   
   for DFT-D4:
   * E. Caldeweyher, C. Bannwarth and S. Grimme, J. Chem. Phys., 2017,
     147, 034112. DOI: 10.1063/1.4993215
   * E. Caldeweyher, S. Ehlert, A. Hansen, H. Neugebauer, S. Spicher,
     C. Bannwarth and S. Grimme, J. Chem. Phys., 2019, 150, 154122.
     DOI: 10.1063/1.5090222
   * E. Caldeweyher, J.-M. Mewes, S. Ehlert and S. Grimme, Phys. Chem. Chem. Phys.
     2020, 22, 8499-8512. DOI: 10.1039/D0CP00502A
   
   for sTDA-xTB:
   * S. Grimme and C. Bannwarth, J. Chem. Phys., 2016, 145, 054103.
     DOI: 10.1063/1.4959605
   
   in the mass-spec context:
   * V. Asgeirsson, C. Bauer and S. Grimme, Chem. Sci., 2017, 8, 4879.
     DOI: 10.1039/c7sc00601b
   * J. Koopman and S. Grimme, ACS Omega 2019, 4, 12, 15120-15133.
     DOI: 10.1021/acsomega.9b02011
   
   for metadynamics refer to:
   * S. Grimme, J. Chem. Theory Comput., 2019, 155, 2847-2862
     DOI: 10.1021/acs.jctc.9b00143
   
   for SPH calculations refer to:
   * S. Spicher and S. Grimme, J. Chem. Theory Comput., 2021, 17, 1701-1714
     DOI: 10.1021/acs.jctc.0c01306
   
   with help from (in alphabetical order)
   P. Atkinson, C. Bannwarth, F. Bohle, G. Brandenburg, E. Caldeweyher
   M. Checinski, S. Dohm, S. Ehlert, S. Ehrlich, I. Gerasimov, C. Hölzer
   A. Katbashev, J. Koopman, C. Lavigne, S. Lehtola, F. März, M. Müller,
   F. Musil, H. Neugebauer, J. Pisarek, C. Plett, P. Pracht, F. Pultar,
   J. Seibert, P. Shushkov, S. Spicher, M. Stahn, M. Steiner, T. Strunk,
   J. Stückrath, T. Rose, and J. Unsleber
   
 * started run on 2024/05/10 at 17:52:44.050     

           -------------------------------------------------
          |                Calculation Setup                |
           -------------------------------------------------

          program call               : xtb Fe_18H2O_3_6.xyz --gfn2 --chrg 3 --uhf 6 --hess --alpb water
          coordinate file            : Fe_18H2O_3_6.xyz
          omp threads                :                     8

   ID    Z sym.   atoms
    1   26 Fe     1
    2    8 O      2-7, 20-31
    3    1 H      8-19, 32-55

molecular fragmentation (1/2 indicates fragments):
1111222222211111122222222222222222222222222222222222222
# atoms in fragment 1/2:    10    45
 fragment masses (1/2) :      109.89      270.23
CMA distance (Bohr)    :   0.409
constraining FC (au)   :  0.0500

           -------------------------------------------------
          |                 G F N 2 - x T B                 |
           -------------------------------------------------

        Reference                      10.1021/acs.jctc.8b01176
      * Hamiltonian:
        H0-scaling (s, p, d)           1.850000    2.230000    2.230000
        zeta-weighting                 0.500000
      * Dispersion:
        s8                             2.700000
        a1                             0.520000
        a2                             5.000000
        s9                             5.000000
      * Repulsion:
        kExp                           1.500000    1.000000
        rExp                           1.000000
      * Coulomb:
        alpha                          2.000000
        third order                    shell-resolved
        anisotropic                    true
        a3                             3.000000
        a5                             4.000000
        cn-shift                       1.200000
        cn-exp                         4.000000
        max-rad                        5.000000

      * Solvation model:               ALPB
        Solvent                        water
        Parameter file                 internal GFN2-xTB/ALPB
        Dielectric constant                8.0200E+01
        Reference state                gsolv [1 M gas/solution]
        Free energy shift                  1.0808E-03 Eh       6.7819E-01 kcal/mol
        Temperature                        2.9815E+02 K
        Density                            1.0000E+00 kg/L
        Solvent mass                       1.8000E+01 g/mol
        Interaction kernel             P16
        Born radius scaling (c1)           1.4744E+00
        Born radii integrator          GBOBC
        Born offset                        0.0000E+00 a0       0.0000E+00 AA
        H-bond correction              true
        Ion screening                  false
        Surface tension                    1.0000E-05 Eh       1.5569E+01 dyn/cm
        Grid points                               230 per atom
q/qsh data taken from xtbrestart
CAMM data taken from xtbrestart

          ...................................................
          :                      SETUP                      :
          :.................................................:
          :  # basis functions                 118          :
          :  # atomic orbitals                 117          :
          :  # shells                           75          :
          :  # electrons                       149          :
          :  max. iterations                   250          :
          :  Hamiltonian                  GFN2-xTB          :
          :  restarted?                       true          :
          :  GBSA solvation                   true          :
          :  PC potential                    false          :
          :  electronic temp.          300.0000000     K    :
          :  accuracy                    1.0000000          :
          :  -> integral cutoff          0.2500000E+02      :
          :  -> integral neglect         0.1000000E-07      :
          :  -> SCF convergence          0.1000000E-05 Eh   :
          :  -> wf. convergence          0.1000000E-03 e    :
          :  Broyden damping             0.4000000          :
          ...................................................

 iter      E             dE          RMSdq      gap      omega  full diag
   1    -94.5437321 -0.945437E+02  0.842E-07    7.94       0.0  T
   2    -94.5437321 -0.568434E-12  0.516E-07    7.94   26140.5  T
   3    -94.5437321  0.483169E-12  0.196E-07    7.94   68924.1  T

   *** convergence criteria satisfied after 3 iterations ***

         #    Occupation            Energy/Eh            Energy/eV
      -------------------------------------------------------------
         1        2.0000           -0.6624020             -18.0249
       ...           ...                  ...                  ...
        71        2.0000           -0.4109498             -11.1825
        72        2.0000           -0.4086571             -11.1201
        73        1.0000           -0.3704628             -10.0808
        74        1.0000           -0.3669434              -9.9850
        75        1.0000           -0.3548986              -9.6573
        76        1.0000           -0.3443792              -9.3710
        77        1.0000           -0.3378173              -9.1925 (HOMO)
        78                         -0.0458527              -1.2477 (LUMO)
        79                          0.0078070               0.2124
        80                          0.0296136               0.8058
        81                          0.0529805               1.4417
        82                          0.0809441               2.2026
       ...                                ...                  ...
       117                          1.2776115              34.7656
      -------------------------------------------------------------
                  HL-Gap            0.2919647 Eh            7.9448 eV
             Fermi-level           -0.2906829 Eh           -7.9099 eV

 SCC (total)                   0 d,  0 h,  0 min,  0.032 sec
 SCC setup                      ...        0 min,  0.001 sec (  3.950%)
 Dispersion                     ...        0 min,  0.001 sec (  1.954%)
 classical contributions        ...        0 min,  0.000 sec (  0.346%)
 integral evaluation            ...        0 min,  0.002 sec (  7.258%)
 iterations                     ...        0 min,  0.018 sec ( 56.788%)
 molecular gradient             ...        0 min,  0.009 sec ( 28.588%)
 printout                       ...        0 min,  0.000 sec (  1.051%)

         :::::::::::::::::::::::::::::::::::::::::::::::::::::
         ::                     SUMMARY                     ::
         :::::::::::::::::::::::::::::::::::::::::::::::::::::
         :: total energy             -93.978281571610 Eh    ::
         :: total w/o Gsasa/hb       -93.889038851867 Eh    ::
         :: gradient norm              0.000042511927 Eh/a0 ::
         :: HOMO-LUMO gap              7.944762569247 eV    ::
         ::.................................................::
         :: SCC energy               -94.543732102434 Eh    ::
         :: -> isotropic ES            0.977874746152 Eh    ::
         :: -> anisotropic ES         -0.115688108333 Eh    ::
         :: -> anisotropic XC         -0.004288845898 Eh    ::
         :: -> dispersion             -0.032173780967 Eh    ::
         :: -> Gsolv                  -0.704946403463 Eh    ::
         ::    -> Gelec               -0.615703683721 Eh    ::
         ::    -> Gsasa                0.003310275009 Eh    ::
         ::    -> Ghb                 -0.093633754449 Eh    ::
         ::    -> Gshift               0.001080759698 Eh    ::
         :: repulsion energy           0.563772959291 Eh    ::
         :: add. restraining           0.000000000000 Eh    ::
         :: total charge               3.000000000121 e     ::
         :::::::::::::::::::::::::::::::::::::::::::::::::::::

           ------------------------------------------------- 
          |                Numerical Hessian                |
           ------------------------------------------------- 
step length          :   0.00500
SCC accuracy         :   0.30000
Hessian scale factor :   1.00000
frozen atoms in %    :   0.00000    0
RMS gradient         :   0.00004
estimated CPU  time      2.52 min
estimated wall time      0.33 min

writing file <hessian>.

 projected vibrational frequencies (cm⁻¹)
eigval :       -0.00    -0.00     0.00     0.00     0.00     0.00
eigval :       26.19    38.85    43.45    50.12    52.23    53.05
eigval :       61.99    66.67    70.21    73.43    81.57    85.77
eigval :       88.29    94.22    95.24   101.42   106.53   111.82
eigval :      117.47   123.05   124.17   135.44   139.93   144.47
eigval :      158.61   165.36   168.53   174.85   179.54   185.87
eigval :      191.76   198.78   209.84   212.82   213.57   215.19
eigval :      220.44   229.67   234.00   242.85   247.03   254.14
eigval :      257.16   259.15   264.81   273.57   277.40   279.70
eigval :      286.89   290.48   292.19   300.57   307.23   309.35
eigval :      312.53   316.21   318.45   330.54   344.77   349.23
eigval :      350.63   356.08   364.54   369.96   377.32   383.47
eigval :      392.72   403.52   414.40   425.07   432.96   446.80
eigval :      448.56   452.36   473.66   480.55   496.76   500.17
eigval :      503.22   532.72   549.04   567.04   569.55   585.29
eigval :      604.09   617.08   630.97   644.43   652.61   659.60
eigval :      662.95   678.75   684.24   693.75   710.20   741.34
eigval :      756.38   767.16   775.20   780.47   792.30   793.02
eigval :      830.02   845.27   883.92  1434.09  1443.01  1445.79
eigval :     1449.39  1453.02  1456.11  1459.24  1462.15  1463.53
eigval :     1464.63  1466.73  1468.00  1471.12  1474.71  1476.49
eigval :     1486.02  1495.72  1509.44  3035.70  3116.07  3169.86
eigval :     3177.89  3179.98  3190.33  3234.82  3238.10  3245.05
eigval :     3263.56  3266.08  3287.23  3295.66  3307.53  3314.06
eigval :     3332.70  3336.54  3387.06  3390.25  3430.77  3447.18
eigval :     3453.68  3457.70  3514.55  3578.87  3625.34  3653.46
eigval :     3655.74  3660.96  3661.64  3663.13  3670.86  3671.61
eigval :     3673.31  3684.57  3685.11
           -------------------------------------------------
          |                Property Printout                |
           -------------------------------------------------

    * Orbital Energies and Occupations

         #    Occupation            Energy/Eh            Energy/eV
      -------------------------------------------------------------
         1        2.0000           -0.6624020             -18.0249
       ...           ...                  ...                  ...
        65        2.0000           -0.4222020             -11.4887
        66        2.0000           -0.4221516             -11.4873
        67        2.0000           -0.4212359             -11.4624
        68        2.0000           -0.4206347             -11.4461
        69        2.0000           -0.4201380             -11.4325
        70        2.0000           -0.4193563             -11.4113
        71        2.0000           -0.4109498             -11.1825
        72        2.0000           -0.4086571             -11.1201
        73        1.0000           -0.3704628             -10.0808
        74        1.0000           -0.3669434              -9.9850
        75        1.0000           -0.3548986              -9.6573
        76        1.0000           -0.3443792              -9.3710
        77        1.0000           -0.3378173              -9.1925 (HOMO)
        78                         -0.0458527              -1.2477 (LUMO)
        79                          0.0078070               0.2124
        80                          0.0296136               0.8058
        81                          0.0529806               1.4417
        82                          0.0809441               2.2026
        83                          0.0940312               2.5587
        84                          0.0990792               2.6961
        85                          0.1316240               3.5817
        86                          0.1431419               3.8951
        87                          0.1673410               4.5536
        88                          0.1683154               4.5801
       ...                                ...                  ...
       117                          1.2776115              34.7656
      -------------------------------------------------------------
                  HL-Gap            0.2919647 Eh            7.9448 eV
             Fermi-level           -0.2906829 Eh           -7.9099 eV

     #   Z          covCN         q      C6AA      α(0)
     1  26 Fe       2.325     1.678     4.558     6.887
     2   8 O        2.037    -0.632    25.868     6.869
     3   8 O        2.080    -0.630    25.815     6.862
     4   8 O        2.000    -0.632    25.877     6.870
     5   8 O        1.839    -0.633    25.923     6.876
     6   8 O        1.928    -0.630    25.831     6.864
     7   8 O        1.950    -0.634    25.921     6.876
     8   1 H        0.803     0.383     0.516     1.129
     9   1 H        0.804     0.379     0.525     1.139
    10   1 H        0.803     0.380     0.522     1.135
    11   1 H        0.803     0.381     0.521     1.134
    12   1 H        0.804     0.385     0.514     1.126
    13   1 H        0.805     0.391     0.501     1.112
    14   1 H        0.803     0.387     0.510     1.122
    15   1 H        0.804     0.382     0.518     1.131
    16   1 H        0.803     0.389     0.505     1.116
    17   1 H        0.802     0.391     0.501     1.112
    18   1 H        0.802     0.385     0.512     1.124
    19   1 H        0.805     0.375     0.532     1.146
    20   8 O        1.610    -0.667    26.840     6.992
    21   8 O        1.609    -0.666    26.822     6.990
    22   8 O        1.609    -0.660    26.673     6.970
    23   8 O        1.741    -0.625    25.726     6.849
    24   8 O        1.610    -0.661    26.702     6.974
    25   8 O        1.609    -0.672    26.986     7.011
    26   8 O        1.610    -0.669    26.897     7.000
    27   8 O        1.608    -0.680    27.188     7.037
    28   8 O        1.608    -0.671    26.950     7.007
    29   8 O        1.609    -0.676    27.085     7.024
    30   8 O        1.609    -0.670    26.919     7.002
    31   8 O        1.608    -0.685    27.312     7.053
    32   1 H        0.803     0.361     0.563     1.179
    33   1 H        0.806     0.333     0.628     1.245
    34   1 H        0.806     0.348     0.592     1.209
    35   1 H        0.805     0.371     0.543     1.157
    36   1 H        0.806     0.344     0.602     1.218
    37   1 H        0.804     0.364     0.557     1.173
    38   1 H        0.806     0.343     0.603     1.220
    39   1 H        0.804     0.369     0.545     1.160
    40   1 H        0.806     0.344     0.602     1.218
    41   1 H        0.803     0.365     0.554     1.169
    42   1 H        0.803     0.381     0.522     1.135
    43   1 H        0.805     0.370     0.543     1.158
    44   1 H        0.806     0.339     0.614     1.231
    45   1 H        0.803     0.373     0.537     1.151
    46   1 H        0.806     0.336     0.621     1.238
    47   1 H        0.803     0.362     0.560     1.176
    48   1 H        0.806     0.339     0.615     1.232
    49   1 H        0.803     0.364     0.556     1.172
    50   1 H        0.804     0.350     0.587     1.204
    51   1 H        0.804     0.358     0.571     1.187
    52   1 H        0.806     0.332     0.633     1.249
    53   1 H        0.804     0.356     0.575     1.191
    54   1 H        0.806     0.339     0.616     1.232
    55   1 H        0.803     0.363     0.558     1.174

 Mol. C6AA /au·bohr⁶  :      14493.849044
 Mol. C8AA /au·bohr⁸  :     270688.054592
 Mol. α(0) /au        :        174.217460


Wiberg/Mayer (AO) data.
largest (>0.10) Wiberg bond orders for each atom

 ---------------------------------------------------------------------------
     #   Z sym  total        # sym  WBO       # sym  WBO       # sym  WBO
 ---------------------------------------------------------------------------
     1  26 Fe   1.768 --     3 O    0.295     4 O    0.270     2 O    0.263
                             7 O    0.248     6 O    0.241     5 O    0.206
                            23 O    0.176
     2   8 O    1.924 --    13 H    0.810    12 H    0.795     1 Fe   0.263
     3   8 O    1.923 --    16 H    0.791    17 H    0.763     1 Fe   0.295
     4   8 O    1.924 --    15 H    0.805    14 H    0.784     1 Fe   0.270
     5   8 O    1.932 --    19 H    0.853    18 H    0.783     1 Fe   0.206
     6   8 O    1.923 --     9 H    0.821     8 H    0.794     1 Fe   0.241
     7   8 O    1.916 --    10 H    0.804    11 H    0.790     1 Fe   0.248
     8   1 H    0.850 --     6 O    0.794
     9   1 H    0.854 --     6 O    0.821
    10   1 H    0.853 --     7 O    0.804
    11   1 H    0.852 --     7 O    0.790
    12   1 H    0.848 --     2 O    0.795
    13   1 H    0.841 --     2 O    0.810
    14   1 H    0.847 --     4 O    0.784
    15   1 H    0.849 --     4 O    0.805
    16   1 H    0.845 --     3 O    0.791
    17   1 H    0.844 --     3 O    0.763
    18   1 H    0.850 --     5 O    0.783
    19   1 H    0.857 --     5 O    0.853
    20   8 O    1.840 --    34 H    0.871    35 H    0.854
    21   8 O    1.852 --    54 H    0.878    55 H    0.818
    22   8 O    1.871 --    40 H    0.873    41 H    0.822
    23   8 O    1.934 --    43 H    0.854    42 H    0.797     1 Fe   0.176
    24   8 O    1.853 --    36 H    0.874    37 H    0.834
    25   8 O    1.831 --    33 H    0.880    32 H    0.821
    26   8 O    1.810 --    52 H    0.884    53 H    0.851
    27   8 O    1.848 --    50 H    0.841    51 H    0.830
    28   8 O    1.851 --    48 H    0.876    49 H    0.811
    29   8 O    1.834 --    38 H    0.873    39 H    0.825
    30   8 O    1.844 --    46 H    0.879    47 H    0.818
    31   8 O    1.827 --    44 H    0.874    45 H    0.811
    32   1 H    0.870 --    25 O    0.821
    33   1 H    0.889 --    25 O    0.880
    34   1 H    0.879 --    20 O    0.871
    35   1 H    0.863 --    20 O    0.854
    36   1 H    0.881 --    24 O    0.874
    37   1 H    0.868 --    24 O    0.834
    38   1 H    0.882 --    29 O    0.873
    39   1 H    0.864 --    29 O    0.825
    40   1 H    0.881 --    22 O    0.873
    41   1 H    0.867 --    22 O    0.822
    42   1 H    0.854 --    23 O    0.797
    43   1 H    0.863 --    23 O    0.854
    44   1 H    0.885 --    31 O    0.874
    45   1 H    0.861 --    31 O    0.811
    46   1 H    0.887 --    30 O    0.879
    47   1 H    0.869 --    30 O    0.818
    48   1 H    0.885 --    28 O    0.876
    49   1 H    0.867 --    28 O    0.811
    50   1 H    0.877 --    27 O    0.841
    51   1 H    0.872 --    27 O    0.830
    52   1 H    0.890 --    26 O    0.884
    53   1 H    0.874 --    26 O    0.851
    54   1 H    0.885 --    21 O    0.878
    55   1 H    0.868 --    21 O    0.818
 ---------------------------------------------------------------------------

Topologies differ in total number of bonds
Writing topology from bond orders to xtbtopo.mol

molecular dipole:
                 x           y           z       tot (Debye)
 q only:       -1.962      -0.444      -1.696
   full:       -2.193      -0.383      -2.225       8.000
molecular quadrupole (traceless):
                xx          xy          yy          xz          yz          zz
 q only:       21.737      -8.051      -2.714       5.559      -1.103     -19.022
  q+dip:       24.747     -10.566      -2.444       6.533      -1.723     -22.303
   full:       24.703     -10.574      -2.384       6.606      -1.708     -22.319

           -------------------------------------------------
          |               Frequency Printout                |
           -------------------------------------------------
 projected vibrational frequencies (cm⁻¹)
eigval :       -0.00    -0.00     0.00     0.00     0.00     0.00
eigval :       26.19    38.85    43.45    50.12    52.23    53.05
eigval :       61.99    66.67    70.21    73.43    81.57    85.77
eigval :       88.29    94.22    95.24   101.42   106.53   111.82
eigval :      117.47   123.05   124.17   135.44   139.93   144.47
eigval :      158.61   165.36   168.53   174.85   179.54   185.87
eigval :      191.76   198.78   209.84   212.82   213.57   215.19
eigval :      220.44   229.67   234.00   242.85   247.03   254.14
eigval :      257.16   259.15   264.81   273.57   277.40   279.70
eigval :      286.89   290.48   292.19   300.57   307.23   309.35
eigval :      312.53   316.21   318.45   330.54   344.77   349.23
eigval :      350.63   356.08   364.54   369.96   377.32   383.47
eigval :      392.72   403.52   414.40   425.07   432.96   446.80
eigval :      448.56   452.36   473.66   480.55   496.76   500.17
eigval :      503.22   532.72   549.04   567.04   569.55   585.29
eigval :      604.09   617.08   630.97   644.43   652.61   659.60
eigval :      662.95   678.75   684.24   693.75   710.20   741.34
eigval :      756.38   767.16   775.20   780.47   792.30   793.02
eigval :      830.02   845.27   883.92  1434.09  1443.01  1445.79
eigval :     1449.39  1453.02  1456.11  1459.24  1462.15  1463.53
eigval :     1464.63  1466.73  1468.00  1471.12  1474.71  1476.49
eigval :     1486.02  1495.72  1509.44  3035.70  3116.07  3169.86
eigval :     3177.89  3179.98  3190.33  3234.82  3238.10  3245.05
eigval :     3263.56  3266.08  3287.23  3295.66  3307.53  3314.06
eigval :     3332.70  3336.54  3387.06  3390.25  3430.77  3447.18
eigval :     3453.68  3457.70  3514.55  3578.87  3625.34  3653.46
eigval :     3655.74  3660.96  3661.64  3663.13  3670.86  3671.61
eigval :     3673.31  3684.57  3685.11
 reduced masses (amu)
   1: 14.81   2: 18.86   3: 18.36   4: 18.61   5: 16.51   6: 16.12   7: 14.26   8: 15.78
   9: 14.58  10: 16.77  11: 14.84  12: 14.86  13: 16.81  14: 14.76  15: 15.69  16: 14.40
  17: 14.88  18: 17.64  19: 17.58  20: 15.57  21: 16.16  22: 16.41  23: 14.72  24: 22.93
  25: 15.89  26: 15.51  27: 19.73  28: 15.48  29: 16.19  30: 16.35  31: 14.21  32: 15.99
  33: 13.75  34: 13.84  35: 13.56  36: 11.40  37: 13.64  38: 10.01  39: 11.08  40: 14.90
  41: 12.49  42: 11.28  43: 13.43  44: 14.24  45: 12.16  46: 12.05  47: 10.69  48: 10.36
  49: 14.60  50: 12.49  51: 10.74  52:  7.78  53:  8.37  54:  9.98  55: 12.59  56:  9.30
  57: 10.58  58:  8.12  59:  9.30  60:  8.76  61:  9.83  62:  8.28  63: 11.41  64:  8.49
  65:  9.18  66: 12.63  67: 15.45  68: 14.17  69:  9.21  70:  3.28  71:  3.74  72:  4.47
  73:  4.33  74:  2.07  75:  2.23  76:  2.66  77:  2.46  78:  2.23  79:  2.42  80:  2.34
  81:  2.63  82:  2.77  83:  2.25  84:  2.56  85:  2.25  86:  2.34  87:  2.00  88:  2.09
  89:  1.84  90:  1.95  91:  1.56  92:  1.65  93:  2.08  94:  1.96  95:  2.10  96:  1.92
  97:  1.75  98:  1.88  99:  1.77 100:  2.03 101:  1.91 102:  1.97 103:  1.68 104:  1.89
 105:  1.74 106:  1.95 107:  2.02 108:  1.99 109:  1.94 110:  2.34 111:  2.33 112:  1.93
 113:  2.07 114:  2.10 115:  2.04 116:  2.07 117:  2.08 118:  2.07 119:  2.11 120:  2.10
 121:  2.09 122:  2.12 123:  2.12 124:  2.03 125:  1.95 126:  2.01 127:  1.95 128:  1.92
 129:  1.94 130:  2.01 131:  1.91 132:  1.95 133:  2.02 134:  1.97 135:  1.89 136:  1.91
 137:  1.88 138:  1.96 139:  1.89 140:  1.89 141:  1.77 142:  1.88 143:  1.73 144:  1.93
 145:  1.98 146:  1.87 147:  1.75 148:  1.88 149:  1.71 150:  1.75 151:  1.75 152:  1.84
 153:  1.86 154:  1.81 155:  1.81 156:  1.83 157:  1.83 158:  1.82 159:  1.84 160:  1.83
 161:  1.83 162:  1.84 163:  1.83 164:  1.84 165:  1.83
 IR intensities (km·mol⁻¹)
   1:  4.69   2: 18.27   3: 15.19   4: 19.61   5:  9.93   6:  5.31   7:  1.05   8:  4.13
   9:  1.80  10:  1.99  11:  1.74  12:  3.20  13:  0.10  14:  6.04  15:  7.68  16:  2.64
  17:  1.24  18:  2.54  19:  5.29  20:  2.27  21:  7.30  22:  7.75  23:  4.25  24: 11.07
  25:  6.75  26:  5.74  27: 26.23  28: 15.52  29: 12.17  30: 14.38  31: 17.28  32: 32.70
  33: 12.66  34: 59.40  35: 46.06  36: 48.99  37: 14.57  38: 21.07  39: 45.43  40: 60.53
  41: 40.06  42:  7.15  43: 20.06  44: 35.38  45: 31.85  46: 17.67  47: 46.86  48:112.87
  49:111.94  50: 63.66  51: 25.35  52: 17.88  53: 67.76  54: 51.40  55: 92.25  56: 42.38
  57: 13.82  58: 73.04  59: 11.79  60:105.07  61: 71.53  62: 28.33  63: 43.67  64:110.03
  65:  7.86  66: 34.43  67: 25.87  68: 77.70  69:139.09  70: 39.39  71: 87.35  72: 34.55
  73: 20.93  74: 33.57  75:144.76  76: 75.64  77: 41.06  78:524.93  79:260.57  80: 20.91
  81:507.47  82: 10.92  83:171.55  84: 62.92  85:275.37  86:331.44  87: 97.54  88:141.06
  89:229.82  90:187.37  91:203.20  92: 65.81  93:306.90  94:478.27  95:151.59  96:386.59
  97:448.17  98: 94.40  99: 63.53 100:212.20 101:465.44 102:677.94 103: 90.09 104:239.07
 105:152.38 106:699.79 107:815.47 108: 48.26 109:302.10 110:249.58 111:169.90 112:189.48
 113:448.66 114:266.92 115:218.27 116: 46.17 117:156.32 118:120.06 119: 61.42 120:210.96
 121:241.88 122:457.64 123: 76.11 124:366.01 125:241.48 126:154.54 127:130.94 128: 92.80
Molecule has no symmetry elements
It seems to be the C1 point group
 129:222.43 130:****** 131:****** 132:625.84 133:****** 134:****** 135:****** 136:167.32
 137:****** 138:902.95 139:623.46 140:****** 141:****** 142:597.51 143:803.97 144:******
 145:815.90 146:200.24 147:664.83 148:390.38 149:469.38 150:683.93 151:420.66 152:134.61
 153:129.95 154:116.17 155:144.04 156: 74.02 157: 85.57 158:102.59 159: 55.57 160: 58.58
 161: 82.08 162: 49.96 163: 65.83 164: 65.24 165: 56.28
 Raman intensities (amu)
   1:  0.00   2:  0.00   3:  0.00   4:  0.00   5:  0.00   6:  0.00   7:  0.00   8:  0.00
   9:  0.00  10:  0.00  11:  0.00  12:  0.00  13:  0.00  14:  0.00  15:  0.00  16:  0.00
  17:  0.00  18:  0.00  19:  0.00  20:  0.00  21:  0.00  22:  0.00  23:  0.00  24:  0.00
  25:  0.00  26:  0.00  27:  0.00  28:  0.00  29:  0.00  30:  0.00  31:  0.00  32:  0.00
  33:  0.00  34:  0.00  35:  0.00  36:  0.00  37:  0.00  38:  0.00  39:  0.00  40:  0.00
  41:  0.00  42:  0.00  43:  0.00  44:  0.00  45:  0.00  46:  0.00  47:  0.00  48:  0.00
  49:  0.00  50:  0.00  51:  0.00  52:  0.00  53:  0.00  54:  0.00  55:  0.00  56:  0.00
  57:  0.00  58:  0.00  59:  0.00  60:  0.00  61:  0.00  62:  0.00  63:  0.00  64:  0.00
  65:  0.00  66:  0.00  67:  0.00  68:  0.00  69:  0.00  70:  0.00  71:  0.00  72:  0.00
  73:  0.00  74:  0.00  75:  0.00  76:  0.00  77:  0.00  78:  0.00  79:  0.00  80:  0.00
  81:  0.00  82:  0.00  83:  0.00  84:  0.00  85:  0.00  86:  0.00  87:  0.00  88:  0.00
  89:  0.00  90:  0.00  91:  0.00  92:  0.00  93:  0.00  94:  0.00  95:  0.00  96:  0.00
  97:  0.00  98:  0.00  99:  0.00 100:  0.00 101:  0.00 102:  0.00 103:  0.00 104:  0.00
 105:  0.00 106:  0.00 107:  0.00 108:  0.00 109:  0.00 110:  0.00 111:  0.00 112:  0.00
 113:  0.00 114:  0.00 115:  0.00 116:  0.00 117:  0.00 118:  0.00 119:  0.00 120:  0.00
 121:  0.00 122:  0.00 123:  0.00 124:  0.00 125:  0.00 126:  0.00 127:  0.00 128:  0.00
 129:  0.00 130:  0.00 131:  0.00 132:  0.00 133:  0.00 134:  0.00 135:  0.00 136:  0.00
 137:  0.00 138:  0.00 139:  0.00 140:  0.00 141:  0.00 142:  0.00 143:  0.00 144:  0.00
 145:  0.00 146:  0.00 147:  0.00 148:  0.00 149:  0.00 150:  0.00 151:  0.00 152:  0.00
 153:  0.00 154:  0.00 155:  0.00 156:  0.00 157:  0.00 158:  0.00 159:  0.00 160:  0.00
 161:  0.00 162:  0.00 163:  0.00 164:  0.00 165:  0.00
 output can be read by thermo (or use thermo option).
 writing <g98.out> molden fake output.
 recommended (thermochemical) frequency scaling factor: 1.0
           -------------------------------------------------
          |             Thermodynamic Functions             |
           -------------------------------------------------

c1  symmetry found (for desy threshold:  0.10E+00) used in thermo

          ...................................................
          :                      SETUP                      :
          :.................................................:
          :  # frequencies                         159      :
          :  # imaginary freq.                       0      :
          :  linear?                             false      :
          :  only rotor calc.                    false      :
          :  symmetry                               c1      :
          :  rotational number                       1      :
          :  scaling factor                  1.0000000      :
          :  rotor cutoff                   50.0000000 cm⁻¹ :
          :  imag. cutoff                  -20.0000000 cm⁻¹ :
          :.................................................:

    mode    ω/cm⁻¹     T·S(HO)/kcal·mol⁻¹    T·S(FR)/kcal·mol⁻¹   T·S(vib)
   ------------------------------------------------------------------------
       1     26.19    -1.81832 (  7.00%)    -1.24801 ( 93.00%)    -1.28795
       2     38.85    -1.58519 ( 26.72%)    -1.13123 ( 73.28%)    -1.25252
       3     43.45    -1.51919 ( 36.31%)    -1.09813 ( 63.69%)    -1.25101
       4     50.12    -1.43485 ( 50.25%)    -1.05578 ( 49.75%)    -1.24625
       5     52.23    -1.41058 ( 54.35%)    -1.04359 ( 45.65%)    -1.24306
       6     53.05    -1.40141 ( 55.89%)    -1.03898 ( 44.11%)    -1.24155
       7     61.99    -1.30968 ( 70.27%)    -0.99283 ( 29.73%)    -1.21547
       8     66.67    -1.26694 ( 75.97%)    -0.97129 ( 24.03%)    -1.19589
       9     70.21    -1.23656 ( 79.54%)    -0.95596 ( 20.46%)    -1.17915
      10     73.43    -1.21028 ( 82.30%)    -0.94269 ( 17.70%)    -1.16293
      11     81.57    -1.14867 ( 87.63%)    -0.91153 ( 12.37%)    -1.11934
      12     85.77    -1.11932 ( 89.65%)    -0.89665 ( 10.35%)    -1.09627
      13     88.29    -1.10243 ( 90.67%)    -0.88808 (  9.33%)    -1.08244
      14     94.22    -1.06454 ( 92.65%)    -0.86883 (  7.35%)    -1.05016
      15     95.24    -1.05826 ( 92.94%)    -0.86563 (  7.06%)    -1.04466
      16    101.42    -1.02169 ( 94.42%)    -0.84700 (  5.58%)    -1.01195
      17    106.53    -0.99317 ( 95.37%)    -0.83244 (  4.63%)    -0.98573
      18    111.82    -0.96512 ( 96.16%)    -0.81809 (  3.84%)    -0.95947
      19    117.47    -0.93667 ( 96.82%)    -0.80350 (  3.18%)    -0.93244
      20    123.05    -0.90993 ( 97.35%)    -0.78975 (  2.65%)    -0.90674
      21    124.17    -0.90471 ( 97.44%)    -0.78706 (  2.56%)    -0.90169
      22    135.44    -0.85491 ( 98.18%)    -0.76134 (  1.82%)    -0.85320
      23    139.93    -0.83624 ( 98.40%)    -0.75166 (  1.60%)    -0.83489
      24    144.47    -0.81806 ( 98.59%)    -0.74221 (  1.41%)    -0.81699
      25    158.61    -0.76514 ( 99.02%)    -0.71455 (  0.98%)    -0.76465
      26    165.36    -0.74165 ( 99.17%)    -0.70219 (  0.83%)    -0.74132
      27    168.53    -0.73102 ( 99.23%)    -0.69658 (  0.77%)    -0.73075
      28    174.85    -0.71040 ( 99.34%)    -0.68567 (  0.66%)    -0.71023
      29    179.54    -0.69564 ( 99.40%)    -0.67783 (  0.60%)    -0.69553
      30    185.87    -0.67638 ( 99.48%)    -0.66756 (  0.52%)    -0.67634
      31    191.76    -0.65913 ( 99.54%)    -0.65832 (  0.46%)    -0.65912
      32    198.78    -0.63935 ( 99.60%)    -0.64768 (  0.40%)    -0.63939
      33    209.84    -0.60974 ( 99.68%)    -0.63164 (  0.32%)    -0.60981
      34    212.82    -0.60206 ( 99.70%)    -0.62745 (  0.30%)    -0.60214
      35    213.57    -0.60015 ( 99.70%)    -0.62641 (  0.30%)    -0.60022
      36    215.19    -0.59606 ( 99.71%)    -0.62418 (  0.29%)    -0.59615
      37    220.44    -0.58302 ( 99.74%)    -0.61704 (  0.26%)    -0.58311
      38    229.67    -0.56097 ( 99.78%)    -0.60488 (  0.22%)    -0.56106
      39    234.00    -0.55100 ( 99.79%)    -0.59935 (  0.21%)    -0.55110
      40    242.85    -0.53127 ( 99.82%)    -0.58835 (  0.18%)    -0.53137
      41    247.03    -0.52227 ( 99.83%)    -0.58330 (  0.17%)    -0.52237
      42    254.14    -0.50735 ( 99.85%)    -0.57489 (  0.15%)    -0.50745
      43    257.16    -0.50118 ( 99.86%)    -0.57140 (  0.14%)    -0.50128
      44    259.15    -0.49715 ( 99.86%)    -0.56911 (  0.14%)    -0.49725
      45    264.81    -0.48593 ( 99.87%)    -0.56271 (  0.13%)    -0.48603
      46    273.57    -0.46916 ( 99.89%)    -0.55307 (  0.11%)    -0.46925
      47    277.40    -0.46203 ( 99.89%)    -0.54895 (  0.11%)    -0.46212
      48    279.70    -0.45780 ( 99.90%)    -0.54650 (  0.10%)    -0.45789
      49    286.89    -0.44490 ( 99.91%)    -0.53898 (  0.09%)    -0.44499
      50    290.48    -0.43862 ( 99.91%)    -0.53530 (  0.09%)    -0.43871
      51    292.19    -0.43567 ( 99.91%)    -0.53356 (  0.09%)    -0.43575
   ------------------------------------------------------------------------

   temp. (K)  partition function   enthalpy   heat capacity  entropy
                                   cal/mol     cal/K/mol   cal/K/mol   J/K/mol
 298.15  VIB  0.336E+20            28000.694    155.287    176.377
         ROT  0.101E+08              888.752      2.981     35.025
         INT  0.338E+27            28889.446    158.267    211.402
         TR   0.717E+28             1481.254      4.968     43.678
         TOT                       30370.7002   163.2356   255.0808  1067.2582

       T/K    H(0)-H(T)+PV         H(T)/Eh          T*S/Eh         G(T)/Eh
   ------------------------------------------------------------------------
    298.15    0.483988E-01    0.473448E+00    0.121197E+00    0.352251E+00
   ------------------------------------------------------------------------

         :::::::::::::::::::::::::::::::::::::::::::::::::::::
         ::                  THERMODYNAMIC                  ::
         :::::::::::::::::::::::::::::::::::::::::::::::::::::
         :: total free energy         -93.626030764922 Eh   ::
         ::.................................................::
         :: total energy              -93.978281576981 Eh   ::
         :: zero point energy           0.425049154343 Eh   ::
         :: G(RRHO) w/o ZPVE           -0.072798342284 Eh   ::
         :: G(RRHO) contrib.            0.352250812059 Eh   ::
         :::::::::::::::::::::::::::::::::::::::::::::::::::::

           -------------------------------------------------
          | TOTAL ENERGY              -93.978281576981 Eh   |
          | TOTAL ENTHALPY            -93.504833631162 Eh   |
          | TOTAL FREE ENERGY         -93.626030764922 Eh   |
          | GRADIENT NORM               0.000042515873 Eh/α |
          | HOMO-LUMO GAP               7.944762599090 eV   |
           -------------------------------------------------

------------------------------------------------------------------------
 * finished run on 2024/05/10 at 17:52:46.719     
------------------------------------------------------------------------
 total:
 * wall-time:     0 d,  0 h,  0 min,  2.668 sec
 *  cpu-time:     0 d,  0 h,  0 min, 20.347 sec
 * ratio c/w:     7.625 speedup
 SCF:
 * wall-time:     0 d,  0 h,  0 min,  0.033 sec
 *  cpu-time:     0 d,  0 h,  0 min,  0.217 sec
 * ratio c/w:     6.639 speedup
 analytical hessian:
 * wall-time:     0 d,  0 h,  0 min,  2.447 sec
 *  cpu-time:     0 d,  0 h,  0 min, 18.775 sec
 * ratio c/w:     7.672 speedup

