      -----------------------------------------------------------      
     |                   =====================                   |     
     |                           x T B                           |     
     |                   =====================                   |     
     |                         S. Grimme                         |     
     |          Mulliken Center for Theoretical Chemistry        |     
     |                    University of Bonn                     |     
      -----------------------------------------------------------      

   * xtb version 6.6.0 (conda-forge) compiled by 'runner@Mac-1676020848589.local' on 2023-02-10

   xtb is free software: you can redistribute it and/or modify it under
   the terms of the GNU Lesser General Public License as published by
   the Free Software Foundation, either version 3 of the License, or
   (at your option) any later version.
   
   xtb is distributed in the hope that it will be useful,
   but WITHOUT ANY WARRANTY; without even the implied warranty of
   MERCHANTABILITY or FITNESS FOR A PARTICULAR PURPOSE.  See the
   GNU Lesser General Public License for more details.
   
   Cite this work as:
   * C. Bannwarth, E. Caldeweyher, S. Ehlert, A. Hansen, P. Pracht,
     J. Seibert, S. Spicher, S. Grimme, WIREs Comput. Mol. Sci., 2020, 11,
     e01493. DOI: 10.1002/wcms.1493
   
   for GFN2-xTB:
   * C. Bannwarth, S. Ehlert and S. Grimme., J. Chem. Theory Comput., 2019,
     15, 1652-1671. DOI: 10.1021/acs.jctc.8b01176
   for GFN1-xTB:
   * S. Grimme, C. Bannwarth, P. Shushkov, J. Chem. Theory Comput., 2017,
     13, 1989-2009. DOI: 10.1021/acs.jctc.7b00118
   for GFN0-xTB:
   * P. Pracht, E. Caldeweyher, S. Ehlert, S. Grimme, ChemRxiv, 2019, preprint.
     DOI: 10.26434/chemrxiv.8326202.v1
   for GFN-FF:
   * S. Spicher and S. Grimme, Angew. Chem. Int. Ed., 2020, 59, 15665-15673.
     DOI: 10.1002/anie.202004239
   
   for ALPB and GBSA implicit solvation:
   * S. Ehlert, M. Stahn, S. Spicher, S. Grimme, J. Chem. Theory Comput.,
     2021, 17, 4250-4261. DOI: 10.1021/acs.jctc.1c00471
   
   for DFT-D4:
   * E. Caldeweyher, C. Bannwarth and S. Grimme, J. Chem. Phys., 2017,
     147, 034112. DOI: 10.1063/1.4993215
   * E. Caldeweyher, S. Ehlert, A. Hansen, H. Neugebauer, S. Spicher,
     C. Bannwarth and S. Grimme, J. Chem. Phys., 2019, 150, 154122.
     DOI: 10.1063/1.5090222
   * E. Caldeweyher, J.-M. Mewes, S. Ehlert and S. Grimme, Phys. Chem. Chem. Phys.
     2020, 22, 8499-8512. DOI: 10.1039/D0CP00502A
   
   for sTDA-xTB:
   * S. Grimme and C. Bannwarth, J. Chem. Phys., 2016, 145, 054103.
     DOI: 10.1063/1.4959605
   
   in the mass-spec context:
   * V. Asgeirsson, C. Bauer and S. Grimme, Chem. Sci., 2017, 8, 4879.
     DOI: 10.1039/c7sc00601b
   * J. Koopman and S. Grimme, ACS Omega 2019, 4, 12, 15120-15133.
     DOI: 10.1021/acsomega.9b02011
   
   for metadynamics refer to:
   * S. Grimme, J. Chem. Theory Comput., 2019, 155, 2847-2862
     DOI: 10.1021/acs.jctc.9b00143
   
   for SPH calculations refer to:
   * S. Spicher and S. Grimme, J. Chem. Theory Comput., 2021, 17, 1701-1714
     DOI: 10.1021/acs.jctc.0c01306
   
   with help from (in alphabetical order)
   P. Atkinson, C. Bannwarth, F. Bohle, G. Brandenburg, E. Caldeweyher
   M. Checinski, S. Dohm, S. Ehlert, S. Ehrlich, I. Gerasimov, C. Hölzer
   A. Katbashev, J. Koopman, C. Lavigne, S. Lehtola, F. März, M. Müller,
   F. Musil, H. Neugebauer, J. Pisarek, C. Plett, P. Pracht, F. Pultar,
   J. Seibert, P. Shushkov, S. Spicher, M. Stahn, M. Steiner, T. Strunk,
   J. Stückrath, T. Rose, and J. Unsleber
   
 * started run on 2024/05/10 at 17:52:56.091     

           -------------------------------------------------
          |                Calculation Setup                |
           -------------------------------------------------

          program call               : xtb Fe_18H2O.xyz --opt extreme --gfn2 --chrg 0 --uhf 5 --alpb water
          coordinate file            : Fe_18H2O.xyz
          omp threads                :                     8

   ID    Z sym.   atoms
    1   26 Fe     1
    2    8 O      2-7, 20-31
    3    1 H      8-19, 32-55

molecular fragmentation (1/2 indicates fragments):
1112222222212221222222222222222222222222222222222222222
# atoms in fragment 1/2:     5    50
 fragment masses (1/2) :       89.86      290.26
CMA distance (Bohr)    :   0.999
constraining FC (au)   :  0.0500

           -------------------------------------------------
          |                 G F N 2 - x T B                 |
           -------------------------------------------------

        Reference                      10.1021/acs.jctc.8b01176
      * Hamiltonian:
        H0-scaling (s, p, d)           1.850000    2.230000    2.230000
        zeta-weighting                 0.500000
      * Dispersion:
        s8                             2.700000
        a1                             0.520000
        a2                             5.000000
        s9                             5.000000
      * Repulsion:
        kExp                           1.500000    1.000000
        rExp                           1.000000
      * Coulomb:
        alpha                          2.000000
        third order                    shell-resolved
        anisotropic                    true
        a3                             3.000000
        a5                             4.000000
        cn-shift                       1.200000
        cn-exp                         4.000000
        max-rad                        5.000000

      * Solvation model:               ALPB
        Solvent                        water
        Parameter file                 internal GFN2-xTB/ALPB
        Dielectric constant                8.0200E+01
        Reference state                gsolv [1 M gas/solution]
        Free energy shift                  1.0808E-03 Eh       6.7819E-01 kcal/mol
        Temperature                        2.9815E+02 K
        Density                            1.0000E+00 kg/L
        Solvent mass                       1.8000E+01 g/mol
        Interaction kernel             P16
        Born radius scaling (c1)           1.4744E+00
        Born radii integrator          GBOBC
        Born offset                        0.0000E+00 a0       0.0000E+00 AA
        H-bond correction              true
        Ion screening                  false
        Surface tension                    1.0000E-05 Eh       1.5569E+01 dyn/cm
        Grid points                               230 per atom
q/qsh data taken from xtbrestart
CAMM data taken from xtbrestart

          ...................................................
          :                      SETUP                      :
          :.................................................:
          :  # basis functions                 118          :
          :  # atomic orbitals                 117          :
          :  # shells                           75          :
          :  # electrons                       152          :
          :  max. iterations                   250          :
          :  Hamiltonian                  GFN2-xTB          :
          :  restarted?                       true          :
          :  GBSA solvation                   true          :
          :  PC potential                    false          :
          :  electronic temp.          300.0000000     K    :
          :  accuracy                    1.0000000          :
          :  -> integral cutoff          0.2500000E+02      :
          :  -> integral neglect         0.1000000E-07      :
          :  -> SCF convergence          0.1000000E-05 Eh   :
          :  -> wf. convergence          0.1000000E-03 e    :
          :  Broyden damping             0.4000000          :
          ...................................................

 iter      E             dE          RMSdq      gap      omega  full diag
   1    -94.9515203 -0.949515E+02  0.222E+00    0.97       0.0  T
   2    -94.9910160 -0.394957E-01  0.128E+00    0.69       1.0  T
   3    -94.9984159 -0.739996E-02  0.658E-01    0.54       1.0  T
   4    -94.9994312 -0.101530E-02  0.248E-01    0.48       1.0  T
   5    -94.9997072 -0.275962E-03  0.905E-02    0.48       1.0  T
   6    -94.9997373 -0.300692E-04  0.488E-02    0.49       1.0  T
   7    -94.9997486 -0.113125E-04  0.226E-02    0.49       1.0  T
   8    -94.9997522 -0.362834E-05  0.925E-03    0.49       1.5  T
   9    -94.9997530 -0.786726E-06  0.422E-03    0.49       3.2  T
  10    -94.9997531 -0.104654E-06  0.197E-03    0.49       6.8  T
  11    -94.9997531 -0.204945E-07  0.543E-04    0.49      24.8  T
  12    -94.9997531 -0.140568E-08  0.191E-04    0.49      70.4  T

   *** convergence criteria satisfied after 12 iterations ***

         #    Occupation            Energy/Eh            Energy/eV
      -------------------------------------------------------------
         1        2.0000           -0.6607225             -17.9792
       ...           ...                  ...                  ...
        72        2.0000           -0.3060853              -8.3290
        73        1.9963           -0.1006551              -2.7390
        74        1.9690           -0.0985988              -2.6830
        75        1.0342           -0.0921557              -2.5077
        76        1.0004           -0.0879380              -2.3929
        77        1.0000           -0.0818064              -2.2261
        78        0.9999            0.0173557               0.4723 (HOMO)
        79        0.0001            0.0355269               0.9667 (LUMO)
        80                          0.0538457               1.4652
        81                          0.0783318               2.1315
        82                          0.0842422               2.2923
        83                          0.1059852               2.8840
       ...                                ...                  ...
       117                          1.1460778              31.1864
      -------------------------------------------------------------
                  HL-Gap            0.0181712 Eh            0.4945 eV
             Fermi-level           -0.0344436 Eh           -0.9373 eV

 SCC (total)                   0 d,  0 h,  0 min,  0.050 sec
 SCC setup                      ...        0 min,  0.001 sec (  2.635%)
 Dispersion                     ...        0 min,  0.001 sec (  1.089%)
 classical contributions        ...        0 min,  0.000 sec (  0.200%)
 integral evaluation            ...        0 min,  0.002 sec (  3.498%)
 iterations                     ...        0 min,  0.039 sec ( 78.316%)
 molecular gradient             ...        0 min,  0.007 sec ( 13.675%)
 printout                       ...        0 min,  0.000 sec (  0.548%)

         :::::::::::::::::::::::::::::::::::::::::::::::::::::
         ::                     SUMMARY                     ::
         :::::::::::::::::::::::::::::::::::::::::::::::::::::
         :: total energy             -94.447616304187 Eh    ::
         :: total w/o Gsasa/hb       -94.361596964573 Eh    ::
         :: gradient norm              0.152253656817 Eh/a0 ::
         :: HOMO-LUMO gap              0.494464164159 eV    ::
         ::.................................................::
         :: SCC energy               -94.999753104562 Eh    ::
         :: -> isotropic ES            0.649621076608 Eh    ::
         :: -> anisotropic ES         -0.036522607175 Eh    ::
         :: -> anisotropic XC         -0.006422338925 Eh    ::
         :: -> dispersion             -0.030326175003 Eh    ::
         :: -> Gsolv                  -0.130465785387 Eh    ::
         ::    -> Gelec               -0.044446445774 Eh    ::
         ::    -> Gsasa                0.002840763083 Eh    ::
         ::    -> Ghb                 -0.089940862395 Eh    ::
         ::    -> Gshift               0.001080759698 Eh    ::
         :: repulsion energy           0.550908293624 Eh    ::
         :: add. restraining           0.000000000000 Eh    ::
         :: total charge               0.000008864643 e     ::
         :::::::::::::::::::::::::::::::::::::::::::::::::::::

      ----------------------------------------------------------- 
     |                   =====================                   |
     |                        A N C O P T                        |
     |                   =====================                   |
     |               Approximate Normal Coordinate               |
     |                Rational Function Optimizer                |
      ----------------------------------------------------------- 

          ...................................................
          :                      SETUP                      :
          :.................................................:
          :   optimization level           extreme          :
          :   max. optcycles                  1100          :
          :   ANC micro-cycles                  20          :
          :   degrees of freedom               159          :
          :.................................................:
          :   RF solver                   davidson          :
          :   write xtbopt.log                true          :
          :   linear?                        false          :
          :   energy convergence         0.5000000E-07 Eh   :
          :   grad. convergence          0.5000000E-04 Eh/α :
          :   maxmium RF displ.          1.0000000          :
          :   Hlow (freq-cutoff)         0.1000000E-01      :
          :   Hmax (freq-cutoff)         5.0000000          :
          :   S6 in model hess.         20.0000000          :
          ...................................................

generating ANC from model Hessian ...
Using Lindh-Hessian (1995)
 Shifting diagonal of input Hessian by    1.0167786140325617E-002
 Lowest  eigenvalues of input Hessian
    0.010000    0.010035    0.010084    0.010102    0.010107    0.010131
    0.000000    0.000000    0.000000    0.000000    0.000000    0.000000
    0.010177    0.010194    0.010251    0.010385    0.010428    0.010592
 Highest eigenvalues
    1.424062    1.424571    1.430283    1.431439    1.431826    1.444902


........................................................................
.............................. CYCLE    1 ..............................
........................................................................

 iter      E             dE          RMSdq      gap      omega  full diag
   1    -94.9997531 -0.949998E+02  0.556E-05    0.49       0.0  T
   2    -94.9997531 -0.130882E-10  0.345E-05    0.49     391.1  T
   3    -94.9997531 -0.378009E-11  0.240E-05    0.49     562.7  T
     SCC iter.                  ...        0 min,  0.005 sec
     gradient                   ...        0 min,  0.007 sec
 * total energy  :   -94.4476163 Eh     change       -0.2934826E-09 Eh
   gradient norm :     0.1522511 Eh/α   predicted     0.0000000E+00 (-100.00%)
   displ. norm   :     0.6888716 α      lambda       -0.7539218E-01
   maximum displ.:     0.2682974 α      in ANC's #91, #90, #89, ...

........................................................................
.............................. CYCLE    2 ..............................
........................................................................

 iter      E             dE          RMSdq      gap      omega  full diag
   1    -95.0096740 -0.950097E+02  0.576E-01    0.54       0.0  T
   2    -95.0105935 -0.919539E-03  0.436E-01    0.49       1.0  T
   3    -95.0108202 -0.226669E-03  0.153E-01    0.49       1.0  T
   4    -95.0108512 -0.310378E-04  0.758E-02    0.49       1.0  T
   5    -95.0108594 -0.820992E-05  0.315E-02    0.49       1.0  T
   6    -95.0108619 -0.250331E-05  0.103E-02    0.49       1.3  T
   7    -95.0108625 -0.522415E-06  0.446E-03    0.49       3.0  T
   8    -95.0108626 -0.165176E-06  0.225E-03    0.49       6.0  T
   9    -95.0108627 -0.292852E-07  0.141E-03    0.49       9.6  T
  10    -95.0108627 -0.153276E-07  0.345E-04    0.49      39.1  T
  11    -95.0108627 -0.851102E-09  0.146E-04    0.49      92.6  T
     SCC iter.                  ...        0 min,  0.025 sec
     gradient                   ...        0 min,  0.008 sec
 * total energy  :   -94.5098338 Eh     change       -0.6221754E-01 Eh
   gradient norm :     0.1096715 Eh/α   predicted    -0.5559122E-01 ( -10.65%)
   displ. norm   :     0.7069374 α      lambda       -0.5573853E-01
   maximum displ.:     0.2707968 α      in ANC's #91, #89, #75, ...

........................................................................
.............................. CYCLE    3 ..............................
........................................................................

 iter      E             dE          RMSdq      gap      omega  full diag
   1    -95.0095777 -0.950096E+02  0.553E-01    1.17       0.0  T
   2    -95.0107339 -0.115617E-02  0.521E-01    1.00       1.0  T
   3    -95.0111708 -0.436955E-03  0.193E-01    0.97       1.0  T
   4    -95.0113171 -0.146264E-03  0.127E-01    0.91       1.0  T
   5    -95.0113466 -0.294940E-04  0.665E-02    0.89       1.0  T
   6    -95.0113576 -0.110755E-04  0.356E-02    0.90       1.0  T
   7    -95.0113612 -0.351075E-05  0.101E-02    0.92       1.3  T
   8    -95.0113619 -0.728693E-06  0.804E-03    0.92       1.7  T
   9    -95.0113622 -0.276664E-06  0.247E-03    0.92       5.5  T
  10    -95.0113622 -0.355552E-07  0.137E-03    0.92       9.9  T
  11    -95.0113622 -0.171187E-07  0.506E-04    0.92      26.6  T
  12    -95.0113622 -0.136239E-08  0.110E-04    0.92     122.2  T
     SCC iter.                  ...        0 min,  0.022 sec
     gradient                   ...        0 min,  0.007 sec
 * total energy  :   -94.5587341 Eh     change       -0.4890022E-01 Eh
   gradient norm :     0.1644051 Eh/α   predicted    -0.4179730E-01 ( -14.53%)
   displ. norm   :     0.8943813 α      lambda       -0.8317515E-01
   maximum displ.:     0.3194303 α      in ANC's #91, #110, #90, ...

........................................................................
.............................. CYCLE    4 ..............................
........................................................................

 iter      E             dE          RMSdq      gap      omega  full diag
   1    -94.9834159 -0.949834E+02  0.112E+00    1.98       0.0  T
   2    -94.9807728  0.264309E-02  0.191E+00    1.94       1.0  T
   3    -94.9859242 -0.515137E-02  0.293E-01    1.93       1.0  T
   4    -94.9860381 -0.113981E-03  0.226E-01    1.92       1.0  T
   5    -94.9861470 -0.108875E-03  0.986E-02    1.91       1.0  T
   6    -94.9861682 -0.212098E-04  0.428E-02    1.91       1.0  T
   7    -94.9861754 -0.717205E-05  0.283E-02    1.91       1.0  T
   8    -94.9861770 -0.163443E-05  0.177E-02    1.91       1.0  T
   9    -94.9861781 -0.101656E-05  0.666E-03    1.91       2.0  T
  10    -94.9861783 -0.222364E-06  0.578E-03    1.91       2.3  T
  11    -94.9861784 -0.991236E-07  0.197E-03    1.91       6.8  T
  12    -94.9861784 -0.134187E-07  0.508E-04    1.91      26.6  T
  13    -94.9861784 -0.735596E-09  0.178E-04    1.91      75.9  T
     SCC iter.                  ...        0 min,  0.024 sec
     gradient                   ...        0 min,  0.007 sec
 * total energy  :   -94.5774810 Eh     change       -0.1874692E-01 Eh
   gradient norm :     0.1816879 Eh/α   predicted    -0.7485424E-01 ( 299.29%)
   displ. norm   :     0.5456079 α      lambda       -0.5326456E-01
   maximum displ.:     0.1974323 α      in ANC's #89, #85, #73, ...

........................................................................
.............................. CYCLE    5 ..............................
........................................................................

 iter      E             dE          RMSdq      gap      omega  full diag
   1    -95.1202457 -0.951202E+02  0.577E-01    2.36       0.0  T
   2    -95.1200054  0.240346E-03  0.808E-01    2.34       1.0  T
   3    -95.1209579 -0.952485E-03  0.213E-01    2.33       1.0  T
   4    -95.1210323 -0.744644E-04  0.139E-01    2.32       1.0  T
   5    -95.1210686 -0.362436E-04  0.436E-02    2.32       1.0  T
   6    -95.1210727 -0.406790E-05  0.332E-02    2.32       1.0  T
   7    -95.1210758 -0.311210E-05  0.838E-03    2.32       1.6  T
   8    -95.1210761 -0.311141E-06  0.699E-03    2.32       1.9  T
   9    -95.1210762 -0.142008E-06  0.229E-03    2.32       5.9  T
  10    -95.1210763 -0.400094E-07  0.994E-04    2.32      13.6  T
  11    -95.1210763 -0.103060E-07  0.350E-04    2.32      38.5  T
     SCC iter.                  ...        0 min,  0.023 sec
     gradient                   ...        0 min,  0.008 sec
 * total energy  :   -94.5922905 Eh     change       -0.1480954E-01 Eh
   gradient norm :     0.1597817 Eh/α   predicted    -0.3456039E-01 ( 133.37%)
   displ. norm   :     0.4965215 α      lambda       -0.4353249E-01
   maximum displ.:     0.1232701 α      in ANC's #66, #62, #67, ...

........................................................................
.............................. CYCLE    6 ..............................
........................................................................

 iter      E             dE          RMSdq      gap      omega  full diag
   1    -95.1371702 -0.951372E+02  0.247E-01    2.73       0.0  T
   2    -95.1373209 -0.150617E-03  0.185E-01    2.71       1.0  T
   3    -95.1373453 -0.244123E-04  0.160E-01    2.71       1.0  T
   4    -95.1373899 -0.446297E-04  0.554E-02    2.70       1.0  T
   5    -95.1373947 -0.474831E-05  0.255E-02    2.70       1.0  T
   6    -95.1373966 -0.194006E-05  0.134E-02    2.70       1.0  T
   7    -95.1373970 -0.424080E-06  0.448E-03    2.70       3.0  T
   8    -95.1373971 -0.644235E-07  0.389E-03    2.70       3.5  T
   9    -95.1373971 -0.399876E-07  0.102E-03    2.70      13.2  T
  10    -95.1373971 -0.501848E-08  0.458E-04    2.70      29.4  T
  11    -95.1373971 -0.988948E-09  0.238E-04    2.70      56.7  T
     SCC iter.                  ...        0 min,  0.024 sec
     gradient                   ...        0 min,  0.007 sec
 * total energy  :   -94.6176883 Eh     change       -0.2539779E-01 Eh
   gradient norm :     0.0957060 Eh/α   predicted    -0.2713237E-01 (   6.83%)
   displ. norm   :     0.6065987 α      lambda       -0.2948264E-01
   maximum displ.:     0.1629293 α      in ANC's #76, #67, #50, ...

........................................................................
.............................. CYCLE    7 ..............................
........................................................................

 iter      E             dE          RMSdq      gap      omega  full diag
   1    -95.1726238 -0.951726E+02  0.512E-01    3.16       0.0  T
   2    -95.1727815 -0.157701E-03  0.679E-01    3.09       1.0  T
   3    -95.1734483 -0.666813E-03  0.175E-01    3.08       1.0  T
   4    -95.1734926 -0.442816E-04  0.125E-01    3.04       1.0  T
   5    -95.1735224 -0.298204E-04  0.304E-02    3.04       1.0  T
   6    -95.1735272 -0.473380E-05  0.184E-02    3.04       1.0  T
   7    -95.1735279 -0.708400E-06  0.100E-02    3.04       1.3  T
   8    -95.1735282 -0.303029E-06  0.543E-03    3.04       2.5  T
   9    -95.1735283 -0.144939E-06  0.167E-03    3.04       8.1  T
  10    -95.1735283 -0.206105E-07  0.770E-04    3.04      17.5  T
  11    -95.1735283 -0.521682E-08  0.320E-04    3.04      42.1  T
     SCC iter.                  ...        0 min,  0.023 sec
     gradient                   ...        0 min,  0.007 sec
 * total energy  :   -94.6257397 Eh     change       -0.8051404E-02 Eh
   gradient norm :     0.1348362 Eh/α   predicted    -0.2016559E-01 ( 150.46%)
   displ. norm   :     0.5074002 α      lambda       -0.2582817E-01
   maximum displ.:     0.1663079 α      in ANC's #75, #74, #77, ...

........................................................................
.............................. CYCLE    8 ..............................
........................................................................

 iter      E             dE          RMSdq      gap      omega  full diag
   1    -95.0998175 -0.950998E+02  0.183E+00    3.41       0.0  T
   2    -95.1829231 -0.831057E-01  0.167E+00    3.58       1.0  T
   3    -95.1892279 -0.630474E-02  0.601E-01    3.63       1.0  T
   4    -95.1905715 -0.134362E-02  0.477E-01    3.65       1.0  T
   5    -95.1911167 -0.545193E-03  0.363E-01    3.66       1.0  T
   6    -95.1917842 -0.667534E-03  0.191E-01    3.66       1.0  T
   7    -95.1922015 -0.417245E-03  0.680E-02    3.58       1.0  T
   8    -95.1882770  0.392449E-02  0.343E-01    3.50       1.0  T
   9    -95.1919307 -0.365373E-02  0.133E-01    3.65       1.0  T
  10    -95.1919721 -0.413462E-04  0.110E-01    3.64       1.0  T
  11    -95.1921231 -0.151032E-03  0.669E-02    3.55       1.0  T
  12    -95.1921095  0.136081E-04  0.660E-02    3.60       1.0  T
  13    -95.1922181 -0.108580E-03  0.201E-02    3.57       1.0  T
  14    -95.1922307 -0.125996E-04  0.112E-03    3.56      12.1  T
  15    -95.1922293  0.131090E-05  0.658E-03    3.56       2.0  T
  16    -95.1922306 -0.129180E-05  0.888E-04    3.56      15.2  T
  17    -95.1922307 -0.267308E-07  0.789E-05    3.56     171.0  T
  18    -95.1922307  0.575895E-09  0.145E-04    3.56      93.1  T
     SCC iter.                  ...        0 min,  0.038 sec
     gradient                   ...        0 min,  0.008 sec
 * total energy  :   -94.6464064 Eh     change       -0.2066668E-01 Eh
   gradient norm :     0.1215255 Eh/α   predicted    -0.1623889E-01 ( -21.42%)
   displ. norm   :     0.7571602 α      lambda       -0.4815966E-01
   maximum displ.:     0.2549309 α      in ANC's #77, #101, #75, ...

........................................................................
.............................. CYCLE    9 ..............................
........................................................................

 iter      E             dE          RMSdq      gap      omega  full diag
   1    -95.1950266 -0.951950E+02  0.175E+00    4.38       0.0  T
   2    -95.2089402 -0.139136E-01  0.152E+00    5.59       1.0  T
   3    -95.2088679  0.722920E-04  0.115E+00    5.55       1.0  T
   4    -95.1795335  0.293344E-01  0.132E+00    5.93       1.0  T
   5    -95.1874975 -0.796401E-02  0.118E+00    6.17       1.0  T
   6    -95.2065522 -0.190547E-01  0.937E-01    5.95       1.0  T
   7    -95.2122947 -0.574252E-02  0.967E-01    6.21       1.0  T
   8    -95.2077578  0.453685E-02  0.868E-01    6.02       1.0  T
   9    -95.2200960 -0.123382E-01  0.662E-01    6.16       1.0  T
  10    -95.1991411  0.209549E-01  0.996E-01    6.24       1.0  T
  11    -95.2186712 -0.195301E-01  0.740E-01    6.21       1.0  T
  12    -95.2464707 -0.277995E-01  0.119E-01    6.17       1.0  T
  13    -95.2263849  0.200858E-01  0.629E-01    6.21       1.0  T
  14    -95.2461434 -0.197585E-01  0.129E-01    6.18       1.0  T
  15    -95.2470060 -0.862638E-03  0.188E-02    6.18       1.0  T
  16    -95.2469842  0.218465E-04  0.274E-02    6.18       1.0  T
  17    -95.2469044  0.797713E-04  0.449E-02    6.18       1.0  T
  18    -95.2470124 -0.108060E-03  0.893E-03    6.18       1.5  T
  19    -95.2470113  0.110036E-05  0.101E-02    6.18       1.3  T
  20    -95.2470109  0.422815E-06  0.104E-02    6.18       1.3  T
  21    -95.2470170 -0.611943E-05  0.101E-03    6.18      13.3  T
  22    -95.2470170 -0.977161E-08  0.784E-04    6.18      17.2  T
  23    -95.2470168  0.271718E-06  0.230E-03    6.18       5.9  T
  24    -95.2470171 -0.303247E-06  0.294E-04    6.18      45.9  T
     SCC iter.                  ...        0 min,  0.047 sec
     gradient                   ...        0 min,  0.010 sec
 * total energy  :   -94.6932087 Eh     change       -0.4680232E-01 Eh
   gradient norm :     0.1587694 Eh/α   predicted    -0.3788463E-01 ( -19.05%)
   displ. norm   :     0.7739909 α      lambda       -0.5474911E-01
   maximum displ.:     0.2641536 α      in ANC's #101, #77, #97, ...

........................................................................
.............................. CYCLE   10 ..............................
........................................................................

 iter      E             dE          RMSdq      gap      omega  full diag
   1    -95.2836289 -0.952836E+02  0.855E-01    6.08       0.0  T
   2    -95.2231348  0.604941E-01  0.145E+00    6.30       1.0  T
   3    -95.2873490 -0.642142E-01  0.669E-01    6.34       1.0  T
   4    -95.2341310  0.532180E-01  0.119E+00    6.54       1.0  T
   5    -95.2985671 -0.644361E-01  0.403E-01    6.45       1.0  T
   6    -95.2344913  0.640758E-01  0.118E+00    6.53       1.0  T
   7    -95.2910191 -0.565278E-01  0.546E-01    6.44       1.0  T
   8    -95.2964492 -0.543012E-02  0.449E-01    6.45       1.0  T
   9    -95.2976210 -0.117176E-02  0.419E-01    6.46       1.0  T
  10    -95.3056247 -0.800373E-02  0.208E-01    6.47       1.0  T
  11    -95.3074291 -0.180443E-02  0.115E-01    6.48       1.0  T
  12    -95.3081357 -0.706589E-03  0.386E-02    6.48       1.0  T
  13    -95.3082161 -0.803960E-04  0.119E-02    6.48       1.1  T
  14    -95.3082236 -0.745362E-05  0.512E-03    6.48       2.6  T
  15    -95.3082029  0.206566E-04  0.190E-02    6.48       1.0  T
  16    -95.3081959  0.703447E-05  0.217E-02    6.48       1.0  T
  17    -95.3082086 -0.127529E-04  0.163E-02    6.48       1.0  T
  18    -95.3082219 -0.132736E-04  0.714E-03    6.48       1.9  T
  19    -95.3082242 -0.223893E-05  0.386E-03    6.48       3.5  T
  20    -95.3082251 -0.916866E-06  0.187E-04    6.48      71.9  T
  21    -95.3082250  0.293923E-07  0.711E-04    6.48      19.0  T
     SCC iter.                  ...        0 min,  0.038 sec
     gradient                   ...        0 min,  0.007 sec
 * total energy  :   -94.7197396 Eh     change       -0.2653092E-01 Eh
   gradient norm :     0.1952623 Eh/α   predicted    -0.4377365E-01 (  64.99%)
   displ. norm   :     0.5693678 α      lambda       -0.4534903E-01
   maximum displ.:     0.1832709 α      in ANC's #74, #62, #63, ...

........................................................................
.............................. CYCLE   11 ..............................
........................................................................

 iter      E             dE          RMSdq      gap      omega  full diag
   1    -95.3059030 -0.953059E+02  0.669E-01    6.62       0.0  T
   2    -95.2096332  0.962698E-01  0.156E+00    6.38       1.0  T
   3    -95.3221042 -0.112471E+00  0.387E-01    6.70       1.0  T
   4    -95.3223074 -0.203184E-03  0.138E-01    6.70       1.0  T
   5    -95.3079813  0.143261E-01  0.529E-01    6.64       1.0  T
   6    -95.3226113 -0.146300E-01  0.466E-02    6.68       1.0  T
   7    -95.3224203  0.191009E-03  0.620E-02    6.68       1.0  T
   8    -95.3203463  0.207403E-02  0.196E-01    6.67       1.0  T
   9    -95.3197151  0.631176E-03  0.219E-01    6.69       1.0  T
  10    -95.3226020 -0.288692E-02  0.260E-02    6.68       1.0  T
  11    -95.3226385 -0.364564E-04  0.587E-03    6.68       2.3  T
  12    -95.3226397 -0.122817E-05  0.385E-03    6.68       3.5  T
  13    -95.3226378  0.194611E-05  0.682E-03    6.68       2.0  T
  14    -95.3226406 -0.282953E-05  0.347E-04    6.68      38.9  T
  15    -95.3226394  0.116006E-05  0.438E-03    6.68       3.1  T
  16    -95.3226406 -0.112341E-05  0.833E-04    6.68      16.2  T
  17    -95.3226406 -0.383102E-07  0.253E-04    6.68      53.2  T
  18    -95.3226406 -0.383119E-08  0.311E-05    6.68     434.1  T
     SCC iter.                  ...        0 min,  0.035 sec
     gradient                   ...        0 min,  0.008 sec
 * total energy  :   -94.7397029 Eh     change       -0.1996331E-01 Eh
   gradient norm :     0.1603455 Eh/α   predicted    -0.3002515E-01 (  50.40%)
   displ. norm   :     0.5360507 α      lambda       -0.4659300E-01
   maximum displ.:     0.1492156 α      in ANC's #50, #97, #65, ...

........................................................................
.............................. CYCLE   12 ..............................
........................................................................

 iter      E             dE          RMSdq      gap      omega  full diag
   1    -95.2957778 -0.952958E+02  0.632E-01    6.83       0.0  T
   2    -95.0089233  0.286854E+00  0.234E+00    6.57       1.0  T
   3    -95.2840254 -0.275102E+00  0.765E-01    6.90       1.0  T
   4    -95.2973297 -0.133044E-01  0.485E-01    6.85       1.0  T
   5    -95.2801652  0.171645E-01  0.733E-01    6.91       1.0  T
   6    -95.3080930 -0.279277E-01  0.174E-01    6.89       1.0  T
   7    -95.3096181 -0.152511E-02  0.583E-02    6.88       1.0  T
   8    -95.3094177  0.200375E-03  0.669E-02    6.89       1.0  T
   9    -95.3096070 -0.189332E-03  0.310E-02    6.88       1.0  T
  10    -95.3096619 -0.549118E-04  0.572E-03    6.88       2.4  T
  11    -95.3096635 -0.151864E-05  0.107E-03    6.88      12.7  T
  12    -95.3096635 -0.557567E-07  0.304E-04    6.88      44.4  T
  13    -95.3096633  0.217859E-06  0.194E-03    6.88       6.9  T
  14    -95.3096635 -0.163890E-06  0.973E-04    6.88      13.9  T
     SCC iter.                  ...        0 min,  0.030 sec
     gradient                   ...        0 min,  0.007 sec
 * total energy  :   -94.7548274 Eh     change       -0.1512446E-01 Eh
   gradient norm :     0.1005926 Eh/α   predicted    -0.2999076E-01 (  98.29%)
   displ. norm   :     0.5547490 α      lambda       -0.2648482E-01
   maximum displ.:     0.1806269 α      in ANC's #101, #61, #85, ...

........................................................................
.............................. CYCLE   13 ..............................
........................................................................

 iter      E             dE          RMSdq      gap      omega  full diag
   1    -95.3137901 -0.953138E+02  0.515E-01    6.80       0.0  T
   2    -95.1362347  0.177555E+00  0.191E+00    6.78       1.0  T
   3    -95.3177566 -0.181522E+00  0.411E-01    6.90       1.0  T
   4    -95.3214027 -0.364608E-02  0.263E-01    6.93       1.0  T
   5    -95.3223725 -0.969826E-03  0.213E-01    6.90       1.0  T
   6    -95.2943103  0.280621E-01  0.729E-01    6.94       1.0  T
   7    -95.3221805 -0.278701E-01  0.225E-01    6.90       1.0  T
   8    -95.3218904  0.290057E-03  0.224E-01    6.92       1.0  T
   9    -95.3245355 -0.264504E-02  0.608E-02    6.92       1.0  T
  10    -95.3241884  0.347065E-03  0.984E-02    6.91       1.0  T
  11    -95.3246305 -0.442151E-03  0.441E-02    6.91       1.0  T
  12    -95.3247276 -0.970890E-04  0.640E-03    6.92       2.1  T
  13    -95.3247233  0.428406E-05  0.107E-02    6.91       1.3  T
  14    -95.3247288 -0.547856E-05  0.405E-03    6.92       3.3  T
  15    -95.3247296 -0.795397E-06  0.159E-03    6.92       8.5  T
  16    -95.3247297 -0.124204E-06  0.447E-04    6.92      30.2  T
  17    -95.3247297  0.264339E-07  0.814E-04    6.92      16.6  T
     SCC iter.                  ...        0 min,  0.033 sec
     gradient                   ...        0 min,  0.008 sec
 * total energy  :   -94.7710439 Eh     change       -0.1621652E-01 Eh
   gradient norm :     0.0687066 Eh/α   predicted    -0.1731769E-01 (   6.79%)
   displ. norm   :     0.7299854 α      lambda       -0.2469841E-01
   maximum displ.:     0.1890747 α      in ANC's #68, #34, #101, ...

........................................................................
.............................. CYCLE   14 ..............................
........................................................................

 iter      E             dE          RMSdq      gap      omega  full diag
   1    -95.3633657 -0.953634E+02  0.499E-01    6.96       0.0  T
   2    -95.0645391  0.298827E+00  0.236E+00    7.01       1.0  T
   3    -95.3637544 -0.299215E+00  0.460E-01    7.01       1.0  T
   4    -95.3645676 -0.813197E-03  0.389E-01    7.04       1.0  T
   5    -95.3612544  0.331323E-02  0.471E-01    7.10       1.0  T
   6    -95.3613246 -0.701793E-04  0.470E-01    7.10       1.0  T
   7    -95.3546581  0.666646E-02  0.591E-01    7.09       1.0  T
   8    -95.3630629 -0.840483E-02  0.419E-01    7.07       1.0  T
   9    -95.3705557 -0.749273E-02  0.144E-01    7.04       1.0  T
  10    -95.3715757 -0.101999E-02  0.153E-02    7.05       1.0  T
  11    -95.3713408  0.234878E-03  0.708E-02    7.04       1.0  T
  12    -95.3715867 -0.245928E-03  0.438E-03    7.05       3.1  T
  13    -95.3715444  0.422688E-04  0.291E-02    7.05       1.0  T
  14    -95.3715868 -0.423309E-04  0.169E-03    7.05       8.0  T
  15    -95.3715862  0.562899E-06  0.372E-03    7.05       3.6  T
  16    -95.3715868 -0.632646E-06  0.106E-03    7.05      12.7  T
  17    -95.3715869 -0.381528E-07  0.590E-04    7.05      22.9  T
  18    -95.3715869 -0.970829E-08  0.398E-04    7.05      33.8  T
     SCC iter.                  ...        0 min,  0.036 sec
     gradient                   ...        0 min,  0.007 sec
 * total energy  :   -94.7760403 Eh     change       -0.4996404E-02 Eh
   gradient norm :     0.1410673 Eh/α   predicted    -0.1892984E-01 ( 278.87%)
   displ. norm   :     0.5301939 α      lambda       -0.2838954E-01
   maximum displ.:     0.1612002 α      in ANC's #97, #65, #63, ...

........................................................................
.............................. CYCLE   15 ..............................
........................................................................

 iter      E             dE          RMSdq      gap      omega  full diag
   1    -95.3606402 -0.953606E+02  0.459E-01    7.10       0.0  T
   2    -94.6823005  0.678340E+00  0.354E+00    7.08       1.0  T
   3    -95.3609891 -0.678689E+00  0.404E-01    7.14       1.0  T
   4    -95.3650199 -0.403080E-02  0.256E-01    7.18       1.0  T
   5    -95.3654797 -0.459776E-03  0.173E-01    7.18       1.0  T
   6    -95.3653363  0.143336E-03  0.222E-01    7.20       1.0  T
   7    -95.3556594  0.967696E-02  0.521E-01    7.22       1.0  T
   8    -95.3627404 -0.708098E-02  0.326E-01    7.20       1.0  T
   9    -95.3657787 -0.303834E-02  0.164E-01    7.19       1.0  T
  10    -95.3669127 -0.113399E-02  0.475E-02    7.18       1.0  T
  11    -95.3670191 -0.106422E-03  0.112E-02    7.18       1.2  T
  12    -95.3670153  0.383588E-05  0.135E-02    7.18       1.0  T
  13    -95.3670181 -0.283180E-05  0.951E-03    7.18       1.4  T
  14    -95.3670213 -0.322766E-05  0.149E-03    7.18       9.0  T
  15    -95.3670214 -0.789878E-07  0.111E-03    7.18      12.1  T
  16    -95.3670214 -0.204897E-07  0.922E-05    7.18     146.3  T
  17    -95.3670214  0.162217E-09  0.100E-04    7.18     134.6  T
     SCC iter.                  ...        0 min,  0.034 sec
     gradient                   ...        0 min,  0.009 sec
 * total energy  :   -94.7893554 Eh     change       -0.1331506E-01 Eh
   gradient norm :     0.0976693 Eh/α   predicted    -0.1818500E-01 (  36.57%)
   displ. norm   :     0.5831521 α      lambda       -0.2478982E-01
   maximum displ.:     0.2216210 α      in ANC's #101, #65, #46, ...

........................................................................
.............................. CYCLE   16 ..............................
........................................................................

 iter      E             dE          RMSdq      gap      omega  full diag
   1    -95.3242665 -0.953243E+02  0.396E-01    7.07       0.0  T
   2    -94.6616426  0.662624E+00  0.350E+00    7.14       1.0  T
   3    -95.3265463 -0.664904E+00  0.340E-01    7.15       1.0  T
   4    -95.3228679  0.367840E-02  0.409E-01    7.18       1.0  T
   5    -95.3283655 -0.549753E-02  0.106E-01    7.16       1.0  T
   6    -95.3133290  0.150365E-01  0.542E-01    7.19       1.0  T
   7    -95.3239200 -0.105910E-01  0.292E-01    7.18       1.0  T
   8    -95.3279239 -0.400397E-02  0.103E-01    7.18       1.0  T
   9    -95.3284045 -0.480563E-03  0.544E-02    7.17       1.0  T
  10    -95.3283428  0.617284E-04  0.610E-02    7.17       1.0  T
  11    -95.3284271 -0.843143E-04  0.228E-02    7.17       1.0  T
  12    -95.3284374 -0.103369E-04  0.785E-03    7.18       1.7  T
  13    -95.3284403 -0.286549E-05  0.327E-03    7.18       4.1  T
  14    -95.3284400  0.315311E-06  0.419E-03    7.18       3.2  T
  15    -95.3284403 -0.322074E-06  0.759E-04    7.17      17.8  T
  16    -95.3284403 -0.136232E-07  0.421E-04    7.17      32.0  T
     SCC iter.                  ...        0 min,  0.028 sec
     gradient                   ...        0 min,  0.007 sec
 * total energy  :   -94.7924555 Eh     change       -0.3100105E-02 Eh
   gradient norm :     0.1117623 Eh/α   predicted    -0.1661000E-01 ( 435.79%)
   displ. norm   :     0.5316949 α      lambda       -0.2384393E-01
   maximum displ.:     0.1503303 α      in ANC's #34, #53, #48, ...

........................................................................
.............................. CYCLE   17 ..............................
........................................................................

 iter      E             dE          RMSdq      gap      omega  full diag
   1    -95.3747426 -0.953747E+02  0.365E-01    7.19       0.0  T
   2    -94.6241497  0.750593E+00  0.371E+00    7.20       1.0  T
   3    -95.3746202 -0.750471E+00  0.321E-01    7.18       1.0  T
   4    -95.3749377 -0.317487E-03  0.325E-01    7.18       1.0  T
   5    -95.3748983  0.393498E-04  0.272E-01    7.18       1.0  T
   6    -95.3762152 -0.131686E-02  0.219E-01    7.19       1.0  T
   7    -95.3772980 -0.108285E-02  0.173E-01    7.20       1.0  T
   8    -95.3772793  0.187881E-04  0.176E-01    7.20       1.0  T
   9    -95.3771815  0.977824E-04  0.184E-01    7.20       1.0  T
  10    -95.3787143 -0.153287E-02  0.871E-02    7.20       1.0  T
  11    -95.3784359  0.278401E-03  0.814E-02    7.20       1.0  T
  12    -95.3787576 -0.321620E-03  0.414E-02    7.19       1.0  T
  13    -95.3783464  0.411137E-03  0.921E-02    7.20       1.0  T
  14    -95.3787895 -0.443088E-03  0.143E-02    7.20       1.0  T
  15    -95.3787927 -0.315687E-05  0.125E-02    7.20       1.1  T
  16    -95.3788012 -0.856727E-05  0.111E-03    7.20      12.2  T
  17    -95.3788013 -0.574605E-07  0.157E-04    7.20      86.0  T
  18    -95.3788013  0.360737E-08  0.312E-04    7.20      43.3  T
     SCC iter.                  ...        0 min,  0.036 sec
     gradient                   ...        0 min,  0.007 sec
 * total energy  :   -94.8063939 Eh     change       -0.1393844E-01 Eh
   gradient norm :     0.0646831 Eh/α   predicted    -0.1529231E-01 (   9.71%)
   displ. norm   :     0.7131539 α      lambda       -0.2122351E-01
   maximum displ.:     0.2362530 α      in ANC's #97, #101, #34, ...

........................................................................
.............................. CYCLE   18 ..............................
........................................................................

 iter      E             dE          RMSdq      gap      omega  full diag
   1    -95.3882089 -0.953882E+02  0.407E-01    7.24       0.0  T
   2    -94.8351141  0.553095E+00  0.319E+00    7.43       1.0  T
   3    -95.3881715 -0.553057E+00  0.382E-01    7.23       1.0  T
   4    -95.3883967 -0.225202E-03  0.293E-01    7.25       1.0  T
   5    -95.3885977 -0.200955E-03  0.241E-01    7.27       1.0  T
   6    -95.3888409 -0.243198E-03  0.219E-01    7.28       1.0  T
   7    -95.3893436 -0.502771E-03  0.197E-01    7.29       1.0  T
   8    -95.3903003 -0.956671E-03  0.147E-01    7.30       1.0  T
   9    -95.3905999 -0.299565E-03  0.132E-01    7.30       1.0  T
  10    -95.3913010 -0.701113E-03  0.834E-02    7.31       1.0  T
  11    -95.3913256 -0.246036E-04  0.116E-01    7.31       1.0  T
  12    -95.3845126  0.681297E-02  0.373E-01    7.32       1.0  T
  13    -95.3914351 -0.692247E-02  0.149E-02    7.31       1.0  T
  14    -95.3913976  0.375200E-04  0.258E-02    7.31       1.0  T
  15    -95.3914340 -0.364552E-04  0.677E-03    7.31       2.0  T
  16    -95.3914359 -0.182334E-05  0.197E-03    7.31       6.8  T
  17    -95.3914353  0.566632E-06  0.356E-03    7.31       3.8  T
  18    -95.3914358 -0.516643E-06  0.124E-03    7.31      10.9  T
  19    -95.3914359 -0.654679E-07  0.417E-04    7.31      32.4  T
  20    -95.3914359 -0.821488E-08  0.160E-05    7.31     843.1  T
     SCC iter.                  ...        0 min,  0.044 sec
     gradient                   ...        0 min,  0.008 sec
 * total energy  :   -94.8111378 Eh     change       -0.4743870E-02 Eh
   gradient norm :     0.1114505 Eh/α   predicted    -0.1600876E-01 ( 237.46%)
   displ. norm   :     0.5176832 α      lambda       -0.2162801E-01
   maximum displ.:     0.1749987 α      in ANC's #101, #53, #34, ...

........................................................................
.............................. CYCLE   19 ..............................
........................................................................

 iter      E             dE          RMSdq      gap      omega  full diag
   1    -95.3945105 -0.953945E+02  0.249E-01    7.31       0.0  T
   2    -95.3927553  0.175514E-02  0.338E-01    7.24       1.0  T
   3    -95.3944551 -0.169981E-02  0.155E-01    7.32       1.0  T
   4    -95.3240923  0.703628E-01  0.119E+00    7.36       1.0  T
   5    -95.3838465 -0.597542E-01  0.478E-01    7.35       1.0  T
   6    -95.3939889 -0.101424E-01  0.173E-01    7.35       1.0  T
   7    -95.3953719 -0.138294E-02  0.388E-02    7.34       1.0  T
   8    -95.3948022  0.569705E-03  0.111E-01    7.34       1.0  T
   9    -95.3953776 -0.575418E-03  0.347E-02    7.34       1.0  T
  10    -95.3954369 -0.593450E-04  0.548E-03    7.34       2.5  T
  11    -95.3954331  0.377536E-05  0.100E-02    7.34       1.3  T
  12    -95.3954382 -0.506063E-05  0.111E-03    7.34      12.1  T
  13    -95.3954379  0.279796E-06  0.255E-03    7.34       5.3  T
  14    -95.3954383 -0.324311E-06  0.252E-04    7.34      53.6  T
  15    -95.3954383 -0.220967E-08  0.143E-04    7.34      94.3  T
     SCC iter.                  ...        0 min,  0.028 sec
     gradient                   ...        0 min,  0.008 sec
 * total energy  :   -94.8233596 Eh     change       -0.1222181E-01 Eh
   gradient norm :     0.0594489 Eh/α   predicted    -0.1371212E-01 (  12.19%)
   displ. norm   :     0.6847656 α      lambda       -0.1647865E-01
   maximum displ.:     0.2318151 α      in ANC's #34, #41, #42, ...

........................................................................
.............................. CYCLE   20 ..............................
........................................................................

 iter      E             dE          RMSdq      gap      omega  full diag
   1    -95.3849544 -0.953850E+02  0.329E-01    7.22       0.0  T
   2    -94.6382692  0.746685E+00  0.372E+00    7.33       1.0  T
   3    -95.3847706 -0.746501E+00  0.307E-01    7.19       1.0  T
   4    -95.3849016 -0.130935E-03  0.266E-01    7.20       1.0  T
   5    -95.3848684  0.332079E-04  0.228E-01    7.18       1.0  T
   6    -95.3849488 -0.804415E-04  0.213E-01    7.19       1.0  T
   7    -95.3851365 -0.187726E-03  0.204E-01    7.20       1.0  T
   8    -95.3854841 -0.347578E-03  0.184E-01    7.20       1.0  T
   9    -95.3856125 -0.128409E-03  0.177E-01    7.20       1.0  T
  10    -95.3856944 -0.818650E-04  0.175E-01    7.21       1.0  T
  11    -95.3871771 -0.148274E-02  0.898E-02    7.22       1.0  T
  12    -95.3872514 -0.742522E-04  0.767E-02    7.22       1.0  T
  13    -95.3865663  0.685088E-03  0.123E-01    7.22       1.0  T
  14    -95.3870653 -0.499018E-03  0.696E-02    7.22       1.0  T
  15    -95.3869864  0.789542E-04  0.778E-02    7.22       1.0  T
  16    -95.3872785 -0.292176E-03  0.719E-03    7.22       1.9  T
  17    -95.3872773  0.128096E-05  0.849E-03    7.22       1.6  T
  18    -95.3872808 -0.354171E-05  0.225E-03    7.22       6.0  T
  19    -95.3872811 -0.269206E-06  0.342E-04    7.22      39.5  T
  20    -95.3872811 -0.555295E-08  0.105E-04    7.22     128.2  T
     SCC iter.                  ...        0 min,  0.040 sec
     gradient                   ...        0 min,  0.008 sec
 * total energy  :   -94.8259805 Eh     change       -0.2620926E-02 Eh
   gradient norm :     0.1095424 Eh/α   predicted    -0.1210278E-01 ( 361.78%)
   displ. norm   :     0.5242964 α      lambda       -0.1840689E-01
   maximum displ.:     0.1974829 α      in ANC's #101, #53, #34, ...
 * RMSD in coord.:     0.8655812 α      energy gain  -0.3783642E+00 Eh

generating ANC from model Hessian ...
Using Lindh-Hessian (1995)
 Shifting diagonal of input Hessian by    1.1433976788172902E-002
 Lowest  eigenvalues of input Hessian
    0.010000    0.011142    0.011266    0.011310    0.011337    0.011365
    0.011401    0.011403    0.011418    0.000000    0.000000    0.000000
    0.000000    0.000000    0.000000    0.011439    0.011460    0.011508
 Highest eigenvalues
    1.433389    1.436237    1.444376    1.446363    1.454597    1.459512


........................................................................
.............................. CYCLE   21 ..............................
........................................................................

 iter      E             dE          RMSdq      gap      omega  full diag
   1    -95.3930504 -0.953931E+02  0.238E-01    7.22       0.0  T
   2    -95.0821086  0.310942E+00  0.242E+00    7.36       1.0  T
   3    -95.3931423 -0.311034E+00  0.202E-01    7.26       1.0  T
   4    -95.3937862 -0.643885E-03  0.135E-01    7.28       1.0  T
   5    -95.3938058 -0.196157E-04  0.900E-02    7.31       1.0  T
   6    -95.3938550 -0.491641E-04  0.819E-02    7.31       1.0  T
   7    -95.3935140  0.340958E-03  0.109E-01    7.31       1.0  T
   8    -95.3940617 -0.547738E-03  0.366E-02    7.31       1.0  T
   9    -95.3940979 -0.361945E-04  0.231E-02    7.31       1.0  T
  10    -95.3941197 -0.217954E-04  0.933E-03    7.31       1.4  T
  11    -95.3941199 -0.134366E-06  0.766E-03    7.31       1.8  T
  12    -95.3941201 -0.212418E-06  0.719E-03    7.30       1.9  T
  13    -95.3941226 -0.253953E-05  0.179E-03    7.31       7.5  T
  14    -95.3941227 -0.846209E-07  0.982E-04    7.31      13.7  T
  15    -95.3941227 -0.347794E-07  0.318E-04    7.31      42.4  T
     SCC iter.                  ...        0 min,  0.033 sec
     gradient                   ...        0 min,  0.007 sec
 * total energy  :   -94.8368984 Eh     change       -0.1091790E-01 Eh
   gradient norm :     0.0603295 Eh/α   predicted     0.0000000E+00 (-100.00%)
   displ. norm   :     0.5983037 α      lambda       -0.1253937E-01
   maximum displ.:     0.2357638 α      in ANC's #13, #1, #2, ...

........................................................................
.............................. CYCLE   22 ..............................
........................................................................

 iter      E             dE          RMSdq      gap      omega  full diag
   1    -95.4049691 -0.954050E+02  0.208E-01    7.27       0.0  T
   2    -95.2877135  0.117256E+00  0.150E+00    7.36       1.0  T
   3    -95.4049510 -0.117237E+00  0.206E-01    7.27       1.0  T
   4    -95.4050075 -0.565040E-04  0.144E-01    7.28       1.0  T
   5    -95.4050462 -0.387194E-04  0.118E-01    7.30       1.0  T
   6    -95.4050806 -0.343935E-04  0.109E-01    7.30       1.0  T
   7    -95.4051142 -0.336577E-04  0.105E-01    7.30       1.0  T
   8    -95.4052069 -0.926562E-04  0.911E-02    7.31       1.0  T
   9    -95.4053543 -0.147400E-03  0.702E-02    7.32       1.0  T
  10    -95.4055193 -0.165001E-03  0.390E-02    7.33       1.0  T
  11    -95.4055571 -0.377503E-04  0.269E-02    7.33       1.0  T
  12    -95.4054075  0.149576E-03  0.602E-02    7.33       1.0  T
  13    -95.4055837 -0.176200E-03  0.144E-02    7.33       1.0  T
  14    -95.4055936 -0.996909E-05  0.243E-03    7.33       5.5  T
  15    -95.4055929  0.699600E-06  0.450E-03    7.33       3.0  T
  16    -95.4055934 -0.430660E-06  0.334E-03    7.33       4.0  T
  17    -95.4055938 -0.430781E-06  0.164E-03    7.33       8.2  T
  18    -95.4055939 -0.114309E-06  0.677E-04    7.33      19.9  T
  19    -95.4055939 -0.221985E-07  0.161E-04    7.33      83.6  T
     SCC iter.                  ...        0 min,  0.037 sec
     gradient                   ...        0 min,  0.007 sec
 * total energy  :   -94.8466474 Eh     change       -0.9749026E-02 Eh
   gradient norm :     0.0361130 Eh/α   predicted    -0.8514251E-02 ( -12.67%)
   displ. norm   :     0.8412742 α      lambda       -0.1696316E-01
   maximum displ.:     0.3426805 α      in ANC's #2, #13, #79, ...

........................................................................
.............................. CYCLE   23 ..............................
........................................................................

 iter      E             dE          RMSdq      gap      omega  full diag
   1    -95.3357485 -0.953357E+02  0.124E+00    7.46       0.0  T
   2    -95.4090282 -0.732797E-01  0.839E-01    6.59       1.0  T
   3    -95.4131420 -0.411381E-02  0.536E-01    6.93       1.0  T
   4    -95.4142820 -0.113994E-02  0.438E-01    7.04       1.0  T
   5    -95.4154499 -0.116797E-02  0.325E-01    7.18       1.0  T
   6    -95.4165522 -0.110231E-02  0.180E-01    7.36       1.0  T
   7    -95.4171262 -0.573958E-03  0.916E-02    7.44       1.0  T
   8    -95.2588442  0.158282E+00  0.171E+00    7.50       1.0  T
   9    -95.4001779 -0.141334E+00  0.569E-01    7.47       1.0  T
  10    -95.4173462 -0.171683E-01  0.506E-02    7.45       1.0  T
  11    -95.4169933  0.352927E-03  0.977E-02    7.44       1.0  T
  12    -95.4171682 -0.174924E-03  0.735E-02    7.45       1.0  T
  13    -95.4174131 -0.244888E-03  0.220E-02    7.46       1.0  T
  14    -95.4174325 -0.194275E-04  0.514E-03    7.46       2.6  T
  15    -95.4173753  0.572466E-04  0.336E-02    7.45       1.0  T
  16    -95.4174184 -0.431583E-04  0.172E-02    7.46       1.0  T
  17    -95.4174210 -0.257820E-05  0.156E-02    7.46       1.0  T
  18    -95.4174262 -0.520299E-05  0.121E-02    7.46       1.1  T
  19    -95.4174267 -0.490360E-06  0.117E-02    7.46       1.2  T
  20    -95.4174305 -0.377236E-05  0.806E-03    7.46       1.7  T
  21    -95.4174328 -0.231897E-05  0.458E-03    7.46       2.9  T
  22    -95.4174339 -0.109154E-05  0.591E-04    7.46      22.8  T
  23    -95.4174339 -0.174827E-07  0.479E-05    7.46     281.3  T
  24    -95.4174339  0.406601E-09  0.986E-05    7.46     136.7  T
     SCC iter.                  ...        0 min,  0.045 sec
     gradient                   ...        0 min,  0.008 sec
 * total energy  :   -94.8542352 Eh     change       -0.7587770E-02 Eh
   gradient norm :     0.0559499 Eh/α   predicted    -0.1448436E-01 (  90.89%)
   displ. norm   :     0.6942825 α      lambda       -0.1231511E-01
   maximum displ.:     0.3204290 α      in ANC's #2, #13, #1, ...

........................................................................
.............................. CYCLE   24 ..............................
........................................................................

 iter      E             dE          RMSdq      gap      omega  full diag
   1    -95.4245562 -0.954246E+02  0.142E-01    7.38       0.0  T
   2    -95.4246819 -0.125703E-03  0.128E-01    7.45       1.0  T
   3    -95.4247082 -0.263154E-04  0.746E-02    7.45       1.0  T
   4    -95.4247216 -0.133119E-04  0.243E-02    7.46       1.0  T
   5    -95.4247214  0.111699E-06  0.120E-02    7.46       1.1  T
   6    -95.4247209  0.563443E-06  0.931E-03    7.46       1.4  T
   7    -95.4247210 -0.117721E-06  0.785E-03    7.46       1.7  T
   8    -95.4247224 -0.136382E-05  0.485E-03    7.46       2.8  T
   9    -95.4247234 -0.100513E-05  0.120E-03    7.46      11.2  T
  10    -95.4247229  0.438144E-06  0.316E-03    7.46       4.3  T
  11    -95.4247234 -0.460581E-06  0.274E-04    7.46      49.2  T
  12    -95.4247234  0.291493E-09  0.262E-04    7.46      51.5  T
     SCC iter.                  ...        0 min,  0.023 sec
     gradient                   ...        0 min,  0.008 sec
 * total energy  :   -94.8649008 Eh     change       -0.1066556E-01 Eh
   gradient norm :     0.0478349 Eh/α   predicted    -0.9125668E-02 ( -14.44%)
   displ. norm   :     0.7656053 α      lambda       -0.1553410E-01
   maximum displ.:     0.3332408 α      in ANC's #2, #13, #1, ...

........................................................................
.............................. CYCLE   25 ..............................
........................................................................

 iter      E             dE          RMSdq      gap      omega  full diag
   1    -95.4291082 -0.954291E+02  0.172E-01    7.30       0.0  T
   2    -95.4292663 -0.158072E-03  0.107E-01    7.32       1.0  T
   3    -95.4292904 -0.241232E-04  0.848E-02    7.33       1.0  T
   4    -95.4293026 -0.121609E-04  0.524E-02    7.34       1.0  T
   5    -95.4293065 -0.395437E-05  0.164E-02    7.34       1.0  T
   6    -95.4293076 -0.109391E-05  0.921E-03    7.34       1.5  T
   7    -95.4293078 -0.171766E-06  0.318E-03    7.34       4.2  T
   8    -95.4293078 -0.371868E-07  0.189E-03    7.34       7.1  T
   9    -95.4293079 -0.228735E-07  0.369E-04    7.34      36.5  T
  10    -95.4293079 -0.104730E-08  0.138E-04    7.34      97.5  T
     SCC iter.                  ...        0 min,  0.019 sec
     gradient                   ...        0 min,  0.008 sec
 * total energy  :   -94.8716099 Eh     change       -0.6709151E-02 Eh
   gradient norm :     0.0650762 Eh/α   predicted    -0.1231973E-01 (  83.63%)
   displ. norm   :     0.6163356 α      lambda       -0.1447474E-01
   maximum displ.:     0.2413341 α      in ANC's #2, #15, #13, ...

........................................................................
.............................. CYCLE   26 ..............................
........................................................................

 iter      E             dE          RMSdq      gap      omega  full diag
   1    -95.4309307 -0.954309E+02  0.227E-01    7.43       0.0  T
   2    -95.4309785 -0.477512E-04  0.257E-01    7.43       1.0  T
   3    -95.4310725 -0.939754E-04  0.910E-02    7.43       1.0  T
   4    -95.4310927 -0.202539E-04  0.357E-02    7.42       1.0  T
   5    -95.4310951 -0.236698E-05  0.176E-02    7.42       1.0  T
   6    -95.4310958 -0.741363E-06  0.155E-02    7.42       1.0  T
   7    -95.4310967 -0.826787E-06  0.322E-03    7.42       4.2  T
   8    -95.4310967 -0.591116E-07  0.188E-03    7.42       7.2  T
   9    -95.4310967 -0.272509E-07  0.413E-04    7.42      32.6  T
  10    -95.4310967 -0.105312E-08  0.180E-04    7.42      75.0  T
     SCC iter.                  ...        0 min,  0.021 sec
     gradient                   ...        0 min,  0.008 sec
 * total energy  :   -94.8794663 Eh     change       -0.7856333E-02 Eh
   gradient norm :     0.0561651 Eh/α   predicted    -0.9986626E-02 (  27.12%)
   displ. norm   :     0.7011026 α      lambda       -0.1645471E-01
   maximum displ.:     0.3238756 α      in ANC's #13, #2, #15, ...

........................................................................
.............................. CYCLE   27 ..............................
........................................................................

 iter      E             dE          RMSdq      gap      omega  full diag
   1    -95.4572488 -0.954572E+02  0.252E-01    7.57       0.0  T
   2    -95.4572599 -0.110611E-04  0.231E-01    7.56       1.0  T
   3    -95.4573137 -0.537913E-04  0.134E-01    7.56       1.0  T
   4    -95.4573336 -0.198631E-04  0.526E-02    7.55       1.0  T
   5    -95.4573370 -0.345091E-05  0.141E-02    7.55       1.0  T
   6    -95.4573374 -0.344004E-06  0.109E-02    7.55       1.2  T
   7    -95.4573377 -0.374181E-06  0.306E-03    7.56       4.4  T
   8    -95.4573378 -0.290404E-07  0.157E-03    7.56       8.6  T
   9    -95.4573378 -0.133605E-07  0.408E-04    7.56      33.1  T
  10    -95.4573378 -0.866095E-09  0.184E-04    7.56      73.3  T
     SCC iter.                  ...        0 min,  0.021 sec
     gradient                   ...        0 min,  0.007 sec
 * total energy  :   -94.8798740 Eh     change       -0.4077632E-03 Eh
   gradient norm :     0.0986671 Eh/α   predicted    -0.1227146E-01 (2909.46%)
   displ. norm   :     0.5423244 α      lambda       -0.1602545E-01
   maximum displ.:     0.2366689 α      in ANC's #2, #13, #1, ...

........................................................................
.............................. CYCLE   28 ..............................
........................................................................

 iter      E             dE          RMSdq      gap      omega  full diag
   1    -95.4485274 -0.954485E+02  0.146E-01    7.47       0.0  T
   2    -95.4485780 -0.506923E-04  0.104E-01    7.47       1.0  T
   3    -95.4485883 -0.102903E-04  0.870E-02    7.47       1.0  T
   4    -95.4486020 -0.136428E-04  0.296E-02    7.48       1.0  T
   5    -95.4486038 -0.182120E-05  0.110E-02    7.48       1.2  T
   6    -95.4486042 -0.418770E-06  0.113E-02    7.48       1.2  T
   7    -95.4486045 -0.323939E-06  0.259E-03    7.48       5.2  T
   8    -95.4486046 -0.316321E-07  0.148E-03    7.48       9.1  T
   9    -95.4486046 -0.148782E-07  0.309E-04    7.48      43.7  T
  10    -95.4486046 -0.552447E-09  0.990E-05    7.48     136.2  T
     SCC iter.                  ...        0 min,  0.021 sec
     gradient                   ...        0 min,  0.009 sec
 * total energy  :   -94.8916781 Eh     change       -0.1180408E-01 Eh
   gradient norm :     0.0282163 Eh/α   predicted    -0.1036941E-01 ( -12.15%)
   displ. norm   :     0.8110912 α      lambda       -0.1301516E-01
   maximum displ.:     0.4108365 α      in ANC's #2, #1, #15, ...

........................................................................
.............................. CYCLE   29 ..............................
........................................................................

 iter      E             dE          RMSdq      gap      omega  full diag
   1    -95.4511974 -0.954512E+02  0.153E-01    7.38       0.0  T
   2    -95.4512526 -0.552023E-04  0.105E-01    7.38       1.0  T
   3    -95.4512616 -0.903268E-05  0.881E-02    7.38       1.0  T
   4    -95.4512729 -0.112523E-04  0.373E-02    7.38       1.0  T
   5    -95.4512747 -0.179547E-05  0.950E-03    7.38       1.4  T
   6    -95.4512752 -0.514631E-06  0.381E-03    7.38       3.5  T
   7    -95.4512752 -0.293340E-07  0.251E-03    7.38       5.4  T
   8    -95.4512753 -0.161281E-07  0.152E-03    7.38       8.9  T
   9    -95.4512753 -0.126882E-07  0.296E-04    7.38      45.6  T
  10    -95.4512753 -0.508209E-09  0.125E-04    7.38     108.0  T
     SCC iter.                  ...        0 min,  0.018 sec
     gradient                   ...        0 min,  0.008 sec
 * total energy  :   -94.8984441 Eh     change       -0.6765995E-02 Eh
   gradient norm :     0.0420261 Eh/α   predicted    -0.1078873E-01 (  59.46%)
   displ. norm   :     0.6943551 α      lambda       -0.9811201E-02
   maximum displ.:     0.3358122 α      in ANC's #1, #2, #13, ...

........................................................................
.............................. CYCLE   30 ..............................
........................................................................

 iter      E             dE          RMSdq      gap      omega  full diag
   1    -95.4560440 -0.954560E+02  0.115E-01    7.43       0.0  T
   2    -95.4560567 -0.126668E-04  0.131E-01    7.43       1.0  T
   3    -95.4560814 -0.247624E-04  0.514E-02    7.42       1.0  T
   4    -95.4560876 -0.612754E-05  0.150E-02    7.42       1.0  T
   5    -95.4560880 -0.459605E-06  0.115E-02    7.42       1.2  T
   6    -95.4560884 -0.397066E-06  0.512E-03    7.42       2.6  T
   7    -95.4560885 -0.771869E-07  0.174E-03    7.42       7.8  T
   8    -95.4560885 -0.217481E-07  0.467E-04    7.42      28.9  T
   9    -95.4560885 -0.137892E-08  0.190E-04    7.42      71.0  T
     SCC iter.                  ...        0 min,  0.019 sec
     gradient                   ...        0 min,  0.007 sec
 * total energy  :   -94.9054601 Eh     change       -0.7015978E-02 Eh
   gradient norm :     0.0283374 Eh/α   predicted    -0.7270731E-02 (   3.63%)
   displ. norm   :     0.7531490 α      lambda       -0.8095842E-02
   maximum displ.:     0.4462476 α      in ANC's #1, #2, #13, ...

........................................................................
.............................. CYCLE   31 ..............................
........................................................................

 iter      E             dE          RMSdq      gap      omega  full diag
   1    -95.4699800 -0.954700E+02  0.106E-01    7.44       0.0  T
   2    -95.4699858 -0.575293E-05  0.912E-02    7.44       1.0  T
   3    -95.4699935 -0.766597E-05  0.625E-02    7.44       1.0  T
   4    -95.4699987 -0.524070E-05  0.158E-02    7.43       1.0  T
   5    -95.4699991 -0.431676E-06  0.681E-03    7.43       2.0  T
   6    -95.4699992 -0.712004E-07  0.519E-03    7.44       2.6  T
   7    -95.4699993 -0.686060E-07  0.138E-03    7.44       9.8  T
   8    -95.4699993 -0.567812E-08  0.713E-04    7.44      18.9  T
   9    -95.4699993 -0.270830E-08  0.168E-04    7.44      80.3  T
     SCC iter.                  ...        0 min,  0.019 sec
     gradient                   ...        0 min,  0.007 sec
 * total energy  :   -94.9129579 Eh     change       -0.7497845E-02 Eh
   gradient norm :     0.0250626 Eh/α   predicted    -0.6344039E-02 ( -15.39%)
   displ. norm   :     0.8421925 α      lambda       -0.8559820E-02
   maximum displ.:     0.5026609 α      in ANC's #1, #2, #13, ...

........................................................................
.............................. CYCLE   32 ..............................
........................................................................

 iter      E             dE          RMSdq      gap      omega  full diag
   1    -95.4729537 -0.954730E+02  0.930E-02    7.42       0.0  T
   2    -95.4729599 -0.617704E-05  0.879E-02    7.42       1.0  T
   3    -95.4729693 -0.944940E-05  0.491E-02    7.42       1.0  T
   4    -95.4729728 -0.350996E-05  0.119E-02    7.41       1.1  T
   5    -95.4729731 -0.289293E-06  0.469E-03    7.41       2.9  T
   6    -95.4729732 -0.975502E-07  0.271E-03    7.41       5.0  T
   7    -95.4729732 -0.107543E-07  0.186E-03    7.41       7.2  T
   8    -95.4729732 -0.754707E-08  0.764E-04    7.41      17.6  T
   9    -95.4729732 -0.336132E-08  0.135E-04    7.41      99.8  T
     SCC iter.                  ...        0 min,  0.020 sec
     gradient                   ...        0 min,  0.007 sec
 * total energy  :   -94.9189644 Eh     change       -0.6006481E-02 Eh
   gradient norm :     0.0341253 Eh/α   predicted    -0.7315600E-02 (  21.80%)
   displ. norm   :     0.7453824 α      lambda       -0.6392945E-02
   maximum displ.:     0.4045179 α      in ANC's #2, #1, #13, ...

........................................................................
.............................. CYCLE   33 ..............................
........................................................................

 iter      E             dE          RMSdq      gap      omega  full diag
   1    -95.4812684 -0.954813E+02  0.965E-02    7.40       0.0  T
   2    -95.4813324 -0.640244E-04  0.612E-02    7.40       1.0  T
   3    -95.4813410 -0.864376E-05  0.567E-02    7.40       1.0  T
   4    -95.4813481 -0.708052E-05  0.263E-02    7.40       1.0  T
   5    -95.4813495 -0.137081E-05  0.989E-03    7.40       1.4  T
   6    -95.4813501 -0.583336E-06  0.392E-03    7.40       3.4  T
   7    -95.4813501 -0.357127E-07  0.250E-03    7.40       5.4  T
   8    -95.4813501 -0.255708E-07  0.150E-03    7.40       9.0  T
   9    -95.4813501 -0.123489E-07  0.235E-04    7.40      57.4  T
  10    -95.4813501 -0.298243E-09  0.658E-05    7.40     204.9  T
     SCC iter.                  ...        0 min,  0.019 sec
     gradient                   ...        0 min,  0.007 sec
 * total energy  :   -94.9228449 Eh     change       -0.3880541E-02 Eh
   gradient norm :     0.0215310 Eh/α   predicted    -0.4972418E-02 (  28.14%)
   displ. norm   :     0.5097498 α      lambda       -0.3218455E-02
   maximum displ.:     0.2081313 α      in ANC's #13, #2, #1, ...

........................................................................
.............................. CYCLE   34 ..............................
........................................................................

 iter      E             dE          RMSdq      gap      omega  full diag
   1    -95.4665688 -0.954666E+02  0.125E-01    7.35       0.0  T
   2    -95.4665693 -0.561583E-06  0.128E-01    7.35       1.0  T
   3    -95.4665947 -0.254113E-04  0.556E-02    7.35       1.0  T
   4    -95.4665992 -0.449674E-05  0.218E-02    7.35       1.0  T
   5    -95.4666000 -0.752788E-06  0.128E-02    7.35       1.1  T
   6    -95.4666002 -0.251016E-06  0.441E-03    7.35       3.1  T
   7    -95.4666003 -0.671351E-07  0.153E-03    7.35       8.8  T
   8    -95.4666003 -0.489776E-08  0.680E-04    7.35      19.8  T
   9    -95.4666003 -0.169204E-08  0.206E-04    7.35      65.6  T
     SCC iter.                  ...        0 min,  0.018 sec
     gradient                   ...        0 min,  0.008 sec
 * total energy  :   -94.9233978 Eh     change       -0.5528506E-03 Eh
   gradient norm :     0.0425900 Eh/α   predicted    -0.2027378E-02 ( 266.71%)
   displ. norm   :     0.3136049 α      lambda       -0.3196738E-02
   maximum displ.:     0.0962161 α      in ANC's #1, #20, #5, ...

........................................................................
.............................. CYCLE   35 ..............................
........................................................................

 iter      E             dE          RMSdq      gap      omega  full diag
   1    -95.4753875 -0.954754E+02  0.869E-02    7.40       0.0  T
   2    -95.4753979 -0.104100E-04  0.564E-02    7.40       1.0  T
   3    -95.4753964  0.157425E-05  0.608E-02    7.40       1.0  T
   4    -95.4754033 -0.690436E-05  0.111E-02    7.40       1.2  T
   5    -95.4754035 -0.238024E-06  0.661E-03    7.40       2.0  T
   6    -95.4754036 -0.629524E-07  0.448E-03    7.40       3.0  T
   7    -95.4754036 -0.362556E-07  0.142E-03    7.40       9.5  T
   8    -95.4754036 -0.387169E-08  0.611E-04    7.40      22.1  T
   9    -95.4754036 -0.150897E-08  0.146E-04    7.40      92.1  T
     SCC iter.                  ...        0 min,  0.017 sec
     gradient                   ...        0 min,  0.007 sec
 * total energy  :   -94.9240696 Eh     change       -0.6718151E-03 Eh
   gradient norm :     0.0337603 Eh/α   predicted    -0.1755573E-02 ( 161.32%)
   displ. norm   :     0.3073095 α      lambda       -0.3071841E-02
   maximum displ.:     0.0757139 α      in ANC's #73, #5, #75, ...

........................................................................
.............................. CYCLE   36 ..............................
........................................................................

 iter      E             dE          RMSdq      gap      omega  full diag
   1    -95.4819518 -0.954820E+02  0.103E-01    7.41       0.0  T
   2    -95.4819644 -0.126322E-04  0.877E-02    7.42       1.0  T
   3    -95.4819725 -0.806355E-05  0.563E-02    7.42       1.0  T
   4    -95.4819775 -0.504393E-05  0.185E-02    7.42       1.0  T
   5    -95.4819781 -0.553476E-06  0.563E-03    7.42       2.4  T
   6    -95.4819782 -0.116068E-06  0.347E-03    7.42       3.9  T
   7    -95.4819782 -0.211174E-07  0.185E-03    7.42       7.3  T
   8    -95.4819782 -0.747595E-08  0.723E-04    7.42      18.7  T
   9    -95.4819782 -0.235772E-08  0.191E-04    7.42      70.7  T
     SCC iter.                  ...        0 min,  0.016 sec
     gradient                   ...        0 min,  0.008 sec
 * total energy  :   -94.9242606 Eh     change       -0.1910244E-03 Eh
   gradient norm :     0.0455142 Eh/α   predicted    -0.1680972E-02 ( 779.98%)
   displ. norm   :     0.2526172 α      lambda       -0.2880510E-02
   maximum displ.:     0.0754187 α      in ANC's #13, #79, #28, ...

........................................................................
.............................. CYCLE   37 ..............................
........................................................................

 iter      E             dE          RMSdq      gap      omega  full diag
   1    -95.4774965 -0.954775E+02  0.799E-02    7.39       0.0  T
   2    -95.4775116 -0.150412E-04  0.655E-02    7.39       1.0  T
   3    -95.4775156 -0.406620E-05  0.467E-02    7.39       1.0  T
   4    -95.4775189 -0.323405E-05  0.970E-03    7.39       1.4  T
   5    -95.4775191 -0.215331E-06  0.801E-03    7.39       1.7  T
   6    -95.4775192 -0.140333E-06  0.314E-03    7.39       4.3  T
   7    -95.4775192 -0.222322E-07  0.101E-03    7.39      13.3  T
   8    -95.4775192 -0.296487E-08  0.517E-04    7.39      26.1  T
   9    -95.4775192 -0.122236E-08  0.995E-05    7.39     135.5  T
     SCC iter.                  ...        0 min,  0.018 sec
     gradient                   ...        0 min,  0.007 sec
 * total energy  :   -94.9255985 Eh     change       -0.1337845E-02 Eh
   gradient norm :     0.0180170 Eh/α   predicted    -0.1532163E-02 (  14.52%)
   displ. norm   :     0.3941819 α      lambda       -0.1907031E-02
   maximum displ.:     0.1090606 α      in ANC's #18, #20, #5, ...

........................................................................
.............................. CYCLE   38 ..............................
........................................................................

 iter      E             dE          RMSdq      gap      omega  full diag
   1    -95.4741692 -0.954742E+02  0.900E-02    7.37       0.0  T
   2    -95.4741851 -0.158883E-04  0.678E-02    7.37       1.0  T
   3    -95.4741895 -0.445752E-05  0.494E-02    7.37       1.0  T
   4    -95.4741931 -0.354311E-05  0.229E-02    7.37       1.0  T
   5    -95.4741938 -0.782869E-06  0.550E-03    7.37       2.5  T
   6    -95.4741940 -0.109995E-06  0.310E-03    7.37       4.4  T
   7    -95.4741940 -0.112437E-07  0.203E-03    7.37       6.6  T
   8    -95.4741940 -0.842759E-08  0.679E-04    7.37      19.9  T
   9    -95.4741940 -0.243683E-08  0.170E-04    7.37      79.3  T
     SCC iter.                  ...        0 min,  0.018 sec
     gradient                   ...        0 min,  0.007 sec
 * total energy  :   -94.9261555 Eh     change       -0.5570207E-03 Eh
   gradient norm :     0.0267179 Eh/α   predicted    -0.1101669E-02 (  97.78%)
   displ. norm   :     0.4093205 α      lambda       -0.1879073E-02
   maximum displ.:     0.1129017 α      in ANC's #23, #28, #20, ...

........................................................................
.............................. CYCLE   39 ..............................
........................................................................

 iter      E             dE          RMSdq      gap      omega  full diag
   1    -95.4736110 -0.954736E+02  0.756E-02    7.36       0.0  T
   2    -95.4736079  0.305780E-05  0.824E-02    7.36       1.0  T
   3    -95.4736184 -0.105063E-04  0.336E-02    7.36       1.0  T
   4    -95.4736198 -0.135036E-05  0.128E-02    7.36       1.1  T
   5    -95.4736201 -0.269397E-06  0.637E-03    7.36       2.1  T
   6    -95.4736201 -0.675458E-07  0.223E-03    7.36       6.0  T
   7    -95.4736201 -0.162653E-07  0.782E-04    7.36      17.2  T
   8    -95.4736202 -0.191761E-08  0.393E-04    7.36      34.3  T
     SCC iter.                  ...        0 min,  0.019 sec
     gradient                   ...        0 min,  0.008 sec
 * total energy  :   -94.9273836 Eh     change       -0.1228151E-02 Eh
   gradient norm :     0.0202098 Eh/α   predicted    -0.1096952E-02 ( -10.68%)
   displ. norm   :     0.5860974 α      lambda       -0.2638600E-02
   maximum displ.:     0.1740456 α      in ANC's #23, #5, #28, ...

........................................................................
.............................. CYCLE   40 ..............................
........................................................................

 iter      E             dE          RMSdq      gap      omega  full diag
   1    -95.4822021 -0.954822E+02  0.109E-01    7.39       0.0  T
   2    -95.4822880 -0.859570E-04  0.668E-02    7.39       1.0  T
   3    -95.4822997 -0.117184E-04  0.606E-02    7.39       1.0  T
   4    -95.4823061 -0.640590E-05  0.249E-02    7.39       1.0  T
   5    -95.4823074 -0.129001E-05  0.117E-02    7.39       1.2  T
   6    -95.4823079 -0.455218E-06  0.804E-03    7.39       1.7  T
   7    -95.4823080 -0.105851E-06  0.215E-03    7.39       6.3  T
   8    -95.4823080 -0.239609E-07  0.115E-03    7.39      11.7  T
   9    -95.4823080 -0.867018E-08  0.286E-04    7.39      47.1  T
  10    -95.4823080 -0.374726E-09  0.146E-04    7.39      92.5  T
     SCC iter.                  ...        0 min,  0.020 sec
     gradient                   ...        0 min,  0.007 sec
 * total energy  :   -94.9282793 Eh     change       -0.8956786E-03 Eh
   gradient norm :     0.0306824 Eh/α   predicted    -0.1772500E-02 (  97.89%)
   displ. norm   :     0.5035198 α      lambda       -0.2591105E-02
   maximum displ.:     0.1943231 α      in ANC's #5, #20, #28, ...

........................................................................
.............................. CYCLE   41 ..............................
........................................................................

 iter      E             dE          RMSdq      gap      omega  full diag
   1    -95.4787107 -0.954787E+02  0.864E-02    7.36       0.0  T
   2    -95.4787373 -0.266459E-04  0.666E-02    7.35       1.0  T
   3    -95.4787416 -0.425641E-05  0.528E-02    7.35       1.0  T
   4    -95.4787467 -0.507263E-05  0.152E-02    7.35       1.0  T
   5    -95.4787472 -0.478959E-06  0.774E-03    7.35       1.7  T
   6    -95.4787473 -0.163193E-06  0.576E-03    7.35       2.3  T
   7    -95.4787474 -0.871657E-07  0.147E-03    7.35       9.2  T
   8    -95.4787474 -0.129905E-07  0.806E-04    7.35      16.7  T
   9    -95.4787474 -0.516559E-08  0.190E-04    7.35      71.0  T
     SCC iter.                  ...        0 min,  0.017 sec
     gradient                   ...        0 min,  0.008 sec
 * total energy  :   -94.9296203 Eh     change       -0.1340971E-02 Eh
   gradient norm :     0.0250194 Eh/α   predicted    -0.1624021E-02 (  21.11%)
   displ. norm   :     0.4813370 α      lambda       -0.2149298E-02
   maximum displ.:     0.1409507 α      in ANC's #5, #20, #39, ...

........................................................................
.............................. CYCLE   42 ..............................
........................................................................

 iter      E             dE          RMSdq      gap      omega  full diag
   1    -95.4731350 -0.954731E+02  0.929E-02    7.33       0.0  T
   2    -95.4731480 -0.129824E-04  0.747E-02    7.32       1.0  T
   3    -95.4731533 -0.533582E-05  0.514E-02    7.32       1.0  T
   4    -95.4731568 -0.354032E-05  0.209E-02    7.32       1.0  T
   5    -95.4731574 -0.585291E-06  0.550E-03    7.32       2.5  T
   6    -95.4731575 -0.958149E-07  0.351E-03    7.32       3.8  T
   7    -95.4731575 -0.176542E-07  0.222E-03    7.32       6.1  T
   8    -95.4731575 -0.966983E-08  0.652E-04    7.32      20.7  T
   9    -95.4731575 -0.206316E-08  0.155E-04    7.32      86.7  T
     SCC iter.                  ...        0 min,  0.019 sec
[...]
H46-O30=0.9587       H47-O30=0.9733       H48-O28=0.9610       H49-O28=0.9696       H50-O27=0.9698       H51-O27=0.9742       
H52-O26=0.9587       H53-O26=0.9710       H54-O21=0.9587       H55-O21=0.9722       
 O  H  Rav=0.9712 sigma=0.0183  Rmin=0.9534  Rmax=1.0636    35

 selected bond angles (degree)
 --------------------
H13-O2-H12=106.27              H17-O3-H16=106.63              H15-O4-H14=106.59              H19-O5-H18=105.72              
H9-O6-H8=107.18                H11-O7-H10=104.19              

 selected dihedral angles (degree)
 ---------------------------------


 CMA Distance (Angstroems)
 ---------------------------
R(CMA):  1.1384
           -------------------------------------------------
          |                Final Singlepoint                |
           -------------------------------------------------

          ...................................................
          :                      SETUP                      :
          :.................................................:
          :  # basis functions                 118          :
          :  # atomic orbitals                 117          :
          :  # shells                           75          :
          :  # electrons                       152          :
          :  max. iterations                   250          :
          :  Hamiltonian                  GFN2-xTB          :
          :  restarted?                      false          :
          :  GBSA solvation                   true          :
          :  PC potential                    false          :
          :  electronic temp.          300.0000000     K    :
          :  accuracy                    1.0000000          :
          :  -> integral cutoff          0.2500000E+02      :
          :  -> integral neglect         0.1000000E-07      :
          :  -> SCF convergence          0.1000000E-05 Eh   :
          :  -> wf. convergence          0.1000000E-03 e    :
          :  Broyden damping             0.4000000          :
          ...................................................

 iter      E             dE          RMSdq      gap      omega  full diag
   1    -95.5323171 -0.955323E+02  0.153E-04    7.16       0.0  T
   2    -95.5323171  0.107718E-10  0.166E-04    7.16      81.4  T
   3    -95.5323171 -0.461426E-10  0.430E-05    7.16     313.5  T

   *** convergence criteria satisfied after 3 iterations ***

         #    Occupation            Energy/Eh            Energy/eV
      -------------------------------------------------------------
         1        2.0000           -0.6569361             -17.8761
       ...           ...                  ...                  ...
        72        2.0000           -0.3588090              -9.7637
        73        2.0000           -0.3547539              -9.6533
        74        1.8290           -0.3193137              -8.6890
        75        1.1569           -0.3162170              -8.6047
        76        1.0107           -0.3135171              -8.5312
        77        1.0033           -0.3124006              -8.5009
        78        1.0000           -0.3076955              -8.3728 (HOMO)
        79                         -0.0445593              -1.2125 (LUMO)
        80                          0.0203492               0.5537
        81                          0.0310001               0.8436
        82                          0.0513252               1.3966
        83                          0.0863717               2.3503
       ...                                ...                  ...
       117                          1.0791906              29.3663
      -------------------------------------------------------------
                  HL-Gap            0.2631362 Eh            7.1603 eV
             Fermi-level           -0.2469708 Eh           -6.7204 eV

 SCC (total)                   0 d,  0 h,  0 min,  0.016 sec
 SCC setup                      ...        0 min,  0.001 sec (  3.165%)
 Dispersion                     ...        0 min,  0.000 sec (  1.396%)
 classical contributions        ...        0 min,  0.000 sec (  0.631%)
 integral evaluation            ...        0 min,  0.002 sec ( 10.433%)
 iterations                     ...        0 min,  0.006 sec ( 35.240%)
 molecular gradient             ...        0 min,  0.007 sec ( 47.241%)
 printout                       ...        0 min,  0.000 sec (  1.813%)

         :::::::::::::::::::::::::::::::::::::::::::::::::::::
         ::                     SUMMARY                     ::
         :::::::::::::::::::::::::::::::::::::::::::::::::::::
         :: total energy             -94.984083631349 Eh    ::
         :: total w/o Gsasa/hb       -94.812707652332 Eh    ::
         :: gradient norm              0.000037848471 Eh/a0 ::
         :: HOMO-LUMO gap              7.160299939379 eV    ::
         ::.................................................::
         :: SCC energy               -95.532317057425 Eh    ::
         :: -> isotropic ES            0.781206016909 Eh    ::
         :: -> anisotropic ES         -0.116554419721 Eh    ::
         :: -> anisotropic XC         -0.006782775311 Eh    ::
         :: -> dispersion             -0.044874884321 Eh    ::
         :: -> Gsolv                  -0.441795535263 Eh    ::
         ::    -> Gelec               -0.270419556246 Eh    ::
         ::    -> Gsasa                0.006235818235 Eh    ::
         ::    -> Ghb                 -0.178692556950 Eh    ::
         ::    -> Gshift               0.001080759698 Eh    ::
         :: repulsion energy           0.546142062981 Eh    ::
         :: add. restraining           0.000000000000 Eh    ::
         :: total charge              -0.000000000021 e     ::
         :::::::::::::::::::::::::::::::::::::::::::::::::::::

           -------------------------------------------------
          |                Property Printout                |
           -------------------------------------------------

    * Orbital Energies and Occupations

         #    Occupation            Energy/Eh            Energy/eV
      -------------------------------------------------------------
         1        2.0000           -0.6569361             -17.8761
       ...           ...                  ...                  ...
        66        2.0000           -0.4093317             -11.1385
        67        2.0000           -0.4079116             -11.0998
        68        2.0000           -0.4039643             -10.9924
        69        2.0000           -0.4017069             -10.9310
        70        2.0000           -0.4007562             -10.9051
        71        2.0000           -0.3984811             -10.8432
        72        2.0000           -0.3588090              -9.7637
        73        2.0000           -0.3547539              -9.6533
        74        1.8290           -0.3193137              -8.6890
        75        1.1569           -0.3162170              -8.6047
        76        1.0107           -0.3135171              -8.5312
        77        1.0033           -0.3124006              -8.5009
        78        1.0000           -0.3076955              -8.3728 (HOMO)
        79                         -0.0445593              -1.2125 (LUMO)
        80                          0.0203492               0.5537
        81                          0.0310001               0.8436
        82                          0.0513252               1.3966
        83                          0.0863717               2.3503
        84                          0.1125478               3.0626
        85                          0.1222596               3.3269
        86                          0.1403423               3.8189
        87                          0.1407168               3.8291
        88                          0.1673280               4.5532
        89                          0.1709108               4.6507
       ...                                ...                  ...
       117                          1.0791906              29.3663
      -------------------------------------------------------------
                  HL-Gap            0.2631362 Eh            7.1603 eV
             Fermi-level           -0.2469708 Eh           -6.7204 eV

     #   Z          covCN         q      C6AA      α(0)
     1  26 Fe       0.583     1.094   425.292    59.706
     2   8 O        1.646    -0.615    25.535     6.821
     3   8 O        1.719    -0.622    25.676     6.842
     4   8 O        1.709    -0.621    25.641     6.837
     5   8 O        1.682    -0.591    24.931     6.741
     6   8 O        1.677    -0.615    25.519     6.820
     7   8 O        1.712    -0.634    25.973     6.881
     8   1 H        0.805     0.337     0.620     1.236
     9   1 H        0.804     0.347     0.595     1.211
    10   1 H        0.804     0.353     0.580     1.197
    11   1 H        0.804     0.351     0.585     1.202
    12   1 H        0.806     0.344     0.603     1.219
    13   1 H        0.803     0.338     0.617     1.234
    14   1 H        0.803     0.367     0.551     1.166
    15   1 H        0.804     0.349     0.589     1.206
    16   1 H        0.804     0.353     0.581     1.197
    17   1 H        0.804     0.358     0.570     1.186
    18   1 H        0.805     0.338     0.617     1.234
    19   1 H        0.804     0.331     0.635     1.252
    20   8 O        1.659    -0.618    25.584     6.828
    21   8 O        1.609    -0.664    26.779     6.984
    22   8 O        1.579    -0.740    28.829     7.245
    23   8 O        1.646    -0.613    25.467     6.812
    24   8 O        1.609    -0.679    27.147     7.032
    25   8 O        0.884    -0.914    35.252     7.961
    26   8 O        1.610    -0.677    27.095     7.025
    27   8 O        1.608    -0.684    27.299     7.052
    28   8 O        1.610    -0.670    26.914     7.002
    29   8 O        1.607    -0.692    27.495     7.077
    30   8 O        1.609    -0.673    26.993     7.012
    31   8 O        1.607    -0.692    27.489     7.076
    32   1 H        0.850     0.311     0.682     1.294
    33   1 H        0.806     0.191     1.168     1.697
    34   1 H        0.805     0.346     0.596     1.213
    35   1 H        0.805     0.367     0.549     1.164
    36   1 H        0.804     0.338     0.618     1.235
    37   1 H        0.805     0.349     0.590     1.207
    38   1 H        0.805     0.329     0.640     1.257
    39   1 H        0.802     0.364     0.557     1.173
    40   1 H        0.806     0.288     0.758     1.367
    41   1 H        0.000    -1.000  3074.319   101.384
    42   1 H        0.802     0.334     0.627     1.244
    43   1 H        0.805     0.349     0.591     1.207
    44   1 H        0.806     0.336     0.621     1.238
    45   1 H        0.802     0.356     0.575     1.191
    46   1 H        0.805     0.347     0.595     1.212
    47   1 H        0.804     0.357     0.573     1.189
    48   1 H        0.805     0.350     0.588     1.204
    49   1 H        0.804     0.355     0.577     1.193
    50   1 H        0.804     0.346     0.598     1.214
    51   1 H        0.804     0.348     0.593     1.210
    52   1 H        0.805     0.343     0.604     1.221
    53   1 H        0.804     0.351     0.585     1.202
    54   1 H        0.805     0.347     0.595     1.212
    55   1 H        0.804     0.351     0.587     1.203

 Mol. C6AA /au·bohr⁶  :      37086.908134
 Mol. C8AA /au·bohr⁸  :     771761.802967
 Mol. α(0) /au        :        330.225812


Wiberg/Mayer (AO) data.
largest (>0.10) Wiberg bond orders for each atom

 ---------------------------------------------------------------------------
     #   Z sym  total        # sym  WBO       # sym  WBO       # sym  WBO
 ---------------------------------------------------------------------------
     1  26 Fe   1.459 --     3 O    0.215     7 O    0.196     4 O    0.188
                             6 O    0.171     5 O    0.163    20 O    0.153
                            23 O    0.146     2 O    0.137
     2   8 O    1.927 --    12 H    0.877    13 H    0.824     1 Fe   0.137
     3   8 O    1.942 --    16 H    0.830    17 H    0.811     1 Fe   0.215
     4   8 O    1.974 --    15 H    0.830    14 H    0.813     1 Fe   0.188
     5   8 O    1.943 --    18 H    0.873    19 H    0.849     1 Fe   0.163
     6   8 O    1.919 --     8 H    0.858     9 H    0.831     1 Fe   0.171
     7   8 O    1.920 --    11 H    0.830    10 H    0.822     1 Fe   0.196
     8   1 H    0.886 --     6 O    0.858
     9   1 H    0.879 --     6 O    0.831
    10   1 H    0.874 --     7 O    0.822
    11   1 H    0.876 --     7 O    0.830
    12   1 H    0.881 --     2 O    0.877
    13   1 H    0.885 --     2 O    0.824
    14   1 H    0.864 --     4 O    0.813
    15   1 H    0.877 --     4 O    0.830
    16   1 H    0.874 --     3 O    0.830
    17   1 H    0.871 --     3 O    0.811
    18   1 H    0.885 --     5 O    0.873
    19   1 H    0.890 --     5 O    0.849
    20   8 O    1.914 --    34 H    0.874    35 H    0.847     1 Fe   0.153
    21   8 O    1.842 --    54 H    0.873    55 H    0.839
    22   8 O    1.736 --    40 H    0.910    32 H    0.682
    23   8 O    1.963 --    43 H    0.865    42 H    0.789     1 Fe   0.146
    24   8 O    1.810 --    37 H    0.862    36 H    0.846
    25   8 O    1.460 --    33 H    0.946    32 H    0.221
    26   8 O    1.811 --    52 H    0.878    53 H    0.851
    27   8 O    1.829 --    50 H    0.846    51 H    0.839
    28   8 O    1.831 --    48 H    0.867    49 H    0.850
    29   8 O    1.811 --    38 H    0.875    39 H    0.804
    30   8 O    1.834 --    46 H    0.873    47 H    0.837
    31   8 O    1.812 --    44 H    0.876    45 H    0.800
    32   1 H    0.903 --    22 O    0.682    25 O    0.221
    33   1 H    0.964 --    25 O    0.946
    34   1 H    0.880 --    20 O    0.874
    35   1 H    0.865 --    20 O    0.847
    36   1 H    0.886 --    24 O    0.846
    37   1 H    0.878 --    24 O    0.862
    38   1 H    0.892 --    29 O    0.875
    39   1 H    0.868 --    29 O    0.804
    40   1 H    0.917 --    22 O    0.910
    41   1 H    0.000
    42   1 H    0.888 --    23 O    0.789
    43   1 H    0.878 --    23 O    0.865
    44   1 H    0.887 --    31 O    0.876
    45   1 H    0.873 --    31 O    0.800
    46   1 H    0.879 --    30 O    0.873
    47   1 H    0.873 --    30 O    0.837
    48   1 H    0.877 --    28 O    0.867
    49   1 H    0.874 --    28 O    0.850
    50   1 H    0.880 --    27 O    0.846
    51   1 H    0.879 --    27 O    0.839
    52   1 H    0.882 --    26 O    0.878
    53   1 H    0.877 --    26 O    0.851
    54   1 H    0.880 --    21 O    0.873
    55   1 H    0.877 --    21 O    0.839
 ---------------------------------------------------------------------------

Topologies differ in total number of bonds
Writing topology from bond orders to xtbtopo.mol

molecular dipole:
                 x           y           z       tot (Debye)
 q only:       16.608      10.964      10.571
   full:       16.097       9.523       9.946      53.841
molecular quadrupole (traceless):
                xx          xy          yy          xz          yz          zz
 q only:      -85.870    -197.858      21.965    -163.009    -125.224      63.905
  q+dip:      -82.249    -191.182      22.141    -158.722    -123.917      60.107
   full:      -82.473    -190.923      22.022    -158.231    -123.863      60.451

           -------------------------------------------------
          |                Geometry Summary                 |
           -------------------------------------------------

      molecular mass/u    :      380.1203000
   center of mass at/Å    :        0.0119823       0.1678505       0.1021527
  moments of inertia/u·Å² :        0.2069879E+04   0.2902404E+04   0.3044371E+04
rotational constants/cm⁻¹ :        0.8144261E-02   0.5808161E-02   0.5537313E-02

 * 33 selected distances

     #   Z          #   Z                                           value/Å
     6   8 O        8   1 H                                       0.9630641
     6   8 O        9   1 H                                       0.9711143
     7   8 O       10   1 H                                       0.9741924
     7   8 O       11   1 H                                       0.9723414
     2   8 O       12   1 H                                       0.9579831
     2   8 O       13   1 H                                       0.9800228
     4   8 O       14   1 H                                       0.9761550
     4   8 O       15   1 H                                       0.9688048
     3   8 O       16   1 H                                       0.9693923
     3   8 O       17   1 H                                       0.9741643
     5   8 O       18   1 H                                       0.9612341
     5   8 O       19   1 H                                       0.9712849
    20   8 O       34   1 H                                       0.9595122
    20   8 O       35   1 H                                       0.9660931
    24   8 O       36   1 H                                       0.9691983
    24   8 O       37   1 H                                       0.9659271
    29   8 O       38   1 H                                       0.9617175
    29   8 O       39   1 H                                       0.9842892
    22   8 O       40   1 H                                       0.9562308 (min)
    23   8 O       42   1 H                                       0.9942939 (max)
    23   8 O       43   1 H                                       0.9624459
    31   8 O       44   1 H                                       0.9575681
    31   8 O       45   1 H                                       0.9895655
    30   8 O       46   1 H                                       0.9586724
    30   8 O       47   1 H                                       0.9733101
    28   8 O       48   1 H                                       0.9610175
    28   8 O       49   1 H                                       0.9695953
    27   8 O       50   1 H                                       0.9697934
    27   8 O       51   1 H                                       0.9742332
    26   8 O       52   1 H                                       0.9586984
    26   8 O       53   1 H                                       0.9709831
    21   8 O       54   1 H                                       0.9587032
    21   8 O       55   1 H                                       0.9722310

 * 1 distinct bonds (by element types)

   Z      Z             #   av. dist./Å        max./Å        min./Å
   1 H    8 O          33     0.9689040     0.9942939     0.9562308


optimized geometry written to: xtbopt.xyz


           -------------------------------------------------
          | TOTAL ENERGY              -94.984083631349 Eh   |
          | GRADIENT NORM               0.000037848471 Eh/α |
          | HOMO-LUMO GAP               7.160299939379 eV   |
           -------------------------------------------------
########################################################################
[WARNING] Runtime exception occurred
-1- restart_readRestart: Number of electron missmatch in restart file.
########################################################################

------------------------------------------------------------------------
 * finished run on 2024/05/10 at 17:53:04.397     
------------------------------------------------------------------------
 total:
 * wall-time:     0 d,  0 h,  0 min,  8.305 sec
 *  cpu-time:     0 d,  0 h,  1 min,  4.666 sec
 * ratio c/w:     7.787 speedup
 SCF:
 * wall-time:     0 d,  0 h,  0 min,  0.050 sec
 *  cpu-time:     0 d,  0 h,  0 min,  0.352 sec
 * ratio c/w:     7.005 speedup
 ANC optimizer:
 * wall-time:     0 d,  0 h,  0 min,  8.078 sec
 *  cpu-time:     0 d,  0 h,  1 min,  2.960 sec
 * ratio c/w:     7.794 speedup

