 Entering Gaussian System
 *********************************************
 Gaussian 98:
 frequency output generated by the xtb code
 *********************************************
                         Standard orientation:
 --------------------------------------------------------------------
  Center     Atomic     Atomic              Coordinates (Angstroms)
  Number     Number      Type              X           Y           Z
 --------------------------------------------------------------------
    1         26             0       -0.533651    0.362350    0.373864
    2          8             0       -2.831809   -0.687593    0.857576
    3          8             0        1.344058    1.525368    1.431025
    4          8             0        1.403482    0.232259   -1.137709
    5          8             0       -1.901697    0.821638   -1.669906
    6          8             0       -0.679225    2.836426   -0.022040
    7          8             0        0.396154   -1.294384    1.930988
    8          1             0       -1.630722    2.948042    0.076387
    9          1             0       -0.487979    2.831153   -0.974122
   10          1             0        0.768634   -0.901464    2.740880
   11          1             0        1.161163   -1.701529    1.490031
   12          1             0       -2.888909   -1.148790    1.695292
   13          1             0       -3.080319   -1.338424    0.168296
   14          1             0        2.284280    0.524802   -0.835233
   15          1             0        1.525469   -0.639279   -1.542831
   16          1             0        1.635555    2.220331    0.821289
   17          1             0        2.125062    0.974632    1.620019
   18          1             0       -2.678703    1.246275   -1.295854
   19          1             0       -2.235050    0.064722   -2.179169
   20          8             0       -1.101165    1.324793    2.661406
   21          8             0        2.590631   -2.414327    0.632962
   22          8             0       -3.099256   -1.218916   -3.102976
   23          8             0       -0.708087   -2.039679   -0.513611
   24          8             0       -3.204118    2.014001    0.827754
   25          8             0       -3.210428   -2.555602   -1.009362
   26          8             0        1.778824   -0.245183    4.051476
   27          8             0        3.542478   -0.085469    1.814093
   28          8             0        2.095810    3.469927   -0.497501
   29          8             0        0.372812    2.296196   -2.519548
   30          8             0        3.865414    1.349045   -0.535503
   31          8             0        1.494097   -2.403082   -1.918996
   32          1             0       -3.158490   -1.812142   -2.222226
   33          1             0       -3.597584   -3.403467   -1.209925
   34          1             0       -0.905308    0.688789    3.352639
   35          1             0       -0.331181    1.906854    2.620590
   36          1             0       -3.365283    1.059921    0.772066
   37          1             0       -2.754160    2.110928    1.676964
   38          1             0       -0.468274    1.981095   -2.863333
   39          1             0        0.781368    1.489894   -2.129953
   40          1             0       -3.955953   -1.304522   -3.519054
   41          1             0       -6.643871   -5.085463   -4.224011
   42          1             0       -1.632743   -2.273985   -0.794206
   43          1             0       -0.585676   -2.454924    0.345975
   44          1             0        1.364439   -2.766895   -2.795218
   45          1             0        0.603384   -2.352592   -1.490837
   46          1             0        4.480354    1.409545   -1.268471
   47          1             0        3.423862    2.213424   -0.463293
   48          1             0        1.555782    4.135613   -0.063006
   49          1             0        1.592971    3.198164   -1.280707
   50          1             0        3.950683    0.418235    1.092879
   51          1             0        3.266205   -0.926516    1.407345
   52          1             0        2.116599   -0.771388    4.778195
   53          1             0        2.530057   -0.053749    3.466831
   54          1             0        2.892798   -3.304691    0.820201
   55          1             0        2.332281   -2.394066   -0.304096
 --------------------------------------------------------------------
     1 basis functions        1 primitive gaussians
     1 alpha electrons        1 beta electrons

 Harmonic frequencies (cm**-1), IR intensities (km*mol⁻¹),
 Raman scattering activities (A**4/amu), Raman depolarization ratios,
 reduced masses (AMU), force constants (mDyne/A) and normal coordinates:
                      1                      2                      3
                        a                      a                      a 
 Frequencies --    26.1260                36.5903                43.1174
 Red. masses --    14.6850                14.8302                14.5653
 Frc consts  --     0.0000                 0.0000                 0.0000
 IR Inten    --    37.9950                30.3248                59.6806
 Raman Activ --     0.0000                 0.0000                 0.0000
 Depolar     --     0.0000                 0.0000                 0.0000
 Atom AN      X      Y      Z        X      Y      Z        X      Y      Z
   1  26     0.02   0.04  -0.13    -0.04   0.11   0.03     0.09  -0.03  -0.15
   2   8     0.13  -0.14   0.12     0.10  -0.15   0.16    -0.04   0.22  -0.13
   3   8     0.01   0.01  -0.06    -0.02  -0.00   0.07    -0.05  -0.00   0.11
   4   8     0.10   0.00   0.02    -0.02   0.11   0.01     0.15   0.01   0.07
   5   8    -0.10   0.08   0.02     0.09  -0.02  -0.06     0.02  -0.04  -0.10
   6   8     0.06   0.05  -0.03     0.06   0.06  -0.06    -0.04  -0.04  -0.09
   7   8    -0.02  -0.09  -0.19    -0.08   0.10   0.11     0.11   0.02  -0.06
   8   1     0.02   0.02  -0.01     0.01   0.02  -0.05    -0.01  -0.01  -0.02
   9   1     0.02   0.01  -0.01     0.05   0.01  -0.01    -0.01  -0.01  -0.02
  10   1    -0.04  -0.03  -0.03    -0.01   0.02   0.02     0.03  -0.02  -0.01
  11   1     0.02   0.00  -0.03    -0.03   0.01   0.02     0.03   0.00  -0.02
  12   1     0.05  -0.04   0.03     0.04  -0.04   0.04    -0.02   0.08  -0.02
  13   1     0.02  -0.03   0.03     0.02  -0.04   0.04    -0.02   0.04  -0.02
  14   1     0.02  -0.00   0.02     0.00   0.01   0.00     0.03   0.02   0.02
  15   1     0.03   0.00   0.01    -0.02   0.04  -0.02     0.05  -0.00   0.03
  16   1     0.01   0.00  -0.01     0.01  -0.00   0.02    -0.01   0.00   0.03
  17   1     0.00   0.01  -0.00    -0.01  -0.01   0.02    -0.01   0.00   0.03
  18   1    -0.00   0.04   0.03     0.03   0.01  -0.01     0.01   0.01  -0.04
  19   1    -0.06   0.03   0.02     0.01  -0.01   0.00    -0.02  -0.01  -0.01
  20   8     0.08  -0.01  -0.03    -0.14   0.20  -0.09    -0.19  -0.11  -0.12
  21   8     0.15   0.08   0.00    -0.26  -0.02  -0.13     0.15  -0.02   0.04
  22   8    -0.44   0.16   0.22    -0.08  -0.11   0.20    -0.26  -0.01   0.11
  23   8     0.05   0.05  -0.21     0.08   0.05   0.00    -0.04  -0.04   0.04
  24   8     0.07  -0.17  -0.06    -0.04  -0.20  -0.39    -0.09   0.22  -0.13
  25   8    -0.01  -0.06   0.09     0.09  -0.17   0.17    -0.09   0.01   0.12
  26   8    -0.40   0.04  -0.06     0.17  -0.16   0.11     0.28  -0.38   0.07
  27   8    -0.00   0.05   0.23    -0.10  -0.14  -0.05     0.03   0.05  -0.00
  28   8     0.07  -0.04  -0.06     0.14   0.00   0.12    -0.15   0.05   0.09
  29   8    -0.03  -0.09  -0.02     0.09   0.13   0.01     0.05  -0.11  -0.06
  30   8     0.09  -0.03   0.17     0.05  -0.06   0.03     0.04   0.23   0.12
  31   8     0.17   0.00  -0.01    -0.07   0.19  -0.24     0.05  -0.00   0.13
  32   1    -0.07   0.02   0.05    -0.00  -0.03   0.05    -0.05  -0.00   0.03
  33   1    -0.03  -0.00   0.02     0.04  -0.05   0.04    -0.06   0.02   0.04
  34   1     0.03   0.00  -0.01    -0.05   0.05  -0.02    -0.08  -0.04  -0.04
  35   1     0.02   0.00  -0.02    -0.04   0.05  -0.01    -0.04  -0.03   0.01
  36   1     0.01  -0.04   0.01    -0.01  -0.05  -0.04    -0.00   0.05  -0.05
  37   1     0.02  -0.02  -0.02    -0.04   0.00  -0.09    -0.03   0.05  -0.03
  38   1    -0.02  -0.04   0.03     0.03   0.04  -0.03     0.01  -0.05   0.00
  39   1     0.02  -0.01  -0.01     0.01   0.03   0.01     0.03  -0.02  -0.01
  40   1    -0.13   0.04   0.09    -0.03  -0.04   0.06    -0.08   0.00   0.05
  41   1    -0.12   0.03   0.10     0.05  -0.09   0.04    -0.18   0.06   0.14
  42   1     0.01   0.00  -0.03     0.02  -0.00   0.01    -0.01  -0.01   0.02
  43   1     0.02   0.03  -0.05     0.04   0.01  -0.00    -0.01  -0.00   0.01
  44   1     0.06   0.00  -0.01    -0.03   0.05  -0.06     0.02   0.00   0.03
  45   1     0.03   0.00  -0.02    -0.01   0.04  -0.04     0.01   0.00   0.02
  46   1     0.03  -0.02   0.05     0.01  -0.01   0.01     0.02   0.07   0.04
  47   1     0.02  -0.01   0.02     0.02  -0.01   0.02    -0.01   0.05   0.03
  48   1     0.03   0.00  -0.03     0.04   0.01   0.03    -0.08  -0.02   0.02
  49   1     0.02  -0.01  -0.01     0.04   0.02   0.02    -0.02  -0.00   0.01
  50   1     0.02   0.01   0.07    -0.02  -0.03  -0.01    -0.00   0.03   0.01
  51   1     0.02   0.01   0.05    -0.04  -0.02  -0.02     0.02   0.01  -0.01
  52   1    -0.11   0.03   0.00     0.04  -0.06   0.01     0.08  -0.13  -0.01
  53   1    -0.09   0.02   0.00     0.04  -0.05   0.02     0.06  -0.07   0.01
  54   1     0.03   0.02   0.01    -0.06  -0.01  -0.05     0.03  -0.00   0.02
  55   1     0.04   0.01  -0.00    -0.05   0.02  -0.03     0.03  -0.02   0.01
                      4                      5                      6
                        a                      a                      a 
 Frequencies --    44.3787                51.7436                55.0101
 Red. masses --    14.2596                16.6029                14.7580
 Frc consts  --     0.0000                 0.0000                 0.0000
 IR Inten    --     8.4539                27.5054                45.6743
 Raman Activ --     0.0000                 0.0000                 0.0000
 Depolar     --     0.0000                 0.0000                 0.0000
 Atom AN      X      Y      Z        X      Y      Z        X      Y      Z
   1  26    -0.02  -0.02   0.04     0.10  -0.17  -0.14     0.15   0.15  -0.03
   2   8    -0.07   0.13   0.04    -0.04   0.16  -0.17     0.10   0.13   0.04
   3   8    -0.00  -0.01   0.04     0.03  -0.09  -0.07     0.02   0.12   0.01
   4   8    -0.04   0.12  -0.02    -0.00  -0.01  -0.17     0.16  -0.02   0.06
   5   8     0.11  -0.18  -0.08     0.02   0.04  -0.04    -0.17  -0.04   0.08
   6   8     0.10  -0.05  -0.16    -0.12  -0.04   0.26    -0.20   0.05   0.08
   7   8     0.03  -0.11  -0.11     0.08  -0.03  -0.00    -0.02  -0.02  -0.09
   8   1     0.03  -0.00  -0.02    -0.04  -0.03   0.05    -0.05  -0.01   0.03
   9   1     0.01  -0.02  -0.04    -0.01   0.03   0.07    -0.06   0.03   0.02
  10   1    -0.01  -0.04  -0.01     0.01   0.01  -0.00    -0.02  -0.03  -0.00
  11   1     0.02   0.00  -0.03     0.03   0.01   0.00    -0.00  -0.00  -0.02
  12   1    -0.02   0.04   0.02    -0.02   0.07  -0.03     0.03   0.04   0.01
  13   1    -0.02   0.02   0.02    -0.01   0.02  -0.02     0.02   0.03   0.02
  14   1    -0.01   0.01   0.01     0.00  -0.02  -0.03     0.04  -0.01   0.01
  15   1    -0.02   0.04  -0.02    -0.01  -0.00  -0.05     0.03  -0.00   0.01
  16   1    -0.00  -0.01   0.01     0.01  -0.01  -0.01     0.01   0.01  -0.01
  17   1    -0.00  -0.00   0.02     0.01  -0.01  -0.01    -0.00   0.02   0.01
  18   1     0.02  -0.04  -0.04     0.00   0.01  -0.02    -0.05  -0.03   0.02
  19   1     0.04  -0.06  -0.01     0.01   0.00  -0.00    -0.02  -0.02   0.01
  20   8     0.10  -0.10   0.11    -0.14   0.02  -0.19    -0.01   0.20  -0.08
  21   8     0.10   0.21  -0.27     0.12   0.13  -0.09    -0.03  -0.02  -0.07
  22   8     0.17  -0.32   0.01    -0.01  -0.05   0.15     0.17  -0.14  -0.06
  23   8    -0.11  -0.02   0.04     0.00  -0.15   0.11     0.04   0.12  -0.11
  24   8     0.20   0.18   0.11    -0.29   0.14  -0.04    -0.22   0.11   0.16
  25   8    -0.14  -0.03   0.19    -0.00  -0.10   0.11     0.03   0.07   0.06
  26   8    -0.25  -0.07   0.01    -0.08   0.23  -0.03    -0.07  -0.28   0.05
  27   8    -0.01   0.02   0.18     0.13   0.03   0.09    -0.10  -0.04   0.04
  28   8     0.01   0.02   0.01     0.16  -0.10   0.17     0.01  -0.21  -0.12
  29   8     0.07   0.05  -0.17    -0.03   0.27   0.25    -0.29  -0.21   0.08
  30   8    -0.02  -0.01   0.16     0.06  -0.21  -0.05     0.21  -0.06   0.05
  31   8    -0.20   0.21  -0.16    -0.06  -0.01  -0.05     0.03   0.01  -0.10
  32   1     0.01  -0.05   0.02     0.00  -0.02   0.03     0.03  -0.02  -0.00
  33   1    -0.03  -0.01   0.06    -0.02  -0.02   0.03     0.05  -0.00   0.02
  34   1     0.02  -0.03   0.02     0.01   0.03  -0.03     0.04   0.08  -0.01
  35   1     0.04  -0.04   0.03    -0.07   0.05  -0.07    -0.03   0.09  -0.05
  36   1     0.01   0.05   0.01    -0.02   0.03  -0.04    -0.01   0.02   0.02
  37   1     0.06   0.02   0.03    -0.07   0.03  -0.01    -0.04   0.03   0.03
  38   1     0.03   0.01  -0.08    -0.01   0.08   0.05    -0.10  -0.10   0.11
  39   1     0.00   0.02  -0.02    -0.01   0.05   0.02    -0.01  -0.03   0.00
  40   1     0.05  -0.08  -0.01    -0.00  -0.01   0.04     0.06  -0.05  -0.04
  41   1     0.00  -0.06   0.05    -0.06   0.03   0.05     0.19  -0.15  -0.06
  42   1    -0.03  -0.01   0.03    -0.00  -0.04   0.03     0.00   0.03  -0.01
  43   1    -0.01  -0.00   0.01     0.00  -0.03   0.03     0.02   0.03  -0.03
  44   1    -0.07   0.06  -0.04    -0.03  -0.01  -0.01     0.01   0.01  -0.03
  45   1    -0.04   0.03  -0.02    -0.01  -0.02   0.01     0.00   0.01  -0.03
  46   1     0.00  -0.01   0.04     0.01  -0.06  -0.02     0.06  -0.02   0.02
  47   1    -0.00   0.00   0.03     0.03  -0.05  -0.00     0.04  -0.02  -0.01
  48   1    -0.03  -0.03   0.01     0.12   0.04   0.04     0.09   0.04  -0.07
  49   1     0.02   0.01  -0.01     0.00   0.01   0.06    -0.04  -0.07   0.00
  50   1     0.01   0.02   0.06     0.03   0.00   0.02    -0.00  -0.01   0.02
  51   1     0.01   0.02   0.02     0.03   0.01   0.02    -0.02  -0.00  -0.00
  52   1    -0.07  -0.00   0.01    -0.03   0.08   0.01    -0.01  -0.09  -0.00
  53   1    -0.05  -0.01   0.02    -0.01   0.05  -0.00    -0.02  -0.05   0.01
  54   1     0.03   0.05  -0.09     0.04   0.03  -0.03    -0.01  -0.01  -0.02
  55   1    -0.00   0.07  -0.06     0.02   0.04  -0.02    -0.00  -0.01  -0.02
                      7                      8                      9
                        a                      a                      a 
 Frequencies --    56.4866                60.7281                63.6940
 Red. masses --    14.3289                 8.8398                15.0489
 Frc consts  --     0.0000                 0.0000                 0.0000
 IR Inten    --   107.0176               484.9154                 5.7114
 Raman Activ --     0.0000                 0.0000                 0.0000
 Depolar     --     0.0000                 0.0000                 0.0000
 Atom AN      X      Y      Z        X      Y      Z        X      Y      Z
   1  26    -0.08  -0.05   0.21     0.15  -0.04  -0.00     0.01  -0.11   0.06
   2   8    -0.00  -0.14   0.16     0.10   0.02  -0.03    -0.07   0.01  -0.20
   3   8    -0.01   0.06  -0.01     0.02   0.02   0.03    -0.03  -0.02   0.07
   4   8    -0.06  -0.07   0.10     0.11   0.07   0.01     0.01   0.02   0.04
   5   8     0.06  -0.07   0.04     0.03  -0.14  -0.01    -0.07  -0.01   0.06
   6   8    -0.05  -0.03   0.02    -0.08  -0.05   0.01     0.05  -0.09  -0.08
   7   8     0.10  -0.06  -0.05    -0.10  -0.01   0.12    -0.03   0.11   0.24
   8   1    -0.01  -0.01  -0.03    -0.02  -0.03   0.01     0.02  -0.01   0.00
   9   1     0.02  -0.02   0.01    -0.03  -0.00  -0.00    -0.01  -0.03  -0.02
  10   1     0.02  -0.03  -0.00    -0.02   0.02   0.02     0.01   0.04   0.05
  11   1     0.03   0.01  -0.03    -0.03  -0.02   0.04    -0.02   0.03   0.04
  12   1    -0.02  -0.05   0.03     0.04   0.00  -0.01    -0.03  -0.01  -0.06
  13   1    -0.01  -0.01   0.02     0.02   0.00  -0.01     0.00   0.00  -0.06
  14   1    -0.01  -0.02   0.02     0.03   0.02   0.00     0.01  -0.01   0.01
  15   1    -0.02  -0.01   0.01     0.03   0.02  -0.01    -0.00   0.02  -0.02
  16   1    -0.01   0.00  -0.02     0.00   0.01   0.01    -0.01  -0.02   0.00
  17   1     0.00   0.02   0.01     0.00  -0.00  -0.01    -0.00   0.01   0.03
  18   1     0.01  -0.02   0.01     0.00  -0.05  -0.00    -0.01   0.01   0.02
  19   1     0.02  -0.01  -0.01     0.02  -0.04  -0.01    -0.04   0.01   0.01
  20   8    -0.03   0.23  -0.02     0.01  -0.03   0.01    -0.05  -0.08   0.03
  21   8     0.22   0.25  -0.12    -0.25  -0.15   0.02    -0.12   0.33  -0.09
  22   8     0.14   0.05  -0.21     0.10  -0.12  -0.11    -0.24   0.20  -0.07
  23   8    -0.08  -0.02   0.02     0.11  -0.01  -0.05     0.11  -0.06   0.11
  24   8    -0.13  -0.22  -0.23    -0.04  -0.00   0.10     0.05   0.07   0.10
  25   8    -0.15   0.24  -0.10     0.03   0.10   0.02     0.19  -0.05  -0.21
  26   8     0.08  -0.17   0.02    -0.09   0.23  -0.02     0.18   0.09   0.19
  27   8     0.10   0.18   0.10    -0.10  -0.14  -0.09     0.04   0.10   0.15
  28   8     0.06  -0.05  -0.09    -0.07  -0.00   0.03     0.04  -0.22  -0.12
  29   8     0.05  -0.07   0.07    -0.09  -0.03  -0.01    -0.11  -0.20  -0.15
  30   8     0.00  -0.08  -0.05     0.09   0.10   0.04     0.10  -0.14   0.06
  31   8    -0.09  -0.04   0.00     0.09   0.13  -0.15    -0.06   0.14  -0.22
  32   1     0.00   0.03  -0.04     0.02  -0.01  -0.01    -0.01   0.02  -0.03
  33   1    -0.09   0.08   0.00    -0.08   0.05   0.05     0.04  -0.01  -0.06
  34   1     0.05   0.09   0.01    -0.01  -0.01   0.00    -0.05  -0.03   0.01
  35   1    -0.04   0.10  -0.04     0.01  -0.01   0.01     0.01  -0.05   0.02
  36   1    -0.01  -0.06  -0.02     0.02  -0.01   0.01     0.00   0.02   0.01
  37   1    -0.06  -0.00  -0.05    -0.00  -0.00   0.02     0.03  -0.01   0.02
  38   1     0.01  -0.01   0.01    -0.02  -0.03   0.02    -0.04  -0.07   0.01
  39   1    -0.00  -0.02   0.02    -0.00   0.00  -0.00    -0.01  -0.03  -0.02
  40   1     0.03   0.05  -0.05     0.01   0.01   0.00    -0.07   0.05   0.01
  41   1    -0.28   0.24   0.12    -0.51   0.30   0.37    -0.00   0.00  -0.02
  42   1    -0.02   0.02  -0.01     0.03   0.01  -0.01     0.03  -0.01  -0.00
  43   1    -0.03  -0.01   0.00     0.03  -0.01  -0.02     0.01  -0.04   0.02
  44   1    -0.03   0.00  -0.00     0.03   0.04  -0.04    -0.04   0.06  -0.06
  45   1    -0.02  -0.01   0.01     0.02   0.02  -0.04    -0.00   0.01  -0.03
  46   1    -0.01  -0.04  -0.02     0.03   0.03   0.01     0.03  -0.04   0.02
  47   1     0.00  -0.02  -0.02     0.02   0.02   0.01     0.02  -0.04  -0.00
  48   1     0.04   0.02  -0.04    -0.02   0.00   0.00     0.04  -0.02  -0.05
  49   1     0.00  -0.02  -0.02    -0.02  -0.01   0.01    -0.00  -0.06  -0.02
  50   1     0.02   0.05   0.03    -0.01  -0.04  -0.02     0.02   0.03   0.04
  51   1     0.03   0.05   0.02    -0.04  -0.03  -0.02    -0.01   0.04   0.02
  52   1     0.04  -0.05  -0.01    -0.03   0.08   0.02     0.05   0.02   0.04
  53   1     0.01  -0.01   0.00    -0.02   0.03  -0.01     0.04   0.02   0.04
  54   1     0.06   0.06  -0.02    -0.06  -0.04  -0.01    -0.01   0.09  -0.04
  55   1     0.03   0.05  -0.02    -0.04  -0.02  -0.00    -0.02   0.09  -0.02
                     10                     11                     12
                        a                      a                      a 
 Frequencies --    65.3875                70.8077                76.6663
 Red. masses --    14.5017                19.4017                14.8372
 Frc consts  --     0.0000                 0.0000                 0.0000
 IR Inten    --    53.9804                38.4155                25.4189
 Raman Activ --     0.0000                 0.0000                 0.0000
 Depolar     --     0.0000                 0.0000                 0.0000
 Atom AN      X      Y      Z        X      Y      Z        X      Y      Z
   1  26    -0.07   0.09  -0.10    -0.23   0.30  -0.06     0.09  -0.10   0.02
   2   8    -0.01  -0.03  -0.07    -0.08  -0.04  -0.12     0.02   0.05  -0.13
   3   8     0.05  -0.09  -0.06    -0.15   0.14   0.06    -0.00   0.10  -0.10
   4   8    -0.21   0.17  -0.27    -0.01  -0.11   0.14    -0.00  -0.20  -0.00
   5   8    -0.08   0.03  -0.01    -0.05   0.10  -0.08     0.09   0.15   0.05
   6   8     0.05   0.05  -0.02    -0.03   0.17   0.01     0.00  -0.01   0.06
   7   8    -0.09   0.05   0.00     0.08   0.16  -0.14    -0.18  -0.11   0.07
   8   1     0.01   0.02   0.01    -0.01   0.05   0.00    -0.00  -0.01   0.02
   9   1    -0.00   0.02  -0.01    -0.00   0.04   0.00    -0.00  -0.01   0.02
  10   1    -0.03  -0.01   0.02     0.02   0.03  -0.03    -0.05  -0.04   0.03
  11   1    -0.02   0.01   0.01     0.02   0.04  -0.04    -0.04  -0.01   0.01
  12   1     0.01  -0.01  -0.02    -0.01  -0.00  -0.03     0.02   0.02  -0.03
  13   1     0.01  -0.01  -0.02    -0.01  -0.02  -0.02     0.01  -0.00  -0.02
  14   1    -0.06   0.03  -0.04     0.00  -0.03   0.02    -0.00  -0.04  -0.01
  15   1    -0.05   0.03  -0.04    -0.01  -0.03   0.03     0.01  -0.04  -0.02
  16   1     0.02  -0.03  -0.02    -0.03   0.03   0.01    -0.00   0.02  -0.03
  17   1     0.01  -0.02   0.01    -0.04   0.02   0.00     0.00   0.03  -0.01
  18   1    -0.02  -0.01   0.00    -0.02   0.02  -0.03     0.02   0.04   0.01
  19   1    -0.01   0.00  -0.00    -0.00   0.01  -0.01     0.02   0.03   0.02
  20   8     0.09   0.07  -0.01    -0.08  -0.32   0.17     0.07   0.13  -0.03
  21   8     0.00   0.05   0.24     0.08   0.02  -0.06    -0.17   0.17  -0.05
  22   8     0.10  -0.07  -0.02     0.16  -0.12   0.09     0.15   0.11   0.25
  23   8     0.09  -0.01   0.02     0.05   0.12  -0.03     0.12  -0.10   0.01
  24   8     0.09   0.01   0.09     0.09  -0.03   0.07    -0.01   0.09   0.11
  25   8     0.10  -0.08  -0.02     0.08  -0.20   0.03     0.13  -0.19   0.06
  26   8     0.05  -0.36   0.12     0.06  -0.02  -0.01    -0.16  -0.26   0.06
  27   8     0.09  -0.01   0.17    -0.14   0.13  -0.07    -0.12   0.12  -0.01
  28   8     0.05  -0.05  -0.08     0.18  -0.14   0.04    -0.10   0.22  -0.18
  29   8    -0.26   0.27  -0.16     0.10  -0.08   0.12     0.24  -0.05   0.07
  30   8    -0.14  -0.19  -0.01     0.09  -0.18  -0.14    -0.19   0.11  -0.09
  31   8     0.20   0.06   0.19    -0.00  -0.13  -0.02    -0.01  -0.20  -0.18
  32   1     0.03  -0.02  -0.00     0.03  -0.04   0.02     0.04  -0.00   0.04
  33   1    -0.00  -0.01   0.00     0.00  -0.04   0.00     0.01  -0.03  -0.01
  34   1     0.01   0.02   0.00    -0.04  -0.12   0.01     0.05   0.06   0.01
  35   1     0.03   0.01  -0.01    -0.01  -0.10   0.07    -0.00   0.05  -0.04
  36   1     0.00   0.01   0.02    -0.01   0.00   0.00     0.00   0.02   0.01
  37   1     0.03  -0.01   0.02     0.01  -0.03   0.02     0.01   0.00   0.02
  38   1    -0.07   0.08  -0.04     0.02  -0.02   0.04     0.06   0.01  -0.01
  39   1    -0.07   0.06  -0.06     0.02  -0.02   0.03     0.03  -0.03   0.02
  40   1     0.02  -0.01   0.00     0.04  -0.02   0.02     0.03   0.05   0.07
  41   1    -0.17   0.10   0.13    -0.19   0.12   0.12    -0.07   0.14  -0.01
  42   1     0.03  -0.01  -0.00     0.02  -0.00   0.00     0.03  -0.03   0.01
  43   1     0.01   0.01   0.02     0.03   0.05   0.00     0.03  -0.02   0.01
  44   1     0.07  -0.02   0.06    -0.01  -0.02  -0.01    -0.02  -0.04  -0.05
  45   1     0.04   0.00   0.04     0.00  -0.01  -0.00     0.00  -0.04  -0.03
  46   1    -0.04  -0.07  -0.01     0.01  -0.05  -0.04    -0.05   0.02  -0.02
  47   1    -0.01  -0.03  -0.01     0.03  -0.04  -0.03    -0.05   0.03  -0.03
  48   1     0.01  -0.03   0.00     0.13   0.05  -0.02    -0.07   0.01  -0.03
  49   1     0.01   0.01  -0.02     0.01  -0.03   0.03    -0.01   0.03  -0.05
  50   1     0.01  -0.01   0.03    -0.03   0.02  -0.02    -0.01   0.03   0.00
  51   1     0.02  -0.01   0.06    -0.02   0.02  -0.01    -0.04   0.04  -0.01
  52   1     0.02  -0.13  -0.00     0.02  -0.02  -0.02    -0.02  -0.08  -0.00
  53   1     0.00  -0.06   0.03     0.01   0.01  -0.00    -0.05  -0.03   0.01
  54   1    -0.01   0.01   0.06     0.01   0.00   0.01    -0.03   0.05   0.01
  55   1     0.03   0.02   0.05     0.02  -0.02  -0.01    -0.03   0.02  -0.01
                     13                     14                     15
                        a                      a                      a 
 Frequencies --    80.0302                83.9107                86.0326
 Red. masses --    14.3296                17.6390                14.9908
 Frc consts  --     0.0000                 0.0000                 0.0000
 IR Inten    --    63.2727                 3.2844                79.7369
 Raman Activ --     0.0000                 0.0000                 0.0000
 Depolar     --     0.0000                 0.0000                 0.0000
 Atom AN      X      Y      Z        X      Y      Z        X      Y      Z
   1  26    -0.06   0.05  -0.11    -0.08  -0.03   0.29    -0.09   0.17   0.01
   2   8    -0.00  -0.02   0.05    -0.19   0.04  -0.26    -0.01   0.03  -0.07
   3   8     0.04  -0.15  -0.01    -0.00   0.14  -0.00     0.08  -0.08  -0.04
   4   8    -0.02  -0.06  -0.05    -0.09   0.11   0.11    -0.07  -0.20   0.01
   5   8    -0.13   0.25   0.06     0.07  -0.08   0.06    -0.05  -0.13  -0.09
   6   8     0.08   0.08   0.01     0.02  -0.02   0.02    -0.07   0.06  -0.00
   7   8     0.18   0.12  -0.06     0.24  -0.06  -0.11     0.05   0.12  -0.04
   8   1     0.02   0.03   0.00     0.00   0.00  -0.01    -0.02   0.01  -0.00
   9   1     0.01  -0.00   0.00     0.02  -0.01   0.01    -0.02   0.01   0.00
  10   1     0.05   0.03  -0.02     0.04  -0.03  -0.01     0.02   0.02  -0.01
  11   1     0.04   0.03  -0.02     0.06  -0.02  -0.02     0.01   0.04  -0.02
  12   1    -0.00  -0.00   0.01    -0.09   0.02  -0.06    -0.01   0.00  -0.02
  13   1     0.00  -0.01   0.01    -0.02   0.00  -0.07     0.01   0.01  -0.02
  14   1    -0.01  -0.02   0.01    -0.02   0.03   0.02    -0.02  -0.05   0.02
  15   1    -0.00  -0.02  -0.00    -0.02   0.03   0.03    -0.01  -0.04  -0.01
  16   1     0.02  -0.03   0.01     0.01   0.01  -0.02     0.03  -0.01   0.01
  17   1     0.00  -0.04   0.01    -0.02   0.01  -0.01     0.01  -0.02  -0.00
  18   1    -0.03   0.05   0.03     0.02   0.00  -0.01    -0.02  -0.03  -0.03
  19   1    -0.03   0.06   0.02     0.01  -0.02   0.02    -0.01  -0.03  -0.02
  20   8    -0.06  -0.02  -0.08     0.05   0.23   0.05     0.13   0.23   0.03
  21   8     0.10  -0.12  -0.16     0.23  -0.36  -0.10     0.01   0.04  -0.10
  22   8     0.35   0.11   0.17    -0.15   0.04   0.03    -0.24  -0.16  -0.23
  23   8     0.02   0.01   0.08     0.06  -0.02   0.09     0.12   0.12  -0.11
  24   8    -0.02  -0.03  -0.14    -0.03   0.10  -0.04     0.02   0.07   0.12
  25   8     0.05  -0.04   0.05     0.15  -0.22  -0.13     0.15   0.03  -0.07
  26   8     0.09   0.16   0.05    -0.09   0.02   0.05     0.11   0.06  -0.01
  27   8     0.08  -0.24   0.16    -0.18  -0.15  -0.07     0.15  -0.13   0.15
  28   8    -0.19   0.02  -0.09     0.09   0.06  -0.21    -0.12   0.10   0.21
  29   8    -0.18  -0.16  -0.09    -0.03   0.03  -0.02     0.13  -0.02   0.15
  30   8    -0.15   0.03   0.31    -0.02   0.00   0.03    -0.23  -0.07   0.16
  31   8    -0.11  -0.07  -0.10     0.03   0.16   0.03     0.02  -0.27  -0.15
  32   1     0.06   0.01   0.03    -0.00  -0.02  -0.01    -0.02  -0.02  -0.04
  33   1     0.01  -0.00  -0.01     0.03  -0.05  -0.05     0.05  -0.01   0.02
  34   1    -0.04  -0.02  -0.03     0.10   0.11   0.04     0.04   0.06   0.01
  35   1    -0.01  -0.01   0.01    -0.04   0.12  -0.05     0.03   0.05  -0.01
  36   1    -0.01  -0.01  -0.01    -0.01   0.03  -0.02    -0.01   0.02   0.01
  37   1    -0.01   0.01  -0.03    -0.03   0.02   0.00     0.02   0.00   0.03
  38   1    -0.08  -0.06   0.07    -0.00   0.01  -0.02     0.05   0.01  -0.03
  39   1    -0.01  -0.02  -0.03    -0.02   0.01   0.01     0.01  -0.02   0.04
  40   1     0.09   0.06   0.02    -0.05   0.01   0.03    -0.07  -0.09  -0.04
  41   1    -0.04   0.18  -0.05    -0.06   0.02   0.02    -0.04  -0.17   0.20
  42   1     0.01  -0.01   0.02     0.02  -0.03   0.01     0.03   0.02  -0.02
  43   1     0.02   0.00   0.02     0.02  -0.01   0.02     0.03   0.03  -0.03
  44   1    -0.05   0.00  -0.03    -0.00   0.05   0.01    -0.01  -0.07  -0.03
  45   1    -0.02  -0.01  -0.01     0.01   0.03   0.02     0.01  -0.04  -0.03
  46   1    -0.02  -0.00   0.10    -0.00  -0.02   0.01    -0.06  -0.03   0.04
  47   1    -0.04   0.01   0.05     0.01   0.01  -0.01    -0.05  -0.01   0.04
  48   1    -0.14  -0.09   0.01     0.03   0.02  -0.05    -0.08  -0.02   0.06
  49   1    -0.01  -0.01  -0.04     0.01   0.01  -0.05    -0.01   0.02   0.04
  50   1     0.01  -0.03   0.05    -0.04  -0.03  -0.01     0.02  -0.01   0.04
  51   1     0.03  -0.05   0.02    -0.01  -0.05  -0.01     0.03  -0.02   0.02
  52   1    -0.00   0.05   0.03    -0.03   0.01   0.02     0.02   0.01   0.00
  53   1     0.03   0.00   0.01    -0.02   0.00   0.02     0.03  -0.01  -0.01
  54   1     0.01  -0.03  -0.04     0.04  -0.10  -0.05    -0.01   0.01  -0.01
  55   1     0.01  -0.03  -0.03     0.04  -0.06  -0.02     0.01  -0.01  -0.03
                     16                     17                     18
                        a                      a                      a 
 Frequencies --    87.7229                94.7561                97.5627
 Red. masses --    15.3118                16.6248                15.8671
 Frc consts  --     0.0000                 0.0000                 0.0000
 IR Inten    --     4.8710                 3.7942                19.7233
 Raman Activ --     0.0000                 0.0000                 0.0000
 Depolar     --     0.0000                 0.0000                 0.0000
 Atom AN      X      Y      Z        X      Y      Z        X      Y      Z
   1  26     0.17  -0.00   0.03     0.13  -0.02  -0.19     0.11   0.07   0.18
   2   8     0.18   0.06   0.17     0.07  -0.07   0.01     0.01   0.13  -0.07
   3   8    -0.10   0.13   0.12     0.00   0.20  -0.17     0.09  -0.06   0.14
   4   8    -0.12  -0.03  -0.19     0.08  -0.03  -0.09    -0.05  -0.05  -0.01
   5   8     0.05   0.04   0.03     0.02  -0.09  -0.09     0.08  -0.09  -0.01
   6   8    -0.13  -0.04  -0.16    -0.00   0.04   0.16     0.26   0.10   0.22
   7   8     0.19  -0.01   0.02     0.09   0.17   0.04    -0.05  -0.11   0.03
   8   1    -0.03  -0.03  -0.03    -0.00  -0.00   0.03     0.06   0.03   0.03
   9   1    -0.04  -0.01  -0.04     0.02   0.03   0.04     0.08   0.00   0.06
  10   1     0.04  -0.01   0.01     0.03   0.03   0.01    -0.02  -0.03   0.01
  11   1     0.05  -0.01   0.01     0.01   0.02   0.01    -0.01  -0.01   0.00
  12   1     0.05   0.01   0.04     0.02  -0.02   0.00    -0.01   0.04  -0.01
  13   1     0.04   0.02   0.04    -0.00  -0.01   0.00     0.01   0.02  -0.01
  14   1    -0.03  -0.01  -0.05     0.02  -0.01  -0.00    -0.01  -0.01  -0.02
  15   1    -0.03  -0.01  -0.04     0.01  -0.01  -0.02    -0.02  -0.01  -0.01
  16   1    -0.02   0.02   0.02     0.02   0.04  -0.04     0.02  -0.01   0.04
  17   1    -0.03   0.02   0.03    -0.01   0.05  -0.01     0.02  -0.02   0.02
  18   1     0.01   0.00   0.01     0.01  -0.03  -0.01     0.03   0.01  -0.02
  19   1     0.02   0.02  -0.00    -0.00  -0.02  -0.02     0.01  -0.02   0.01
  20   8    -0.16  -0.15   0.05     0.11  -0.23  -0.02    -0.14  -0.20   0.08
  21   8     0.14  -0.14  -0.09    -0.09  -0.05  -0.01    -0.01   0.07  -0.02
  22   8    -0.05   0.13  -0.04    -0.12  -0.05  -0.14    -0.06  -0.06  -0.08
  23   8     0.15  -0.00   0.02    -0.11  -0.07   0.14     0.08   0.09  -0.02
  24   8    -0.12   0.02   0.02     0.05  -0.15   0.03     0.13   0.09  -0.40
  25   8     0.10   0.28   0.07    -0.09   0.05  -0.07     0.08   0.08   0.01
  26   8    -0.10   0.01   0.27     0.09  -0.04   0.22    -0.18  -0.03   0.02
  27   8    -0.26   0.02   0.02    -0.21  -0.01   0.14     0.08   0.03  -0.07
  28   8    -0.08  -0.09   0.01     0.20   0.27  -0.30    -0.01   0.11  -0.11
  29   8     0.13   0.12  -0.19    -0.08   0.12   0.19    -0.35  -0.09   0.14
  30   8    -0.20  -0.19  -0.11    -0.02   0.07   0.22    -0.15   0.01  -0.19
  31   8     0.07  -0.12  -0.09    -0.21  -0.08   0.02     0.02  -0.11  -0.05
  32   1     0.00   0.05   0.00    -0.03  -0.00  -0.03    -0.00  -0.00  -0.01
  33   1     0.02   0.07   0.05    -0.02   0.01  -0.00     0.02   0.01   0.03
  34   1    -0.06  -0.06  -0.00     0.06  -0.06  -0.01    -0.05  -0.07   0.01
  35   1    -0.04  -0.04   0.04     0.01  -0.03  -0.02    -0.04  -0.04   0.07
  36   1     0.01  -0.00   0.01     0.01  -0.04   0.00     0.03   0.02  -0.08
  37   1    -0.03   0.02   0.00     0.01  -0.04   0.01    -0.04   0.05  -0.06
  38   1     0.05   0.07  -0.12    -0.02   0.02   0.07    -0.12  -0.06   0.14
  39   1    -0.02   0.01  -0.04     0.01   0.03   0.02    -0.03  -0.01   0.01
  40   1    -0.02   0.02   0.00    -0.03  -0.02  -0.03    -0.01  -0.04  -0.02
  41   1     0.07  -0.06   0.06    -0.00  -0.06   0.01     0.03  -0.10   0.09
  42   1     0.03   0.03   0.01    -0.03  -0.01   0.02     0.02   0.02  -0.00
  43   1     0.03  -0.00   0.00    -0.04  -0.02   0.04     0.02   0.02  -0.01
  44   1     0.01  -0.04  -0.01    -0.08  -0.02   0.01    -0.00  -0.03  -0.01
  45   1     0.02  -0.03  -0.01    -0.04  -0.01   0.02     0.01  -0.01  -0.01
  46   1    -0.05  -0.06  -0.03     0.02  -0.00   0.08    -0.05   0.01  -0.06
  47   1    -0.04  -0.04  -0.02    -0.01   0.02   0.01    -0.04   0.00  -0.04
  48   1    -0.00   0.01  -0.02     0.06   0.06  -0.05    -0.06  -0.05   0.02
  49   1    -0.02  -0.02   0.00     0.02   0.06  -0.06     0.01   0.03  -0.04
  50   1    -0.06  -0.01   0.00    -0.03   0.00   0.05     0.01  -0.00  -0.02
  51   1    -0.04  -0.01   0.02    -0.04   0.00   0.02     0.01   0.01  -0.01
  52   1    -0.03   0.01   0.07     0.03  -0.03   0.04    -0.06   0.01   0.02
  53   1    -0.02   0.02   0.08     0.01  -0.01   0.04    -0.03   0.01   0.03
  54   1     0.04  -0.04  -0.04    -0.03  -0.01   0.00     0.00   0.02   0.00
  55   1     0.03  -0.02  -0.02    -0.03  -0.02   0.00    -0.00   0.01  -0.00
                     19                     20                     21
                        a                      a                      a 
 Frequencies --   107.8262               114.2690               119.9531
 Red. masses --    18.2303                19.5641                11.4534
 Frc consts  --     0.0000                 0.0000                 0.0000
 IR Inten    --    35.6420                23.9029               132.2515
 Raman Activ --     0.0000                 0.0000                 0.0000
 Depolar     --     0.0000                 0.0000                 0.0000
 Atom AN      X      Y      Z        X      Y      Z        X      Y      Z
   1  26    -0.26  -0.18   0.08    -0.21  -0.26  -0.18    -0.02   0.04   0.02
   2   8    -0.10   0.09   0.08    -0.08  -0.02   0.16    -0.04   0.02   0.12
   3   8    -0.06   0.00  -0.11    -0.13  -0.13  -0.04     0.06  -0.07  -0.09
   4   8    -0.07   0.01   0.10     0.04  -0.02   0.04     0.05   0.05  -0.00
   5   8    -0.03   0.08  -0.01    -0.29   0.12   0.09    -0.13   0.17   0.10
   6   8     0.02  -0.08   0.08     0.28  -0.06   0.03    -0.07   0.01  -0.05
   7   8    -0.05  -0.07   0.04     0.06   0.07  -0.00    -0.11  -0.13  -0.00
   8   1     0.00  -0.00   0.00     0.07   0.02   0.00    -0.02   0.00  -0.02
   9   1     0.02  -0.02   0.02     0.07  -0.02   0.01    -0.01  -0.00  -0.01
  10   1     0.00  -0.00  -0.00     0.00   0.02   0.01    -0.03  -0.03   0.00
  11   1    -0.02  -0.02   0.00     0.02   0.02   0.01    -0.02  -0.02  -0.00
  12   1    -0.03   0.03   0.02    -0.02  -0.02   0.03     0.00  -0.00   0.03
  13   1    -0.01   0.01   0.02    -0.01  -0.00   0.03     0.02   0.01   0.02
  14   1    -0.02   0.01   0.04     0.01   0.01   0.01     0.01   0.00  -0.00
  15   1     0.00   0.02   0.00     0.02  -0.00   0.00    -0.00   0.00   0.01
  16   1    -0.02  -0.01  -0.03    -0.02  -0.03   0.00     0.01  -0.02  -0.02
  17   1    -0.01   0.01  -0.01    -0.04  -0.04  -0.00     0.02  -0.01  -0.03
  18   1    -0.01   0.02  -0.01    -0.06   0.03   0.05    -0.03   0.03   0.04
  19   1     0.00   0.02  -0.00    -0.07   0.04   0.01    -0.03   0.05   0.02
  20   8    -0.10  -0.17   0.03    -0.04   0.18  -0.16    -0.04  -0.16  -0.01
  21   8    -0.05   0.00   0.05     0.10  -0.03  -0.05     0.00   0.00  -0.01
  22   8     0.05  -0.05   0.02     0.06  -0.06  -0.12    -0.00   0.05  -0.13
  23   8     0.12   0.02  -0.23     0.06  -0.12   0.04     0.02   0.07   0.28
  24   8    -0.12   0.13  -0.00     0.18   0.11   0.07    -0.18  -0.02  -0.05
  25   8    -0.02   0.20   0.18     0.08   0.13   0.02     0.36   0.02  -0.07
  26   8     0.21   0.05  -0.18    -0.07  -0.01   0.23    -0.13  -0.10  -0.20
  27   8     0.04  -0.05   0.08    -0.20   0.10  -0.13     0.12  -0.06  -0.02
  28   8     0.17   0.06  -0.38     0.17   0.14   0.18     0.02  -0.01  -0.13
  29   8     0.15   0.04   0.06    -0.04  -0.07   0.07     0.18   0.06  -0.05
  30   8    -0.08  -0.05   0.18     0.08   0.10  -0.13     0.16   0.09   0.04
  31   8     0.32   0.11  -0.12     0.07   0.02  -0.04    -0.24   0.01   0.13
  32   1     0.00   0.01   0.02     0.02   0.01  -0.02     0.04   0.01  -0.04
  33   1    -0.05   0.06   0.09     0.04   0.02   0.03     0.25  -0.07  -0.00
  34   1    -0.01  -0.04   0.00    -0.05   0.06  -0.01    -0.02  -0.06  -0.02
  35   1    -0.04  -0.02   0.01     0.03  -0.01  -0.07    -0.01  -0.03   0.04
  36   1    -0.02   0.03  -0.00    -0.01   0.04   0.04    -0.03  -0.01   0.01
  37   1    -0.04   0.03   0.00     0.09   0.02  -0.00    -0.04   0.02  -0.02
  38   1     0.04   0.04  -0.02    -0.01  -0.03   0.04     0.06   0.04  -0.06
  39   1     0.00  -0.00   0.03     0.01  -0.00   0.02     0.01   0.00  -0.01
  40   1     0.02  -0.05  -0.01     0.02  -0.06  -0.04     0.01  -0.06  -0.03
  41   1     0.07  -0.10   0.05    -0.02  -0.09   0.17    -0.02  -0.17   0.36
  42   1     0.02   0.02  -0.03     0.00  -0.01   0.01    -0.00   0.01   0.05
  43   1     0.05  -0.01  -0.07     0.02  -0.04   0.00    -0.01   0.01   0.07
  44   1     0.12   0.02  -0.03     0.02   0.01  -0.01    -0.10  -0.00   0.04
  45   1     0.06   0.01  -0.06     0.02  -0.01  -0.01    -0.05   0.02   0.07
  46   1    -0.01  -0.04   0.05     0.01   0.05  -0.04     0.05   0.03   0.02
  47   1    -0.02  -0.00   0.00     0.02   0.02  -0.00     0.02   0.02  -0.00
  48   1     0.04   0.01  -0.08     0.01  -0.01   0.08    -0.02  -0.03  -0.02
  49   1     0.03   0.01  -0.09     0.05   0.05   0.03     0.01  -0.01  -0.04
  50   1    -0.01   0.00   0.02    -0.03   0.02  -0.03     0.03  -0.01   0.00
  51   1     0.01  -0.01   0.01    -0.02   0.01  -0.03     0.02  -0.01  -0.01
  52   1     0.07   0.02  -0.05    -0.02  -0.02   0.05    -0.03  -0.02  -0.05
  53   1     0.04  -0.01  -0.07    -0.01   0.02   0.07    -0.03  -0.02  -0.05
  54   1    -0.01  -0.00   0.01     0.04  -0.00  -0.02     0.01   0.00  -0.01
  55   1     0.02   0.01   0.00     0.02  -0.01  -0.01    -0.02  -0.00   0.00
                     22                     23                     24
                        a                      a                      a 
 Frequencies --   126.7306               131.7901               136.6592
 Red. masses --    15.4528                15.0264                13.7380
 Frc consts  --     0.0000                 0.0000                 0.0000
 IR Inten    --    32.9155                27.2274                36.8840
 Raman Activ --     0.0000                 0.0000                 0.0000
 Depolar     --     0.0000                 0.0000                 0.0000
 Atom AN      X      Y      Z        X      Y      Z        X      Y      Z
   1  26     0.20  -0.03   0.05     0.15   0.07   0.05     0.05  -0.10   0.05
   2   8     0.09  -0.01   0.00    -0.03  -0.02  -0.10    -0.01  -0.07   0.09
   3   8    -0.09   0.27   0.16     0.21  -0.04   0.08    -0.08  -0.09   0.12
   4   8    -0.03  -0.02  -0.09     0.03   0.01   0.03     0.02   0.03  -0.11
   5   8    -0.19  -0.06   0.29    -0.30   0.04   0.28     0.17   0.06  -0.05
   6   8     0.15  -0.04  -0.15     0.02  -0.06  -0.09     0.10  -0.04   0.17
   7   8    -0.06  -0.14  -0.03     0.08   0.06   0.04     0.04  -0.04   0.02
   8   1     0.04   0.00  -0.04     0.01  -0.01  -0.04     0.03  -0.01   0.07
   9   1     0.04  -0.02  -0.04     0.02  -0.03  -0.02    -0.00   0.01   0.04
  10   1    -0.00  -0.02  -0.02     0.01   0.01   0.01     0.01  -0.00   0.00
  11   1    -0.02  -0.04  -0.01     0.02   0.01   0.02     0.01  -0.01   0.01
  12   1     0.03  -0.01  -0.00    -0.02  -0.00  -0.02    -0.01  -0.01   0.02
  13   1     0.02   0.00   0.00    -0.02  -0.00  -0.02    -0.01  -0.01   0.03
  14   1    -0.01  -0.01  -0.01     0.01   0.01  -0.01     0.00   0.01  -0.02
  15   1    -0.01  -0.01  -0.01     0.01   0.01   0.00     0.00   0.00  -0.01
  16   1    -0.03   0.08   0.04     0.06  -0.01   0.02    -0.02  -0.03   0.02
  17   1    -0.02   0.07   0.03     0.05  -0.02   0.02    -0.02  -0.02   0.03
  18   1    -0.04  -0.02   0.08    -0.08  -0.01   0.09     0.04   0.02  -0.02
  19   1    -0.04  -0.01   0.06    -0.06   0.01   0.07     0.05   0.01  -0.01
  20   8    -0.18   0.05  -0.06    -0.05  -0.10  -0.07    -0.25   0.14  -0.04
  21   8    -0.03   0.02  -0.02    -0.03  -0.01   0.04    -0.00   0.04  -0.06
  22   8     0.04  -0.02  -0.03     0.01  -0.15  -0.04     0.00  -0.01  -0.00
  23   8    -0.05  -0.04  -0.04    -0.15   0.16  -0.23    -0.20   0.26  -0.32
  24   8     0.03   0.08   0.01    -0.23  -0.03   0.01     0.14   0.05   0.15
  25   8     0.00  -0.11  -0.08    -0.19  -0.17  -0.05    -0.02  -0.18  -0.06
  26   8     0.14   0.04  -0.37    -0.07   0.02   0.30     0.08   0.08   0.11
  27   8    -0.09   0.04   0.03     0.20  -0.05   0.04    -0.06   0.07  -0.05
  28   8     0.25   0.18   0.16     0.11   0.19  -0.10    -0.08  -0.22  -0.21
  29   8    -0.12   0.00  -0.10     0.22  -0.02  -0.01     0.02   0.20  -0.06
  30   8    -0.17  -0.08   0.20    -0.06  -0.02  -0.19     0.12   0.13   0.10
  31   8    -0.05  -0.15   0.04    -0.00   0.10  -0.01    -0.08  -0.23   0.09
  32   1     0.01  -0.02  -0.01    -0.02  -0.04  -0.01    -0.01  -0.01  -0.02
  33   1     0.05  -0.04  -0.05    -0.03  -0.04  -0.04     0.16  -0.11  -0.05
  34   1    -0.08   0.01  -0.01    -0.07  -0.04  -0.02    -0.06   0.05   0.01
  35   1    -0.04   0.00   0.01    -0.00  -0.04   0.04    -0.07   0.05  -0.02
  36   1     0.01   0.02   0.02    -0.02  -0.01   0.01     0.01   0.02   0.01
  37   1     0.04   0.03  -0.01    -0.03   0.02  -0.02     0.03  -0.02   0.05
  38   1    -0.02  -0.01  -0.03     0.08   0.02  -0.09    -0.00   0.09  -0.03
  39   1    -0.02   0.01  -0.03     0.02  -0.02   0.02    -0.02   0.03  -0.04
  40   1     0.01   0.00  -0.01     0.02  -0.06  -0.04     0.02  -0.03  -0.03
  41   1    -0.04   0.04  -0.00    -0.07   0.01  -0.03    -0.05  -0.04   0.15
  42   1    -0.01  -0.01  -0.02    -0.03   0.02  -0.05    -0.06   0.04  -0.06
  43   1    -0.02  -0.01  -0.01    -0.02   0.04  -0.06    -0.01   0.04  -0.10
  44   1    -0.01  -0.06   0.02     0.03   0.02  -0.01     0.01  -0.12   0.04
  45   1    -0.01  -0.02   0.00    -0.01   0.03  -0.03    -0.04   0.00  -0.02
  46   1    -0.02  -0.03   0.07    -0.04  -0.02  -0.07     0.06   0.06   0.05
  47   1    -0.02  -0.01   0.06     0.00   0.00  -0.04    -0.02   0.01   0.00
  48   1     0.13   0.13   0.00    -0.05  -0.04   0.02    -0.02  -0.06  -0.04
  49   1     0.04   0.05   0.06     0.05   0.04  -0.04    -0.02  -0.04  -0.06
  50   1    -0.05   0.03   0.00     0.05  -0.03   0.00    -0.02   0.03  -0.01
  51   1    -0.02   0.02   0.00     0.03  -0.01   0.02    -0.01   0.02  -0.02
  52   1     0.05   0.02  -0.09    -0.04   0.02   0.10     0.02   0.05   0.05
  53   1     0.02  -0.01  -0.12     0.00   0.01   0.11     0.02   0.01   0.03
  54   1     0.01   0.01   0.00    -0.02  -0.01   0.00     0.01   0.02  -0.00
  55   1    -0.01  -0.01  -0.00    -0.01   0.01   0.01    -0.02  -0.01  -0.01
                     25                     26                     27
                        a                      a                      a 
 Frequencies --   140.6791               149.2589               152.4395
 Red. masses --    15.4580                14.3446                12.9614
 Frc consts  --     0.0000                 0.0000                 0.0000
 IR Inten    --     5.8790               177.0760                39.4675
 Raman Activ --     0.0000                 0.0000                 0.0000
 Depolar     --     0.0000                 0.0000                 0.0000
 Atom AN      X      Y      Z        X      Y      Z        X      Y      Z
   1  26     0.09   0.04  -0.17    -0.15   0.18   0.02    -0.09  -0.10  -0.07
   2   8     0.22  -0.07   0.05     0.05  -0.08   0.09    -0.06   0.02   0.33
   3   8    -0.02   0.05   0.24     0.06  -0.16   0.05     0.03   0.01  -0.10
   4   8    -0.01  -0.01   0.15     0.01  -0.01  -0.03     0.02   0.00   0.04
   5   8     0.04   0.06  -0.13     0.03  -0.31   0.04     0.19  -0.20  -0.21
   6   8     0.07   0.09   0.16     0.01   0.04  -0.06    -0.10  -0.10  -0.11
   7   8    -0.03   0.06  -0.07    -0.03   0.11  -0.04     0.02  -0.03   0.03
   8   1     0.02   0.01   0.07     0.01   0.02  -0.01    -0.03  -0.01  -0.04
   9   1    -0.01   0.03   0.04     0.01   0.01  -0.02    -0.00  -0.02  -0.02
  10   1    -0.01   0.02  -0.02    -0.01   0.02  -0.01     0.00  -0.00   0.01
  11   1    -0.01   0.00  -0.01    -0.00   0.04  -0.02     0.01  -0.01   0.01
  12   1     0.09  -0.03   0.01     0.03  -0.04   0.01    -0.01   0.00   0.08
  13   1     0.03  -0.01   0.01     0.02  -0.01   0.01     0.00   0.01   0.08
  14   1     0.00  -0.00   0.02     0.00  -0.00  -0.01     0.01  -0.00   0.01
  15   1    -0.00   0.00   0.02    -0.00  -0.01   0.00     0.00   0.00   0.00
  16   1    -0.01   0.01   0.05     0.02  -0.04   0.02     0.01   0.01  -0.02
  17   1    -0.00   0.01   0.04     0.01  -0.06  -0.00     0.01   0.01  -0.02
  18   1     0.01   0.01  -0.03    -0.00  -0.08  -0.01     0.05  -0.04  -0.08
  19   1     0.01   0.01  -0.03     0.01  -0.07  -0.01     0.04  -0.05  -0.06
  20   8    -0.25   0.12  -0.14    -0.36   0.06  -0.03    -0.01  -0.07  -0.08
  21   8     0.06  -0.08   0.09     0.04   0.03  -0.08     0.02  -0.06   0.07
  22   8    -0.04  -0.03  -0.07    -0.06  -0.01   0.00     0.05   0.16   0.08
  23   8    -0.07  -0.17   0.10     0.17  -0.11   0.17    -0.08   0.23  -0.14
  24   8     0.13   0.00   0.21    -0.04   0.05   0.24    -0.11   0.18   0.09
  25   8    -0.02  -0.03  -0.06     0.03   0.06  -0.02     0.19  -0.09  -0.07
  26   8    -0.03  -0.00  -0.13    -0.15  -0.04  -0.03     0.01  -0.00   0.08
  27   8     0.11  -0.03   0.04     0.16  -0.11  -0.09     0.10  -0.01   0.10
  28   8    -0.09  -0.06  -0.18     0.18   0.09  -0.18     0.14   0.25   0.08
  29   8     0.16  -0.12   0.11    -0.00   0.10   0.01    -0.15  -0.14   0.03
  30   8    -0.31  -0.14  -0.10     0.15   0.15   0.02    -0.10  -0.10  -0.11
  31   8    -0.07   0.36   0.02     0.05  -0.20  -0.05    -0.08   0.08   0.01
  32   1    -0.00  -0.00  -0.02    -0.00  -0.01   0.02     0.02   0.01   0.00
  33   1     0.04  -0.03  -0.02    -0.12   0.07  -0.00     0.27  -0.11  -0.10
  34   1    -0.11   0.03  -0.03    -0.18  -0.02  -0.01    -0.03  -0.03  -0.02
  35   1    -0.04   0.00  -0.02    -0.06  -0.03   0.06     0.01  -0.04  -0.01
  36   1     0.02   0.01   0.03    -0.02   0.02   0.05    -0.03   0.05   0.02
  37   1     0.05  -0.03   0.05     0.02  -0.00   0.04     0.01   0.03   0.01
  38   1     0.02  -0.02   0.06     0.03   0.04  -0.08    -0.04  -0.10   0.07
  39   1     0.04  -0.03   0.04    -0.02   0.02   0.00     0.02  -0.00   0.02
  40   1    -0.00  -0.03  -0.03    -0.06   0.09   0.07    -0.04   0.17   0.10
  41   1    -0.01  -0.06   0.06     0.02   0.17  -0.25     0.03   0.17   0.01
  42   1    -0.02  -0.03   0.01     0.05  -0.02   0.02    -0.04   0.04  -0.02
  43   1    -0.03  -0.04   0.03     0.02  -0.01   0.05     0.01   0.03  -0.05
  44   1    -0.03   0.16  -0.02    -0.01  -0.06  -0.00    -0.02   0.05  -0.01
  45   1    -0.01   0.03   0.03     0.03  -0.04   0.01    -0.02   0.04  -0.01
  46   1    -0.11  -0.06  -0.05     0.06   0.06   0.02    -0.06  -0.05  -0.06
  47   1    -0.07  -0.03  -0.03     0.01   0.03  -0.00     0.01  -0.01  -0.01
  48   1    -0.03  -0.01  -0.05    -0.00  -0.05   0.01     0.05   0.06   0.04
  49   1    -0.03  -0.03  -0.04     0.05   0.03  -0.05     0.01   0.06   0.03
  50   1    -0.01  -0.01  -0.01     0.03  -0.01  -0.02     0.03  -0.01   0.02
  51   1     0.02  -0.01   0.02     0.04  -0.02  -0.03     0.02  -0.00   0.03
  52   1    -0.03  -0.01  -0.03    -0.07  -0.04  -0.01     0.00  -0.00   0.02
  53   1     0.00  -0.01  -0.02    -0.02  -0.02   0.02    -0.00   0.00   0.02
  54   1     0.01  -0.03  -0.01     0.00   0.01  -0.00    -0.00  -0.02   0.00
  55   1     0.02   0.01   0.02     0.01  -0.01  -0.02    -0.00  -0.00   0.02
                     28                     29                     30
                        a                      a                      a 
 Frequencies --   163.7498               167.3229               175.2597
 Red. masses --    13.4503                13.5120                13.9407
 Frc consts  --     0.0000                 0.0000                 0.0000
 IR Inten    --    44.6004                11.1830                20.6208
 Raman Activ --     0.0000                 0.0000                 0.0000
 Depolar     --     0.0000                 0.0000                 0.0000
 Atom AN      X      Y      Z        X      Y      Z        X      Y      Z
   1  26     0.03   0.10  -0.05     0.04   0.02  -0.03    -0.07  -0.07  -0.10
   2   8     0.11   0.02   0.03    -0.07   0.03   0.16     0.03   0.06   0.21
   3   8     0.01  -0.13  -0.13    -0.07  -0.01  -0.25     0.03   0.11   0.32
   4   8     0.04   0.03   0.05     0.03  -0.06  -0.13    -0.03   0.02   0.05
   5   8    -0.02  -0.09   0.05    -0.12  -0.28   0.30    -0.14  -0.13   0.04
   6   8    -0.03   0.15   0.01     0.00   0.24   0.06     0.01  -0.15   0.06
   7   8    -0.15  -0.16   0.14    -0.01  -0.07   0.03     0.10   0.19  -0.17
   8   1    -0.01   0.03  -0.01    -0.00   0.02   0.01     0.00  -0.01  -0.00
   9   1     0.00   0.02   0.00     0.00   0.03   0.02     0.02  -0.02   0.02
  10   1    -0.02  -0.03   0.02    -0.00  -0.01   0.01     0.03   0.04  -0.04
  11   1    -0.04  -0.02   0.02    -0.00  -0.02   0.02     0.02   0.04  -0.05
  12   1     0.05  -0.00   0.01    -0.02   0.00   0.04     0.00   0.01   0.05
  13   1     0.02   0.01   0.01    -0.00   0.01   0.04     0.02   0.02   0.05
  14   1     0.01  -0.00   0.01     0.01  -0.02  -0.03    -0.01   0.02   0.01
  15   1     0.01   0.01  -0.00     0.00  -0.02  -0.04     0.00   0.01   0.01
  16   1     0.04  -0.04  -0.02    -0.01  -0.01  -0.07    -0.02   0.02   0.06
  17   1    -0.02  -0.06  -0.02    -0.01   0.02  -0.03     0.01   0.02   0.04
  18   1    -0.01  -0.02   0.00    -0.03  -0.05   0.05    -0.03  -0.02  -0.00
  19   1    -0.01  -0.02   0.01    -0.03  -0.06   0.06    -0.04  -0.03  -0.00
  20   8     0.03  -0.02  -0.04    -0.05  -0.06  -0.03     0.32  -0.01   0.04
  21   8     0.15   0.29  -0.28     0.08  -0.16   0.19    -0.20   0.11  -0.10
  22   8    -0.02  -0.01  -0.01    -0.02  -0.04  -0.04     0.00   0.01  -0.03
  23   8    -0.04   0.02   0.01     0.01   0.04  -0.02    -0.01  -0.17  -0.02
  24   8    -0.03   0.06  -0.01     0.20   0.17  -0.17    -0.07   0.20  -0.22
  25   8    -0.01  -0.06  -0.05     0.03  -0.06  -0.07     0.08  -0.07  -0.08
  26   8     0.13   0.07   0.02     0.07  -0.00  -0.03    -0.08  -0.00   0.00
  27   8    -0.36  -0.26  -0.08    -0.07   0.18   0.11     0.04  -0.03  -0.11
  28   8    -0.06   0.06  -0.03    -0.24  -0.15  -0.01    -0.05  -0.23  -0.11
  29   8     0.06  -0.06   0.11     0.15   0.09   0.19     0.06   0.12   0.16
  30   8    -0.04  -0.14  -0.02     0.08  -0.06   0.01    -0.10   0.08   0.06
  31   8     0.15   0.11   0.35    -0.04   0.11  -0.20     0.10  -0.02   0.12
  32   1    -0.00  -0.01  -0.00    -0.00  -0.02  -0.01     0.01  -0.01  -0.01
  33   1     0.02  -0.02  -0.04     0.05  -0.03  -0.06     0.13  -0.05  -0.07
  34   1    -0.02  -0.02  -0.01     0.01  -0.01  -0.01     0.02  -0.03  -0.00
  35   1     0.02  -0.02   0.02    -0.03   0.01  -0.01     0.16  -0.10  -0.01
  36   1    -0.00   0.01   0.01     0.03   0.04  -0.01    -0.01   0.05  -0.02
  37   1     0.00   0.02  -0.01     0.02   0.06  -0.03    -0.01   0.08  -0.06
  38   1     0.03  -0.02   0.01     0.07   0.07  -0.07     0.04   0.07  -0.05
  39   1     0.02  -0.01   0.04    -0.01  -0.01   0.03    -0.02  -0.00   0.02
  40   1    -0.02   0.03   0.01    -0.04   0.07   0.04    -0.03   0.08   0.05
  41   1    -0.02   0.06  -0.05    -0.01   0.14  -0.12     0.00   0.13  -0.06
  42   1    -0.01   0.00  -0.01     0.00   0.01  -0.01    -0.01  -0.03  -0.00
  43   1    -0.02   0.01   0.01     0.00   0.01  -0.00    -0.00  -0.04  -0.00
  44   1     0.11  -0.12   0.14    -0.05   0.12  -0.08     0.07  -0.08   0.05
  45   1     0.02   0.02   0.05     0.00   0.01  -0.02     0.01  -0.01   0.01
  46   1    -0.02  -0.06  -0.02     0.04  -0.01   0.02    -0.03   0.04   0.02
  47   1     0.02  -0.02  -0.01     0.01  -0.02  -0.01    -0.05   0.01   0.01
  48   1    -0.13  -0.11   0.05    -0.12  -0.08  -0.00     0.06   0.02  -0.06
  49   1     0.03   0.01  -0.03    -0.02  -0.05  -0.03    -0.04  -0.06  -0.01
  50   1    -0.03  -0.06   0.02    -0.01   0.03   0.02    -0.01   0.00  -0.03
  51   1    -0.09  -0.05  -0.06     0.01   0.03   0.05    -0.01   0.00  -0.03
  52   1     0.05   0.07   0.03     0.05  -0.02  -0.04    -0.06  -0.01   0.01
  53   1     0.02  -0.03  -0.03    -0.00   0.03  -0.02     0.01  -0.01   0.03
  54   1     0.13   0.09  -0.13     0.01  -0.05   0.04    -0.09   0.02   0.01
  55   1    -0.00   0.09  -0.06     0.03  -0.03   0.05    -0.03   0.01  -0.03
                     31                     32                     33
                        a                      a                      a 
 Frequencies --   179.1896               182.6765               193.2644
 Red. masses --    14.7277                15.3705                 9.8013
 Frc consts  --     0.0000                 0.0000                 0.0000
 IR Inten    --    39.3463                 1.7024                82.0524
 Raman Activ --     0.0000                 0.0000                 0.0000
 Depolar     --     0.0000                 0.0000                 0.0000
 Atom AN      X      Y      Z        X      Y      Z        X      Y      Z
   1  26    -0.13   0.11   0.04    -0.09  -0.03   0.21     0.01   0.00  -0.01
   2   8     0.47   0.04  -0.03     0.31  -0.01   0.06    -0.12  -0.03  -0.02
   3   8    -0.04  -0.17   0.01     0.02   0.06  -0.20     0.05   0.06   0.21
   4   8    -0.11  -0.06   0.04    -0.03   0.01   0.02     0.04  -0.01   0.01
   5   8    -0.07   0.12  -0.15     0.06   0.09   0.01     0.12  -0.02  -0.02
   6   8    -0.01  -0.05  -0.06     0.00   0.06   0.00     0.16  -0.09   0.04
   7   8    -0.17  -0.18   0.16     0.15   0.18  -0.17    -0.02   0.11  -0.02
   8   1     0.00   0.03  -0.03     0.00   0.02  -0.00     0.05   0.05  -0.01
   9   1     0.02  -0.00  -0.01     0.00  -0.01   0.00     0.06  -0.03   0.01
  10   1    -0.04  -0.03   0.03     0.05   0.03  -0.04    -0.00   0.04  -0.01
  11   1    -0.04  -0.04   0.04     0.03   0.03  -0.05    -0.01   0.01   0.01
  12   1     0.16   0.01  -0.01     0.07   0.00   0.02    -0.03  -0.03  -0.02
  13   1     0.07   0.02   0.01     0.05   0.01   0.02    -0.02  -0.00  -0.02
  14   1    -0.03  -0.01   0.00    -0.00  -0.02   0.00     0.02  -0.02  -0.00
  15   1    -0.02  -0.02   0.02    -0.02   0.00   0.00    -0.01  -0.00   0.01
  16   1    -0.00  -0.03   0.02     0.02   0.00  -0.06     0.04  -0.02   0.03
  17   1    -0.01  -0.04   0.00    -0.00   0.02  -0.03    -0.00  -0.01   0.06
  18   1    -0.02   0.04  -0.05     0.01   0.04  -0.03     0.03  -0.02   0.01
  19   1    -0.02   0.02  -0.02     0.02   0.02   0.01     0.02  -0.00  -0.01
  20   8     0.16   0.04   0.16    -0.16  -0.04   0.18     0.18   0.10  -0.07
  21   8     0.25  -0.12   0.11    -0.19   0.04  -0.02     0.12  -0.02   0.11
  22   8    -0.03  -0.08  -0.05     0.01   0.04  -0.03     0.01   0.02   0.03
  23   8    -0.04  -0.10  -0.05    -0.08  -0.38  -0.11    -0.00   0.02  -0.02
  24   8    -0.17   0.17  -0.06    -0.03   0.20  -0.02    -0.29  -0.06   0.06
  25   8    -0.06  -0.11  -0.08    -0.09  -0.11  -0.10    -0.00   0.01   0.02
  26   8     0.07   0.04   0.10    -0.01  -0.01  -0.02     0.04   0.00  -0.20
  27   8    -0.02   0.15  -0.09     0.01  -0.05   0.14    -0.24   0.09   0.08
  28   8     0.15  -0.06  -0.05    -0.13   0.18   0.08    -0.13   0.15  -0.07
  29   8    -0.05   0.04   0.01    -0.04  -0.02  -0.09    -0.08   0.10   0.03
  30   8    -0.01   0.13   0.11     0.27  -0.11  -0.10     0.20  -0.22  -0.05
  31   8    -0.12  -0.03  -0.14     0.06  -0.01   0.03    -0.05  -0.06  -0.12
  32   1    -0.01  -0.02  -0.01    -0.01   0.00  -0.02    -0.00   0.00   0.00
  33   1     0.02  -0.03  -0.06     0.08  -0.07  -0.07    -0.01   0.01   0.02
  34   1    -0.03  -0.01   0.04     0.04   0.01   0.04    -0.26  -0.04   0.00
  35   1     0.10  -0.06   0.06    -0.10   0.06   0.02     0.24  -0.23   0.08
  36   1    -0.01   0.04  -0.01     0.01   0.05  -0.01    -0.07  -0.02   0.03
  37   1    -0.03   0.06  -0.02    -0.05   0.06   0.02     0.04  -0.01  -0.04
  38   1    -0.01   0.02  -0.00    -0.02  -0.02  -0.00    -0.01   0.03  -0.01
  39   1    -0.02   0.00  -0.01    -0.01   0.01  -0.01    -0.02   0.02  -0.00
  40   1    -0.01  -0.02  -0.01     0.03  -0.05  -0.06     0.01  -0.01  -0.01
  41   1    -0.04   0.05  -0.07    -0.03  -0.08   0.09     0.01  -0.04   0.04
  42   1    -0.01  -0.03  -0.02    -0.04  -0.07  -0.02    -0.00   0.01  -0.00
  43   1    -0.01  -0.03  -0.01    -0.03  -0.08  -0.02     0.00  -0.01  -0.01
  44   1    -0.08   0.12  -0.08     0.05  -0.04   0.02    -0.04   0.06  -0.06
  45   1    -0.02  -0.02  -0.01     0.01  -0.03  -0.01    -0.00  -0.01  -0.01
  46   1     0.03   0.06   0.06     0.07  -0.04  -0.03     0.08  -0.07   0.01
  47   1    -0.03   0.02   0.02     0.09  -0.02  -0.02     0.07  -0.05  -0.02
  48   1     0.06  -0.01   0.01    -0.14  -0.06   0.05    -0.27  -0.22   0.09
  49   1     0.02   0.01  -0.01     0.02   0.04  -0.01     0.07   0.04  -0.08
  50   1    -0.02   0.04  -0.04     0.04  -0.02   0.05    -0.02   0.00   0.03
  51   1     0.02   0.02  -0.00    -0.01  -0.00   0.03    -0.04   0.01   0.02
  52   1     0.04   0.06   0.05    -0.01  -0.06  -0.04    -0.02  -0.05  -0.07
  53   1     0.01   0.01   0.02    -0.00   0.02   0.00     0.02  -0.01  -0.04
  54   1     0.11  -0.02   0.01    -0.10  -0.00   0.02     0.05   0.01   0.03
  55   1     0.04  -0.03   0.04    -0.03   0.01  -0.01     0.03  -0.01   0.03
                     34                     35                     36
                        a                      a                      a 
 Frequencies --   196.3643               197.2342               202.7780
 Red. masses --    13.7964                13.4222                10.4576
 Frc consts  --     0.0000                 0.0000                 0.0000
 IR Inten    --   105.6780                72.6686                35.9996
 Raman Activ --     0.0000                 0.0000                 0.0000
 Depolar     --     0.0000                 0.0000                 0.0000
 Atom AN      X      Y      Z        X      Y      Z        X      Y      Z
   1  26     0.15  -0.03  -0.01     0.02   0.06  -0.03    -0.11  -0.00  -0.08
   2   8     0.01   0.06   0.02    -0.10   0.00  -0.04     0.12   0.01  -0.06
   3   8    -0.06  -0.26  -0.05    -0.00  -0.19  -0.05    -0.09  -0.04   0.18
   4   8     0.07  -0.02  -0.25    -0.04  -0.06  -0.09    -0.01   0.07   0.16
   5   8    -0.11   0.02  -0.13     0.27  -0.19   0.22    -0.05  -0.05  -0.03
   6   8     0.13  -0.17   0.08     0.03   0.40  -0.03     0.06   0.12  -0.02
   7   8     0.16   0.12  -0.13     0.06   0.01  -0.12     0.11  -0.37  -0.23
   8   1     0.03  -0.03   0.00     0.01   0.09  -0.01     0.01   0.02  -0.01
   9   1     0.05  -0.04   0.02     0.00   0.05  -0.01     0.02   0.01  -0.01
  10   1     0.04   0.03  -0.03     0.01  -0.01  -0.02     0.02  -0.13  -0.04
  11   1     0.04   0.02  -0.03     0.01   0.00  -0.03     0.04  -0.05  -0.08
  12   1    -0.02   0.03   0.01    -0.04  -0.00  -0.01     0.03   0.01  -0.01
  13   1     0.01   0.01   0.01    -0.02   0.00  -0.01     0.03  -0.00  -0.01
  14   1     0.02  -0.01  -0.05    -0.01  -0.01  -0.01     0.01   0.01   0.03
  15   1     0.01  -0.01  -0.06    -0.00  -0.02  -0.02    -0.01   0.02   0.04
  16   1     0.02  -0.06   0.01     0.01  -0.03   0.01     0.02  -0.05   0.03
  17   1    -0.02  -0.08   0.00     0.00  -0.05  -0.01    -0.04  -0.02   0.09
  18   1    -0.03  -0.01  -0.01     0.06  -0.04   0.03    -0.02  -0.02  -0.01
  19   1    -0.02  -0.00  -0.03     0.07  -0.04   0.04    -0.01  -0.01  -0.01
  20   8    -0.09   0.10   0.40     0.08  -0.01  -0.04     0.07  -0.05  -0.15
  21   8    -0.12   0.08   0.09    -0.08   0.02   0.04    -0.26  -0.02   0.00
  22   8    -0.05  -0.11  -0.04     0.06   0.19   0.07    -0.01  -0.03  -0.01
  23   8     0.02   0.18   0.06    -0.07  -0.22  -0.09     0.08   0.05   0.06
  24   8    -0.17  -0.07   0.03    -0.24  -0.06   0.08    -0.05  -0.03   0.07
  25   8     0.08   0.00   0.01    -0.07   0.01  -0.01     0.11   0.06   0.04
  26   8    -0.03  -0.01  -0.12    -0.01   0.01   0.08     0.14   0.03   0.05
  27   8    -0.17   0.15  -0.11    -0.01   0.16  -0.20     0.02   0.18   0.10
  28   8     0.09   0.02   0.00     0.19  -0.10   0.03     0.01   0.08  -0.03
  29   8     0.11  -0.16  -0.01    -0.00  -0.14  -0.05    -0.02   0.05  -0.03
  30   8    -0.11  -0.06   0.09    -0.18   0.07   0.17     0.07  -0.08  -0.06
  31   8    -0.03   0.15   0.07     0.06   0.09  -0.01    -0.09  -0.04   0.05
  32   1     0.00  -0.02   0.00    -0.00   0.03  -0.01     0.01  -0.00   0.00
  33   1    -0.01   0.01  -0.01     0.08  -0.04   0.01    -0.05   0.05   0.04
  34   1     0.14   0.02   0.06    -0.04  -0.03  -0.01     0.18   0.02  -0.06
  35   1    -0.10   0.11   0.03     0.05  -0.04   0.03    -0.08   0.11  -0.08
  36   1    -0.00  -0.03  -0.00    -0.05  -0.02   0.03    -0.00  -0.01   0.00
  37   1    -0.08  -0.01   0.02    -0.01  -0.01  -0.01    -0.02  -0.01   0.02
  38   1     0.01  -0.06   0.06    -0.00  -0.05  -0.00     0.01   0.01  -0.04
  39   1     0.06  -0.03  -0.01     0.00  -0.03  -0.00    -0.02   0.02   0.01
  40   1    -0.05   0.05   0.06     0.06  -0.03  -0.05    -0.03   0.04   0.04
  41   1     0.00   0.12  -0.12     0.02  -0.17   0.22     0.02   0.06  -0.07
  42   1     0.01   0.03   0.01    -0.04  -0.03  -0.00     0.03  -0.00   0.01
  43   1     0.01   0.04   0.01    -0.02  -0.03  -0.01     0.02   0.04   0.03
  44   1    -0.01   0.03   0.02     0.03   0.04  -0.01    -0.03  -0.04   0.03
  45   1    -0.01   0.04   0.02     0.01  -0.01  -0.01    -0.02   0.01   0.02
  46   1     0.01  -0.00   0.06    -0.01   0.04   0.07     0.02  -0.05  -0.01
  47   1    -0.02  -0.01   0.02    -0.06   0.01   0.04     0.04  -0.01  -0.02
  48   1    -0.07  -0.11   0.05     0.04  -0.05   0.03    -0.15  -0.15   0.07
  49   1     0.06   0.01  -0.03     0.04  -0.02   0.01     0.07   0.03  -0.05
  50   1    -0.05   0.04  -0.03    -0.04   0.04  -0.07    -0.02   0.05   0.01
  51   1    -0.02   0.02  -0.01     0.00   0.03  -0.03     0.01   0.05   0.03
  52   1    -0.02  -0.10  -0.09    -0.01   0.03   0.04     0.06   0.32   0.23
  53   1    -0.01   0.04  -0.01     0.01   0.02   0.04     0.06  -0.05   0.03
  54   1    -0.07   0.01   0.04    -0.05   0.00   0.03    -0.17  -0.03   0.07
  55   1    -0.01   0.02   0.02    -0.00   0.00   0.01    -0.04  -0.03  -0.01
                     37                     38                     39
                        a                      a                      a 
 Frequencies --   205.9569               214.6916               220.2732
 Red. masses --    15.4880                11.3399                12.4143
 Frc consts  --     0.0000                 0.0000                 0.0000
 IR Inten    --   196.8112                28.9219                25.6472
 Raman Activ --     0.0000                 0.0000                 0.0000
 Depolar     --     0.0000                 0.0000                 0.0000
 Atom AN      X      Y      Z        X      Y      Z        X      Y      Z
   1  26    -0.01   0.01  -0.22     0.05  -0.03   0.13     0.12   0.08   0.05
   2   8     0.03   0.11  -0.19     0.06  -0.08  -0.08    -0.17  -0.01   0.16
   3   8    -0.09  -0.11   0.14     0.03  -0.00  -0.20     0.12   0.02   0.13
   4   8     0.10  -0.02   0.01    -0.02  -0.03  -0.06    -0.08  -0.11   0.04
   5   8    -0.06  -0.16   0.14     0.01   0.12  -0.05    -0.03   0.12  -0.08
   6   8    -0.22  -0.18  -0.18    -0.15  -0.11  -0.24    -0.21  -0.09  -0.08
   7   8    -0.10   0.03  -0.05     0.16  -0.14  -0.06    -0.04   0.05   0.00
   8   1    -0.06  -0.08  -0.07    -0.04  -0.00  -0.11    -0.06  -0.07  -0.03
   9   1    -0.03  -0.02  -0.04     0.02  -0.05  -0.05    -0.04  -0.00  -0.02
  10   1    -0.03   0.01  -0.01     0.02  -0.03  -0.01    -0.01  -0.01   0.01
  11   1    -0.02   0.00  -0.00     0.05  -0.02  -0.02    -0.01   0.02   0.00
  12   1     0.00   0.05  -0.04     0.01  -0.05  -0.03    -0.07   0.01   0.04
  13   1    -0.00   0.02  -0.03     0.01  -0.01  -0.03    -0.03  -0.00   0.04
  14   1     0.03  -0.01  -0.01    -0.00  -0.03   0.00    -0.02  -0.04   0.01
  15   1     0.01  -0.01  -0.00    -0.01   0.01  -0.05    -0.03  -0.03   0.01
  16   1     0.00  -0.04   0.04    -0.02   0.01  -0.05     0.05  -0.01   0.03
  17   1    -0.03  -0.04   0.05     0.02   0.02  -0.05     0.01  -0.03   0.02
  18   1    -0.02  -0.05   0.03     0.01   0.02   0.01    -0.01   0.03  -0.02
  19   1    -0.01  -0.03   0.01    -0.00   0.03  -0.01    -0.00   0.02  -0.01
  20   8    -0.09   0.15   0.37    -0.08   0.12  -0.03    -0.01  -0.10  -0.13
  21   8     0.08   0.00   0.04    -0.18  -0.08  -0.10     0.08   0.13   0.12
  22   8     0.14   0.23   0.14     0.01   0.02   0.03    -0.01   0.00  -0.01
  23   8    -0.07  -0.11  -0.11     0.03   0.09   0.05    -0.01  -0.08   0.03
  24   8     0.21  -0.14  -0.09     0.14   0.06  -0.01     0.17   0.03  -0.01
  25   8     0.00   0.09   0.07     0.01   0.00   0.01    -0.06  -0.06  -0.05
  26   8     0.07   0.02  -0.00    -0.05  -0.03   0.05    -0.06  -0.04   0.04
  27   8     0.01  -0.08   0.09     0.11   0.21  -0.12     0.03   0.04  -0.42
  28   8     0.06   0.09  -0.12    -0.04  -0.03  -0.03    -0.01   0.16  -0.03
  29   8    -0.06   0.09   0.22    -0.07   0.01   0.36    -0.07   0.04   0.03
  30   8     0.04  -0.00  -0.10    -0.02  -0.11   0.16     0.07  -0.26   0.25
  31   8    -0.06   0.02  -0.01    -0.01   0.14   0.12     0.10   0.00  -0.10
  32   1     0.01   0.04   0.01     0.00   0.01   0.01    -0.01  -0.00  -0.00
  33   1     0.12  -0.03   0.04    -0.10   0.04   0.02     0.04  -0.03  -0.05
  34   1     0.05   0.03   0.07    -0.34  -0.02   0.03     0.18   0.00  -0.06
  35   1    -0.03   0.04   0.03     0.17  -0.21   0.09    -0.14   0.15  -0.05
  36   1     0.04  -0.03  -0.02     0.01   0.02   0.02     0.03   0.01  -0.01
  37   1     0.04  -0.03  -0.01     0.14   0.01  -0.06    -0.02   0.00   0.03
  38   1     0.03   0.02  -0.05     0.00  -0.01   0.05    -0.01   0.01  -0.01
  39   1    -0.02   0.01   0.04    -0.01  -0.00   0.07    -0.02   0.01   0.00
  40   1     0.04   0.06   0.01     0.03  -0.06  -0.03     0.01  -0.03  -0.03
  41   1     0.08  -0.09   0.20    -0.02  -0.04  -0.01    -0.03  -0.01   0.00
  42   1    -0.04  -0.01  -0.01     0.02   0.00   0.01    -0.01  -0.01   0.01
  43   1    -0.02  -0.02  -0.03     0.02   0.02   0.01    -0.02   0.00   0.02
  44   1    -0.02   0.02  -0.01     0.04  -0.13   0.09     0.01   0.14  -0.08
  45   1    -0.02  -0.00   0.00    -0.01   0.04   0.02     0.03  -0.04  -0.01
  46   1     0.00  -0.00  -0.03     0.03  -0.04   0.07     0.14  -0.07   0.16
  47   1     0.00  -0.00  -0.03    -0.00  -0.03   0.02     0.04  -0.05   0.03
  48   1    -0.04  -0.06   0.03    -0.03  -0.02   0.00    -0.13  -0.09   0.04
  49   1     0.01   0.03  -0.03    -0.01  -0.01  -0.01     0.04   0.02  -0.03
  50   1    -0.00  -0.01   0.03     0.00   0.05  -0.05    -0.06   0.01  -0.15
  51   1     0.01  -0.02   0.02     0.03   0.05  -0.01    -0.00  -0.00  -0.07
  52   1     0.00   0.08   0.06    -0.00   0.00   0.02    -0.03   0.10   0.09
  53   1     0.03  -0.04   0.00    -0.01   0.03   0.03     0.01  -0.03   0.03
  54   1     0.04   0.01   0.00    -0.11  -0.04  -0.03     0.04   0.05   0.07
  55   1     0.01   0.00   0.01    -0.06   0.01  -0.02     0.05   0.00   0.02
                     40                     41                     42
                        a                      a                      a 
 Frequencies --   222.2604               226.1118               232.3714
 Red. masses --    14.7374                11.8550                13.2956
 Frc consts  --     0.0000                 0.0000                 0.0000
 IR Inten    --   171.4338                63.9671               112.5188
 Raman Activ --     0.0000                 0.0000                 0.0000
 Depolar     --     0.0000                 0.0000                 0.0000
 Atom AN      X      Y      Z        X      Y      Z        X      Y      Z
   1  26    -0.23  -0.09  -0.06     0.07  -0.20   0.05     0.10  -0.17  -0.10
   2   8     0.24   0.08  -0.24     0.08   0.01  -0.03    -0.06   0.04   0.03
   3   8     0.03   0.17   0.03     0.00  -0.25   0.11    -0.06  -0.08  -0.06
   4   8    -0.11   0.00  -0.02     0.09   0.11   0.30     0.05   0.07   0.16
   5   8    -0.08  -0.20   0.06    -0.03   0.05   0.00    -0.05   0.01   0.05
   6   8     0.13   0.01   0.14    -0.24   0.26  -0.16    -0.26   0.20   0.31
   7   8    -0.06   0.07   0.15     0.14   0.06   0.13    -0.01  -0.01  -0.06
   8   1     0.03   0.00   0.04    -0.07  -0.02  -0.04    -0.07  -0.04   0.15
   9   1     0.02  -0.01   0.03    -0.07   0.04  -0.04    -0.14   0.10   0.07
  10   1    -0.01   0.05   0.02     0.06   0.08  -0.00    -0.02  -0.01  -0.00
  11   1    -0.02   0.01   0.05     0.02  -0.01   0.03     0.01   0.00  -0.00
  12   1     0.09   0.03  -0.05     0.00   0.01  -0.00    -0.03   0.00   0.00
  13   1     0.04   0.01  -0.04     0.01   0.00  -0.00    -0.00   0.01   0.00
  14   1    -0.03  -0.03   0.01     0.03   0.04   0.05     0.01   0.01   0.04
  15   1    -0.04   0.00  -0.01     0.02   0.04   0.06     0.01   0.01   0.05
  16   1    -0.02   0.05  -0.00     0.01  -0.07   0.03    -0.03   0.01   0.01
  17   1     0.02   0.05  -0.03    -0.00  -0.08   0.01     0.00   0.00  -0.01
  18   1    -0.03  -0.06   0.01    -0.00   0.02   0.00    -0.01   0.02  -0.00
  19   1    -0.01  -0.05  -0.00    -0.01   0.01   0.00    -0.01   0.00   0.01
  20   8     0.01  -0.05  -0.07     0.08  -0.05  -0.12    -0.01   0.19   0.23
  21   8     0.04  -0.09  -0.09    -0.05  -0.02  -0.01    -0.01  -0.01  -0.04
  22   8     0.05   0.05   0.05    -0.01  -0.03  -0.01    -0.04  -0.10  -0.05
  23   8    -0.02   0.08  -0.14    -0.00   0.06  -0.02     0.00   0.01   0.01
  24   8     0.00  -0.11   0.02     0.11   0.03  -0.03     0.09  -0.00  -0.14
  25   8     0.09   0.13   0.12     0.00  -0.00   0.01     0.05  -0.00   0.01
  26   8    -0.09   0.01   0.09    -0.05   0.07  -0.10    -0.01  -0.04   0.03
  27   8     0.20   0.12  -0.23    -0.09   0.11   0.03     0.08   0.04  -0.09
  28   8    -0.12   0.10   0.04     0.15  -0.02  -0.07     0.03   0.19  -0.02
  29   8     0.08  -0.05  -0.08    -0.09   0.14  -0.02     0.08   0.01  -0.38
  30   8     0.09  -0.21   0.18    -0.11  -0.01  -0.02     0.02  -0.16   0.06
  31   8    -0.12   0.07   0.14    -0.04  -0.11  -0.02     0.00  -0.08   0.01
  32   1     0.01   0.01   0.00    -0.00  -0.00   0.00    -0.00  -0.02  -0.01
  33   1     0.06   0.00   0.08    -0.01   0.01   0.00     0.01  -0.00   0.00
  34   1     0.06   0.03   0.01     0.08   0.01  -0.03    -0.25  -0.01   0.08
  35   1    -0.03   0.03  -0.07    -0.03   0.06  -0.03     0.18  -0.19   0.09
  36   1     0.01  -0.03  -0.01     0.04   0.01  -0.01     0.03  -0.00  -0.03
  37   1    -0.03  -0.04   0.02     0.01   0.01   0.00    -0.01   0.01  -0.02
  38   1     0.02  -0.00  -0.03    -0.00   0.03  -0.05    -0.02  -0.02   0.03
  39   1     0.00  -0.02  -0.01    -0.04   0.05   0.03     0.03   0.03  -0.05
  40   1    -0.03   0.13   0.08    -0.00  -0.01  -0.00    -0.04   0.02   0.03
  41   1     0.09   0.05   0.05    -0.01   0.02  -0.03     0.00   0.07  -0.06
  42   1    -0.02   0.01  -0.02     0.00   0.01  -0.00    -0.00  -0.00   0.00
  43   1     0.02  -0.01  -0.05     0.01  -0.00  -0.02     0.01  -0.02  -0.01
  44   1     0.01  -0.09   0.07    -0.01  -0.05   0.00    -0.00   0.02  -0.02
  45   1    -0.04   0.03   0.01    -0.01   0.00  -0.02    -0.00  -0.01  -0.01
  46   1     0.09  -0.05   0.10    -0.09  -0.04  -0.06    -0.00  -0.09   0.01
  47   1     0.04  -0.04   0.03    -0.01   0.01  -0.00     0.03  -0.02  -0.00
  48   1    -0.08   0.02  -0.03    -0.05  -0.14   0.09     0.06   0.09  -0.01
  49   1     0.01  -0.01  -0.01     0.04   0.04  -0.04    -0.03   0.04   0.02
  50   1    -0.00   0.03  -0.09     0.02   0.02   0.03     0.01   0.01  -0.03
  51   1     0.04   0.02  -0.03    -0.01   0.03   0.00     0.02   0.01  -0.02
  52   1    -0.02  -0.21  -0.13    -0.06  -0.40  -0.30    -0.01   0.14   0.12
  53   1    -0.04   0.08   0.03    -0.02   0.13   0.00     0.02  -0.05   0.02
  54   1     0.06  -0.02  -0.09    -0.01  -0.00  -0.00    -0.01  -0.00   0.01
  55   1    -0.04   0.01  -0.01    -0.03  -0.01   0.00     0.00  -0.02  -0.01
                     43                     44                     45
                        a                      a                      a 
 Frequencies --   235.3291               243.2583               244.5482
 Red. masses --    14.5730                13.1614                17.4340
 Frc consts  --     0.0000                 0.0000                 0.0000
 IR Inten    --    87.4762                 3.7772                53.4696
 Raman Activ --     0.0000                 0.0000                 0.0000
 Depolar     --     0.0000                 0.0000                 0.0000
 Atom AN      X      Y      Z        X      Y      Z        X      Y      Z
   1  26    -0.10  -0.16   0.18     0.18  -0.06   0.01    -0.02  -0.38  -0.03
   2   8     0.18  -0.01  -0.17    -0.08   0.17  -0.04     0.11  -0.07  -0.01
   3   8     0.10   0.01  -0.01     0.02   0.12  -0.27    -0.21   0.12   0.04
   4   8    -0.13  -0.10  -0.11     0.02  -0.00   0.33     0.05   0.01  -0.07
   5   8    -0.05  -0.04   0.00    -0.05   0.10  -0.10     0.10   0.05   0.06
   6   8    -0.10   0.07   0.01     0.25   0.10  -0.19     0.02   0.30  -0.17
   7   8     0.22   0.00  -0.15    -0.00   0.04  -0.00    -0.01   0.29   0.13
   8   1    -0.03  -0.02   0.00     0.07   0.06  -0.06     0.00   0.07  -0.08
   9   1    -0.03  -0.00   0.00     0.07  -0.01  -0.05     0.03   0.01  -0.04
  10   1     0.03  -0.01  -0.03    -0.01  -0.01   0.01    -0.01   0.04   0.06
  11   1     0.07   0.03  -0.04    -0.00   0.01   0.00    -0.00   0.04   0.06
  12   1     0.03  -0.00  -0.04    -0.02   0.06  -0.00     0.03  -0.01   0.00
  13   1     0.03  -0.00  -0.04    -0.01   0.03   0.00     0.01  -0.02   0.00
  14   1    -0.04  -0.01  -0.03     0.00   0.02   0.07     0.01   0.00  -0.02
  15   1    -0.03  -0.05   0.02     0.02  -0.01   0.10     0.01   0.02  -0.05
  16   1     0.02  -0.00  -0.01    -0.00   0.02  -0.09    -0.04   0.00  -0.02
  17   1     0.01  -0.02  -0.02     0.01   0.04  -0.05    -0.06   0.04   0.05
  18   1    -0.01  -0.02   0.00     0.00  -0.02   0.05     0.03   0.03   0.01
  19   1    -0.01  -0.01  -0.00    -0.02   0.02  -0.01     0.01   0.02   0.02
  20   8    -0.01  -0.02  -0.18    -0.12   0.02   0.11     0.04  -0.02   0.14
  21   8    -0.01   0.32   0.28     0.01   0.04  -0.01     0.10   0.02   0.06
  22   8     0.02  -0.02   0.02    -0.03  -0.16  -0.10    -0.03  -0.03  -0.01
  23   8     0.01   0.11  -0.11    -0.06  -0.15  -0.10     0.01   0.21   0.03
  24   8     0.11  -0.00  -0.02    -0.11  -0.21   0.09    -0.10   0.11   0.01
  25   8     0.09   0.09   0.09     0.05   0.06   0.10     0.01  -0.03  -0.02
  26   8    -0.01  -0.00  -0.03    -0.03  -0.04   0.05    -0.11  -0.16  -0.15
  27   8    -0.19  -0.30  -0.06     0.06  -0.05  -0.09     0.16  -0.13  -0.06
  28   8     0.05  -0.02   0.02    -0.06  -0.17   0.04     0.01  -0.03  -0.00
  29   8     0.04  -0.02  -0.00    -0.13   0.19   0.08    -0.04  -0.00   0.12
  30   8     0.04   0.12  -0.02    -0.09  -0.00   0.05    -0.00  -0.01  -0.02
  31   8    -0.16   0.02   0.08     0.01  -0.08   0.02    -0.06   0.03  -0.03
  32   1     0.01   0.00   0.00     0.00  -0.02  -0.02    -0.00  -0.00   0.00
  33   1     0.00   0.02   0.07     0.19  -0.07   0.03    -0.13   0.05   0.00
  34   1    -0.12   0.01   0.00    -0.04   0.00   0.03     0.11   0.01   0.01
  35   1     0.06  -0.09  -0.02    -0.02  -0.00   0.03    -0.02   0.03  -0.04
  36   1     0.03  -0.00  -0.01    -0.04  -0.05   0.04    -0.02   0.02   0.01
  37   1     0.04  -0.00  -0.01     0.04  -0.06  -0.01     0.03   0.03  -0.02
  38   1     0.00   0.02  -0.00    -0.01   0.08  -0.07     0.00  -0.01   0.01
  39   1    -0.01  -0.02  -0.00    -0.07   0.03   0.01    -0.01   0.00   0.03
  40   1    -0.03   0.07   0.05    -0.11   0.19   0.14     0.03  -0.10  -0.05
  41   1     0.05   0.04   0.01     0.10   0.16  -0.01    -0.06  -0.02  -0.07
  42   1     0.00   0.01  -0.02    -0.04  -0.01   0.00     0.02   0.03  -0.01
  43   1     0.02   0.03  -0.03    -0.01  -0.04  -0.03     0.02  -0.01  -0.03
  44   1    -0.11   0.32  -0.10    -0.00   0.13  -0.06    -0.01  -0.12   0.05
  45   1    -0.03  -0.01   0.04    -0.00  -0.03  -0.01    -0.01   0.04  -0.01
  46   1     0.02   0.07   0.01    -0.07  -0.03  -0.03     0.04   0.01   0.03
  47   1    -0.01   0.02   0.01    -0.00   0.01   0.02     0.00  -0.00  -0.00
  48   1     0.06   0.04  -0.01    -0.03  -0.06   0.02    -0.06  -0.06   0.02
  49   1    -0.02  -0.02   0.03     0.01  -0.01  -0.02     0.03  -0.00  -0.02
  50   1    -0.01  -0.08   0.00     0.02  -0.01  -0.02    -0.05   0.00  -0.04
  51   1    -0.05  -0.07  -0.03     0.00  -0.00  -0.03     0.03  -0.03  -0.02
  52   1    -0.01   0.03   0.02     0.01   0.07   0.06    -0.10   0.24   0.20
  53   1    -0.00  -0.04  -0.02    -0.01  -0.03  -0.00     0.04  -0.18   0.00
  54   1    -0.03   0.09   0.16     0.01   0.02   0.03     0.10   0.02  -0.03
  55   1     0.04   0.02   0.06     0.01  -0.02  -0.01    -0.01   0.02   0.02
                     46                     47                     48
                        a                      a                      a 
 Frequencies --   248.8299               255.1328               266.8162
 Red. masses --    12.9720                13.8068                11.6420
 Frc consts  --     0.0000                 0.0000                 0.0000
 IR Inten    --   200.4431                98.5137                30.6985
 Raman Activ --     0.0000                 0.0000                 0.0000
 Depolar     --     0.0000                 0.0000                 0.0000
 Atom AN      X      Y      Z        X      Y      Z        X      Y      Z
   1  26     0.07  -0.01   0.20    -0.09   0.08   0.21     0.09  -0.02  -0.14
   2   8    -0.07   0.17  -0.01     0.09  -0.03  -0.08     0.01  -0.10   0.01
   3   8    -0.01  -0.05   0.14     0.15   0.03  -0.18     0.12   0.16  -0.12
   4   8    -0.23  -0.17  -0.20     0.20   0.32   0.01    -0.21  -0.31   0.15
[...]
  54   1     0.00  -0.00   0.00     0.00  -0.00   0.00     0.00  -0.00   0.00
  55   1     0.00  -0.00   0.00    -0.00   0.00  -0.00     0.00   0.00   0.00
                    148                    149                    150
                        a                      a                      a 
 Frequencies --  3578.1957              3595.3617              3603.0627
 Red. masses --     1.8249                 1.8176                 1.8000
 Frc consts  --     0.0000                 0.0000                 0.0000
 IR Inten    --    63.0772               133.6794                59.3177
 Raman Activ --     0.0000                 0.0000                 0.0000
 Depolar     --     0.0000                 0.0000                 0.0000
 Atom AN      X      Y      Z        X      Y      Z        X      Y      Z
   1  26    -0.00  -0.00  -0.00     0.00  -0.00   0.00    -0.00   0.00  -0.00
   2   8    -0.00   0.00  -0.00     0.00   0.00  -0.00    -0.00  -0.00   0.00
   3   8     0.00   0.00  -0.00    -0.00  -0.00   0.00     0.00  -0.00   0.00
   4   8     0.00  -0.00  -0.00     0.00  -0.00  -0.00     0.00  -0.00  -0.00
   5   8    -0.00   0.00  -0.00     0.07  -0.04  -0.03    -0.18   0.08   0.07
   6   8    -0.00   0.00  -0.00     0.00  -0.00  -0.01    -0.01   0.00  -0.01
   7   8    -0.00  -0.00  -0.00    -0.00   0.00  -0.00     0.00  -0.00   0.00
   8   1     0.01  -0.00  -0.00    -0.01   0.00   0.00     0.05  -0.01  -0.01
   9   1    -0.00   0.00   0.00    -0.01   0.00   0.05    -0.01   0.00   0.03
  10   1     0.01   0.01   0.01     0.00   0.00   0.00    -0.00  -0.00  -0.00
  11   1     0.01  -0.00  -0.01     0.00  -0.00  -0.00    -0.00   0.00   0.00
  12   1    -0.00  -0.00   0.01    -0.00  -0.00   0.00     0.00   0.01  -0.01
  13   1     0.00   0.00   0.01    -0.00  -0.00  -0.00     0.00   0.00   0.00
  14   1     0.00  -0.00   0.00    -0.00  -0.00  -0.00     0.00   0.00   0.00
  15   1    -0.00   0.00   0.00    -0.00   0.00   0.00     0.00   0.00   0.00
  16   1    -0.00  -0.00   0.00     0.00   0.00  -0.00     0.00   0.00  -0.00
  17   1     0.00  -0.00   0.00     0.00  -0.00   0.00    -0.00   0.00  -0.00
  18   1     0.00  -0.00  -0.00    -0.30   0.17   0.15     0.71  -0.41  -0.35
  19   1     0.00   0.00   0.00     0.00  -0.02  -0.01     0.01   0.08   0.06
  20   8     0.00  -0.00   0.00    -0.00   0.00  -0.00    -0.00  -0.00   0.00
  21   8    -0.00  -0.00  -0.00    -0.00   0.00  -0.00     0.00  -0.00  -0.00
  22   8    -0.00   0.00  -0.00     0.00   0.00   0.00    -0.00  -0.00  -0.00
  23   8     0.02  -0.10   0.21    -0.00  -0.00   0.00     0.00  -0.00  -0.00
  24   8    -0.00   0.00  -0.00    -0.00  -0.00  -0.00    -0.00   0.01  -0.00
  25   8    -0.00  -0.00  -0.00     0.00   0.00   0.00    -0.00  -0.00  -0.00
  26   8     0.00  -0.00  -0.00    -0.00   0.00   0.00     0.00  -0.00   0.00
  27   8     0.00   0.00  -0.00    -0.00  -0.00   0.00    -0.00  -0.00   0.00
  28   8    -0.00   0.00  -0.00     0.00  -0.01  -0.01    -0.00  -0.00  -0.00
  29   8    -0.00  -0.00  -0.00     0.18   0.08   0.08     0.08   0.03   0.03
  30   8    -0.00   0.00  -0.00    -0.00  -0.00   0.00     0.00  -0.00  -0.00
  31   8     0.00  -0.00  -0.01    -0.00   0.00   0.00     0.00  -0.00  -0.00
  32   1    -0.00  -0.00   0.00     0.00  -0.00   0.00    -0.00  -0.00   0.00
  33   1     0.00   0.00   0.00    -0.00  -0.00  -0.00     0.00   0.00   0.00
  34   1    -0.00   0.01  -0.01     0.00  -0.00   0.00    -0.00   0.00  -0.00
  35   1    -0.00  -0.00   0.00     0.00   0.00  -0.00     0.00   0.00  -0.00
  36   1    -0.00  -0.01  -0.00     0.00   0.01  -0.00    -0.00  -0.02  -0.00
  37   1     0.01   0.00   0.01     0.00   0.00   0.01     0.00   0.00   0.00
  38   1     0.01   0.00   0.00    -0.78  -0.27  -0.34    -0.33  -0.11  -0.14
  39   1     0.00  -0.00   0.00     0.05  -0.04   0.03     0.02  -0.01   0.01
  40   1     0.00   0.00   0.00    -0.00  -0.00  -0.00     0.01   0.00   0.00
  41   1     0.00   0.00  -0.00     0.00   0.00   0.00    -0.00  -0.00  -0.00
  42   1     0.05   0.00   0.03     0.00   0.00   0.00    -0.00   0.00   0.00
  43   1    -0.14   0.42  -0.86    -0.00   0.00  -0.01     0.00  -0.00   0.00
  44   1     0.00   0.00   0.01    -0.00  -0.00  -0.00     0.00   0.00   0.00
  45   1    -0.02   0.00   0.02     0.00   0.00  -0.00    -0.00  -0.00   0.00
  46   1    -0.00  -0.00   0.00     0.00   0.00  -0.00    -0.00  -0.00   0.00
  47   1     0.00  -0.00  -0.00    -0.00   0.00   0.00    -0.00   0.00   0.00
  48   1     0.00  -0.00  -0.00    -0.03   0.03   0.02    -0.00   0.00   0.00
  49   1     0.00   0.00   0.00     0.01   0.01   0.02     0.01   0.00   0.01
  50   1    -0.00  -0.00   0.00     0.00   0.00  -0.00     0.00   0.00  -0.00
  51   1    -0.00  -0.00  -0.00     0.00   0.00   0.00     0.00   0.00   0.00
  52   1     0.00   0.00  -0.00     0.00  -0.00   0.00    -0.00   0.00  -0.00
  53   1    -0.00  -0.00   0.00     0.00   0.00  -0.00    -0.00  -0.00   0.00
  54   1    -0.00   0.00  -0.00     0.00  -0.00   0.00    -0.00   0.00  -0.00
  55   1     0.00  -0.00   0.01     0.00   0.00   0.00     0.00  -0.00   0.00
                    151                    152                    153
                        a                      a                      a 
 Frequencies --  3617.7070              3633.1069              3648.5470
 Red. masses --     1.7875                 1.7935                 1.8257
 Frc consts  --     0.0000                 0.0000                 0.0000
 IR Inten    --    51.7706                63.9583                72.1725
 Raman Activ --     0.0000                 0.0000                 0.0000
 Depolar     --     0.0000                 0.0000                 0.0000
 Atom AN      X      Y      Z        X      Y      Z        X      Y      Z
   1  26    -0.00  -0.00   0.00     0.00  -0.00  -0.00     0.00   0.00   0.00
   2   8    -0.00  -0.00   0.00    -0.00  -0.00   0.01     0.00   0.00  -0.00
   3   8    -0.00  -0.01   0.01    -0.00  -0.00   0.00    -0.00   0.00  -0.00
   4   8     0.00   0.00   0.00    -0.00   0.00   0.00     0.01   0.00   0.00
   5   8     0.00  -0.00  -0.00    -0.00   0.00   0.00    -0.00   0.00   0.00
   6   8     0.01  -0.00  -0.00    -0.00  -0.00   0.00    -0.00   0.00  -0.00
   7   8     0.00  -0.00  -0.00     0.00   0.00  -0.00     0.00  -0.00  -0.00
   8   1    -0.03   0.00   0.00     0.00  -0.00   0.00     0.00  -0.00  -0.00
   9   1    -0.00   0.00   0.01    -0.00   0.00   0.00    -0.00  -0.00   0.00
  10   1     0.00   0.00   0.00    -0.00  -0.00   0.00    -0.00  -0.00  -0.00
  11   1    -0.00   0.00   0.00    -0.00  -0.00   0.00    -0.00   0.00   0.00
  12   1     0.00   0.00  -0.00     0.00   0.01  -0.02    -0.00  -0.00   0.01
  13   1    -0.00   0.00   0.00     0.00   0.00   0.00     0.00   0.00   0.00
  14   1    -0.01  -0.00  -0.00     0.00   0.00   0.00    -0.02  -0.01  -0.00
  15   1     0.00  -0.00  -0.00     0.00  -0.00  -0.00    -0.00   0.00   0.00
  16   1     0.01   0.04  -0.04    -0.00  -0.00   0.00     0.00  -0.00   0.00
  17   1     0.00  -0.00   0.00     0.00  -0.00  -0.00     0.00  -0.00  -0.00
  18   1    -0.01   0.01   0.01     0.00  -0.00  -0.00     0.00  -0.00  -0.00
  19   1    -0.00  -0.00  -0.00     0.00   0.00   0.00     0.00   0.00   0.00
  20   8     0.00   0.00  -0.00    -0.06   0.14  -0.17    -0.00  -0.00   0.00
  21   8     0.00  -0.00  -0.00    -0.00   0.00   0.00    -0.01   0.03  -0.01
  22   8    -0.00   0.00  -0.00     0.00  -0.00   0.00     0.00   0.00   0.00
  23   8     0.00   0.00  -0.00     0.00  -0.00   0.00    -0.00  -0.00   0.00
  24   8    -0.00  -0.00  -0.00     0.00  -0.00   0.01    -0.00  -0.00  -0.00
  25   8     0.00   0.00  -0.00     0.00   0.00   0.00     0.00   0.00  -0.00
  26   8     0.00  -0.00  -0.00    -0.00   0.00  -0.01    -0.00   0.01  -0.01
  27   8     0.00   0.00  -0.00    -0.00  -0.00   0.00     0.00   0.00  -0.00
  28   8    -0.14   0.16   0.09     0.00  -0.00   0.00    -0.01   0.01   0.00
  29   8     0.01   0.00   0.00    -0.00  -0.00  -0.00    -0.00   0.00  -0.00
  30   8     0.01  -0.00  -0.01    -0.00  -0.00   0.00    -0.15  -0.02   0.18
  31   8     0.00  -0.00  -0.00    -0.00   0.00   0.00     0.00   0.00   0.00
  32   1    -0.00  -0.00   0.00     0.00   0.00  -0.00     0.00  -0.00   0.00
  33   1    -0.00  -0.00  -0.00    -0.00  -0.00  -0.00    -0.00  -0.00  -0.00
  34   1     0.00  -0.00   0.00     0.17  -0.65   0.69    -0.00   0.01  -0.01
  35   1    -0.00  -0.00   0.00     0.07   0.08  -0.02     0.00   0.00  -0.00
  36   1     0.00   0.00   0.00     0.00   0.01   0.00     0.00   0.00  -0.00
  37   1     0.00  -0.00   0.00    -0.01  -0.00  -0.02     0.00   0.00   0.00
  38   1    -0.04  -0.01  -0.02     0.00   0.00   0.00     0.00   0.00   0.00
  39   1     0.00  -0.00   0.00    -0.00   0.00  -0.00     0.00  -0.00   0.00
  40   1     0.00   0.00   0.00    -0.00  -0.00  -0.00    -0.00  -0.00  -0.00
  41   1     0.00   0.00  -0.00     0.00  -0.00   0.00     0.00   0.00  -0.00
  42   1    -0.00  -0.00  -0.00     0.00  -0.00   0.00     0.00   0.00   0.00
  43   1     0.00  -0.00   0.00    -0.00   0.00  -0.01    -0.00   0.00  -0.00
  44   1     0.00   0.00   0.00    -0.00  -0.00  -0.00    -0.00  -0.01  -0.01
  45   1    -0.00  -0.00   0.00     0.00   0.00  -0.00    -0.00   0.00   0.00
  46   1    -0.03  -0.00   0.03     0.00   0.00  -0.00     0.62   0.04  -0.73
  47   1    -0.01   0.02   0.00    -0.00   0.00   0.00    -0.04   0.04   0.02
  48   1     0.52  -0.68  -0.45    -0.00   0.00   0.00     0.02  -0.03  -0.02
  49   1     0.04   0.05   0.09    -0.00  -0.00  -0.00     0.00   0.00   0.01
  50   1    -0.00  -0.00   0.01     0.00   0.00  -0.00    -0.01  -0.01   0.02
  51   1    -0.00  -0.00  -0.00     0.00   0.00   0.00     0.00   0.01   0.00
  52   1    -0.00   0.00  -0.00     0.01  -0.02   0.03     0.01  -0.02   0.03
  53   1    -0.00  -0.00   0.00     0.01   0.00  -0.01     0.00   0.00  -0.00
  54   1    -0.00   0.00  -0.00     0.00  -0.01   0.00     0.04  -0.11   0.03
  55   1     0.00  -0.00   0.00    -0.00   0.00  -0.00    -0.00   0.00  -0.01
                    154                    155                    156
                        a                      a                      a 
 Frequencies --  3650.1577              3652.1182              3661.3168
 Red. masses --     1.8238                 1.8355                 1.8202
 Frc consts  --     0.0000                 0.0000                 0.0000
 IR Inten    --    79.9040                55.0804                51.7846
 Raman Activ --     0.0000                 0.0000                 0.0000
 Depolar     --     0.0000                 0.0000                 0.0000
 Atom AN      X      Y      Z        X      Y      Z        X      Y      Z
   1  26     0.00  -0.00   0.00    -0.00  -0.00  -0.00     0.00   0.00  -0.00
   2   8     0.00   0.00  -0.00    -0.00  -0.00   0.00     0.02   0.12  -0.20
   3   8    -0.00   0.00  -0.00    -0.00   0.00   0.00    -0.00  -0.00   0.00
   4   8    -0.00  -0.00  -0.00     0.00   0.00   0.00    -0.00   0.00   0.00
   5   8    -0.00   0.00   0.00     0.00  -0.00   0.00    -0.00   0.00   0.00
   6   8    -0.00   0.00   0.00     0.00  -0.00   0.00    -0.00  -0.00   0.00
   7   8     0.01  -0.00  -0.00    -0.00  -0.00  -0.00    -0.00   0.00   0.00
   8   1     0.00  -0.00  -0.00    -0.00   0.00   0.00     0.00  -0.00  -0.00
   9   1     0.00  -0.00  -0.00     0.00   0.00  -0.00    -0.00  -0.00   0.00
  10   1    -0.00  -0.00  -0.01     0.01   0.01   0.02    -0.00  -0.00  -0.00
  11   1    -0.02   0.01   0.01     0.00  -0.00  -0.00     0.00  -0.00  -0.00
  12   1    -0.00  -0.01   0.02     0.00   0.01  -0.02    -0.06  -0.45   0.86
  13   1     0.00   0.00  -0.00    -0.00  -0.00   0.00    -0.01  -0.01  -0.06
  14   1     0.00  -0.00   0.00    -0.00  -0.00  -0.00     0.00   0.00   0.00
  15   1    -0.00   0.00   0.00     0.00  -0.00  -0.00    -0.00  -0.00  -0.00
  16   1    -0.00  -0.00   0.00     0.00   0.00  -0.00     0.00   0.00  -0.00
  17   1     0.00  -0.00   0.00     0.00  -0.00  -0.00     0.00  -0.00   0.00
  18   1     0.00  -0.00  -0.00    -0.00   0.00   0.00     0.01  -0.01  -0.01
  19   1     0.00   0.00   0.00    -0.00  -0.00  -0.00     0.00   0.00   0.00
  20   8     0.00  -0.00   0.00    -0.00   0.01  -0.01    -0.00   0.00  -0.01
  21   8    -0.07   0.21  -0.04    -0.01   0.02  -0.00     0.00  -0.00   0.00
  22   8     0.00  -0.00   0.00    -0.00   0.00  -0.00     0.00  -0.00   0.00
  23   8     0.00  -0.00   0.00     0.00   0.00   0.00    -0.00   0.00  -0.00
  24   8    -0.00  -0.00  -0.00     0.00   0.00   0.00    -0.00  -0.01   0.00
  25   8     0.00   0.00   0.00     0.00   0.00  -0.00     0.00   0.00   0.00
  26   8    -0.01   0.01  -0.02     0.08  -0.13   0.18     0.00  -0.00   0.00
  27   8    -0.00  -0.00  -0.00    -0.00  -0.00   0.00    -0.00  -0.00   0.00
  28   8     0.00  -0.00  -0.00     0.00   0.00   0.00    -0.00   0.00   0.00
  29   8    -0.00   0.00  -0.00     0.00  -0.00   0.00     0.00   0.00   0.00
  30   8     0.02   0.00  -0.02    -0.01  -0.00   0.01     0.00  -0.00  -0.00
  31   8     0.00   0.00   0.01    -0.00   0.00   0.00     0.00   0.00   0.01
  32   1     0.00   0.00  -0.00    -0.00  -0.00  -0.00     0.00   0.00  -0.00
  33   1    -0.00  -0.00  -0.00     0.00   0.00   0.00    -0.00  -0.00  -0.00
  34   1    -0.00   0.01  -0.01     0.01  -0.02   0.03     0.00  -0.02   0.02
  35   1    -0.00  -0.00   0.00     0.00   0.00  -0.00     0.00   0.00  -0.00
  36   1     0.00   0.00  -0.00    -0.00  -0.00   0.00     0.00   0.03  -0.00
  37   1     0.00   0.00   0.00    -0.00  -0.00  -0.00    -0.00  -0.00  -0.01
  38   1     0.00   0.00   0.00    -0.00  -0.00  -0.00    -0.00  -0.00  -0.00
  39   1     0.00  -0.00   0.00    -0.00   0.00  -0.00    -0.00   0.00  -0.00
  40   1    -0.00  -0.00  -0.00     0.00   0.00   0.00    -0.00  -0.00  -0.00
  41   1    -0.00   0.00   0.00    -0.00  -0.00   0.00    -0.00  -0.00   0.00
  42   1     0.00   0.00   0.00    -0.00  -0.00  -0.00    -0.00  -0.00  -0.00
  43   1    -0.00   0.00  -0.00    -0.00  -0.00  -0.00     0.00  -0.00   0.01
  44   1    -0.01  -0.02  -0.05    -0.00  -0.00  -0.00    -0.00  -0.01  -0.03
  45   1    -0.00   0.00   0.00     0.00  -0.00  -0.00     0.00   0.00  -0.00
  46   1    -0.08  -0.01   0.10     0.02   0.00  -0.02    -0.00  -0.00   0.00
  47   1     0.01  -0.01  -0.00    -0.00   0.00   0.00    -0.00   0.00  -0.00
  48   1    -0.00   0.00   0.00     0.00  -0.00  -0.00     0.00  -0.00  -0.00
  49   1    -0.00  -0.00  -0.00    -0.00  -0.00  -0.00    -0.00  -0.00  -0.00
  50   1    -0.00  -0.00   0.00     0.00   0.00  -0.00     0.00   0.00  -0.00
  51   1     0.01   0.02   0.01     0.00  -0.00   0.00    -0.00  -0.00  -0.00
  52   1     0.03  -0.05   0.07    -0.32   0.53  -0.74    -0.01   0.01  -0.02
  53   1     0.00   0.00  -0.01    -0.01  -0.02   0.04     0.00   0.00  -0.00
  54   1     0.31  -0.88   0.21     0.03  -0.09   0.02    -0.01   0.02  -0.00
  55   1    -0.02   0.02  -0.05    -0.00   0.00  -0.01     0.00  -0.00   0.00
                    157                    158                    159
                        a                      a                      a 
 Frequencies --  3665.4423              3711.8082              3769.2645
 Red. masses --     1.8375                 1.8548                 1.8830
 Frc consts  --     0.0000                 0.0000                 0.0000
 IR Inten    --    55.1796                21.5380                 4.3257
 Raman Activ --     0.0000                 0.0000                 0.0000
 Depolar     --     0.0000                 0.0000                 0.0000
 Atom AN      X      Y      Z        X      Y      Z        X      Y      Z
   1  26    -0.00   0.00   0.00    -0.00  -0.00  -0.00     0.00   0.00   0.00
   2   8     0.00   0.00  -0.01    -0.00  -0.00   0.00    -0.00  -0.00  -0.00
   3   8    -0.00  -0.00   0.00     0.00   0.00   0.00    -0.00  -0.00  -0.00
   4   8    -0.00   0.01   0.00     0.00   0.00   0.00    -0.00   0.00   0.00
   5   8     0.00  -0.00  -0.00    -0.00   0.00   0.00     0.00  -0.00   0.00
   6   8     0.00  -0.00   0.00    -0.00   0.00   0.00    -0.00  -0.00   0.00
   7   8     0.00  -0.00  -0.00     0.00   0.00   0.00    -0.00   0.00  -0.00
   8   1    -0.00   0.00   0.00     0.00  -0.00  -0.00    -0.00   0.00   0.00
   9   1     0.00   0.00  -0.00     0.00  -0.00  -0.00     0.00   0.00  -0.00
  10   1     0.00   0.00   0.00    -0.00  -0.00  -0.00     0.00   0.00   0.00
  11   1    -0.00   0.00   0.00    -0.00   0.00   0.00     0.00  -0.00  -0.00
  12   1    -0.00  -0.01   0.03     0.00   0.00  -0.00    -0.00  -0.00   0.00
  13   1    -0.00  -0.00  -0.00     0.00  -0.00  -0.00     0.00   0.01   0.01
  14   1     0.00   0.00   0.00    -0.00  -0.00  -0.00     0.00   0.00   0.00
  15   1     0.00  -0.03  -0.02    -0.00  -0.00  -0.00     0.00  -0.00  -0.00
  16   1     0.00   0.00  -0.00    -0.00  -0.00   0.00     0.00   0.00  -0.00
  17   1    -0.00   0.00   0.00    -0.00   0.00  -0.00     0.00  -0.00   0.00
  18   1    -0.00   0.00   0.00     0.01  -0.00  -0.00    -0.00   0.00   0.00
  19   1    -0.00  -0.00  -0.00     0.00   0.00   0.00    -0.00  -0.00  -0.00
  20   8    -0.00   0.00  -0.00     0.00  -0.00   0.00    -0.00   0.00  -0.00
  21   8    -0.00   0.01   0.00     0.00  -0.00   0.00    -0.00   0.00  -0.00
  22   8    -0.00  -0.00  -0.00     0.21   0.02   0.10    -0.00  -0.00   0.00
  23   8    -0.00   0.00  -0.00    -0.00  -0.00   0.00    -0.00   0.00  -0.00
  24   8     0.00  -0.00   0.00     0.00   0.00   0.00    -0.00  -0.00  -0.00
  25   8     0.00   0.00   0.00    -0.00  -0.00  -0.00    -0.10  -0.21  -0.05
  26   8    -0.00   0.00  -0.00     0.00  -0.00   0.00    -0.00   0.00  -0.00
  27   8    -0.00  -0.00  -0.00     0.00   0.00   0.00    -0.00   0.00  -0.00
  28   8     0.00  -0.00   0.00     0.00   0.00   0.00    -0.00  -0.00  -0.00
  29   8     0.00  -0.00   0.00    -0.00   0.00  -0.00    -0.00  -0.00  -0.00
  30   8    -0.00  -0.00   0.00     0.00   0.00  -0.00    -0.00   0.00   0.00
  31   8    -0.03  -0.09  -0.21     0.00  -0.00  -0.00    -0.00   0.00   0.00
  32   1    -0.00   0.00  -0.00     0.01  -0.00   0.02    -0.00   0.00  -0.01
  33   1     0.00  -0.00  -0.00     0.01   0.01   0.00     0.40   0.86   0.21
  34   1     0.00  -0.00   0.00    -0.00   0.00  -0.00     0.00  -0.00   0.00
  35   1     0.00   0.00   0.00    -0.00  -0.00  -0.00     0.00   0.00   0.00
  36   1     0.00   0.00   0.00     0.00  -0.00  -0.00     0.00   0.00   0.00
  37   1    -0.00  -0.00  -0.00    -0.00  -0.00  -0.00     0.00   0.00   0.00
  38   1    -0.00  -0.00  -0.00     0.00  -0.00   0.00     0.00   0.00   0.00
  39   1    -0.00   0.00  -0.00    -0.00  -0.00   0.00     0.00   0.00  -0.00
  40   1     0.00   0.00   0.00    -0.86  -0.09  -0.43     0.01   0.00   0.01
  41   1    -0.00  -0.00   0.00     0.00   0.01   0.00    -0.01  -0.00  -0.01
  42   1    -0.00  -0.00  -0.00     0.00   0.00  -0.00     0.01  -0.00   0.00
  43   1     0.00  -0.00   0.01    -0.00   0.00  -0.00     0.00  -0.00   0.00
  44   1     0.11   0.37   0.89     0.00   0.00   0.00    -0.00  -0.00  -0.00
  45   1     0.02  -0.01  -0.03    -0.00   0.00   0.00     0.00  -0.00  -0.00
  46   1     0.01   0.00  -0.01    -0.00  -0.00   0.00     0.00   0.00  -0.00
  47   1    -0.00   0.00   0.00    -0.00  -0.00   0.00     0.00  -0.00  -0.00
  48   1    -0.00   0.00   0.00     0.00  -0.00  -0.00     0.00   0.00  -0.00
  49   1    -0.00  -0.00  -0.00    -0.00  -0.00  -0.00     0.00   0.00   0.00
  50   1     0.00   0.00  -0.00    -0.00  -0.00   0.00     0.00   0.00  -0.00
  51   1     0.00   0.00   0.00    -0.00  -0.00  -0.00     0.00  -0.00   0.00
  52   1     0.00  -0.00   0.00    -0.00   0.00  -0.00     0.00  -0.00   0.00
  53   1    -0.00  -0.00   0.00    -0.00  -0.00  -0.00     0.00   0.00   0.00
  54   1     0.02  -0.05   0.01    -0.00   0.00  -0.00     0.00  -0.00   0.00
  55   1    -0.01   0.00  -0.02    -0.00   0.00  -0.00     0.00  -0.00   0.00
