55
 energy: -94.447616304480 gnorm: 0.152251128522 xtb: 6.6.0 (conda-forge)
Fe          -0.12686420587406       -0.26063717658594       -0.04496627135615
O           -2.00672964112442       -0.75202637098455        1.18820887079266
O            1.38150945608063        1.19743813577002        0.71175356674676
O            1.61425899195784       -0.64908470159621       -1.48925160847437
O           -1.25886625721143       -0.32375127491623       -2.10226425021708
O           -1.28587633281734        1.74895629095178       -0.19648556999689
O            1.00740572019214       -1.51564045940076        1.51865282539648
H           -2.26656454842601        1.72271408771725       -0.21940238074165
H           -1.01405328301457        2.49795801073965       -0.75943053062816
H            1.13072620416531       -1.05967541996158        2.39274530390714
H            1.90834349732261       -1.83015383526691        1.27333308020698
H           -2.58694328224023       -0.20202929273728        1.75231472621120
H           -2.54688450742473       -1.51162740004623        0.89007495068521
H            2.36004442258160        0.01227439595475       -1.47241617387233
H            2.03288813917157       -1.51123671644445       -1.67852366047218
H            1.56685993747248        2.07108364509404        0.29263085363903
H            2.23856715395684        0.91505741424016        1.13804895514413
H           -2.24000953103823       -0.45100348740301       -2.08886295360675
H           -0.91094082425098       -0.90880032931207       -2.78131781503534
O           -3.87783123891077        0.69945816694267        2.54356638808634
O            3.48305884668419       -2.24309869135298        0.78650675999583
O           -3.88610722216932       -0.59902997669673       -1.81866566847435
O           -0.52921886499217       -2.58351829534007       -0.54057859412759
O           -3.98963913663329        1.53841777166974       -0.09654620689976
O           -3.19749341349763       -2.70823089864868       -0.21368089599565
O            1.59132218509602       -0.17736895542731        3.68091466523665
O            3.63215679004909        0.36287878241820        1.74488744693706
O            1.98932044084267        3.38507583822912       -0.65152770452875
O           -0.51078364099050        3.93878335291121       -1.72251224051657
O            3.51953871976320        1.14213025686402       -1.37999351697470
O            3.12210017199768       -2.91253563008061       -1.88569854935468
H           -3.63744168662120       -2.14266837846184       -0.87383352186315
H           -3.74810197398942       -3.48676686852755       -0.08475601368600
H           -4.58632611024341        0.18989595537171        2.95298499710011
H           -3.59509657554854        1.33994360645570        3.20503563875677
H           -4.58289366982563        2.27758040703954       -0.26346369137870
H           -4.10362892499756        1.29428690114758        0.84056750238046
H           -0.86674286763155        4.79210347075500       -1.45024368799319
H           -0.57271352448716        3.91553399979991       -2.68330197795434
H           -4.49409252295397       -0.55691547129916       -2.56346306591845
H           -4.07705851104879        0.16657983544298       -1.24250060517920
H           -1.48845667851315       -2.79416176127243       -0.52610375596219
H           -0.12711259400208       -3.15593025223967        0.12078864562093
H            3.86306608232975       -2.78673851289635       -2.48887452146831
H            2.74732355110842       -3.77234991578676       -2.10324720182833
H            4.16190143252909        1.20612990210410       -2.09222380672163
H            3.12847320950147        2.02374298212465       -1.27255257905595
H            2.38538591249868        4.16332770915692       -0.24738509680342
H            1.17334186726271        3.67592421672651       -1.09702058281278
H            4.42595216468946        0.88563057683267        1.60260577214954
H            3.79688596671517       -0.51871206863283        1.37000507351026
H            1.55217741941718       -0.42384504010555        4.60960637692925
H            2.46564070078256        0.19631952962749        3.51174521810349
H            3.95501755949141       -2.91258292317854        1.29154075801445
H            3.48627502691075       -2.53279513755863       -0.14309367565245
55
 energy: -94.509833841343 gnorm: 0.109672385498 xtb: 6.6.0 (conda-forge)
Fe          -0.13747585538714       -0.27343719576188       -0.05860529004003
O           -2.00720931655193       -0.78557416736017        1.26297323764658
O            1.37610841984050        1.24682711077639        0.77965471282252
O            1.61748475829831       -0.64550383873710       -1.59000966425102
O           -1.26864180266622       -0.26295471887169       -2.19248092718023
O           -1.29463899406068        1.81156368890740       -0.14390671241740
O            0.99149408120092       -1.62003653447920        1.57490639024510
H           -2.27366117494975        1.70129481593722       -0.23882321485882
H           -1.00922579476345        2.50461188635531       -0.77352472441855
H            1.11713374662164       -1.04113760548474        2.37143902968781
H            1.91453482272892       -1.80740001170475        1.26421711393845
H           -2.61023738118344       -0.17911875973007        1.74351184327012
H           -2.55363957443280       -1.50581049950266        0.87768014250104
H            2.35965585682173        0.00081049276577       -1.44485614435438
H            2.04500696567547       -1.52455927566894       -1.65361256242846
H            1.57615017000051        2.06907660871711        0.28007127663432
H            2.23795835385018        0.91511841004571        1.13847515717787
H           -2.23595104265138       -0.47737056779575       -2.07042434653796
H           -0.90408744181655       -0.93901326639132       -2.78332240491836
O           -3.91387754060222        0.72325814076645        2.55001726177437
O            3.53295791031803       -2.23509767866490        0.79417068719640
O           -3.92587770215775       -0.62756472787093       -1.82240486860945
O           -0.50638172125609       -2.68318290096019       -0.62244001660243
O           -4.03011202265576        1.53505720356905       -0.11819450583331
O           -3.21827423894894       -2.73851797006009       -0.20937265297748
O            1.58914683630201       -0.16042683506606        3.71346151062286
O            3.67313336856766        0.35755155173322        1.80112051530128
O            2.03068327447461        3.41443216585421       -0.68858747385562
O           -0.49316812758924        3.96469867998758       -1.73326029579876
O            3.56797228555051        1.15362540727814       -1.36983361577165
O            3.15088600622882       -2.93916573387866       -1.87887211026231
H           -3.62615893651751       -2.12218675200791       -0.87846174938138
H           -3.78827589659272       -3.51828939464998       -0.09175763630999
H           -4.60258349431555        0.17530976560917        2.97346879009593
H           -3.58289629843211        1.34948362612931        3.22148547096316
H           -4.60945944592868        2.31278373945246       -0.26251462160193
H           -4.07829935776534        1.27839068157478        0.84982830130919
H           -0.88206473267557        4.81060851039400       -1.45014280934684
H           -0.58029466365738        3.91000584550233       -2.70034412198920
H           -4.52405955691108       -0.54426023018002       -2.59279607092591
H           -4.04802851216202        0.17484733014809       -1.22536747755131
H           -1.49025783417806       -2.77276052404816       -0.50853543631597
H           -0.12405577106412       -3.13646979990754        0.15454715159505
H            3.87498384051174       -2.78910922505133       -2.50997249039102
H            2.73554533596023       -3.78648447264135       -2.11224403990520
H            4.17663769965554        1.22790733098137       -2.11743042537215
H            3.10918814330493        2.01816033387982       -1.26140040920402
H            2.38684764240650        4.19819192243067       -0.23580990477422
H            1.15628888120122        3.66030838675946       -1.09140603812871
H            4.45584054112495        0.89162677542935        1.58478063381610
H            3.77265956960015       -0.52399983631832        1.35552969566179
H            1.57006104596373       -0.42225932300517        4.64150398939333
H            2.46903858047595        0.19855019226543        3.49886977257311
H            3.96969630967438       -2.94415212868256        1.29793516166401
H            3.46686978560652       -2.52194662884179       -0.15460308357667
55
 energy: -94.558734056561 gnorm: 0.164411965834 xtb: 6.6.0 (conda-forge)
Fe          -0.15942802430613       -0.28699725050987       -0.07420486915976
O           -2.00233411092820       -0.83770160220079        1.35963179777295
O            1.37912519082370        1.29035772044592        0.84278337125829
O            1.63482023889544       -0.64310851568087       -1.66434322270080
O           -1.28699198475853       -0.19972114314532       -2.28391017662840
O           -1.31030488812638        1.87940214859258       -0.08415273756125
O            0.99160260282116       -1.69742889598922        1.61741612355404
H           -2.28195013707201        1.67218088155129       -0.25527802122561
H           -1.00922358577391        2.49933124957681       -0.78761744171737
H            1.10135489207182       -1.04711386424720        2.35100812276854
H            1.91298860553502       -1.79559681467657        1.25786380204983
H           -2.63491275000414       -0.14667754466292        1.71728998599315
H           -2.55827908772146       -1.49948432607787        0.85580726390193
H            2.34863599933840       -0.00173696225255       -1.44635593551444
H            2.05324763520080       -1.52690308157150       -1.63933750272014
H            1.57893927944592        2.05880331478920        0.27222879329898
H            2.23407028969840        0.91875350856233        1.13996521772040
H           -2.23458453027177       -0.49298466683620       -2.04757046494233
H           -0.89689468417963       -0.96660084231852       -2.76809614259795
O           -3.95854669534120        0.75683499040069        2.55331802557658
O            3.58571343559084       -2.21935154912983        0.79594112873801
O           -3.97708160391628       -0.68009808100529       -1.81676125106011
O           -0.49298714476888       -2.76920558570773       -0.68563294276955
O           -4.08609090772297        1.51713994525751       -0.15666851603141
O           -3.23403568226898       -2.77160007535835       -0.20704572144127
O            1.58270642774343       -0.13469098717977        3.74523531807248
O            3.71616807517634        0.34752660217547        1.85268819307264
O            2.06870495773941        3.44037594729543       -0.73205538393897
O           -0.46499537332772        3.99461826175674       -1.74716029454634
O            3.62206796820792        1.16956156088297       -1.34964907622076
O            3.18403961323102       -2.96881550134529       -1.86231004813948
H           -3.60027740082734       -2.07791611820563       -0.88449467379448
H           -3.83096934623220       -3.54771429960533       -0.10322942465208
H           -4.61467353741054        0.15699450716645        2.99448468284514
H           -3.56352889688064        1.35823346136518        3.23639137332173
H           -4.63500839500890        2.36011210237411       -0.26389754502974
H           -4.02417322041970        1.24826139124151        0.86373265184263
H           -0.89500644321573        4.81949798386184       -1.45449806046506
H           -0.58697699604040        3.90381129734663       -2.71022164861931
H           -4.55271958021836       -0.53147225192615       -2.62958202090037
H           -3.98596913957056        0.19112583572623       -1.18962297615796
H           -1.48782979749373       -2.74939483638519       -0.49860730846979
H           -0.12255289239185       -3.10590372364347        0.17572949469160
H            3.87785760903456       -2.79391848822047       -2.52330169098619
H            2.72345672860926       -3.78994452427532       -2.11508855813865
H            4.17963699269257        1.25086165287144       -2.13767842734998
H            3.09191546532330        2.00515293889755       -1.25315462149624
H            2.37617723774922        4.21908218322782       -0.22941026113412
H            1.14547764017014        3.63777274107587       -1.08369501748844
H            4.47630528114009        0.88851193267878        1.56265829364727
H            3.75096945053256       -0.52708782586165        1.35011167182337
H            1.59228137952747       -0.42010999060725        4.66513387759685
H            2.46546000643340        0.19436310797237        3.48115637420307
H            3.97310057477472       -2.96448045394421        1.29759847657935
H            3.44657325878307       -2.50859746459555       -0.15921205673079
55
 energy: -94.577480974544 gnorm: 0.181692065983 xtb: 6.6.0 (conda-forge)
Fe          -0.19290482885381       -0.31184833533098       -0.09706614186493
O           -2.03933983395654       -0.89463125813901        1.47294092001266
O            1.40623231723463        1.37276588186186        0.93487212982190
O            1.68326703954099       -0.64791657872668       -1.78091329816383
O           -1.31913451749837       -0.15335920282089       -2.40779379636647
O           -1.34289579415627        1.98309160909921       -0.03034355619780
O            1.01081478401518       -1.80478784218656        1.69377850971514
H           -2.29546146503906        1.65483315115925       -0.26389344731318
H           -1.01115935106466        2.50307022203519       -0.80627864531556
H            1.08734470833611       -1.05514192021254        2.32234996329890
H            1.90729014305960       -1.78646051933735        1.25936158112023
H           -2.67067428237478       -0.11956924996804        1.71038286770096
H           -2.57052491870810       -1.50159016365115        0.84042971008610
H            2.33896169470870       -0.01670337275247       -1.44208397288913
H            2.06605766197910       -1.53264099826354       -1.63186096636139
H            1.58795126155379        2.05442604432387        0.27029015390791
H            2.23409738257082        0.93043000601535        1.13320910273275
H           -2.23438893794103       -0.49785005363775       -2.03275886228678
H           -0.89266710736598       -0.98651556265629       -2.77339588211235
O           -4.00437630980187        0.79124522894874        2.56387849543220
O            3.64062280919766       -2.21191031827529        0.79413976547623
O           -4.04306713559237       -0.75290022605272       -1.81284098222367
O           -0.48870725558921       -2.88101906029373       -0.73369679071720
O           -4.15642489347666        1.49211143849680       -0.20657784543084
O           -3.25288456497208       -2.81176981519851       -0.20513759263451
O            1.58173070359795       -0.10168478200468        3.78660020428083
O            3.77128901116257        0.33228400953035        1.90136412080896
O            2.10468963172786        3.47841987350828       -0.77889015060228
O           -0.43652086101346        4.03118845169204       -1.76522710982881
O            3.68074124228038        1.19612888670642       -1.33254369987053
O            3.21980983449356       -3.00349172313530       -1.85030487315247
H           -3.57815128746553       -2.00985561096216       -0.90369824398559
H           -3.86986653891387       -3.59040948205540       -0.10222719369343
H           -4.63524756488549        0.13173233883569        3.01199284996811
H           -3.53975599185646        1.37667682754273        3.25350175655488
H           -4.66904076951737        2.43143812429877       -0.28773513269909
H           -3.95603283752091        1.19805952110958        0.90695538065124
H           -0.90614359791920        4.82798048087542       -1.45534609700443
H           -0.59198953200247        3.89626655065026       -2.71946999765427
H           -4.59054756476240       -0.53641798486065       -2.69205639668630
H           -3.90793792551074        0.23627196556620       -1.12023659294427
H           -1.48108710289891       -2.73063262763990       -0.49428307469814
H           -0.12094765374943       -3.09001900450162        0.18209733675886
H            3.88196233394821       -2.79607884200305       -2.53334853014549
H            2.71314964793641       -3.79368652376943       -2.11546341850203
H            4.18409308595500        1.27060212000470       -2.15606675738196
H            3.07817864956641        1.99601331447789       -1.24643570905176
H            2.36981737836486        4.23832043455339       -0.22478042471849
H            1.13756281519634        3.62135841799268       -1.07974021115331
H            4.49461490167317        0.88718846728340        1.54695937764138
H            3.73732796855767       -0.53256841772302        1.34849225357701
H            1.61048602637731       -0.41921031547701        4.69079914155953
H            2.46399524508059        0.19216073137180        3.46794021563796
H            3.97794285117448       -2.97999916725068        1.29947052324989
H            3.43291929520916       -2.49708513912646       -0.16498096634366
55
 energy: -94.592290517940 gnorm: 0.159804555243 xtb: 6.6.0 (conda-forge)
Fe          -0.19553471247884       -0.30577846972549       -0.09396996858213
O           -2.07832565066786       -0.84152107297618        1.38781195724344
O            1.41104364929390        1.38986782065422        0.94825433865475
O            1.69473624733261       -0.65386718065139       -1.77583070482657
O           -1.31824097761680       -0.24625570298331       -2.35323043088062
O           -1.34860452832037        1.95166327287456       -0.09071769394655
O            1.03251436845173       -1.78977897120424        1.69660918540825
H           -2.27380193177141        1.66745961721378       -0.22894724969168
H           -0.99309754105636        2.48571838997045       -0.78063747452183
H            1.06047425359241       -1.06099851617127        2.29484102344904
H            1.87832227694995       -1.78713280405864        1.25810964478806
H           -2.62345896846232       -0.14180218757384        1.72310510704682
H           -2.52285837080426       -1.51068375341318        0.86449268671234
H            2.30091507915398       -0.02178297076621       -1.41927799171143
H            2.03702176639204       -1.52338133363580       -1.61375060614787
H            1.56977655187219        2.02858559260597        0.26347999057724
H            2.20412183795409        0.91090020054286        1.11929442365197
H           -2.21408046481110       -0.44657519486377       -2.05618268427063
H           -0.88182668436367       -0.94066887684727       -2.77575303241781
O           -3.98645400087952        0.77365137740150        2.59120093219956
O            3.64178481555760       -2.22521252037432        0.79024373065630
O           -4.03790463315795       -0.76794236461316       -1.83647926013834
O           -0.51306011101917       -2.84993303894240       -0.66320688674530
O           -4.14991594206178        1.50478671780010       -0.21722369471573
O           -3.26154666685531       -2.80998813902308       -0.21238092962647
O            1.58545645854789       -0.09355318227502        3.80122589314023
O            3.78641288714764        0.32767610932758        1.89057723939976
O            2.09719316828418        3.49309762200444       -0.77691103389533
O           -0.43947427018124        4.04205584306723       -1.77272361831270
O            3.68489779267640        1.20890030024696       -1.34005514635208
O            3.22498064560291       -3.01536586188899       -1.85693832285525
H           -3.60537399125685       -1.99486936728628       -0.92825688879245
H           -3.85908413861585       -3.59097915295403       -0.09258452718162
H           -4.64592167223933        0.14057289439410        3.00948127260876
H           -3.55132164904294        1.38851467977482        3.25394139347891
H           -4.68996347853118        2.44991863897849       -0.32609566528909
H           -3.95812937524332        1.16544403776966        0.93748346644603
H           -0.90815263849609        4.82685828899290       -1.45675852845453
H           -0.59306301531828        3.89476531887141       -2.71702873643273
H           -4.61520387152406       -0.59047868875698       -2.69701259226256
H           -3.89528745679447        0.27829308799650       -1.06981975774656
H           -1.45514938962556       -2.75226125236604       -0.52747407244535
H           -0.11195543438420       -3.08292544353210        0.14595053877713
H            3.87769234819398       -2.79781504567220       -2.53553066708423
H            2.71183747587836       -3.79273337761565       -2.11525211341886
H            4.17929493368662        1.27549847351208       -2.15749202644374
H            3.09270046527005        1.99425669987129       -1.23306571198957
H            2.36794801925733        4.23511417941229       -0.22709264530303
H            1.15281866691207        3.62401971413366       -1.09068011515051
H            4.49024898810669        0.88382635529453        1.54508409882258
H            3.74485803683801       -0.53352071261779        1.36997230965895
H            1.62361799503266       -0.42255801299397        4.69658646391162
H            2.45624140011026        0.19204955945777        3.46192983783999
H            3.97798500713917       -2.97794739502940        1.29470995677555
H            3.44696643043663       -2.48887420143007       -0.16169471361462
55
 energy: -94.617688303556 gnorm: 0.095708126401 xtb: 6.6.0 (conda-forge)
Fe          -0.18901621947154       -0.29796066123367       -0.09815863478786
O           -2.03134425842258       -0.87689952622041        1.41065408823342
O            1.36504898577915        1.38325220432468        0.97735381979411
O            1.66153470120546       -0.63850139946006       -1.80751384981571
O           -1.32443607458168       -0.20469287583411       -2.35441523547846
O           -1.34943522031420        1.93024543516758       -0.06237830257776
O            1.01678847243698       -1.79553531163069        1.66998113752943
H           -2.26574455615479        1.67549697409978       -0.22386299809481
H           -1.00407256942600        2.45353815804662       -0.78950455064498
H            1.02399673840359       -1.04353547854094        2.28454578845936
H            1.88187621709209       -1.79291286112195        1.26004127256317
H           -2.61162521191076       -0.13794680486591        1.67849660474155
H           -2.53435079679494       -1.49156860339122        0.86886507977363
H            2.30573277165025       -0.01647479565882       -1.38898076011577
H            2.02671632290671       -1.52326118835806       -1.59652927358967
H            1.55434329591593        2.01505409374967        0.25393518428297
H            2.20496821244544        0.89090345601895        1.10809246315333
H           -2.21290751904497       -0.44344359911966       -2.07961132207891
H           -0.87403872337669       -0.97480739816413       -2.72568248515738
O           -3.97331569180526        0.75727058632219        2.62644436708109
O            3.63362940297412       -2.22171082793132        0.77433437892652
O           -4.02135825274972       -0.77777677523152       -1.84456413473153
O           -0.51015343574893       -2.84563835766362       -0.68668110004435
O           -4.14373801768621        1.51951976470103       -0.22200910954206
O           -3.26515519692435       -2.77442630974958       -0.24315589362599
O            1.57770694473508       -0.07978232987587        3.79807593148170
O            3.78298675848729        0.31426678469126        1.86922035061444
O            2.08522033178337        3.48546353839582       -0.77759597574482
O           -0.42799521131563        4.04441577082322       -1.77517261291335
O            3.68344694531490        1.21794568384077       -1.32593745681396
O            3.23282645183406       -3.02224307991112       -1.84485593841084
H           -3.64845921010791       -2.02483423775119       -0.93046511802020
H           -3.84706006538342       -3.53770446384155       -0.11990232154206
H           -4.64197652469800        0.17550608689085        3.02867525985291
H           -3.58785003134378        1.37574132342423        3.26826396148789
H           -4.68790981934628        2.44511040298985       -0.32805216817619
H           -3.96534994676696        1.17226580676471        0.90595066663615
H           -0.90980975299257        4.82072108061279       -1.46759407622111
H           -0.59700469178837        3.90738438800459       -2.71239522957267
H           -4.62885770722321       -0.64851686607551       -2.62987434273343
H           -3.86684525911484        0.27936628001046       -1.08572473815151
H           -1.44688293820234       -2.77422973469325       -0.54528392120117
H           -0.11279248685287       -3.03276506560651        0.18132201547265
H            3.86866401821005       -2.80970427088863       -2.53889430458609
H            2.71666182746784       -3.78853681236170       -2.11874553869951
H            4.16390255631599        1.28808139338840       -2.15659606858827
H            3.12148018634452        2.00141563024187       -1.22834212134972
H            2.35555114815511        4.22503926007289       -0.22875012613276
H            1.18601963687086        3.64436116782626       -1.11048808633185
H            4.48749993461500        0.86755502525101        1.53524739296641
H            3.78797795273563       -0.53846835865555        1.40776570451063
H            1.65143908207829       -0.42998588205420        4.69324793689927
H            2.44902841767039        0.18578192538577        3.46548586066145
H            3.97092299621961       -2.96591063964670        1.27829284985210
H            3.48858507999202       -2.48961770558059       -0.15224431950004
55
 energy: -94.625739707572 gnorm: 0.134839516639 xtb: 6.6.0 (conda-forge)
Fe          -0.19977546811683       -0.28853917814259       -0.08833584019972
O           -1.99466576370019       -0.91153811363639        1.44993534060989
O            1.37636272593413        1.34152529699911        0.92535489068801
O            1.67571289489778       -0.65394475196611       -1.69411730373199
O           -1.32966218022744       -0.16311011884909       -2.36747553436848
O           -1.34962334833623        1.94009999309121        0.00047546306268
O            1.00245330851182       -1.80128149183195        1.65063536751252
H           -2.26223908016278        1.64544555900684       -0.25997536649110
H           -1.02589205802294        2.42601064487820       -0.80228489591379
H            0.98867910112186       -1.06199829467398        2.29325942409314
H            1.89618767596010       -1.77734303338550        1.25080723083438
H           -2.60747111862707       -0.15427702908685        1.65614130358850
H           -2.55676452427524       -1.46047655644925        0.85471681293314
H            2.30071396244794        0.00469062659246       -1.46257829194290
H            2.02618050575474       -1.50658712085729       -1.66234729318789
H            1.54955985696084        2.02094198067686        0.28467559086662
H            2.19991095826322        0.90557228574363        1.15575634536185
H           -2.21673031446145       -0.47774526659780       -2.06728067792560
H           -0.88501317157266       -0.97536143029882       -2.71063099671910
O           -3.97165941125189        0.75070845781373        2.66314740982165
O            3.64305165674098       -2.20880081490504        0.76161840390616
O           -4.03537278797177       -0.84187777255876       -1.85757935354259
O           -0.48714956743661       -2.85016411931191       -0.70593552033250
O           -4.15859101128591        1.54051389885945       -0.23292379870562
O           -3.27492535329627       -2.73041354459023       -0.27774446970080
O            1.56690042204159       -0.06856584319753        3.79875171910958
O            3.78856552355673        0.30574456139751        1.89079128946471
O            2.08983577736736        3.47963242667179       -0.78624969027347
O           -0.41537503491218        4.04804348935655       -1.78272657146628
O            3.69234719418062        1.21922317145482       -1.31162456166300
O            3.23820470202587       -3.03111953273648       -1.83324742689269
H           -3.69145514730594       -2.06830451339677       -0.93285020976781
H           -3.84727270668249       -3.47208768296030       -0.15533160213728
H           -4.63183993133219        0.20607383922236        3.06422523803322
H           -3.61434651465750        1.35550199816529        3.29524872762422
H           -4.67906691670342        2.47730035920688       -0.33467846035437
H           -3.97465123754185        1.19030815148463        0.87290861691902
H           -0.91774737805091        4.81301396483536       -1.48465398206085
H           -0.60868062726893        3.91526525437026       -2.71323872584911
H           -4.64187550394356       -0.70608121234507       -2.57782989901493
H           -3.78403092763129        0.28959888102463       -1.11014930125473
H           -1.44471426328170       -2.74703633305625       -0.53683780511280
H           -0.11699526919331       -3.02859776874156        0.18548593366921
H            3.85790153974698       -2.82721453561555       -2.54099877758183
H            2.71652977425941       -3.78519864235103       -2.12072164883151
H            4.15691014369629        1.30408223478946       -2.15319787490374
H            3.14221754769763        1.99882455684569       -1.22873058462163