 Entering Gaussian System, Link 0=g16
 Input=Cr_3_PBE.com
 Output=Cr_3_PBE.log
 Initial command:
 /gpfs/fs1/soft/improv/software/custom-built/gaussian/g16/l1.exe "/scratch/Gau-1149648.inp" -scrdir="/scratch/"
 Default CPUs for threads: 0-127
 Default linda workers: i587.lcrc.anl.gov
 Default is to use 128 SMP processors on each worker.
 Entering Link 1 = /gpfs/fs1/soft/improv/software/custom-built/gaussian/g16/l1.exe PID=   1149649.
  
 Copyright (c) 1988-2021, Gaussian, Inc.  All Rights Reserved.
  
 This is part of the Gaussian(R) 16 program.  It is based on
 the Gaussian(R) 09 system (copyright 2009, Gaussian, Inc.),
 the Gaussian(R) 03 system (copyright 2003, Gaussian, Inc.),
 the Gaussian(R) 98 system (copyright 1998, Gaussian, Inc.),
 the Gaussian(R) 94 system (copyright 1995, Gaussian, Inc.),
 the Gaussian 92(TM) system (copyright 1992, Gaussian, Inc.),
 the Gaussian 90(TM) system (copyright 1990, Gaussian, Inc.),
 the Gaussian 88(TM) system (copyright 1988, Gaussian, Inc.),
 the Gaussian 86(TM) system (copyright 1986, Carnegie Mellon
 University), and the Gaussian 82(TM) system (copyright 1983,
 Carnegie Mellon University). Gaussian is a federally registered
 trademark of Gaussian, Inc.
  
 This software contains proprietary and confidential information,
 including trade secrets, belonging to Gaussian, Inc.
  
 This software is provided under written license and may be
 used, copied, transmitted, or stored only in accord with that
 written license.
  
 The following legend is applicable only to US Government
 contracts under FAR:
  
                    RESTRICTED RIGHTS LEGEND
  
 Use, reproduction and disclosure by the US Government is
 subject to restrictions as set forth in subparagraphs (a)
 and (c) of the Commercial Computer Software - Restricted
 Rights clause in FAR 52.227-19.
  
 Gaussian, Inc.
 340 Quinnipiac St., Bldg. 40, Wallingford CT 06492
  
  
 ---------------------------------------------------------------
 Warning -- This program may not be used in any manner that
 competes with the business of Gaussian, Inc. or will provide
 assistance to any competitor of Gaussian, Inc.  The licensee
 of this program is prohibited from giving any competitor of
 Gaussian, Inc. access to this program.  By using this program,
 the user acknowledges that Gaussian, Inc. is engaged in the
 business of creating and licensing software in the field of
 computational chemistry and represents and warrants to the
 licensee that it is not a competitor of Gaussian, Inc. and that
 it will not use this program in any manner prohibited above.
 ---------------------------------------------------------------
  

 Cite this work as:
 Gaussian 16, Revision C.02,
 M. J. Frisch, G. W. Trucks, H. B. Schlegel, G. E. Scuseria, 
 M. A. Robb, J. R. Cheeseman, G. Scalmani, V. Barone, 
 G. A. Petersson, H. Nakatsuji, X. Li, M. Caricato, A. V. Marenich, 
 J. Bloino, B. G. Janesko, R. Gomperts, B. Mennucci, H. P. Hratchian, 
 J. V. Ortiz, A. F. Izmaylov, J. L. Sonnenberg, D. Williams-Young, 
 F. Ding, F. Lipparini, F. Egidi, J. Goings, B. Peng, A. Petrone, 
 T. Henderson, D. Ranasinghe, V. G. Zakrzewski, J. Gao, N. Rega, 
 G. Zheng, W. Liang, M. Hada, M. Ehara, K. Toyota, R. Fukuda, 
 J. Hasegawa, M. Ishida, T. Nakajima, Y. Honda, O. Kitao, H. Nakai, 
 T. Vreven, K. Throssell, J. A. Montgomery, Jr., J. E. Peralta, 
 F. Ogliaro, M. J. Bearpark, J. J. Heyd, E. N. Brothers, K. N. Kudin, 
 V. N. Staroverov, T. A. Keith, R. Kobayashi, J. Normand, 
 K. Raghavachari, A. P. Rendell, J. C. Burant, S. S. Iyengar, 
 J. Tomasi, M. Cossi, J. M. Millam, M. Klene, C. Adamo, R. Cammi, 
 J. W. Ochterski, R. L. Martin, K. Morokuma, O. Farkas, 
 J. B. Foresman, and D. J. Fox, Gaussian, Inc., Wallingford CT, 2019.
 
 ******************************************
 Gaussian 16:  ES64L-G16RevC.02  7-Dec-2021
                30-May-2024 
 ******************************************
 %chk=Cr_3_PBE.chk
 SetSPE:  set environment variable "OMP_PROC_BIND" = "true"
 SetSPE:  set environment variable "OMP_PLACES" = "{0},{1},{2},{3},{4},{5},{6},{7},{8},{9},{10},{11},{12},{13},{14},{15},{16},{17},{18},{19},{20},{21},{22},{23},{24},{25},{26},{27},{28},{29},{30},{31},{32},{33},{34},{35},{36},{37},{38},{39},{40},{41},{42},{43},{44},{45},{46},{47},{48},{49},{50},{51},{52},{53},{54},{55},{56},{57},{58},{59},{60},{61},{62},{63},{64},{65},{66},{67},{68},{69},{70},{71},{72},{73},{74},{75},{76},{77},{78},{79},{80},{81},{82},{83},{84},{85},{86},{87},{88},{89},{90},{91},{92},{93},{94},{95},{96},{97},{98},{99},{100},{101},{102},{103},{104},{105},{106},{107},{108},{109},{110},{111},{112},{113},{114},{115},{116},{117},{118},{119},{120},{121},{122},{123},{124},{125},{126},{127}"
 SetLPE:    new flags="-opt 'Tsnet.Node.lindarsharg: ssh'  -nodelist 'i587.lcrc.anl.gov' -env GAUSS_MDEF=26843545600 -env GAUSS_EXEDIR="/gpfs/fs1/soft/improv/software/custom-built/gaussian/g16/bsd:/gpfs/fs1/soft/improv/software/custom-built/gaussian/g16" -env "OMP_PROC_BIND=true" -env "OMP_PLACES={0},{1},{2},{3},{4},{5},{6},{7},{8},{9},{10},{11},{12},{13},{14},{15},{16},{17},{18},{19},{20},{21},{22},{23},{24},{25},{26},{27},{28},{29},{30},{31},{32},{33},{34},{35},{36},{37},{38},{39},{40},{41},{42},{43},{44},{45},{46},{47},{48},{49},{50},{51},{52},{53},{54},{55},{56},{57},{58},{59},{60},{61},{62},{63},{64},{65},{66},{67},{68},{69},{70},{71},{72},{73},{74},{75},{76},{77},{78},{79},{80},{81},{82},{83},{84},{85},{86},{87},{88},{89},{90},{91},{92},{93},{94},{95},{96},{97},{98},{99},{100},{101},{102},{103},{104},{105},{106},{107},{108},{109},{110},{111},{112},{113},{114},{115},{116},{117},{118},{119},{120},{121},{122},{123},{124},{125},{126},{127}" -env GAUSS_ADEF="0,1,2,3,4,5,6,7,8,9,10,11,12,13,14,15,16,17,18,19,20,21,22,23,24,25,26,27,28,29,30,31,32,33,34,35,36,37,38,39,40,41,42,43,44,45,46,47,48,49,50,51,52,53,54,55,56,57,58,59,60,61,62,63,64,65,66,67,68,69,70,71,72,73,74,75,76,77,78,79,80,81,82,83,84,85,86,87,88,89,90,91,92,93,94,95,96,97,98,99,100,101,102,103,104,105,106,107,108,109,110,111,112,113,114,115,116,117,118,119,120,121,122,123,124,125,126,127""
 Will use up to    1 processors via Linda.
 ----------------------------------------------------------------------
 #p PBEPBE empiricaldispersion=gd3 6-31+G(2df,p) opt=(cartesian,calcall
 ,maxcycles=500) freq scf=(maxcycles=500,xqc,maxconventional=50)
 ----------------------------------------------------------------------
 1/6=500,10=4,18=10,26=3,38=1/1,3;
 2/12=2,17=6,18=5,29=2,40=1/2;
 3/5=1,6=6,7=114,11=2,25=1,30=1,71=2,74=1009,124=31,140=1/1,2,3;
 4//1;
 5/5=2,7=500,8=3,13=1,38=5,85=50/2,8;
 8/6=4,10=90,11=11/1;
 11/6=1,8=1,9=11,15=111,16=1/1,2,10;
 10/6=1/2;
 6/7=2,8=2,9=2,10=2,18=1,28=1/1;
 7/7=1,10=1,25=1/1,2,3,16;
 1/6=500,10=4,18=10,26=3/3(3);
 2/29=1/2;
 7/7=1,8=1,9=1,25=1,44=-1/16;
 99/12=1/99;
 2/29=1/2;
 3/5=1,6=6,7=114,11=2,25=1,30=1,71=2,74=1009,124=31,140=1/1,2,3;
 4/5=5,16=3,69=1/1;
 5/5=2,7=500,8=3,13=1,38=5,85=50/2,8;
 8/6=4,10=90,11=11/1;
 11/6=1,8=1,9=11,15=111,16=1/1,2,10;
 10/6=1/2;
 7/7=1,10=1,25=1/1,2,3,16;
 1/6=500,10=4,18=10,26=3/3(-8);
 2/29=1/2;
 6/7=2,8=2,9=2,10=2,18=1,19=2,28=1/1;
 7/7=1,8=1,9=1,25=1,44=-1/16;
 99/12=1/99;
 Leave Link    1 at Thu May 30 09:17:01 2024, MaxMem=           0 cpu:               2.8 elap:               0.1
 (Enter /gpfs/fs1/soft/improv/software/custom-built/gaussian/g16/l101.exe)
 -----
 Title
 -----
 Symbolic Z-matrix:
 Charge =  3 Multiplicity = 4
 Cr                   -0.79304   0.81881  -0.09491 
 O                    -1.20497   2.57394  -0.35687 
 H                    -2.12106   2.64974  -0.63312 
 O                     0.99012   1.19063  -0.05794 
 H                     1.42696   0.5998    0.55971 
 O                    -0.81752   1.03069   1.71365 
 H                    -1.02108   0.1906    2.13133 
 O                    -0.38507  -0.93351   0.17118 
 H                    -1.15682  -1.47369  -0.01433 
 O                    -2.57341   0.45178  -0.12186 
 H                    -2.77756  -0.08744  -0.88929 
 O                    -0.76966   0.60461  -1.90111 
 H                     0.09872   0.83457  -2.23949 
 H                    -0.96534  -0.30999  -2.11742 
 H                     1.12208   2.09943   0.22124 
 H                    -1.07671   3.0584    0.46184 
 H                    -2.81407  -0.02398   0.6765 
 H                     0.0422    1.33615   2.01181 
 H                    -0.11532  -1.06446   1.08312 
 
 ITRead=  0  0  0  0  0  0  0  0  0  0  0  0  0  0  0  0  0  0  0
 MicOpt= -1 -1 -1 -1 -1 -1 -1 -1 -1 -1 -1 -1 -1 -1 -1 -1 -1 -1 -1
 NAtoms=     19 NQM=       19 NQMF=       0 NMMI=      0 NMMIF=      0
                NMic=       0 NMicF=      0.
                    Isotopes and Nuclear Properties:
 (Nuclear quadrupole moments (NQMom) in fm**2, nuclear magnetic moments (NMagM)
  in nuclear magnetons)

  Atom         1           2           3           4           5           6           7           8           9          10
 IAtWgt=          52          16           1          16           1          16           1          16           1          16
 AtmWgt=  51.9405097  15.9949146   1.0078250  15.9949146   1.0078250  15.9949146   1.0078250  15.9949146   1.0078250  15.9949146
 NucSpn=           0           0           1           0           1           0           1           0           1           0
 AtZEff=  -0.0000000  -0.0000000  -0.0000000  -0.0000000  -0.0000000  -0.0000000  -0.0000000  -0.0000000  -0.0000000  -0.0000000
 NQMom=    0.0000000   0.0000000   0.0000000   0.0000000   0.0000000   0.0000000   0.0000000   0.0000000   0.0000000   0.0000000
 NMagM=    0.0000000   0.0000000   2.7928460   0.0000000   2.7928460   0.0000000   2.7928460   0.0000000   2.7928460   0.0000000
 AtZNuc=  24.0000000   8.0000000   1.0000000   8.0000000   1.0000000   8.0000000   1.0000000   8.0000000   1.0000000   8.0000000

  Atom        11          12          13          14          15          16          17          18          19
 IAtWgt=           1          16           1           1           1           1           1           1           1
 AtmWgt=   1.0078250  15.9949146   1.0078250   1.0078250   1.0078250   1.0078250   1.0078250   1.0078250   1.0078250
 NucSpn=           1           0           1           1           1           1           1           1           1
 AtZEff=  -0.0000000  -0.0000000  -0.0000000  -0.0000000  -0.0000000  -0.0000000  -0.0000000  -0.0000000  -0.0000000
 NQMom=    0.0000000   0.0000000   0.0000000   0.0000000   0.0000000   0.0000000   0.0000000   0.0000000   0.0000000
 NMagM=    2.7928460   0.0000000   2.7928460   2.7928460   2.7928460   2.7928460   2.7928460   2.7928460   2.7928460
 AtZNuc=   1.0000000   8.0000000   1.0000000   1.0000000   1.0000000   1.0000000   1.0000000   1.0000000   1.0000000
 Leave Link  101 at Thu May 30 09:17:01 2024, MaxMem= 26843545600 cpu:               0.4 elap:               0.0
 (Enter /gpfs/fs1/soft/improv/software/custom-built/gaussian/g16/l103.exe)

 GradGradGradGradGradGradGradGradGradGradGradGradGradGradGradGradGradGrad
 Berny optimization.
 Initialization pass.
 No Z-matrix variables, so optimization will use Cartesian coordinates.
 Trust Radius=3.00D-01 FncErr=1.00D-07 GrdErr=1.00D-06 EigMax=2.50D+02 EigMin=1.00D-04
 Number of steps in this run=    114 maximum allowed number of steps=    114.
 GradGradGradGradGradGradGradGradGradGradGradGradGradGradGradGradGradGrad

 Leave Link  103 at Thu May 30 09:17:01 2024, MaxMem= 26843545600 cpu:               0.4 elap:               0.1
 (Enter /gpfs/fs1/soft/improv/software/custom-built/gaussian/g16/l202.exe)
 ---------------------------------------------------------------------------------------------------
                            Z-MATRIX (ANGSTROMS AND DEGREES)
   CD    Cent   Atom    N1       Length/X        N2       Alpha/Y        N3        Beta/Z          J
 ---------------------------------------------------------------------------------------------------
      1      1  Cr       0  -0.793037          0.818805         -0.094905
      2      2  O        0  -1.204971          2.573941         -0.356874
      3      3  H        0  -2.121063          2.649743         -0.633122
      4      4  O        0   0.990122          1.190635         -0.057941
      5      5  H        0   1.426962          0.599798          0.559707
      6      6  O        0  -0.817519          1.030691          1.713650
      7      7  H        0  -1.021079          0.190602          2.131326
      8      8  O        0  -0.385068         -0.933506          0.171177
      9      9  H        0  -1.156817         -1.473692         -0.014327
     10     10  O        0  -2.573405          0.451778         -0.121857
     11     11  H        0  -2.777557         -0.087440         -0.889285
     12     12  O        0  -0.769659          0.604612         -1.901109
     13     13  H        0   0.098725          0.834573         -2.239490
     14     14  H        0  -0.965336         -0.309994         -2.117418
     15     15  H        0   1.122081          2.099426          0.221242
     16     16  H        0  -1.076711          3.058396          0.461841
     17     17  H        0  -2.814074         -0.023981          0.676500
     18     18  H        0   0.042204          1.336153          2.011809
     19     19  H        0  -0.115315         -1.064459          1.083123
 ---------------------------------------------------------------------------------------------------
                         Z-Matrix orientation:                         
 ---------------------------------------------------------------------
 Center     Atomic      Atomic             Coordinates (Angstroms)
 Number     Number       Type             X           Y           Z
 ---------------------------------------------------------------------
      1         24           0       -0.793037    0.818805   -0.094905
      2          8           0       -1.204971    2.573941   -0.356874
      3          1           0       -2.121063    2.649743   -0.633122
      4          8           0        0.990122    1.190635   -0.057941
      5          1           0        1.426962    0.599798    0.559707
      6          8           0       -0.817519    1.030691    1.713650
      7          1           0       -1.021079    0.190602    2.131326
      8          8           0       -0.385068   -0.933506    0.171177
      9          1           0       -1.156817   -1.473692   -0.014327
     10          8           0       -2.573405    0.451778   -0.121857
     11          1           0       -2.777557   -0.087440   -0.889285
     12          8           0       -0.769659    0.604612   -1.901109
     13          1           0        0.098725    0.834573   -2.239490
     14          1           0       -0.965336   -0.309994   -2.117418
     15          1           0        1.122081    2.099426    0.221242
     16          1           0       -1.076711    3.058396    0.461841
     17          1           0       -2.814074   -0.023981    0.676500
     18          1           0        0.042204    1.336153    2.011809
     19          1           0       -0.115315   -1.064459    1.083123
 ---------------------------------------------------------------------
                    Distance matrix (angstroms):
                    1          2          3          4          5
     1  Cr   0.000000
     2  O    1.821762   0.000000
     3  H    2.325008   0.959835   0.000000
     4  O    1.821889   2.611767   3.484150   0.000000
     5  H    2.324839   3.415322   4.267739   0.959899   0.000000
     6  O    1.821090   2.611285   3.134947   2.536076   2.560263
     7  H    2.324381   3.450400   3.859988   3.136540   2.937743
     8  O    1.818745   3.640503   4.062050   2.540791   2.405292
     9  H    2.322579   4.062387   4.279649   3.421971   3.362259
    10  O    1.818006   2.536025   2.301533   3.639880   4.060711
    11  H    2.321775   3.136788   2.826442   4.064482   4.499984
    12  O    1.819010   2.540161   2.759827   2.614866   3.298603
    13  H    2.322657   2.875634   3.286750   2.383386   3.107223
    14  H    2.322591   3.387332   3.506977   3.212032   3.703756
    15  H    2.325429   2.444290   3.398642   0.959822   1.567289
    16  H    2.325125   0.959918   1.567358   2.833814   3.510364
    17  H    2.321626   3.225876   3.056824   4.060370   4.288255
    18  H    2.324547   2.949275   3.660724   2.281137   2.137375
    19  H    2.322443   4.061883   4.556733   2.758526   2.328591
                    6          7          8          9         10
     6  O    0.000000
     7  H    0.960021   0.000000
     8  O    2.534622   2.347406   0.000000
     9  H    3.061530   2.718847   0.960108   0.000000
    10  O    2.605257   2.748593   2.606473   2.392848   0.000000
    11  H    3.444886   3.505227   2.750347   2.305222   0.959885
    12  O    3.640099   4.061422   2.609231   2.833582   2.538227
    13  H    4.062670   4.557707   3.028445   3.443229   3.430916
    14  H    4.061572   4.278496   2.441955   2.411193   2.673658
    15  H    2.670492   3.447487   3.387136   4.244531   4.060675
    16  H    2.397039   3.318813   4.061790   4.557738   3.061904
    17  H    2.484803   2.318921   2.642472   2.307685   0.960023
    18  H    0.959858   1.567527   2.953276   3.665802   3.489421
    19  H    2.297892   1.869309   0.959980   1.567353   3.129403
                   11         12         13         14         15
    11  H    0.000000
    12  O    2.352526   0.000000
    13  H    3.308498   0.959935   0.000000
    14  H    2.200452   0.959991   1.567533   0.000000
    15  H    4.606825   3.212091   2.949969   3.953725   0.000000
    16  H    3.822919   3.420362   3.691102   4.243941   2.410850
    17  H    1.567497   3.349453   4.210050   3.362383   4.495491
    18  H    4.288824   4.062660   4.281159   4.558009   2.225950
    19  H    3.454344   3.481323   3.833001   3.396353   3.504877
                   16         17         18         19
    16  H    0.000000
    17  H    3.544793   0.000000
    18  H    2.573032   3.433851   0.000000
    19  H    4.278809   2.920828   2.578800   0.000000
 Stoichiometry    CrH12O6(3+,4)
 Framework group  C1[X(CrH12O6)]
 Deg. of freedom    51
 Full point group                 C1      NOp   1
 Largest Abelian subgroup         C1      NOp   1
 Largest concise Abelian subgroup C1      NOp   1
                         Standard orientation:                         
 ---------------------------------------------------------------------
 Center     Atomic      Atomic             Coordinates (Angstroms)
 Number     Number       Type             X           Y           Z
 ---------------------------------------------------------------------
      1         24           0       -0.020685   -0.030482    0.009994
      2          8           0       -0.320844   -1.688023   -0.683750
      3          1           0       -1.137089   -1.680465   -1.188697
      4          8           0        1.254521   -0.678417    1.138405
      5          1           0        1.943144   -0.019792    1.254236
      6          8           0        1.297903    0.293995   -1.203435
      7          1           0        1.381609    1.240665   -1.339268
      8          8           0        0.280044    1.626266    0.697440
      9          1           0       -0.431883    2.215255    0.436555
     10          8           0       -1.286249    0.615324   -1.124214
     11          1           0       -2.035220    0.938006   -0.617955
     12          8           0       -1.338537   -0.351919    1.221911
     13          1           0       -0.971839   -0.815948    1.978009
     14          1           0       -1.717555    0.481353    1.511023
     15          1           0        1.635363   -1.477123    0.766536
     16          1           0        0.408500   -1.931252   -1.258500
     17          1           0       -0.915691    1.334609   -1.640895
     18          1           0        2.128750   -0.056695   -0.874745
     19          1           0        1.113633    1.965130    0.362982
 ---------------------------------------------------------------------
 Rotational constants (GHZ):           2.0397002           1.9739464           1.9252837
 Leave Link  202 at Thu May 30 09:17:02 2024, MaxMem= 26843545600 cpu:               0.5 elap:               0.1
 (Enter /gpfs/fs1/soft/improv/software/custom-built/gaussian/g16/l301.exe)
 Standard basis: 6-31+G(2df,p) (6D, 7F)
 Ernie: Thresh=  0.10000D-02 Tol=  0.10000D-05 Strict=F.
 There are   347 symmetry adapted cartesian basis functions of A   symmetry.
 There are   317 symmetry adapted basis functions of A   symmetry.
   317 basis functions,   514 primitive gaussians,   347 cartesian basis functions
    42 alpha electrons       39 beta electrons
       nuclear repulsion energy       734.4111157916 Hartrees.
 IExCor= 1009 DFT=T Ex=PBE Corr=PBE ExCW=0 ScaHFX=  0.000000
 ScaDFX=  1.000000  1.000000  1.000000  1.000000 ScalE2=  1.000000  1.000000
 IRadAn=      5 IRanWt=     -1 IRanGd=            0 ICorTp=0 IEmpDi=131
 NAtoms=   19 NActive=   19 NUniq=   19 SFac= 1.00D+00 NAtFMM=   60 NAOKFM=F Big=F
 Integral buffers will be    131072 words long.
 Raffenetti 2 integral format.
 Two-electron integral symmetry is turned on.
 R6Disp:  Grimme-D3 Dispersion energy=       -0.0112068082 Hartrees.
 Nuclear repulsion after empirical dispersion term =      734.3999089833 Hartrees.
 Leave Link  301 at Thu May 30 09:17:02 2024, MaxMem= 26843545600 cpu:               0.4 elap:               0.0
 (Enter /gpfs/fs1/soft/improv/software/custom-built/gaussian/g16/l302.exe)
 NPDir=0 NMtPBC=     1 NCelOv=     1 NCel=       1 NClECP=     1 NCelD=      1
         NCelK=      1 NCelE2=     1 NClLst=     1 CellRange=     0.0.
 One-electron integrals computed using PRISM.
 One-electron integral symmetry used in STVInt
 NBasis=   317 RedAO= T EigKep=  2.57D-05  NBF=   317
 NBsUse=   317 1.00D-06 EigRej= -1.00D+00 NBFU=   317
 Precomputing XC quadrature grid using
 IXCGrd= 4 IRadAn=           5 IRanWt=          -1 IRanGd=           0 AccXCQ= 0.00D+00.
 Generated NRdTot=       0 NPtTot=           0 NUsed=           0 NTot=          32
 NSgBfM=   347   346   347   347   347 MxSgAt=    19 MxSgA2=    19.
 Leave Link  302 at Thu May 30 09:17:03 2024, MaxMem= 26843545600 cpu:              21.6 elap:               0.3
 (Enter /gpfs/fs1/soft/improv/software/custom-built/gaussian/g16/l303.exe)
 DipDrv:  MaxL=1.
 Leave Link  303 at Thu May 30 09:17:03 2024, MaxMem= 26843545600 cpu:               1.0 elap:               0.0
 (Enter /gpfs/fs1/soft/improv/software/custom-built/gaussian/g16/l401.exe)
 ExpMin= 1.13D-02 ExpMax= 5.18D+04 ExpMxC= 7.78D+03 IAcc=3 IRadAn=         5 AccDes= 0.00D+00
 Harris functional with IExCor= 1009 and IRadAn=       5 diagonalized for initial guess.
 HarFok:  IExCor= 1009 AccDes= 0.00D+00 IRadAn=         5 IDoV= 1 UseB2=F ITyADJ=14
 ICtDFT=  3500011 ScaDFX=  1.000000  1.000000  1.000000  1.000000
 FoFCou: FMM=F IPFlag=           0 FMFlag=      100000 FMFlg1=           0
         NFxFlg=           0 DoJE=T BraDBF=F KetDBF=T FulRan=T
         wScrn=  0.000000 ICntrl=       500 IOpCl=  0 I1Cent=   200000004 NGrid=           0
         NMat0=    1 NMatS0=      1 NMatT0=    0 NMatD0=    1 NMtDS0=    0 NMtDT0=    0
 Petite list used in FoFCou.
 Harris En= -1501.86361465370    
 JPrj=0 DoOrth=F DoCkMO=F.
 Initial guess <Sx>= 0.0000 <Sy>= 0.0000 <Sz>= 1.5000 <S**2>= 3.7500 S= 1.5000
 Leave Link  401 at Thu May 30 09:17:04 2024, MaxMem= 26843545600 cpu:              37.2 elap:               0.5
 (Enter /gpfs/fs1/soft/improv/software/custom-built/gaussian/g16/l502.exe)
 Integral symmetry usage will be decided dynamically.
 UHF open shell SCF:
 Using DIIS extrapolation, IDIIS=  1040.
 NGot= 26843545600 LenX= 26843256607 LenY= 26843135757
 Requested convergence on RMS density matrix=1.00D-08 within  50 cycles.
 Requested convergence on MAX density matrix=1.00D-06.
 Requested convergence on             energy=1.00D-06.
 No special actions if energy rises.
 Fock matrices will be formed incrementally for  20 cycles.

 Cycle   1  Pass 1  IDiag  1:
 FoFJK:  IHMeth= 1 ICntrl=     500 DoSepK=F KAlg= 0 I1Cent=           0 FoldK=F
 IRaf= 990000000 NMat=       1 IRICut=       1 DoRegI=T DoRafI=F ISym2E= 0 IDoP0=0 IntGTp=1.
 FoFCou: FMM=F IPFlag=           0 FMFlag=      100000 FMFlg1=           0
         NFxFlg=           0 DoJE=T BraDBF=F KetDBF=F FulRan=T
         wScrn=  0.000000 ICntrl=       500 IOpCl=  0 I1Cent=           0 NGrid=           0
         NMat0=    1 NMatS0=      1 NMatT0=    0 NMatD0=    1 NMtDS0=    0 NMtDT0=    0
 Symmetry not used in FoFCou.
 E= -1499.44319511433    
 DIIS: error= 5.01D-02 at cycle   1 NSaved=   1.
 NSaved= 1 IEnMin= 1 EnMin= -1499.44319511433     IErMin= 1 ErrMin= 5.01D-02
 ErrMax= 5.01D-02  0.00D+00 EMaxC= 1.00D-01 BMatC= 7.95D+00 BMatP= 7.95D+00
 IDIUse=3 WtCom= 4.99D-01 WtEn= 5.01D-01
 Coeff-Com:  0.100D+01
 Coeff-En:   0.100D+01
 Coeff:      0.100D+01
 Gap=     0.032 Goal=   None    Shift=    0.000
 Gap=     0.247 Goal=   None    Shift=    0.000
 GapD=    0.032 DampG=0.250 DampE=0.250 DampFc=0.1250 IDamp=-1.
 Damping current iteration by 1.25D-01
 RMSDP=5.57D-02 MaxDP=3.26D+00              OVMax= 9.79D-01

 Cycle   2  Pass 1  IDiag  1:
 RMSU=  6.96D-03    CP:  9.90D-01
 E= -1500.14473026913     Delta-E=       -0.701535154800 Rises=F Damp=T
 DIIS: error= 3.06D-02 at cycle   2 NSaved=   2.
 NSaved= 2 IEnMin= 2 EnMin= -1500.14473026913     IErMin= 2 ErrMin= 3.06D-02
 ErrMax= 3.06D-02  0.00D+00 EMaxC= 1.00D-01 BMatC= 1.47D+00 BMatP= 7.95D+00
 IDIUse=3 WtCom= 6.94D-01 WtEn= 3.06D-01
 Coeff-Com: -0.658D+00 0.166D+01
 Coeff-En:   0.000D+00 0.100D+01
 Coeff:     -0.457D+00 0.146D+01
 Gap=    -0.011 Goal=   None    Shift=    0.000
 Gap=     0.007 Goal=   None    Shift=    0.000
 RMSDP=1.24D-02 MaxDP=2.16D+00 DE=-7.02D-01 OVMax= 9.65D-01

 Cycle   3  Pass 1  IDiag  1:
 RMSU=  1.03D-02    CP:  6.94D-01  6.91D-01
 E= -1500.92569792908     Delta-E=       -0.780967659953 Rises=F Damp=F
 DIIS: error= 2.89D-02 at cycle   3 NSaved=   3.
 NSaved= 3 IEnMin= 3 EnMin= -1500.92569792908     IErMin= 3 ErrMin= 2.89D-02
 ErrMax= 2.89D-02  0.00D+00 EMaxC= 1.00D-01 BMatC= 1.16D+00 BMatP= 1.47D+00
 IDIUse=3 WtCom= 7.11D-01 WtEn= 2.89D-01
 Coeff-Com: -0.163D+00 0.742D+00 0.420D+00
 Coeff-En:   0.164D+00 0.000D+00 0.836D+00
 Coeff:     -0.683D-01 0.528D+00 0.540D+00
 Gap=     0.141 Goal=   None    Shift=    0.000
 Gap=     0.227 Goal=   None    Shift=    0.000
 RMSDP=2.06D-03 MaxDP=8.50D-02 DE=-7.81D-01 OVMax= 1.35D-01

 Cycle   4  Pass 1  IDiag  1:
 RMSU=  1.65D-03    CP:  6.96D-01  5.18D-01  9.73D-01
 E= -1501.09129110541     Delta-E=       -0.165593176332 Rises=F Damp=F
 DIIS: error= 8.00D-03 at cycle   4 NSaved=   4.
 NSaved= 4 IEnMin= 4 EnMin= -1501.09129110541     IErMin= 4 ErrMin= 8.00D-03
 ErrMax= 8.00D-03  0.00D+00 EMaxC= 1.00D-01 BMatC= 1.97D-01 BMatP= 1.16D+00
 IDIUse=3 WtCom= 9.20D-01 WtEn= 8.00D-02
 Coeff-Com: -0.888D-01 0.186D+00 0.239D+00 0.663D+00
 Coeff-En:   0.000D+00 0.000D+00 0.196D+00 0.804D+00
 Coeff:     -0.817D-01 0.171D+00 0.236D+00 0.675D+00
 Gap=     0.140 Goal=   None    Shift=    0.000
 Gap=     0.205 Goal=   None    Shift=    0.000
 RMSDP=1.05D-03 MaxDP=4.92D-02 DE=-1.66D-01 OVMax= 3.39D-02

 Cycle   5  Pass 1  IDiag  1:
 RMSU=  7.16D-04    CP:  6.96D-01  6.09D-01  9.85D-01  7.52D-01
 E= -1501.12018579434     Delta-E=       -0.028894688928 Rises=F Damp=F
 DIIS: error= 2.48D-03 at cycle   5 NSaved=   5.
 NSaved= 5 IEnMin= 5 EnMin= -1501.12018579434     IErMin= 5 ErrMin= 2.48D-03
 ErrMax= 2.48D-03  0.00D+00 EMaxC= 1.00D-01 BMatC= 1.89D-02 BMatP= 1.97D-01
 IDIUse=3 WtCom= 9.75D-01 WtEn= 2.48D-02
 Coeff-Com: -0.891D-01 0.156D+00 0.927D-01 0.313D+00 0.527D+00
 Coeff-En:   0.000D+00 0.000D+00 0.000D+00 0.000D+00 0.100D+01
 Coeff:     -0.869D-01 0.152D+00 0.904D-01 0.306D+00 0.539D+00
 Gap=     0.149 Goal=   None    Shift=    0.000
 Gap=     0.205 Goal=   None    Shift=    0.000
 RMSDP=2.37D-04 MaxDP=1.07D-02 DE=-2.89D-02 OVMax= 1.11D-02

 Cycle   6  Pass 1  IDiag  1:
 RMSU=  2.13D-04    CP:  6.95D-01  6.02D-01  9.84D-01  7.68D-01  8.76D-01
 E= -1501.12243297488     Delta-E=       -0.002247180541 Rises=F Damp=F
 DIIS: error= 1.48D-03 at cycle   6 NSaved=   6.
 NSaved= 6 IEnMin= 6 EnMin= -1501.12243297488     IErMin= 6 ErrMin= 1.48D-03
 ErrMax= 1.48D-03  0.00D+00 EMaxC= 1.00D-01 BMatC= 7.06D-03 BMatP= 1.89D-02
 IDIUse=3 WtCom= 9.85D-01 WtEn= 1.48D-02
 Coeff-Com: -0.377D-01 0.789D-01 0.116D-01-0.103D+00 0.229D+00 0.822D+00
 Coeff-En:   0.000D+00 0.000D+00 0.000D+00 0.000D+00 0.978D-01 0.902D+00
 Coeff:     -0.371D-01 0.777D-01 0.114D-01-0.101D+00 0.227D+00 0.823D+00
 Gap=     0.147 Goal=   None    Shift=    0.000
 Gap=     0.201 Goal=   None    Shift=    0.000
 RMSDP=1.83D-04 MaxDP=6.87D-03 DE=-2.25D-03 OVMax= 7.34D-03

 Cycle   7  Pass 1  IDiag  1:
 RMSU=  1.02D-04    CP:  6.95D-01  6.17D-01  9.85D-01  7.20D-01  9.72D-01
                    CP:  1.13D+00
 E= -1501.12338557493     Delta-E=       -0.000952600045 Rises=F Damp=F
 DIIS: error= 7.75D-04 at cycle   7 NSaved=   7.
 NSaved= 7 IEnMin= 7 EnMin= -1501.12338557493     IErMin= 7 ErrMin= 7.75D-04
 ErrMax= 7.75D-04  0.00D+00 EMaxC= 1.00D-01 BMatC= 1.28D-03 BMatP= 7.06D-03
 IDIUse=3 WtCom= 9.92D-01 WtEn= 7.75D-03
 Coeff-Com:  0.111D-02-0.987D-03-0.500D-02-0.133D+00 0.317D-01 0.529D+00
 Coeff-Com:  0.577D+00
 Coeff-En:   0.000D+00 0.000D+00 0.000D+00 0.000D+00 0.000D+00 0.000D+00
 Coeff-En:   0.100D+01
 Coeff:      0.110D-02-0.979D-03-0.496D-02-0.132D+00 0.315D-01 0.525D+00
 Coeff:      0.580D+00
 Gap=     0.147 Goal=   None    Shift=    0.000
 Gap=     0.201 Goal=   None    Shift=    0.000
 RMSDP=9.37D-05 MaxDP=4.92D-03 DE=-9.53D-04 OVMax= 2.71D-03

 Cycle   8  Pass 1  IDiag  1:
 RMSU=  3.13D-05    CP:  6.95D-01  6.23D-01  9.86D-01  7.17D-01  1.06D+00
                    CP:  1.19D+00  5.66D-01
 E= -1501.12361463984     Delta-E=       -0.000229064914 Rises=F Damp=F
 DIIS: error= 7.10D-05 at cycle   8 NSaved=   8.
 NSaved= 8 IEnMin= 8 EnMin= -1501.12361463984     IErMin= 8 ErrMin= 7.10D-05
 ErrMax= 7.10D-05  0.00D+00 EMaxC= 1.00D-01 BMatC= 2.88D-05 BMatP= 1.28D-03
 IDIUse=1 WtCom= 1.00D+00 WtEn= 0.00D+00
 Coeff-Com:  0.137D-02-0.225D-02-0.192D-02-0.560D-01 0.116D-01 0.218D+00
 Coeff-Com:  0.277D+00 0.552D+00
 Coeff:      0.137D-02-0.225D-02-0.192D-02-0.560D-01 0.116D-01 0.218D+00
 Coeff:      0.277D+00 0.552D+00
 Gap=     0.147 Goal=   None    Shift=    0.000
 Gap=     0.201 Goal=   None    Shift=    0.000
 RMSDP=1.49D-05 MaxDP=9.29D-04 DE=-2.29D-04 OVMax= 6.01D-04

 Cycle   9  Pass 1  IDiag  1:
 RMSU=  1.07D-05    CP:  6.95D-01  6.21D-01  9.86D-01  7.18D-01  1.06D+00
                    CP:  1.19D+00  6.07D-01  8.77D-01
 E= -1501.12361829349     Delta-E=       -0.000003653646 Rises=F Damp=F
 DIIS: error= 4.50D-05 at cycle   9 NSaved=   9.
 NSaved= 9 IEnMin= 9 EnMin= -1501.12361829349     IErMin= 9 ErrMin= 4.50D-05
 ErrMax= 4.50D-05  0.00D+00 EMaxC= 1.00D-01 BMatC= 7.99D-06 BMatP= 2.88D-05
 IDIUse=1 WtCom= 1.00D+00 WtEn= 0.00D+00
 Coeff-Com:  0.148D-03 0.124D-03-0.298D-03-0.151D-01 0.559D-02 0.617D-01
 Coeff-Com:  0.853D-01 0.340D+00 0.522D+00
 Coeff:      0.148D-03 0.124D-03-0.298D-03-0.151D-01 0.559D-02 0.617D-01
 Coeff:      0.853D-01 0.340D+00 0.522D+00
 Gap=     0.147 Goal=   None    Shift=    0.000
 Gap=     0.201 Goal=   None    Shift=    0.000
 RMSDP=6.15D-06 MaxDP=3.02D-04 DE=-3.65D-06 OVMax= 2.46D-04

 Cycle  10  Pass 1  IDiag  1:
 RMSU=  4.29D-06    CP:  6.95D-01  6.21D-01  9.86D-01  7.18D-01  1.05D+00
                    CP:  1.19D+00  6.15D-01  8.98D-01  8.59D-01
 E= -1501.12361959664     Delta-E=       -0.000001303150 Rises=F Damp=F
 DIIS: error= 1.35D-05 at cycle  10 NSaved=  10.
 NSaved=10 IEnMin=10 EnMin= -1501.12361959664     IErMin=10 ErrMin= 1.35D-05
 ErrMax= 1.35D-05  0.00D+00 EMaxC= 1.00D-01 BMatC= 5.76D-07 BMatP= 7.99D-06
 IDIUse=1 WtCom= 1.00D+00 WtEn= 0.00D+00
 Coeff-Com:  0.416D-04-0.958D-04-0.335D-04 0.274D-02 0.572D-03-0.909D-02
 Coeff-Com: -0.103D-01 0.447D-01 0.229D+00 0.743D+00
 Coeff:      0.416D-04-0.958D-04-0.335D-04 0.274D-02 0.572D-03-0.909D-02
 Coeff:     -0.103D-01 0.447D-01 0.229D+00 0.743D+00
 Gap=     0.147 Goal=   None    Shift=    0.000
 Gap=     0.201 Goal=   None    Shift=    0.000
 RMSDP=1.92D-06 MaxDP=1.02D-04 DE=-1.30D-06 OVMax= 7.49D-05

 Cycle  11  Pass 1  IDiag  1:
 RMSU=  1.13D-06    CP:  6.95D-01  6.21D-01  9.86D-01  7.19D-01  1.06D+00
                    CP:  1.19D+00  6.14D-01  9.20D-01  8.98D-01  7.94D-01
 E= -1501.12361970854     Delta-E=       -0.000000111898 Rises=F Damp=F
 DIIS: error= 3.11D-06 at cycle  11 NSaved=  11.
 NSaved=11 IEnMin=11 EnMin= -1501.12361970854     IErMin=11 ErrMin= 3.11D-06
 ErrMax= 3.11D-06  0.00D+00 EMaxC= 1.00D-01 BMatC= 4.09D-08 BMatP= 5.76D-07
 IDIUse=1 WtCom= 1.00D+00 WtEn= 0.00D+00
 Coeff-Com:  0.892D-05-0.369D-04-0.180D-04 0.189D-02 0.708D-04-0.653D-02
 Coeff-Com: -0.868D-02 0.328D-03 0.668D-01 0.315D+00 0.631D+00
 Coeff:      0.892D-05-0.369D-04-0.180D-04 0.189D-02 0.708D-04-0.653D-02
 Coeff:     -0.868D-02 0.328D-03 0.668D-01 0.315D+00 0.631D+00
 Gap=     0.147 Goal=   None    Shift=    0.000
 Gap=     0.201 Goal=   None    Shift=    0.000
 RMSDP=4.62D-07 MaxDP=1.73D-05 DE=-1.12D-07 OVMax= 2.30D-05

 Cycle  12  Pass 1  IDiag  1:
 RMSU=  3.66D-07    CP:  6.95D-01  6.21D-01  9.86D-01  7.19D-01  1.06D+00
                    CP:  1.19D+00  6.14D-01  9.22D-01  9.02D-01  8.18D-01
                    CP:  8.18D-01
 E= -1501.12361971354     Delta-E=       -0.000000005005 Rises=F Damp=F
 DIIS: error= 1.86D-06 at cycle  12 NSaved=  12.
 NSaved=12 IEnMin=12 EnMin= -1501.12361971354     IErMin=12 ErrMin= 1.86D-06
 ErrMax= 1.86D-06  0.00D+00 EMaxC= 1.00D-01 BMatC= 1.26D-08 BMatP= 4.09D-08
 IDIUse=1 WtCom= 1.00D+00 WtEn= 0.00D+00
 Coeff-Com: -0.339D-05-0.110D-05-0.693D-05 0.764D-03-0.235D-04-0.259D-02
 Coeff-Com: -0.380D-02-0.670D-02 0.604D-02 0.834D-01 0.394D+00 0.529D+00
 Coeff:     -0.339D-05-0.110D-05-0.693D-05 0.764D-03-0.235D-04-0.259D-02
 Coeff:     -0.380D-02-0.670D-02 0.604D-02 0.834D-01 0.394D+00 0.529D+00
 Gap=     0.147 Goal=   None    Shift=    0.000
 Gap=     0.201 Goal=   None    Shift=    0.000
 RMSDP=2.04D-07 MaxDP=1.14D-05 DE=-5.01D-09 OVMax= 1.27D-05

 Cycle  13  Pass 1  IDiag  1:
 RMSU=  1.38D-07    CP:  6.95D-01  6.21D-01  9.86D-01  7.19D-01  1.06D+00
                    CP:  1.19D+00  6.14D-01  9.22D-01  9.04D-01  8.23D-01
                    CP:  8.58D-01  7.11D-01
 E= -1501.12361971550     Delta-E=       -0.000000001962 Rises=F Damp=F
 DIIS: error= 6.72D-07 at cycle  13 NSaved=  13.
 NSaved=13 IEnMin=13 EnMin= -1501.12361971550     IErMin=13 ErrMin= 6.72D-07
 ErrMax= 6.72D-07  0.00D+00 EMaxC= 1.00D-01 BMatC= 1.55D-09 BMatP= 1.26D-08
 IDIUse=1 WtCom= 1.00D+00 WtEn= 0.00D+00
 Coeff-Com: -0.350D-05 0.576D-05 0.151D-06 0.544D-04-0.336D-04-0.153D-03
 Coeff-Com: -0.357D-03-0.372D-02-0.981D-02-0.150D-01 0.994D-01 0.307D+00
 Coeff-Com:  0.622D+00
 Coeff:     -0.350D-05 0.576D-05 0.151D-06 0.544D-04-0.336D-04-0.153D-03
 Coeff:     -0.357D-03-0.372D-02-0.981D-02-0.150D-01 0.994D-01 0.307D+00
 Coeff:      0.622D+00
 Gap=     0.147 Goal=   None    Shift=    0.000
 Gap=     0.201 Goal=   None    Shift=    0.000
 RMSDP=6.57D-08 MaxDP=2.93D-06 DE=-1.96D-09 OVMax= 3.08D-06

 Cycle  14  Pass 1  IDiag  1:
 RMSU=  4.06D-08    CP:  6.95D-01  6.21D-01  9.86D-01  7.19D-01  1.06D+00
                    CP:  1.19D+00  6.14D-01  9.22D-01  9.04D-01  8.25D-01
                    CP:  8.76D-01  7.53D-01  7.26D-01
 E= -1501.12361971578     Delta-E=       -0.000000000272 Rises=F Damp=F
 DIIS: error= 1.58D-07 at cycle  14 NSaved=  14.
 NSaved=14 IEnMin=14 EnMin= -1501.12361971578     IErMin=14 ErrMin= 1.58D-07
 ErrMax= 1.58D-07  0.00D+00 EMaxC= 1.00D-01 BMatC= 5.11D-11 BMatP= 1.55D-09
 IDIUse=1 WtCom= 1.00D+00 WtEn= 0.00D+00
 Coeff-Com: -0.960D-06 0.230D-05 0.449D-06-0.397D-04-0.163D-04 0.115D-03
 Coeff-Com:  0.179D-03-0.305D-03-0.236D-02-0.832D-02 0.337D-02 0.474D-01
 Coeff-Com:  0.157D+00 0.803D+00
 Coeff:     -0.960D-06 0.230D-05 0.449D-06-0.397D-04-0.163D-04 0.115D-03
 Coeff:      0.179D-03-0.305D-03-0.236D-02-0.832D-02 0.337D-02 0.474D-01
 Coeff:      0.157D+00 0.803D+00
 Gap=     0.147 Goal=   None    Shift=    0.000
 Gap=     0.201 Goal=   None    Shift=    0.000
 RMSDP=2.81D-08 MaxDP=1.53D-06 DE=-2.72D-10 OVMax= 5.81D-07

 Cycle  15  Pass 1  IDiag  1:
 RMSU=  1.13D-08    CP:  6.95D-01  6.21D-01  9.86D-01  7.19D-01  1.06D+00
                    CP:  1.19D+00  6.14D-01  9.22D-01  9.04D-01  8.24D-01
                    CP:  8.75D-01  7.63D-01  7.55D-01  9.02D-01
 E= -1501.12361971577     Delta-E=        0.000000000007 Rises=F Damp=F
 DIIS: error= 5.11D-08 at cycle  15 NSaved=  15.
 NSaved=15 IEnMin=14 EnMin= -1501.12361971578     IErMin=15 ErrMin= 5.11D-08
 ErrMax= 5.11D-08  0.00D+00 EMaxC= 1.00D-01 BMatC= 9.46D-12 BMatP= 5.11D-11
 IDIUse=1 WtCom= 1.00D+00 WtEn= 0.00D+00
 Coeff-Com: -0.633D-07 0.155D-06 0.474D-06-0.196D-04-0.785D-05 0.476D-04
 Coeff-Com:  0.962D-04 0.167D-03-0.234D-03-0.245D-02-0.625D-02-0.264D-02
 Coeff-Com:  0.232D-01 0.378D+00 0.610D+00
 Coeff:     -0.633D-07 0.155D-06 0.474D-06-0.196D-04-0.785D-05 0.476D-04
 Coeff:      0.962D-04 0.167D-03-0.234D-03-0.245D-02-0.625D-02-0.264D-02
 Coeff:      0.232D-01 0.378D+00 0.610D+00
 Gap=     0.147 Goal=   None    Shift=    0.000
 Gap=     0.201 Goal=   None    Shift=    0.000
 RMSDP=6.76D-09 MaxDP=3.86D-07 DE= 7.28D-12 OVMax= 4.51D-07

 SCF Done:  E(UPBE-PBE) =  -1501.12361972     A.U. after   15 cycles
            NFock= 15  Conv=0.68D-08     -V/T= 2.0015
 <Sx>= 0.0000 <Sy>= 0.0000 <Sz>= 1.5000 <S**2>= 3.7584 S= 1.5021
 <L.S>=  0.00000000000    
 KE= 1.498836025869D+03 PE=-4.979517707411D+03 EE= 1.245158152843D+03
 Annihilation of the first spin contaminant:
 S**2 before annihilation     3.7584,   after     3.7500
 Leave Link  502 at Thu May 30 09:17:56 2024, MaxMem= 26843545600 cpu:            6214.7 elap:              51.7
 (Enter /gpfs/fs1/soft/improv/software/custom-built/gaussian/g16/l508.exe)
 QCSCF skips out because SCF is already converged.
 Leave Link  508 at Thu May 30 09:17:56 2024, MaxMem= 26843545600 cpu:               0.2 elap:               0.0
 (Enter /gpfs/fs1/soft/improv/software/custom-built/gaussian/g16/l801.exe)
 DoSCS=F DFT=T ScalE2(SS,OS)=  1.000000  1.000000
 Range of M.O.s used for correlation:     1   317
 NBasis=   317 NAE=    42 NBE=    39 NFC=     0 NFV=     0
 NROrb=    317 NOA=    42 NOB=    39 NVA=   275 NVB=   278

 **** Warning!!: The largest alpha MO coefficient is  0.55297984D+02


 **** Warning!!: The largest beta MO coefficient is  0.56278324D+02

 Leave Link  801 at Thu May 30 09:17:56 2024, MaxMem= 26843545600 cpu:               0.4 elap:               0.0
 (Enter /gpfs/fs1/soft/improv/software/custom-built/gaussian/g16/l1101.exe)
 Using compressed storage, NAtomX=    19.
 Will process     20 centers per pass.
 R6Disp: Adding Grimme-D3 dispersion energy 1st derivatives to the gradient.
 Leave Link 1101 at Thu May 30 09:17:57 2024, MaxMem= 26843545600 cpu:              50.8 elap:               0.5
 (Enter /gpfs/fs1/soft/improv/software/custom-built/gaussian/g16/l1102.exe)
 Symmetrizing basis deriv contribution to polar:
 IMax=3 JMax=2 DiffMx= 0.00D+00
 Leave Link 1102 at Thu May 30 09:17:57 2024, MaxMem= 26843545600 cpu:               0.9 elap:               0.0
 (Enter /gpfs/fs1/soft/improv/software/custom-built/gaussian/g16/l1110.exe)
 Forming Gx(P) for the SCF density, NAtomX=    19.
 Integral derivatives from FoFJK, PRISM(SPDF).
 Do as many integral derivatives as possible in FoFJK.
 G2DrvN: MDV=   26843543431.
 G2DrvN: will do    20 centers at a time, making    1 passes.
 Calling FoFCou, ICntrl=  3507 FMM=F I1Cent=   0 AccDes= 0.00D+00.
 FoFJK:  IHMeth= 1 ICntrl=    3507 DoSepK=F KAlg= 0 I1Cent=           0 FoldK=F
 IRaf=         0 NMat=       1 IRICut=       1 DoRegI=T DoRafI=F ISym2E= 0 IDoP0=0 IntGTp=1.
 FoFCou: FMM=F IPFlag=           0 FMFlag=      100000 FMFlg1=           0
         NFxFlg=           0 DoJE=F BraDBF=F KetDBF=F FulRan=T
         wScrn=  0.000000 ICntrl=      3507 IOpCl=  0 I1Cent=           0 NGrid=           0
         NMat0=    1 NMatS0=      1 NMatT0=    0 NMatD0=    1 NMtDS0=    0 NMtDT0=    0
 Symmetry not used in FoFCou.
 End of G2Drv F.D. properties file   721 does not exist.
 End of G2Drv F.D. properties file   722 does not exist.
 End of G2Drv F.D. properties file   788 does not exist.
 Leave Link 1110 at Thu May 30 09:18:11 2024, MaxMem= 26843545600 cpu:            1746.4 elap:              14.0
 (Enter /gpfs/fs1/soft/improv/software/custom-built/gaussian/g16/l1002.exe)
 Minotr:  UHF open shell wavefunction.
          IDoAtm=1111111111111111111
          Direct CPHF calculation.
          Differentiating once with respect to electric field.
                with respect to dipole field.
          Differentiating once with respect to nuclear coordinates.
          Requested convergence is 1.0D-08 RMS, and 1.0D-07 maximum.
          Secondary convergence is 1.0D-12 RMS, and 1.0D-12 maximum.
          NewPWx=T KeepS1=F KeepF1=F KeepIn=T MapXYZ=F SortEE=F KeepMc=T.
         6034 words used for storage of precomputed grid.
 Two-electron integrals replicated using symmetry.
          MDV=   26843545600 using IRadAn=       1.
          Solving linear equations simultaneously, MaxMat=     384.
 FoF2E skips out because all densities are zero.
 CalDSu exits because no D1Ps are significant.
 FoFJK:  IHMeth= 1 ICntrl=     500 DoSepK=F KAlg= 0 I1Cent=           0 FoldK=F
 IRaf= 990000000 NMat=      57 IRICut=       1 DoRegI=T DoRafI=F ISym2E= 2 IDoP0=3 IntGTp=2.
 FoFCou: FMM=F IPFlag=           0 FMFlag=      100000 FMFlg1=           0
         NFxFlg=           0 DoJE=F BraDBF=F KetDBF=F FulRan=T
         wScrn=  0.000000 ICntrl=       500 IOpCl=  0 I1Cent=           0 NGrid=           0
         NMat0=   57 NMatS0=     57 NMatT0=    0 NMatD0=   57 NMtDS0=    0 NMtDT0=    0
 Integrals replicated using symmetry in FoFCou.
          There are    60 degrees of freedom in the 1st order CPHF.  IDoFFX=6 NUNeed=     3.
     57 vectors produced by pass  0 Test12= 3.73D-14 1.67D-09 XBig12= 9.02D+01 2.33D+00.
 AX will form    57 AO Fock derivatives at one time.
     57 vectors produced by pass  1 Test12= 3.73D-14 1.67D-09 XBig12= 1.36D+01 4.05D-01.
     57 vectors produced by pass  2 Test12= 3.73D-14 1.67D-09 XBig12= 1.19D-01 3.71D-02.
     57 vectors produced by pass  3 Test12= 3.73D-14 1.67D-09 XBig12= 5.67D-04 3.29D-03.
     57 vectors produced by pass  4 Test12= 3.73D-14 1.67D-09 XBig12= 2.95D-06 2.26D-04.
     55 vectors produced by pass  5 Test12= 3.73D-14 1.67D-09 XBig12= 8.20D-09 7.04D-06.
     23 vectors produced by pass  6 Test12= 3.73D-14 1.67D-09 XBig12= 1.16D-11 3.97D-07.
      3 vectors produced by pass  7 Test12= 3.73D-14 1.67D-09 XBig12= 2.20D-14 1.15D-08.
 InvSVY:  IOpt=1 It=  1 EMax= 5.33D-15
 Solved reduced A of dimension   366 with    60 vectors.
 FullF1:  Do perturbations      1 to       3.
 Isotropic polarizability for W=    0.000000       52.97 Bohr**3.
 End of Minotr F.D. properties file   721 does not exist.
 End of Minotr F.D. properties file   722 does not exist.
 End of Minotr F.D. properties file   788 does not exist.
 Leave Link 1002 at Thu May 30 09:18:55 2024, MaxMem= 26843545600 cpu:            5164.7 elap:              43.2
 (Enter /gpfs/fs1/soft/improv/software/custom-built/gaussian/g16/l601.exe)
 Copying SCF densities to generalized density rwf, IOpCl= 1 IROHF=0.

 **********************************************************************

            Population analysis using the SCF Density.

 **********************************************************************

 Orbital symmetries:
 Alpha Orbitals:
       Occupied  (A) (A) (A) (A) (A) (A) (A) (A) (A) (A) (A) (A)
                 (A) (A) (A) (A) (A) (A) (A) (A) (A) (A) (A) (A)
                 (A) (A) (A) (A) (A) (A) (A) (A) (A) (A) (A) (A)
                 (A) (A) (A) (A) (A) (A)
       Virtual   (A) (A) (A) (A) (A) (A) (A) (A) (A) (A) (A) (A)
                 (A) (A) (A) (A) (A) (A) (A) (A) (A) (A) (A) (A)
                 (A) (A) (A) (A) (A) (A) (A) (A) (A) (A) (A) (A)
                 (A) (A) (A) (A) (A) (A) (A) (A) (A) (A) (A) (A)
                 (A) (A) (A) (A) (A) (A) (A) (A) (A) (A) (A) (A)
                 (A) (A) (A) (A) (A) (A) (A) (A) (A) (A) (A) (A)
                 (A) (A) (A) (A) (A) (A) (A) (A) (A) (A) (A) (A)
                 (A) (A) (A) (A) (A) (A) (A) (A) (A) (A) (A) (A)
                 (A) (A) (A) (A) (A) (A) (A) (A) (A) (A) (A) (A)
                 (A) (A) (A) (A) (A) (A) (A) (A) (A) (A) (A) (A)
                 (A) (A) (A) (A) (A) (A) (A) (A) (A) (A) (A) (A)
                 (A) (A) (A) (A) (A) (A) (A) (A) (A) (A) (A) (A)
                 (A) (A) (A) (A) (A) (A) (A) (A) (A) (A) (A) (A)
                 (A) (A) (A) (A) (A) (A) (A) (A) (A) (A) (A) (A)
                 (A) (A) (A) (A) (A) (A) (A) (A) (A) (A) (A) (A)
                 (A) (A) (A) (A) (A) (A) (A) (A) (A) (A) (A) (A)
                 (A) (A) (A) (A) (A) (A) (A) (A) (A) (A) (A) (A)
                 (A) (A) (A) (A) (A) (A) (A) (A) (A) (A) (A) (A)
                 (A) (A) (A) (A) (A) (A) (A) (A) (A) (A) (A) (A)
                 (A) (A) (A) (A) (A) (A) (A) (A) (A) (A) (A) (A)
                 (A) (A) (A) (A) (A) (A) (A) (A) (A) (A) (A) (A)
                 (A) (A) (A) (A) (A) (A) (A) (A) (A) (A) (A) (A)
                 (A) (A) (A) (A) (A) (A) (A) (A) (A) (A) (A)
 Beta  Orbitals:
       Occupied  (A) (A) (A) (A) (A) (A) (A) (A) (A) (A) (A) (A)
                 (A) (A) (A) (A) (A) (A) (A) (A) (A) (A) (A) (A)
                 (A) (A) (A) (A) (A) (A) (A) (A) (A) (A) (A) (A)
                 (A) (A) (A)
       Virtual   (A) (A) (A) (A) (A) (A) (A) (A) (A) (A) (A) (A)
                 (A) (A) (A) (A) (A) (A) (A) (A) (A) (A) (A) (A)
                 (A) (A) (A) (A) (A) (A) (A) (A) (A) (A) (A) (A)
                 (A) (A) (A) (A) (A) (A) (A) (A) (A) (A) (A) (A)
                 (A) (A) (A) (A) (A) (A) (A) (A) (A) (A) (A) (A)
                 (A) (A) (A) (A) (A) (A) (A) (A) (A) (A) (A) (A)
                 (A) (A) (A) (A) (A) (A) (A) (A) (A) (A) (A) (A)
                 (A) (A) (A) (A) (A) (A) (A) (A) (A) (A) (A) (A)
                 (A) (A) (A) (A) (A) (A) (A) (A) (A) (A) (A) (A)
                 (A) (A) (A) (A) (A) (A) (A) (A) (A) (A) (A) (A)
                 (A) (A) (A) (A) (A) (A) (A) (A) (A) (A) (A) (A)
                 (A) (A) (A) (A) (A) (A) (A) (A) (A) (A) (A) (A)
                 (A) (A) (A) (A) (A) (A) (A) (A) (A) (A) (A) (A)
                 (A) (A) (A) (A) (A) (A) (A) (A) (A) (A) (A) (A)
                 (A) (A) (A) (A) (A) (A) (A) (A) (A) (A) (A) (A)
                 (A) (A) (A) (A) (A) (A) (A) (A) (A) (A) (A) (A)
                 (A) (A) (A) (A) (A) (A) (A) (A) (A) (A) (A) (A)
                 (A) (A) (A) (A) (A) (A) (A) (A) (A) (A) (A) (A)
                 (A) (A) (A) (A) (A) (A) (A) (A) (A) (A) (A) (A)
                 (A) (A) (A) (A) (A) (A) (A) (A) (A) (A) (A) (A)
                 (A) (A) (A) (A) (A) (A) (A) (A) (A) (A) (A) (A)
                 (A) (A) (A) (A) (A) (A) (A) (A) (A) (A) (A) (A)
                 (A) (A) (A) (A) (A) (A) (A) (A) (A) (A) (A) (A)
                 (A) (A)
 The electronic state is 4-A.
 Alpha  occ. eigenvalues -- -215.04631 -24.88032 -21.24453 -21.24376 -21.24327
 Alpha  occ. eigenvalues --  -19.40193 -19.40139 -19.39314 -19.38989 -19.36953
 Alpha  occ. eigenvalues --  -19.36233  -3.36579  -2.36056  -2.35797  -2.35595
 Alpha  occ. eigenvalues --   -1.58351  -1.56108  -1.55618  -1.54970  -1.53153
 Alpha  occ. eigenvalues --   -1.52375  -1.14182  -1.12688  -1.10976  -1.10231
 Alpha  occ. eigenvalues --   -1.08439  -1.07159  -1.02849  -1.02045  -1.01477
 Alpha  occ. eigenvalues --   -0.98168  -0.97518  -0.95309  -0.94427  -0.91326
 Alpha  occ. eigenvalues --   -0.90224  -0.88843  -0.87271  -0.85815  -0.76419
 Alpha  occ. eigenvalues --   -0.75543  -0.73918
 Alpha virt. eigenvalues --   -0.59213  -0.59020  -0.58151  -0.52519  -0.50358
 Alpha virt. eigenvalues --   -0.49102  -0.45918  -0.44802  -0.43298  -0.42842
 Alpha virt. eigenvalues --   -0.40282  -0.38540  -0.38231  -0.36989  -0.34146
 Alpha virt. eigenvalues --   -0.33315  -0.32243  -0.30576  -0.29886  -0.29588
 Alpha virt. eigenvalues --   -0.29022  -0.28788  -0.26859  -0.26682  -0.26069
 Alpha virt. eigenvalues --   -0.25472  -0.23970  -0.23575  -0.22742  -0.21300
 Alpha virt. eigenvalues --   -0.20860  -0.20480  -0.19268  -0.18616  -0.17258
 Alpha virt. eigenvalues --   -0.16830  -0.16520  -0.15368  -0.14521  -0.13983
 Alpha virt. eigenvalues --   -0.13582  -0.12072  -0.10615  -0.10037  -0.09128
 Alpha virt. eigenvalues --   -0.08355  -0.07674  -0.06580  -0.03588  -0.02968
 Alpha virt. eigenvalues --   -0.01503   0.03572   0.04001   0.04654   0.05811
 Alpha virt. eigenvalues --    0.16919   0.17854   0.19224   0.22302   0.24633
 Alpha virt. eigenvalues --    0.25198   0.25559   0.27931   0.29218   0.29505
 Alpha virt. eigenvalues --    0.29910   0.31064   0.33589   0.34638   0.34878
 Alpha virt. eigenvalues --    0.37090   0.37293   0.38340   0.39409   0.40341
 Alpha virt. eigenvalues --    0.42294   0.44876   0.46760   0.47009   0.48239
 Alpha virt. eigenvalues --    0.48962   0.49911   0.50401   0.51991   0.53183
 Alpha virt. eigenvalues --    0.54121   0.55892   0.57835   0.57972   0.61279
 Alpha virt. eigenvalues --    0.61531   0.63428   0.66703   0.67439   0.70620
 Alpha virt. eigenvalues --    0.70993   0.73477   0.74027   0.77988   0.78542
 Alpha virt. eigenvalues --    0.78822   0.82658   0.83325   0.84045   0.85393
 Alpha virt. eigenvalues --    0.94531   0.96542   1.00868   1.03725   1.05422
 Alpha virt. eigenvalues --    1.09378   1.11827   1.12963   1.14803   1.15679
 Alpha virt. eigenvalues --    1.16315   1.18828   1.23365   1.25263   1.27955
 Alpha virt. eigenvalues --    1.30830   1.33780   1.38452   1.42660   1.46893
 Alpha virt. eigenvalues --    1.61042   1.62957   1.63963   1.65302   1.68125
 Alpha virt. eigenvalues --    1.69279   1.70758   1.71811   1.75029   1.78129
 Alpha virt. eigenvalues --    1.80493   1.84109   1.89419   1.92175   1.95733
 Alpha virt. eigenvalues --    1.99282   2.00550   2.03135   2.10842   2.13925
 Alpha virt. eigenvalues --    2.14383   2.16847   2.19604   2.20836   2.25453
 Alpha virt. eigenvalues --    2.26723   2.29386   2.30782   2.32537   2.33116
 Alpha virt. eigenvalues --    2.34737   2.36348   2.38223   2.39777   2.42114
 Alpha virt. eigenvalues --    2.43200   2.43929   2.47596   2.48670   2.49737
 Alpha virt. eigenvalues --    2.51578   2.53656   2.61017   2.63303   2.65268
 Alpha virt. eigenvalues --    2.72157   2.73622   2.79866   2.99974   3.02038
 Alpha virt. eigenvalues --    3.05109   3.07573   3.07909   3.10166   3.13743
 Alpha virt. eigenvalues --    3.26767   3.32215   3.39209   3.42640   3.43799
 Alpha virt. eigenvalues --    3.49876   3.52143   3.54552   3.55756   3.57339
 Alpha virt. eigenvalues --    3.58212   3.59076   3.61287   3.63778   3.68571
 Alpha virt. eigenvalues --    3.70744   3.77284   3.77911   3.80203   3.82090
 Alpha virt. eigenvalues --    3.86043   3.87292   3.90111   3.94163   3.96297
 Alpha virt. eigenvalues --    3.98535   4.03376   4.05894   4.06513   4.08118
 Alpha virt. eigenvalues --    4.11572   4.13385   4.22182   4.24280   4.25986
 Alpha virt. eigenvalues --    4.28223   4.29343   4.30673   4.37711   4.45156
 Alpha virt. eigenvalues --    4.49111   4.54519   4.56594   4.58884   4.62502
 Alpha virt. eigenvalues --    4.65073   4.73679   4.75185   4.76194   4.77444
 Alpha virt. eigenvalues --    4.77853   4.78805   4.79902   4.83188   4.83645
 Alpha virt. eigenvalues --    4.86430   4.92925   4.93919   4.94207   4.97623
 Alpha virt. eigenvalues --    4.99156   4.99781   5.01359   5.05942   5.08386
 Alpha virt. eigenvalues --    5.11026   5.12615   5.14215   5.15587   5.18458
 Alpha virt. eigenvalues --    5.19672   5.21464   5.23257   5.26292   5.26564
 Alpha virt. eigenvalues --    5.28175   5.29110   5.31588   5.32430   5.56234
 Alpha virt. eigenvalues --    5.57302   6.21331   6.78812   6.81505   6.82411
 Alpha virt. eigenvalues --    6.91490   6.95413   7.08672  13.07650  13.09814
 Alpha virt. eigenvalues --   13.10100  13.61506  13.68828  13.77042  32.33157
  Beta  occ. eigenvalues -- -215.04614 -24.84178 -21.21544 -21.21447 -21.21373
  Beta  occ. eigenvalues --  -19.40198 -19.40139 -19.39311 -19.38982 -19.36927
  Beta  occ. eigenvalues --  -19.36208  -3.26025  -2.25799  -2.25510  -2.25249
  Beta  occ. eigenvalues --   -1.58172  -1.55984  -1.55495  -1.54809  -1.52973
  Beta  occ. eigenvalues --   -1.52203  -1.13818  -1.12334  -1.10779  -1.10024
  Beta  occ. eigenvalues --   -1.08184  -1.06980  -1.02225  -1.01276  -1.00622
  Beta  occ. eigenvalues --   -0.97440  -0.97150  -0.94891  -0.93768  -0.90777
  Beta  occ. eigenvalues --   -0.89660  -0.88363  -0.86634  -0.85438
  Beta virt. eigenvalues --   -0.65318  -0.64679  -0.63350  -0.57900  -0.54787
  Beta virt. eigenvalues --   -0.54593  -0.52303  -0.50103  -0.48891  -0.45559
  Beta virt. eigenvalues --   -0.44436  -0.43045  -0.42609  -0.39976  -0.38287
  Beta virt. eigenvalues --   -0.37976  -0.36634  -0.33893  -0.33108  -0.32002
  Beta virt. eigenvalues --   -0.30281  -0.29629  -0.29350  -0.28692  -0.28457
  Beta virt. eigenvalues --   -0.26652  -0.26340  -0.25829  -0.25047  -0.23535
  Beta virt. eigenvalues --   -0.23085  -0.22357  -0.20831  -0.20520  -0.20053
  Beta virt. eigenvalues --   -0.18749  -0.17785  -0.16782  -0.16377  -0.16001
  Beta virt. eigenvalues --   -0.14782  -0.13910  -0.13439  -0.13059  -0.11234
  Beta virt. eigenvalues --   -0.10265  -0.09579  -0.08509  -0.07342  -0.07142
  Beta virt. eigenvalues --   -0.06121  -0.03042  -0.01577  -0.00188   0.04076
  Beta virt. eigenvalues --    0.04588   0.05511   0.07234   0.17814   0.18592
  Beta virt. eigenvalues --    0.20108   0.23510   0.25420   0.25821   0.26640
  Beta virt. eigenvalues --    0.28789   0.29521   0.29953   0.30294   0.31545
  Beta virt. eigenvalues --    0.34005   0.35086   0.35327   0.37405   0.37603
  Beta virt. eigenvalues --    0.38650   0.39833   0.40711   0.42705   0.45474
  Beta virt. eigenvalues --    0.47179   0.47448   0.48661   0.49358   0.50295
  Beta virt. eigenvalues --    0.50721   0.52476   0.53645   0.54639   0.56538
  Beta virt. eigenvalues --    0.58324   0.58688   0.61898   0.61982   0.65011
  Beta virt. eigenvalues --    0.67247   0.67939   0.71543   0.71854   0.73812
  Beta virt. eigenvalues --    0.75238   0.78613   0.79435   0.80351   0.83760
  Beta virt. eigenvalues --    0.84247   0.85196   0.86510   0.95574   0.97339
  Beta virt. eigenvalues --    1.02830   1.05879   1.07713   1.12992   1.14683
  Beta virt. eigenvalues --    1.16276   1.18376   1.19116   1.19808   1.20560
  Beta virt. eigenvalues --    1.25968   1.26652   1.29492   1.33143   1.35516
  Beta virt. eigenvalues --    1.39211   1.44277   1.48256   1.61559   1.63485
  Beta virt. eigenvalues --    1.64607   1.65811   1.68674   1.69987   1.71461
  Beta virt. eigenvalues --    1.72727   1.75769   1.78548   1.80886   1.84891
  Beta virt. eigenvalues --    1.90192   1.92887   1.96559   2.00513   2.01759
  Beta virt. eigenvalues --    2.04166   2.11893   2.15811   2.16467   2.17884
  Beta virt. eigenvalues --    2.21262   2.22155   2.26581   2.28039   2.30114
  Beta virt. eigenvalues --    2.31539   2.33367   2.34756   2.35509   2.37823
  Beta virt. eigenvalues --    2.39078   2.40692   2.43232   2.43870   2.45218
  Beta virt. eigenvalues --    2.48806   2.50021   2.51064   2.52909   2.54145
  Beta virt. eigenvalues --    2.61421   2.63959   2.65805   2.74751   2.76081
  Beta virt. eigenvalues --    2.81972   3.04713   3.06664   3.07449   3.13884
  Beta virt. eigenvalues --    3.15300   3.18475   3.19917   3.31788   3.36489
  Beta virt. eigenvalues --    3.39411   3.42878   3.44037   3.50390   3.52489
  Beta virt. eigenvalues --    3.54916   3.56667   3.57904   3.58622   3.60206
  Beta virt. eigenvalues --    3.62387   3.64536   3.69078   3.71125   3.77961
  Beta virt. eigenvalues --    3.79133   3.80922   3.82788   3.86679   3.89569
  Beta virt. eigenvalues --    3.94702   4.00056   4.00974   4.01134   4.05204
  Beta virt. eigenvalues --    4.08558   4.10978   4.11380   4.13923   4.14475
  Beta virt. eigenvalues --    4.24083   4.26475   4.26854   4.29722   4.30386
  Beta virt. eigenvalues --    4.31723   4.40114   4.47635   4.49755   4.55382
  Beta virt. eigenvalues --    4.57495   4.59557   4.63655   4.66723   4.73995
  Beta virt. eigenvalues --    4.75390   4.76874   4.77793   4.78357   4.79378
  Beta virt. eigenvalues --    4.80366   4.83944   4.84555   4.88199   4.94100
  Beta virt. eigenvalues --    4.95014   4.95379   4.98682   5.00161   5.00647
  Beta virt. eigenvalues --    5.02069   5.07488   5.09240   5.11993   5.13829
  Beta virt. eigenvalues --    5.15061   5.16156   5.19177   5.20368   5.22370
  Beta virt. eigenvalues --    5.23981   5.27505   5.27535   5.28717   5.29444
  Beta virt. eigenvalues --    5.31830   5.32736   5.56527   5.57599   6.23935
  Beta virt. eigenvalues --    6.79252   6.81949   6.82872   6.91789   6.95716
  Beta virt. eigenvalues --    7.09243  13.07905  13.10061  13.10344  13.61668
  Beta virt. eigenvalues --   13.68977  13.77204  32.37141
          Condensed to atoms (all electrons):
               1          2          3          4          5          6
     1  Cr  23.234848  -0.062251  -0.022235  -0.031727  -0.023765  -0.024512
     2  O   -0.062251   8.155555   0.322731  -0.053343  -0.001149  -0.035698
     3  H   -0.022235   0.322731   0.259615  -0.001057  -0.000007   0.000997
     4  O   -0.031727  -0.053343  -0.001057   8.207560   0.316328  -0.060795
     5  H   -0.023765  -0.001149  -0.000007   0.316328   0.286036   0.000450
     6  O   -0.024512  -0.035698   0.000997  -0.060795   0.000450   8.123232
     7  H   -0.020826  -0.003456  -0.000005   0.001493  -0.000317   0.319323
     8  O   -0.040230   0.037039  -0.000452  -0.051658   0.002385  -0.053993
     9  H   -0.021936  -0.000130  -0.000023  -0.003146  -0.000059   0.001625
    10  O   -0.036302  -0.055151  -0.000675   0.036743  -0.000718  -0.051803
    11  H   -0.017219   0.000853  -0.000267  -0.000032   0.000011  -0.002057
    12  O   -0.058398   0.010642   0.001054  -0.065667  -0.000788   0.037768
    13  H   -0.024944  -0.002335  -0.000010   0.000070  -0.000068  -0.000171
    14  H   -0.007090  -0.001160   0.000000   0.001699   0.000049  -0.000613
    15  H   -0.019399   0.000224  -0.000049   0.320679  -0.023759  -0.008403
    16  H   -0.015636   0.312026  -0.015151  -0.001020  -0.000007  -0.003086
    17  H   -0.025799  -0.002153   0.000047  -0.000425  -0.000020   0.000457
    18  H   -0.022033   0.001214   0.000035  -0.003763  -0.000586   0.320306
    19  H   -0.021605  -0.000770   0.000010   0.002241   0.000503  -0.006333
               7          8          9         10         11         12
     1  Cr  -0.020826  -0.040230  -0.021936  -0.036302  -0.017219  -0.058398
     2  O   -0.003456   0.037039  -0.000130  -0.055151   0.000853   0.010642
     3  H   -0.000005  -0.000452  -0.000023  -0.000675  -0.000267   0.001054
     4  O    0.001493  -0.051658  -0.003146   0.036743  -0.000032  -0.065667
     5  H   -0.000317   0.002385  -0.000059  -0.000718   0.000011  -0.000788
     6  O    0.319323  -0.053993   0.001625  -0.051803  -0.002057   0.037768
     7  H    0.295561  -0.008558  -0.000352   0.003017   0.000031  -0.000873
     8  O   -0.008558   8.111757   0.322308  -0.030190  -0.007585  -0.010973
     9  H   -0.000352   0.322308   0.276736  -0.005998   0.000599   0.000342
    10  O    0.003017  -0.030190  -0.005998   8.184869   0.318305  -0.072179
    11  H    0.000031  -0.007585   0.000599   0.318305   0.280863  -0.000552
    12  O   -0.000873  -0.010973   0.000342  -0.072179  -0.000552   8.149035
    13  H    0.000011  -0.000703   0.000035   0.000092  -0.000140   0.325748
    14  H   -0.000035  -0.004525   0.000503  -0.003099   0.002036   0.306379
    15  H    0.000168  -0.001740  -0.000013  -0.000090   0.000000   0.000759
    16  H   -0.000116  -0.000435   0.000008   0.002535  -0.000004  -0.001896
    17  H    0.000939  -0.001849  -0.000705   0.322778  -0.023268  -0.000928
    18  H   -0.018740   0.001689   0.000030  -0.003304  -0.000007  -0.000210
    19  H    0.004696   0.317949  -0.018247   0.001356   0.000162  -0.002903
              13         14         15         16         17         18
     1  Cr  -0.024944  -0.007090  -0.019399  -0.015636  -0.025799  -0.022033
     2  O   -0.002335  -0.001160   0.000224   0.312026  -0.002153   0.001214
     3  H   -0.000010   0.000000  -0.000049  -0.015151   0.000047   0.000035
     4  O    0.000070   0.001699   0.320679  -0.001020  -0.000425  -0.003763
     5  H   -0.000068   0.000049  -0.023759  -0.000007  -0.000020  -0.000586
     6  O   -0.000171  -0.000613  -0.008403  -0.003086   0.000457   0.320306
     7  H    0.000011  -0.000035   0.000168  -0.000116   0.000939  -0.018740
     8  O   -0.000703  -0.004525  -0.001740  -0.000435  -0.001849   0.001689
     9  H    0.000035   0.000503  -0.000013   0.000008  -0.000705   0.000030
    10  O    0.000092  -0.003099  -0.000090   0.002535   0.322778  -0.003304
    11  H   -0.000140   0.002036   0.000000  -0.000004  -0.023268  -0.000007
    12  O    0.325748   0.306379   0.000759  -0.001896  -0.000928  -0.000210
    13  H    0.255010  -0.015871  -0.000181   0.000011  -0.000016  -0.000026
    14  H   -0.015871   0.295761  -0.000006  -0.000019  -0.000053   0.000007
    15  H   -0.000181  -0.000006   0.272318   0.000415   0.000011   0.000396
    16  H    0.000011  -0.000019   0.000415   0.284138   0.000061  -0.000087
    17  H   -0.000016  -0.000053   0.000011   0.000061   0.284236  -0.000100
    18  H   -0.000026   0.000007   0.000396  -0.000087  -0.000100   0.274833
    19  H   -0.000008  -0.000125   0.000046  -0.000042  -0.000270  -0.000262
              19
     1  Cr  -0.021605
     2  O   -0.000770
     3  H    0.000010
     4  O    0.002241
     5  H    0.000503
     6  O   -0.006333
     7  H    0.004696
     8  O    0.317949
     9  H   -0.018247
    10  O    0.001356
    11  H    0.000162
    12  O   -0.002903
    13  H   -0.000008
    14  H   -0.000125
    15  H    0.000046
    16  H   -0.000042
    17  H   -0.000270
    18  H   -0.000262
    19  H    0.294218
          Atomic-Atomic Spin Densities.
               1          2          3          4          5          6
     1  Cr   3.192098  -0.024181  -0.007356  -0.024506  -0.009461  -0.023126
     2  O   -0.024181  -0.000285   0.002960   0.002356  -0.000614   0.004695
     3  H   -0.007356   0.002960   0.010886  -0.000129   0.000017   0.000086
     4  O   -0.024506   0.002356  -0.000129  -0.004861   0.005489   0.001179
     5  H   -0.009461  -0.000614   0.000017   0.005489   0.011318   0.001744
     6  O   -0.023126   0.004695   0.000086   0.001179   0.001744  -0.006291
     7  H   -0.010191  -0.000829   0.000008  -0.000760  -0.000065   0.004144
     8  O   -0.022430   0.000932  -0.000184   0.000333   0.000885  -0.000011
     9  H   -0.008827  -0.000088  -0.000018  -0.000608  -0.000150  -0.001491
    10  O   -0.025896   0.003187   0.003048   0.000574  -0.000368   0.000068
    11  H   -0.007452  -0.000454  -0.000081   0.000029   0.000002  -0.000587
    12  O   -0.024523   0.002391   0.001340   0.003451  -0.000006   0.001390
    13  H   -0.007648   0.000262  -0.000005   0.003089  -0.000094  -0.000085
    14  H   -0.009469  -0.000416  -0.000031  -0.000784  -0.000001  -0.000186
    15  H   -0.006996   0.002349  -0.000122   0.003991  -0.002687  -0.000830
    16  H   -0.008952   0.005287  -0.001730  -0.000154  -0.000035   0.001922
    17  H   -0.009404  -0.000408  -0.000106  -0.000317  -0.000011   0.000486
    18  H   -0.008090  -0.000053   0.000007   0.005413   0.000693   0.001448
    19  H   -0.010027  -0.000268   0.000006   0.000422   0.000527   0.003651
               7          8          9         10         11         12
     1  Cr  -0.010191  -0.022430  -0.008827  -0.025896  -0.007452  -0.024523
     2  O   -0.000829   0.000932  -0.000088   0.003187  -0.000454   0.002391
     3  H    0.000008  -0.000184  -0.000018   0.003048  -0.000081   0.001340
     4  O   -0.000760   0.000333  -0.000608   0.000574   0.000029   0.003451
     5  H   -0.000065   0.000885  -0.000150  -0.000368   0.000002  -0.000006
     6  O    0.004144  -0.000011  -0.001491   0.000068  -0.000587   0.001390
     7  H    0.013494   0.002315  -0.000139   0.000581  -0.000062  -0.000283
     8  O    0.002315  -0.008546   0.004622   0.003591   0.000042   0.005678
     9  H   -0.000139   0.004622   0.013480   0.004492   0.000435  -0.000646
    10  O    0.000581   0.003591   0.004492  -0.008690   0.003481   0.001732
    11  H   -0.000062   0.000042   0.000435   0.003481   0.013862   0.001727
    12  O   -0.000283   0.005678  -0.000646   0.001732   0.001727  -0.001046
    13  H    0.000006  -0.000283  -0.000006  -0.000159  -0.000171   0.004212
    14  H   -0.000022   0.001259   0.000428  -0.000212   0.000783   0.005384
    15  H   -0.000016  -0.000344   0.000022   0.000049   0.000005  -0.000854
    16  H   -0.000171  -0.000120   0.000006  -0.000795   0.000013  -0.000546
    17  H    0.000579   0.001189   0.000375   0.007228  -0.002811  -0.000726
    18  H   -0.002536  -0.000781   0.000009  -0.000632   0.000023  -0.000140
    19  H    0.002477   0.002427  -0.002651  -0.000541  -0.000012  -0.000912
              13         14         15         16         17         18
     1  Cr  -0.007648  -0.009469  -0.006996  -0.008952  -0.009404  -0.008090
     2  O    0.000262  -0.000416   0.002349   0.005287  -0.000408  -0.000053
     3  H   -0.000005  -0.000031  -0.000122  -0.001730  -0.000106   0.000007
     4  O    0.003089  -0.000784   0.003991  -0.000154  -0.000317   0.005413
     5  H   -0.000094  -0.000001  -0.002687  -0.000035  -0.000011   0.000693
     6  O   -0.000085  -0.000186  -0.000830   0.001922   0.000486   0.001448
     7  H    0.000006  -0.000022  -0.000016  -0.000171   0.000579  -0.002536
     8  O   -0.000283   0.001259  -0.000344  -0.000120   0.001189  -0.000781
     9  H   -0.000006   0.000428   0.000022   0.000006   0.000375   0.000009
    10  O   -0.000159  -0.000212   0.000049  -0.000795   0.007228  -0.000632
    11  H   -0.000171   0.000783   0.000005   0.000013  -0.002811   0.000023
    12  O    0.004212   0.005384  -0.000854  -0.000546  -0.000726  -0.000140
    13  H    0.010899  -0.002003  -0.000099  -0.000015   0.000018  -0.000021
    14  H   -0.002003   0.012104   0.000014   0.000020  -0.000062   0.000007
    15  H   -0.000099   0.000014   0.012200   0.000337   0.000001   0.000489
    16  H   -0.000015   0.000020   0.000337   0.011413   0.000001   0.000151
    17  H    0.000018  -0.000062   0.000001   0.000001   0.010418  -0.000136
    18  H   -0.000021   0.000007   0.000489   0.000151  -0.000136   0.015487
    19  H    0.000008  -0.000158  -0.000050  -0.000023  -0.000052  -0.000050
              19
     1  Cr  -0.010027
     2  O   -0.000268
     3  H    0.000006
     4  O    0.000422
     5  H    0.000527
     6  O    0.003651
     7  H    0.002477
     8  O    0.002427
     9  H   -0.002651
    10  O   -0.000541
    11  H   -0.000012
    12  O   -0.000912
    13  H    0.000008
    14  H   -0.000158
    15  H   -0.000050
    16  H   -0.000023
    17  H   -0.000052
    18  H   -0.000050
    19  H    0.014978
 Mulliken charges and spin densities:
               1          2
     1  Cr   1.261058   2.943564
     2  O   -0.622687  -0.003178
     3  H    0.455441   0.008596
     4  O   -0.614181  -0.005792
     5  H    0.445482   0.007184
     6  O   -0.556693  -0.011794
     7  H    0.428037   0.008531
     8  O   -0.580235  -0.009426
     9  H    0.448423   0.009244
    10  O   -0.610186  -0.009262
    11  H    0.448271   0.008773
    12  O   -0.616358  -0.002375
    13  H    0.463495   0.007905
    14  H    0.426162   0.006656
    15  H    0.458622   0.007459
    16  H    0.438306   0.006608
    17  H    0.447054   0.006264
    18  H    0.450607   0.011289
    19  H    0.429382   0.009754
 Sum of Mulliken charges =   3.00000   3.00000
 Mulliken charges and spin densities with hydrogens summed into heavy atoms:
               1          2
     1  Cr   1.261058   2.943564
     2  O    0.271060   0.012026
     4  O    0.289923   0.008851
     6  O    0.321951   0.008026
     8  O    0.297570   0.009572
    10  O    0.285139   0.005775
    12  O    0.273299   0.012186
 APT charges:
               1
     1  Cr   1.762923
     2  O   -0.528638
     3  H    0.388678
     4  O   -0.495793
     5  H    0.346063
     6  O   -0.489934
     7  H    0.332763
     8  O   -0.492404
     9  H    0.349356
    10  O   -0.492116
    11  H    0.353508
    12  O   -0.520631
    13  H    0.392138
    14  H    0.348252
    15  H    0.360450
    16  H    0.358314
    17  H    0.347762
    18  H    0.348518
    19  H    0.330792
 Sum of APT charges =   3.00000
 APT charges with hydrogens summed into heavy atoms:
               1
     1  Cr   1.762923
     2  O    0.218355
     4  O    0.210720
     6  O    0.191346
     8  O    0.187744
    10  O    0.209153
    12  O    0.219759
 Electronic spatial extent (au):  <R**2>=            838.3406
 Charge=              3.0000 electrons
 Dipole moment (field-independent basis, Debye):
    X=              2.2578    Y=              3.6219    Z=             -0.9831  Tot=              4.3797
 Quadrupole moment (field-independent basis, Debye-Ang):
   XX=            -11.7166   YY=            -15.4725   ZZ=            -26.0458
   XY=             -4.2196   XZ=             -1.5686   YZ=             -0.9461
 Traceless Quadrupole moment (field-independent basis, Debye-Ang):
   XX=              6.0284   YY=              2.2725   ZZ=             -8.3009
   XY=             -4.2196   XZ=             -1.5686   YZ=             -0.9461
 Octapole moment (field-independent basis, Debye-Ang**2):
  XXX=             18.0304  YYY=             16.9598  ZZZ=              5.0507  XYY=              4.1274
  XXY=              8.9849  XXZ=              3.2898  XZZ=             -8.0919  YZZ=             -3.3285
  YYZ=            -14.5186  XYZ=             -3.1817
 Hexadecapole moment (field-independent basis, Debye-Ang**3):
 XXXX=           -167.9604 YYYY=           -175.0239 ZZZZ=           -213.3834 XXXY=            -21.7634
 XXXZ=              2.1871 YYYX=             -8.4274 YYYZ=             12.4344 ZZZX=            -16.4569
 ZZZY=            -15.9844 XXYY=            -47.7406 XXZZ=            -52.3124 YYZZ=            -50.9494
 XXYZ=             -1.2057 YYXZ=              3.8169 ZZXY=              1.9230
 N-N= 7.343999089833D+02 E-N=-4.979517713431D+03  KE= 1.498836025869D+03
  Exact polarizability:      54.782      -0.427      53.837      -0.660      -0.004      50.303
 Approx polarizability:      88.263      -0.567      87.017      -1.461      -0.001      80.552
                          Isotropic Fermi Contact Couplings
        Atom                 a.u.       MegaHertz       Gauss      10(-4) cm-1
     1  Cr(53)            -0.14498      12.23463       4.36562       4.08103
     2  O(17)             -0.00336       0.67799       0.24192       0.22615
     3  H(1)               0.00553       8.23287       2.93769       2.74619
     4  O(17)             -0.00756       1.52666       0.54475       0.50924
     5  H(1)               0.00501       7.46011       2.66195       2.48842
     6  O(17)             -0.00548       1.10647       0.39481       0.36908
     7  H(1)               0.00520       7.74186       2.76249       2.58241
     8  O(17)             -0.00693       1.40036       0.49968       0.46711
     9  H(1)               0.00570       8.48648       3.02819       2.83079
    10  O(17)             -0.01012       2.04471       0.72960       0.68204
    11  H(1)               0.00595       8.86269       3.16243       2.95627
    12  O(17)             -0.00598       1.20805       0.43106       0.40296
    13  H(1)               0.00540       8.04524       2.87074       2.68360
    14  H(1)               0.00513       7.64205       2.72687       2.54911
    15  H(1)               0.00544       8.10988       2.89381       2.70517
    16  H(1)               0.00496       7.39625       2.63917       2.46712
    17  H(1)               0.00498       7.42538       2.64956       2.47684
    18  H(1)               0.00613       9.13709       3.26034       3.04780
    19  H(1)               0.00532       7.92607       2.82822       2.64385
 --------------------------------------------------------
       Center         ----  Spin Dipole Couplings  ----
                      3XX-RR        3YY-RR        3ZZ-RR
 --------------------------------------------------------
     1   Atom       -0.077676      0.012559      0.065117
     2   Atom       -0.064031      0.020545      0.043486
     3   Atom       -0.007050      0.013492     -0.006442
     4   Atom       -0.024676     -0.042591      0.067267
     5   Atom        0.036931     -0.032515     -0.004416
     6   Atom       -0.027829     -0.040508      0.068337
     7   Atom        0.002148     -0.002738      0.000589
     8   Atom       -0.061495     -0.014057      0.075552
     9   Atom       -0.028575      0.057429     -0.028853
    10   Atom       -0.023455      0.013406      0.010049
    11   Atom        0.041682     -0.015699     -0.025983
    12   Atom        0.022154     -0.002826     -0.019328
    13   Atom       -0.017850     -0.020020      0.037870
    14   Atom        0.019353     -0.025811      0.006458
    15   Atom        0.015628      0.006905     -0.022532
    16   Atom       -0.027171      0.030288     -0.003117
    17   Atom       -0.019396      0.002242      0.017154
    18   Atom        0.050018     -0.031761     -0.018256
    19   Atom       -0.008726      0.037697     -0.028970
 --------------------------------------------------------
                        XY            XZ            YZ
 --------------------------------------------------------
     1   Atom       -0.023918     -0.007165     -0.008024
     2   Atom        0.015649     -0.011903     -0.083937
     3   Atom        0.033308      0.025253      0.033812
     4   Atom       -0.003535     -0.029690     -0.027770
     5   Atom        0.002274      0.042711      0.001251
     6   Atom        0.013768     -0.011312      0.035641
     7   Atom        0.032210     -0.032934     -0.030165
     8   Atom        0.006464      0.017362      0.020845
     9   Atom       -0.017582     -0.003480      0.016817
    10   Atom        0.015844      0.033651      0.047563
    11   Atom       -0.034741      0.021168     -0.009909
    12   Atom        0.077939      0.047693      0.044123
    13   Atom        0.012611     -0.030869     -0.029627
    14   Atom       -0.018663     -0.044990      0.015367
    15   Atom       -0.043222      0.020928     -0.018803
    16   Atom       -0.017019     -0.011711      0.043069
    17   Atom       -0.020992      0.025533     -0.041134
    18   Atom       -0.001374     -0.033068      0.001041
    19   Atom        0.040954      0.007160      0.011860
 --------------------------------------------------------


 ---------------------------------------------------------------------------------
              Anisotropic Spin Dipole Couplings in Principal Axis System
 ---------------------------------------------------------------------------------

       Atom             a.u.   MegaHertz   Gauss  10(-4) cm-1        Axes

              Baa    -0.0842     2.543     0.907     0.848  0.9679  0.2443  0.0596
     1 Cr(53) Bbb     0.0177    -0.536    -0.191    -0.179 -0.2500  0.9602  0.1248
              Bcc     0.0664    -2.007    -0.716    -0.669 -0.0267 -0.1357  0.9904
 
              Baa    -0.0671     4.858     1.733     1.620  0.9594 -0.2646 -0.0975
     2 O(17)  Bbb    -0.0516     3.736     1.333     1.246  0.2618  0.7071  0.6568
              Bcc     0.1188    -8.594    -3.066    -2.866 -0.1048 -0.6557  0.7477
 
              Baa    -0.0320   -17.077    -6.093    -5.696 -0.6565 -0.0770  0.7504
     3 H(1)   Bbb    -0.0315   -16.819    -6.002    -5.610 -0.5562  0.7214 -0.4125
              Bcc     0.0635    33.896    12.095    11.306  0.5096  0.6882  0.5165
 
              Baa    -0.0538     3.896     1.390     1.300  0.4078  0.8631  0.2979
     4 O(17)  Bbb    -0.0275     1.992     0.711     0.664  0.8760 -0.4619  0.1391
              Bcc     0.0814    -5.888    -2.101    -1.964 -0.2576 -0.2042  0.9444
 
              Baa    -0.0326   -17.394    -6.207    -5.802 -0.0783  0.9941  0.0746
     5 H(1)   Bbb    -0.0312   -16.635    -5.936    -5.549 -0.5258 -0.1047  0.8441
              Bcc     0.0638    34.029    12.143    11.351  0.8470  0.0269  0.5310
 
              Baa    -0.0597     4.320     1.541     1.441 -0.4620  0.8430 -0.2755
     6 O(17)  Bbb    -0.0197     1.427     0.509     0.476  0.8845  0.4609 -0.0729
              Bcc     0.0794    -5.747    -2.051    -1.917 -0.0655  0.2773  0.9585
 
              Baa    -0.0326   -17.409    -6.212    -5.807  0.7306 -0.6735  0.1128
     7 H(1)   Bbb    -0.0310   -16.547    -5.904    -5.520  0.3268  0.4899  0.8082
              Bcc     0.0636    33.956    12.116    11.326  0.5995  0.5536 -0.5780
 
              Baa    -0.0640     4.629     1.652     1.544  0.9904 -0.0819 -0.1110
     8 O(17)  Bbb    -0.0185     1.341     0.478     0.447  0.0551  0.9726 -0.2257
              Bcc     0.0825    -5.970    -2.130    -1.991  0.1265  0.2174  0.9679
 
              Baa    -0.0322   -17.179    -6.130    -5.730  0.7223  0.0119  0.6915
     9 H(1)   Bbb    -0.0319   -16.999    -6.066    -5.670 -0.6650 -0.2626  0.6991
              Bcc     0.0641    34.178    12.196    11.401 -0.1900  0.9648  0.1818
 
              Baa    -0.0485     3.509     1.252     1.170  0.6744  0.3336 -0.6587
    10 O(17)  Bbb    -0.0237     1.714     0.612     0.572 -0.6520  0.6878 -0.3192
              Bcc     0.0722    -5.223    -1.864    -1.742  0.3466  0.6448  0.6813
 
              Baa    -0.0321   -17.133    -6.114    -5.715 -0.4716 -0.6191  0.6280
    11 H(1)   Bbb    -0.0320   -17.074    -6.092    -5.695  0.1035  0.6684  0.7366
              Bcc     0.0641    34.207    12.206    11.410  0.8757 -0.4124  0.2511
 
              Baa    -0.0696     5.034     1.796     1.679 -0.6094  0.7851 -0.1110
    12 O(17)  Bbb    -0.0495     3.581     1.278     1.195 -0.3991 -0.1829  0.8985
              Bcc     0.1191    -8.615    -3.074    -2.874  0.6851  0.5918  0.4248
 
              Baa    -0.0326   -17.388    -6.205    -5.800  0.2564  0.8457  0.4680
    13 H(1)   Bbb    -0.0313   -16.726    -5.968    -5.579  0.8898 -0.3956  0.2275
              Bcc     0.0639    34.114    12.173    11.379 -0.3775 -0.3581  0.8540
 
              Baa    -0.0330   -17.613    -6.285    -5.875  0.6343  0.5978  0.4902
    14 H(1)   Bbb    -0.0318   -16.962    -6.052    -5.658 -0.2513  0.7591 -0.6006
              Bcc     0.0648    34.575    12.337    11.533  0.7311 -0.2577 -0.6317
 
              Baa    -0.0322   -17.175    -6.128    -5.729  0.6994  0.6969 -0.1586
    15 H(1)   Bbb    -0.0317   -16.902    -6.031    -5.638 -0.1147  0.3284  0.9375
              Bcc     0.0639    34.077    12.160    11.367  0.7055 -0.6375  0.3096
 
              Baa    -0.0326   -17.400    -6.209    -5.804  0.0579 -0.5533  0.8310
    16 H(1)   Bbb    -0.0318   -16.982    -6.059    -5.664  0.9738  0.2147  0.0751
              Bcc     0.0644    34.382    12.268    11.468 -0.2200  0.8048  0.5512
 
              Baa    -0.0325   -17.363    -6.195    -5.792  0.8193 -0.1576 -0.5513
    17 H(1)   Bbb    -0.0320   -17.063    -6.089    -5.692  0.4410  0.7877  0.4302
              Bcc     0.0645    34.426    12.284    11.483  0.3665 -0.5956  0.7148
 
              Baa    -0.0322   -17.166    -6.125    -5.726 -0.2312  0.7608 -0.6064
    18 H(1)   Bbb    -0.0313   -16.681    -5.952    -5.564  0.2962  0.6487  0.7010
              Bcc     0.0634    33.847    12.077    11.290  0.9267 -0.0175 -0.3753
 
[...]
    17  H    0.000002  -0.000049  -0.000000   0.000002   0.281053   0.000002
    18  H   -0.000000  -0.000000  -0.000049  -0.000049   0.000002   0.281043
    19  H    0.000002   0.000002   0.000002  -0.000000  -0.000049  -0.000049
              19
     1  Cr  -0.015943
     2  O   -0.000435
     3  H   -0.000000
     4  O    0.001197
     5  H   -0.000048
     6  O    0.003013
     7  H   -0.000048
     8  O    0.299471
     9  H   -0.013977
    10  O    0.001199
    11  H    0.000002
    12  O    0.000870
    13  H    0.000002
    14  H    0.000002
    15  H    0.000002
    16  H   -0.000000
    17  H   -0.000049
    18  H   -0.000049
    19  H    0.280975
          Atomic-Atomic Spin Densities.
               1          2          3          4          5          6
     1  Cr   3.195767  -0.026290  -0.003114  -0.026316  -0.003113  -0.026303
     2  O   -0.026290   0.000004   0.003105   0.005378  -0.000210   0.005363
     3  H   -0.003114   0.003105   0.001461  -0.000119   0.000000  -0.000210
     4  O   -0.026316   0.005378  -0.000119   0.000044   0.003103   0.005378
     5  H   -0.003113  -0.000210   0.000000   0.003103   0.001464  -0.000120
     6  O   -0.026303   0.005363  -0.000210   0.005378  -0.000120   0.000026
     7  H   -0.003109  -0.000120   0.000000  -0.000210   0.000000   0.003101
     8  O   -0.026290  -0.003462  -0.000010   0.005379   0.000721   0.005374
     9  H   -0.003113  -0.000010  -0.000000  -0.000120   0.000002  -0.000210
    10  O   -0.026313   0.005378  -0.000119  -0.003461  -0.000010   0.005375
    11  H   -0.003114   0.000720   0.000002  -0.000010   0.000000  -0.000120
    12  O   -0.026303   0.005374   0.000719   0.005371  -0.000120  -0.003458
    13  H   -0.003109  -0.000120   0.000002   0.000720   0.000002  -0.000009
    14  H   -0.003115  -0.000118   0.000002  -0.000210   0.000000  -0.000010
    15  H   -0.003112   0.000719   0.000002   0.003103  -0.001019  -0.000119
    16  H   -0.003113   0.003103  -0.001019  -0.000120   0.000000   0.000720
    17  H   -0.003113  -0.000210   0.000000  -0.000009  -0.000000  -0.000119
    18  H   -0.003116  -0.000118   0.000000   0.000720   0.000002   0.003104
    19  H   -0.003114  -0.000010   0.000000  -0.000119   0.000002   0.000719
               7          8          9         10         11         12
     1  Cr  -0.003109  -0.026290  -0.003113  -0.026313  -0.003114  -0.026303
     2  O   -0.000120  -0.003462  -0.000010   0.005378   0.000720   0.005374
     3  H    0.000000  -0.000010  -0.000000  -0.000119   0.000002   0.000719
     4  O   -0.000210   0.005379  -0.000120  -0.003461  -0.000010   0.005371
     5  H    0.000000   0.000721   0.000002  -0.000010   0.000000  -0.000120
     6  O    0.003101   0.005374  -0.000210   0.005375  -0.000120  -0.003458
     7  H    0.001460  -0.000121   0.000000   0.000720   0.000002  -0.000010
     8  O   -0.000121   0.000008   0.003103   0.005375  -0.000210   0.005365
     9  H    0.000000   0.003103   0.001463  -0.000120   0.000000   0.000720
    10  O    0.000720   0.005375  -0.000120   0.000033   0.003103   0.005381
    11  H    0.000002  -0.000210   0.000000   0.003103   0.001464  -0.000119
    12  O   -0.000010   0.005365   0.000720   0.005381  -0.000119   0.000024
    13  H    0.000000  -0.000121   0.000002  -0.000210   0.000000   0.003101
    14  H   -0.000000  -0.000118   0.000002   0.000720   0.000002   0.003104
    15  H    0.000000  -0.000210   0.000000  -0.000010  -0.000000  -0.000119
    16  H    0.000002  -0.000010   0.000000  -0.000120   0.000002  -0.000210
    17  H    0.000002   0.000719   0.000002   0.003103  -0.001019  -0.000119
    18  H   -0.001019  -0.000117   0.000000  -0.000210   0.000000  -0.000010
    19  H    0.000002   0.003105  -0.001019  -0.000119   0.000000  -0.000210
              13         14         15         16         17         18
     1  Cr  -0.003109  -0.003115  -0.003112  -0.003113  -0.003113  -0.003116
     2  O   -0.000120  -0.000118   0.000719   0.003103  -0.000210  -0.000118
     3  H    0.000002   0.000002   0.000002  -0.001019   0.000000   0.000000
     4  O    0.000720  -0.000210   0.003103  -0.000120  -0.000009   0.000720
     5  H    0.000002   0.000000  -0.001019   0.000000  -0.000000   0.000002
     6  O   -0.000009  -0.000010  -0.000119   0.000720  -0.000119   0.003104
     7  H    0.000000  -0.000000   0.000000   0.000002   0.000002  -0.001019
     8  O   -0.000121  -0.000118  -0.000210  -0.000010   0.000719  -0.000117
     9  H    0.000002   0.000002   0.000000   0.000000   0.000002   0.000000
    10  O   -0.000210   0.000720  -0.000010  -0.000120   0.003103  -0.000210
    11  H    0.000000   0.000002  -0.000000   0.000002  -0.001019   0.000000
    12  O    0.003101   0.003104  -0.000119  -0.000210  -0.000119  -0.000010
    13  H    0.001461  -0.001019   0.000002   0.000000   0.000000  -0.000000
    14  H   -0.001019   0.001464   0.000000   0.000000   0.000002   0.000000
    15  H    0.000002   0.000000   0.001464   0.000002   0.000000   0.000002
    16  H    0.000000   0.000000   0.000002   0.001463   0.000000   0.000002
    17  H    0.000000   0.000002   0.000000   0.000000   0.001465   0.000000
    18  H   -0.000000   0.000000   0.000002   0.000002   0.000000   0.001464
    19  H    0.000000   0.000000   0.000000  -0.000000   0.000002   0.000002
              19
     1  Cr  -0.003114
     2  O   -0.000010
     3  H    0.000000
     4  O   -0.000119
     5  H    0.000002
     6  O    0.000719
     7  H    0.000002
     8  O    0.003105
     9  H   -0.001019
    10  O   -0.000119
    11  H    0.000000
    12  O   -0.000210
    13  H    0.000000
    14  H    0.000000
    15  H    0.000000
    16  H   -0.000000
    17  H    0.000002
    18  H    0.000002
    19  H    0.001461
 Mulliken charges and spin densities:
               1          2
     1  Cr   1.399044   3.000596
     2  O   -0.620596  -0.001521
     3  H    0.443813   0.000706
     4  O   -0.620703  -0.001497
     5  H    0.443740   0.000708
     6  O   -0.620728  -0.001518
     7  H    0.443796   0.000703
     8  O   -0.620589  -0.001519
     9  H    0.443663   0.000706
    10  O   -0.620722  -0.001503
    11  H    0.443741   0.000708
    12  O   -0.620731  -0.001519
    13  H    0.443800   0.000704
    14  H    0.443758   0.000709
    15  H    0.443736   0.000707
    16  H    0.443664   0.000706
    17  H    0.443739   0.000708
    18  H    0.443761   0.000709
    19  H    0.443814   0.000706
 Sum of Mulliken charges =   3.00000   3.00000
 Mulliken charges and spin densities with hydrogens summed into heavy atoms:
               1          2
     1  Cr   1.399044   3.000596
     2  O    0.266881  -0.000109
     4  O    0.266773  -0.000082
     6  O    0.266828  -0.000105
     8  O    0.266888  -0.000107
    10  O    0.266758  -0.000087
    12  O    0.266827  -0.000106
 Electronic spatial extent (au):  <R**2>=           1021.9062
 Charge=              3.0000 electrons
 Dipole moment (field-independent basis, Debye):
    X=             -0.0001    Y=              0.0000    Z=              0.0000  Tot=              0.0001
 Quadrupole moment (field-independent basis, Debye-Ang):
   XX=             -7.7069   YY=             -7.7106   ZZ=             -7.7187
   XY=             -0.0014   XZ=             -0.0015   YZ=              0.0024
 Traceless Quadrupole moment (field-independent basis, Debye-Ang):
   XX=              0.0052   YY=              0.0015   ZZ=             -0.0067
   XY=             -0.0014   XZ=             -0.0015   YZ=              0.0024
 Octapole moment (field-independent basis, Debye-Ang**2):
  XXX=             -0.0010  YYY=             -0.0038  ZZZ=              0.0049  XYY=             -0.0011
  XXY=              0.0024  XXZ=             -0.0007  XZZ=             -0.0000  YZZ=              0.0017
  YYZ=             -0.0047  XYZ=              0.0002
 Hexadecapole moment (field-independent basis, Debye-Ang**3):
 XXXX=           -176.1720 YYYY=           -105.3090 ZZZZ=           -155.5062 XXXY=             20.5146
 XXXZ=            -14.0593 YYYX=            -54.4523 YYYZ=             -7.1818 ZZZX=              8.9888
 ZZZY=              9.3681 XXYY=            -50.6503 XXZZ=             -0.3900 YYZZ=            -71.1276
 XXYZ=             -2.1824 YYXZ=              5.0436 ZZXY=             33.9087
 N-N= 6.622197594642D+02 E-N=-4.836880398816D+03  KE= 1.496557743785D+03
                          Isotropic Fermi Contact Couplings
        Atom                 a.u.       MegaHertz       Gauss      10(-4) cm-1
     1  Cr(53)             0.00918      -0.77447      -0.27635      -0.25834
     2  O(17)             -0.03202       6.47050       2.30884       2.15833
     3  H(1)               0.00043       0.64422       0.22987       0.21489
     4  O(17)             -0.03202       6.46974       2.30856       2.15807
     5  H(1)               0.00043       0.64553       0.23034       0.21533
     6  O(17)             -0.03201       6.46742       2.30774       2.15730
     7  H(1)               0.00043       0.64283       0.22938       0.21443
     8  O(17)             -0.03202       6.47046       2.30882       2.15831
     9  H(1)               0.00043       0.64474       0.23006       0.21506
    10  O(17)             -0.03202       6.46987       2.30861       2.15812
    11  H(1)               0.00043       0.64573       0.23041       0.21539
    12  O(17)             -0.03201       6.46742       2.30774       2.15730
    13  H(1)               0.00043       0.64336       0.22957       0.21460
    14  H(1)               0.00043       0.64635       0.23063       0.21560
    15  H(1)               0.00043       0.64568       0.23039       0.21537
    16  H(1)               0.00043       0.64498       0.23014       0.21514
    17  H(1)               0.00043       0.64621       0.23058       0.21555
    18  H(1)               0.00043       0.64669       0.23075       0.21571
    19  H(1)               0.00043       0.64421       0.22987       0.21489
 --------------------------------------------------------
       Center         ----  Spin Dipole Couplings  ----
                      3XX-RR        3YY-RR        3ZZ-RR
 --------------------------------------------------------
     1   Atom       -0.000541      0.000100      0.000441
     2   Atom        0.001798     -0.046169      0.044371
     3   Atom        0.000952      0.018598     -0.019550
     4   Atom        0.040795     -0.071799      0.031004
     5   Atom        0.010281     -0.022999      0.012719
     6   Atom       -0.042631      0.117902     -0.075272
     7   Atom       -0.008906     -0.019601      0.028507
     8   Atom        0.002039     -0.046110      0.044071
     9   Atom       -0.021593      0.038057     -0.016464
    10   Atom        0.040679     -0.071681      0.031001
    11   Atom        0.010300     -0.022998      0.012698
    12   Atom       -0.042400      0.117616     -0.075216
    13   Atom       -0.008878     -0.019616      0.028494
    14   Atom        0.028155     -0.013702     -0.014453
    15   Atom       -0.008866     -0.000352      0.009218
    16   Atom       -0.021601      0.038075     -0.016474
    17   Atom       -0.008882     -0.000361      0.009242
    18   Atom        0.028182     -0.013731     -0.014451
    19   Atom        0.000937      0.018612     -0.019549
 --------------------------------------------------------
                        XY            XZ            YZ
 --------------------------------------------------------
     1   Atom       -0.000027     -0.000081     -0.000037
     2   Atom        0.031048      0.106875      0.048276
     3   Atom       -0.030619     -0.005651      0.010067
     4   Atom        0.044805     -0.099206     -0.032175
     5   Atom       -0.002100      0.031981     -0.003214
     6   Atom       -0.075842     -0.007786     -0.015881
     7   Atom        0.002960     -0.026959     -0.007836
     8   Atom        0.031175      0.106908      0.048311
     9   Atom       -0.005911      0.003258     -0.017230
    10   Atom        0.044932     -0.099138     -0.032306
    11   Atom       -0.002096      0.031983     -0.003213
    12   Atom       -0.076088     -0.007630     -0.016226
    13   Atom        0.002938     -0.026974     -0.007800
    14   Atom        0.017938     -0.021300     -0.008089
    15   Atom        0.017750      0.018706      0.026242
    16   Atom       -0.005895      0.003250     -0.017205
    17   Atom        0.017739      0.018703      0.026243
    18   Atom        0.017901     -0.021312     -0.008064
    19   Atom       -0.030608     -0.005658      0.010083
 --------------------------------------------------------


 ---------------------------------------------------------------------------------
              Anisotropic Spin Dipole Couplings in Principal Axis System
 ---------------------------------------------------------------------------------

       Atom             a.u.   MegaHertz   Gauss  10(-4) cm-1        Axes

              Baa    -0.0005     0.017     0.006     0.006  0.9955  0.0455  0.0828
     1 Cr(53) Bbb     0.0001    -0.003    -0.001    -0.001 -0.0533  0.9941  0.0942
              Bcc     0.0005    -0.014    -0.005    -0.005 -0.0780 -0.0982  0.9921
 
              Baa    -0.0875     6.334     2.260     2.113  0.7090  0.2413 -0.6627
     2 O(17)  Bbb    -0.0612     4.429     1.581     1.477 -0.3664  0.9289 -0.0538
              Bcc     0.1488   -10.764    -3.841    -3.590  0.6026  0.2810  0.7469
 
              Baa    -0.0234   -12.478    -4.453    -4.162 -0.5392 -0.5468  0.6406
     3 H(1)   Bbb    -0.0203   -10.844    -3.869    -3.617  0.6026  0.2809  0.7470
              Bcc     0.0437    23.322     8.322     7.779 -0.5884  0.7887  0.1781
 
              Baa    -0.0876     6.337     2.261     2.114 -0.3662  0.9290 -0.0543
     4 O(17)  Bbb    -0.0612     4.428     1.580     1.477  0.6028  0.2812  0.7467
              Bcc     0.1488   -10.765    -3.841    -3.591  0.7089  0.2407 -0.6629
 
              Baa    -0.0234   -12.479    -4.453    -4.163 -0.1354  0.9691  0.2061
     5 H(1)   Bbb    -0.0203   -10.846    -3.870    -3.618  0.7091  0.2401 -0.6629
              Bcc     0.0437    23.325     8.323     7.780  0.6920 -0.0564  0.7197
 
              Baa    -0.0875     6.333     2.260     2.113  0.6032  0.2804  0.7467
     6 O(17)  Bbb    -0.0612     4.426     1.579     1.476  0.7086  0.2413 -0.6631
              Bcc     0.1487   -10.760    -3.839    -3.589 -0.3661  0.9291 -0.0532
 
              Baa    -0.0234   -12.477    -4.452    -4.162  0.8102  0.3459  0.4732
     7 H(1)   Bbb    -0.0203   -10.842    -3.869    -3.617 -0.3658  0.9292 -0.0528
              Bcc     0.0437    23.319     8.321     7.779 -0.4579 -0.1303  0.8794
 
              Baa    -0.0875     6.335     2.260     2.113  0.7081  0.2410 -0.6637
     8 O(17)  Bbb    -0.0612     4.430     1.581     1.478 -0.3666  0.9288 -0.0539
              Bcc     0.1488   -10.764    -3.841    -3.591  0.6034  0.2815  0.7461
 
              Baa    -0.0234   -12.478    -4.453    -4.162  0.7907 -0.0936 -0.6051
     9 H(1)   Bbb    -0.0203   -10.843    -3.869    -3.617  0.6040  0.2812  0.7457
              Bcc     0.0437    23.321     8.322     7.779 -0.1004  0.9551 -0.2789
 
              Baa    -0.0876     6.336     2.261     2.113 -0.3669  0.9287 -0.0538
    10 O(17)  Bbb    -0.0612     4.427     1.580     1.477  0.6027  0.2814  0.7467
              Bcc     0.1487   -10.763    -3.841    -3.590  0.7086  0.2416 -0.6629
 
              Baa    -0.0234   -12.479    -4.453    -4.163 -0.1362  0.9688  0.2070
    11 H(1)   Bbb    -0.0203   -10.846    -3.870    -3.618  0.7088  0.2412 -0.6629
              Bcc     0.0437    23.325     8.323     7.780  0.6922 -0.0564  0.7195
 
              Baa    -0.0875     6.333     2.260     2.112  0.6027  0.2826  0.7463
    12 O(17)  Bbb    -0.0612     4.426     1.579     1.476  0.7083  0.2412 -0.6634
              Bcc     0.1487   -10.759    -3.839    -3.589 -0.3675  0.9284 -0.0548
 
              Baa    -0.0234   -12.477    -4.452    -4.162  0.8091  0.3485  0.4731
    13 H(1)   Bbb    -0.0203   -10.841    -3.868    -3.616 -0.3678  0.9283 -0.0549
              Bcc     0.0437    23.318     8.320     7.778 -0.4583 -0.1296  0.8793
 
              Baa    -0.0234   -12.479    -4.453    -4.162  0.3206  0.1824  0.9295
    14 H(1)   Bbb    -0.0203   -10.845    -3.870    -3.618 -0.3678  0.9283 -0.0554
              Bcc     0.0437    23.324     8.323     7.780  0.8729  0.3241 -0.3647
 
              Baa    -0.0234   -12.479    -4.453    -4.162 -0.5514  0.7754 -0.3078
    15 H(1)   Bbb    -0.0203   -10.844    -3.870    -3.617  0.7089  0.2410 -0.6629
              Bcc     0.0437    23.323     8.322     7.780  0.4399  0.5837  0.6825
 
              Baa    -0.0234   -12.478    -4.452    -4.162  0.7916 -0.0931 -0.6039
    16 H(1)   Bbb    -0.0203   -10.843    -3.869    -3.617  0.6028  0.2809  0.7468
              Bcc     0.0437    23.321     8.321     7.779 -0.1001  0.9552 -0.2785
 
              Baa    -0.0234   -12.478    -4.453    -4.162 -0.5522  0.7752 -0.3069
    17 H(1)   Bbb    -0.0203   -10.844    -3.869    -3.617  0.7084  0.2421 -0.6630
              Bcc     0.0437    23.322     8.322     7.779  0.4396  0.5835  0.6828
 
              Baa    -0.0234   -12.478    -4.453    -4.162  0.3217  0.1799  0.9296
    18 H(1)   Bbb    -0.0203   -10.845    -3.870    -3.617 -0.3662  0.9290 -0.0530
              Bcc     0.0437    23.323     8.322     7.780  0.8732  0.3233 -0.3648
 
              Baa    -0.0234   -12.478    -4.453    -4.162 -0.5381 -0.5463  0.6419
    19 H(1)   Bbb    -0.0203   -10.843    -3.869    -3.617  0.6038  0.2815  0.7458
              Bcc     0.0437    23.322     8.322     7.779 -0.5881  0.7889  0.1783
 

 ---------------------------------------------------------------------------------

 No NMR shielding tensors so no spin-rotation constants.
 Leave Link  601 at Thu May 30 10:27:22 2024, MaxMem= 26843545600 cpu:              28.9 elap:               0.3
 (Enter /gpfs/fs1/soft/improv/software/custom-built/gaussian/g16/l9999.exe)
 Unable to Open any file for archive entry.
 1\1\GINC-I587\SP\UPBEPBE\Gen\Cr1H12O6(3+,4)\HHARB\30-May-2024\0\\#p PB
 EPBE empiricaldispersion=gd3 scf=(maxcycles=500,xqc,maxconventional=50
 ) scrf=(cpcm,solvent=water) geom=allcheck guess=read chkbasis\\Title\\
 3,4\Cr,-0.7848019977,0.7129504158,0.0317959595\O,-1.3157785946,2.62196
 11661,-0.293801313\H,-1.4277943997,3.0480740398,-1.1726593849\O,1.1489
 071094,1.2536247199,0.0485780862\H,1.9152359136,0.6522753238,0.1813758
 783\O,-0.8876465899,1.0219495859,2.0132713897\H,-1.6836603394,0.897126
 8014,2.5765664945\O,-0.2537190862,-1.1960364672,0.3573408681\H,-0.0587
 899189,-1.8669781582,-0.3343025347\O,-2.7185392926,0.1723389962,0.0150
 267157\H,-3.4847875828,0.7736206282,-0.1185382348\O,-0.6821198992,0.40
 38734923,-1.9496780269\H,0.1133044764,0.5304367394,-2.513420765\H,-1.4
 187549338,0.0992516063,-2.5250799318\H,1.49447305,2.1656491561,-0.0751
 920243\H,-1.5095460749,3.2932673298,0.397811699\H,-3.0642111558,-0.739
 5296966,0.1396499589\H,-0.1506010003,1.3247002396,2.5891335167\H,-0.14
 26872537,-1.6224761486,1.2361670589\\Version=ES64L-G16RevC.02\State=4-
 A\HF=-1501.962375\S2=3.761247\S2-1=0.\S2A=3.750046\RMSD=5.966e-10\Dipo
 le=0.0000225,-0.0000163,0.0000366\Quadrupole=-0.0024269,0.0014562,0.00
 09707,0.0003658,0.0041464,-0.0019601\PG=C01 [X(Cr1H12O6)]\\@
 The archive entry for this job was punched.


 THEORY:  SUPPOSITION WHICH HAS SCIENTIFIC BASIS,
          BUT NOT EXPERIMENTALLY PROVEN.
 FACT:    A THEORY WHICH HAS BEEN PROVEN BY ENOUGH 
          MONEY TO PAY FOR THE EXPERIMENTS.

                          --  THE WIZARD OF ID
 Job cpu time:       0 days  1 hours 17 minutes  4.3 seconds.
 Elapsed time:       0 days  0 hours  0 minutes 39.2 seconds.
 File lengths (MBytes):  RWF=    118 Int=      0 D2E=      0 Chk=     32 Scr=      1
 Normal termination of Gaussian 16 at Thu May 30 10:27:22 2024.
