 Entering Gaussian System, Link 0=g16
 Input=Mn_2_PBE.com
 Output=Mn_2_PBE.log
 Initial command:
 /gpfs/fs1/soft/improv/software/custom-built/gaussian/g16/l1.exe "/scratch/Gau-465095.inp" -scrdir="/scratch/"
 Default CPUs for threads: 0-127
 Default linda workers: i588.lcrc.anl.gov
 Default is to use 128 SMP processors on each worker.
 Entering Link 1 = /gpfs/fs1/soft/improv/software/custom-built/gaussian/g16/l1.exe PID=    465096.
  
 Copyright (c) 1988-2021, Gaussian, Inc.  All Rights Reserved.
  
 This is part of the Gaussian(R) 16 program.  It is based on
 the Gaussian(R) 09 system (copyright 2009, Gaussian, Inc.),
 the Gaussian(R) 03 system (copyright 2003, Gaussian, Inc.),
 the Gaussian(R) 98 system (copyright 1998, Gaussian, Inc.),
 the Gaussian(R) 94 system (copyright 1995, Gaussian, Inc.),
 the Gaussian 92(TM) system (copyright 1992, Gaussian, Inc.),
 the Gaussian 90(TM) system (copyright 1990, Gaussian, Inc.),
 the Gaussian 88(TM) system (copyright 1988, Gaussian, Inc.),
 the Gaussian 86(TM) system (copyright 1986, Carnegie Mellon
 University), and the Gaussian 82(TM) system (copyright 1983,
 Carnegie Mellon University). Gaussian is a federally registered
 trademark of Gaussian, Inc.
  
 This software contains proprietary and confidential information,
 including trade secrets, belonging to Gaussian, Inc.
  
 This software is provided under written license and may be
 used, copied, transmitted, or stored only in accord with that
 written license.
  
 The following legend is applicable only to US Government
 contracts under FAR:
  
                    RESTRICTED RIGHTS LEGEND
  
 Use, reproduction and disclosure by the US Government is
 subject to restrictions as set forth in subparagraphs (a)
 and (c) of the Commercial Computer Software - Restricted
 Rights clause in FAR 52.227-19.
  
 Gaussian, Inc.
 340 Quinnipiac St., Bldg. 40, Wallingford CT 06492
  
  
 ---------------------------------------------------------------
 Warning -- This program may not be used in any manner that
 competes with the business of Gaussian, Inc. or will provide
 assistance to any competitor of Gaussian, Inc.  The licensee
 of this program is prohibited from giving any competitor of
 Gaussian, Inc. access to this program.  By using this program,
 the user acknowledges that Gaussian, Inc. is engaged in the
 business of creating and licensing software in the field of
 computational chemistry and represents and warrants to the
 licensee that it is not a competitor of Gaussian, Inc. and that
 it will not use this program in any manner prohibited above.
 ---------------------------------------------------------------
  

 Cite this work as:
 Gaussian 16, Revision C.02,
 M. J. Frisch, G. W. Trucks, H. B. Schlegel, G. E. Scuseria, 
 M. A. Robb, J. R. Cheeseman, G. Scalmani, V. Barone, 
 G. A. Petersson, H. Nakatsuji, X. Li, M. Caricato, A. V. Marenich, 
 J. Bloino, B. G. Janesko, R. Gomperts, B. Mennucci, H. P. Hratchian, 
 J. V. Ortiz, A. F. Izmaylov, J. L. Sonnenberg, D. Williams-Young, 
 F. Ding, F. Lipparini, F. Egidi, J. Goings, B. Peng, A. Petrone, 
 T. Henderson, D. Ranasinghe, V. G. Zakrzewski, J. Gao, N. Rega, 
 G. Zheng, W. Liang, M. Hada, M. Ehara, K. Toyota, R. Fukuda, 
 J. Hasegawa, M. Ishida, T. Nakajima, Y. Honda, O. Kitao, H. Nakai, 
 T. Vreven, K. Throssell, J. A. Montgomery, Jr., J. E. Peralta, 
 F. Ogliaro, M. J. Bearpark, J. J. Heyd, E. N. Brothers, K. N. Kudin, 
 V. N. Staroverov, T. A. Keith, R. Kobayashi, J. Normand, 
 K. Raghavachari, A. P. Rendell, J. C. Burant, S. S. Iyengar, 
 J. Tomasi, M. Cossi, J. M. Millam, M. Klene, C. Adamo, R. Cammi, 
 J. W. Ochterski, R. L. Martin, K. Morokuma, O. Farkas, 
 J. B. Foresman, and D. J. Fox, Gaussian, Inc., Wallingford CT, 2019.
 
 ******************************************
 Gaussian 16:  ES64L-G16RevC.02  7-Dec-2021
                30-May-2024 
 ******************************************
 %chk=Mn_2_PBE.chk
 SetSPE:  set environment variable "OMP_PROC_BIND" = "true"
 SetSPE:  set environment variable "OMP_PLACES" = "{0},{1},{2},{3},{4},{5},{6},{7},{8},{9},{10},{11},{12},{13},{14},{15},{16},{17},{18},{19},{20},{21},{22},{23},{24},{25},{26},{27},{28},{29},{30},{31},{32},{33},{34},{35},{36},{37},{38},{39},{40},{41},{42},{43},{44},{45},{46},{47},{48},{49},{50},{51},{52},{53},{54},{55},{56},{57},{58},{59},{60},{61},{62},{63},{64},{65},{66},{67},{68},{69},{70},{71},{72},{73},{74},{75},{76},{77},{78},{79},{80},{81},{82},{83},{84},{85},{86},{87},{88},{89},{90},{91},{92},{93},{94},{95},{96},{97},{98},{99},{100},{101},{102},{103},{104},{105},{106},{107},{108},{109},{110},{111},{112},{113},{114},{115},{116},{117},{118},{119},{120},{121},{122},{123},{124},{125},{126},{127}"
 SetLPE:    new flags="-opt 'Tsnet.Node.lindarsharg: ssh'  -nodelist 'i588.lcrc.anl.gov' -env GAUSS_MDEF=26843545600 -env GAUSS_EXEDIR="/gpfs/fs1/soft/improv/software/custom-built/gaussian/g16/bsd:/gpfs/fs1/soft/improv/software/custom-built/gaussian/g16" -env "OMP_PROC_BIND=true" -env "OMP_PLACES={0},{1},{2},{3},{4},{5},{6},{7},{8},{9},{10},{11},{12},{13},{14},{15},{16},{17},{18},{19},{20},{21},{22},{23},{24},{25},{26},{27},{28},{29},{30},{31},{32},{33},{34},{35},{36},{37},{38},{39},{40},{41},{42},{43},{44},{45},{46},{47},{48},{49},{50},{51},{52},{53},{54},{55},{56},{57},{58},{59},{60},{61},{62},{63},{64},{65},{66},{67},{68},{69},{70},{71},{72},{73},{74},{75},{76},{77},{78},{79},{80},{81},{82},{83},{84},{85},{86},{87},{88},{89},{90},{91},{92},{93},{94},{95},{96},{97},{98},{99},{100},{101},{102},{103},{104},{105},{106},{107},{108},{109},{110},{111},{112},{113},{114},{115},{116},{117},{118},{119},{120},{121},{122},{123},{124},{125},{126},{127}" -env GAUSS_ADEF="0,1,2,3,4,5,6,7,8,9,10,11,12,13,14,15,16,17,18,19,20,21,22,23,24,25,26,27,28,29,30,31,32,33,34,35,36,37,38,39,40,41,42,43,44,45,46,47,48,49,50,51,52,53,54,55,56,57,58,59,60,61,62,63,64,65,66,67,68,69,70,71,72,73,74,75,76,77,78,79,80,81,82,83,84,85,86,87,88,89,90,91,92,93,94,95,96,97,98,99,100,101,102,103,104,105,106,107,108,109,110,111,112,113,114,115,116,117,118,119,120,121,122,123,124,125,126,127""
 Will use up to    1 processors via Linda.
 ----------------------------------------------------------------------
 #p PBEPBE empiricaldispersion=gd3 6-31+G(2df,p) opt=(cartesian,calcall
 ,maxcycles=500) freq scf=(maxcycles=500,xqc,maxconventional=50)
 ----------------------------------------------------------------------
 1/6=500,10=4,18=10,26=3,38=1/1,3;
 2/12=2,17=6,18=5,29=2,40=1/2;
 3/5=1,6=6,7=114,11=2,25=1,30=1,71=2,74=1009,124=31,140=1/1,2,3;
 4//1;
 5/5=2,7=500,8=3,13=1,38=5,85=50/2,8;
 8/6=4,10=90,11=11/1;
 11/6=1,8=1,9=11,15=111,16=1/1,2,10;
 10/6=1/2;
 6/7=2,8=2,9=2,10=2,18=1,28=1/1;
 7/7=1,10=1,25=1/1,2,3,16;
 1/6=500,10=4,18=10,26=3/3(3);
 2/29=1/2;
 7/7=1,8=1,9=1,25=1,44=-1/16;
 99/12=1/99;
 2/29=1/2;
 3/5=1,6=6,7=114,11=2,25=1,30=1,71=2,74=1009,124=31,140=1/1,2,3;
 4/5=5,16=3,69=1/1;
 5/5=2,7=500,8=3,13=1,38=5,85=50/2,8;
 8/6=4,10=90,11=11/1;
 11/6=1,8=1,9=11,15=111,16=1/1,2,10;
 10/6=1/2;
 7/7=1,10=1,25=1/1,2,3,16;
 1/6=500,10=4,18=10,26=3/3(-8);
 2/29=1/2;
 6/7=2,8=2,9=2,10=2,18=1,19=2,28=1/1;
 7/7=1,8=1,9=1,25=1,44=-1/16;
 99/12=1/99;
 Leave Link    1 at Thu May 30 09:18:10 2024, MaxMem=           0 cpu:               4.6 elap:               0.1
 (Enter /gpfs/fs1/soft/improv/software/custom-built/gaussian/g16/l101.exe)
 -----
 Title
 -----
 Symbolic Z-matrix:
 Charge =  2 Multiplicity = 6
 Mn                   -0.79304   0.81881  -0.09491 
 O                    -1.20497   2.57394  -0.35687 
 H                    -2.12106   2.64974  -0.63312 
 O                     0.99012   1.19063  -0.05794 
 H                     1.42696   0.5998    0.55971 
 O                    -0.81752   1.03069   1.71365 
 H                    -1.02108   0.1906    2.13133 
 O                    -0.38507  -0.93351   0.17118 
 H                    -1.15682  -1.47369  -0.01433 
 O                    -2.57341   0.45178  -0.12186 
 H                    -2.77756  -0.08744  -0.88929 
 O                    -0.76966   0.60461  -1.90111 
 H                     0.09872   0.83457  -2.23949 
 H                    -0.96534  -0.30999  -2.11742 
 H                     1.12208   2.09943   0.22124 
 H                    -1.07671   3.0584    0.46184 
 H                    -2.81407  -0.02398   0.6765 
 H                     0.0422    1.33615   2.01181 
 H                    -0.11532  -1.06446   1.08312 
 
 ITRead=  0  0  0  0  0  0  0  0  0  0  0  0  0  0  0  0  0  0  0
 MicOpt= -1 -1 -1 -1 -1 -1 -1 -1 -1 -1 -1 -1 -1 -1 -1 -1 -1 -1 -1
 NAtoms=     19 NQM=       19 NQMF=       0 NMMI=      0 NMMIF=      0
                NMic=       0 NMicF=      0.
                    Isotopes and Nuclear Properties:
 (Nuclear quadrupole moments (NQMom) in fm**2, nuclear magnetic moments (NMagM)
  in nuclear magnetons)

  Atom         1           2           3           4           5           6           7           8           9          10
 IAtWgt=          55          16           1          16           1          16           1          16           1          16
 AtmWgt=  54.9380463  15.9949146   1.0078250  15.9949146   1.0078250  15.9949146   1.0078250  15.9949146   1.0078250  15.9949146
 NucSpn=           5           0           1           0           1           0           1           0           1           0
 AtZEff=  -0.0000000  -0.0000000  -0.0000000  -0.0000000  -0.0000000  -0.0000000  -0.0000000  -0.0000000  -0.0000000  -0.0000000
 NQMom=   33.0000000   0.0000000   0.0000000   0.0000000   0.0000000   0.0000000   0.0000000   0.0000000   0.0000000   0.0000000
 NMagM=    3.4532000   0.0000000   2.7928460   0.0000000   2.7928460   0.0000000   2.7928460   0.0000000   2.7928460   0.0000000
 AtZNuc=  25.0000000   8.0000000   1.0000000   8.0000000   1.0000000   8.0000000   1.0000000   8.0000000   1.0000000   8.0000000

  Atom        11          12          13          14          15          16          17          18          19
 IAtWgt=           1          16           1           1           1           1           1           1           1
 AtmWgt=   1.0078250  15.9949146   1.0078250   1.0078250   1.0078250   1.0078250   1.0078250   1.0078250   1.0078250
 NucSpn=           1           0           1           1           1           1           1           1           1
 AtZEff=  -0.0000000  -0.0000000  -0.0000000  -0.0000000  -0.0000000  -0.0000000  -0.0000000  -0.0000000  -0.0000000
 NQMom=    0.0000000   0.0000000   0.0000000   0.0000000   0.0000000   0.0000000   0.0000000   0.0000000   0.0000000
 NMagM=    2.7928460   0.0000000   2.7928460   2.7928460   2.7928460   2.7928460   2.7928460   2.7928460   2.7928460
 AtZNuc=   1.0000000   8.0000000   1.0000000   1.0000000   1.0000000   1.0000000   1.0000000   1.0000000   1.0000000
 Leave Link  101 at Thu May 30 09:18:10 2024, MaxMem= 26843545600 cpu:               0.4 elap:               0.0
 (Enter /gpfs/fs1/soft/improv/software/custom-built/gaussian/g16/l103.exe)

 GradGradGradGradGradGradGradGradGradGradGradGradGradGradGradGradGradGrad
 Berny optimization.
 Initialization pass.
 No Z-matrix variables, so optimization will use Cartesian coordinates.
 Trust Radius=3.00D-01 FncErr=1.00D-07 GrdErr=1.00D-06 EigMax=2.50D+02 EigMin=1.00D-04
 Number of steps in this run=    114 maximum allowed number of steps=    114.
 GradGradGradGradGradGradGradGradGradGradGradGradGradGradGradGradGradGrad

 Leave Link  103 at Thu May 30 09:18:10 2024, MaxMem= 26843545600 cpu:               0.4 elap:               0.1
 (Enter /gpfs/fs1/soft/improv/software/custom-built/gaussian/g16/l202.exe)
 ---------------------------------------------------------------------------------------------------
                            Z-MATRIX (ANGSTROMS AND DEGREES)
   CD    Cent   Atom    N1       Length/X        N2       Alpha/Y        N3        Beta/Z          J
 ---------------------------------------------------------------------------------------------------
      1      1  Mn       0  -0.793037          0.818805         -0.094905
      2      2  O        0  -1.204971          2.573941         -0.356874
      3      3  H        0  -2.121063          2.649743         -0.633122
      4      4  O        0   0.990122          1.190635         -0.057941
      5      5  H        0   1.426962          0.599798          0.559707
      6      6  O        0  -0.817519          1.030691          1.713650
      7      7  H        0  -1.021079          0.190602          2.131326
      8      8  O        0  -0.385068         -0.933506          0.171177
      9      9  H        0  -1.156817         -1.473692         -0.014327
     10     10  O        0  -2.573405          0.451778         -0.121857
     11     11  H        0  -2.777557         -0.087440         -0.889285
     12     12  O        0  -0.769659          0.604612         -1.901109
     13     13  H        0   0.098725          0.834573         -2.239490
     14     14  H        0  -0.965336         -0.309994         -2.117418
     15     15  H        0   1.122081          2.099426          0.221242
     16     16  H        0  -1.076711          3.058396          0.461841
     17     17  H        0  -2.814074         -0.023981          0.676500
     18     18  H        0   0.042204          1.336153          2.011809
     19     19  H        0  -0.115315         -1.064459          1.083123
 ---------------------------------------------------------------------------------------------------
                         Z-Matrix orientation:                         
 ---------------------------------------------------------------------
 Center     Atomic      Atomic             Coordinates (Angstroms)
 Number     Number       Type             X           Y           Z
 ---------------------------------------------------------------------
      1         25           0       -0.793037    0.818805   -0.094905
      2          8           0       -1.204971    2.573941   -0.356874
      3          1           0       -2.121063    2.649743   -0.633122
      4          8           0        0.990122    1.190635   -0.057941
      5          1           0        1.426962    0.599798    0.559707
      6          8           0       -0.817519    1.030691    1.713650
      7          1           0       -1.021079    0.190602    2.131326
      8          8           0       -0.385068   -0.933506    0.171177
      9          1           0       -1.156817   -1.473692   -0.014327
     10          8           0       -2.573405    0.451778   -0.121857
     11          1           0       -2.777557   -0.087440   -0.889285
     12          8           0       -0.769659    0.604612   -1.901109
     13          1           0        0.098725    0.834573   -2.239490
     14          1           0       -0.965336   -0.309994   -2.117418
     15          1           0        1.122081    2.099426    0.221242
     16          1           0       -1.076711    3.058396    0.461841
     17          1           0       -2.814074   -0.023981    0.676500
     18          1           0        0.042204    1.336153    2.011809
     19          1           0       -0.115315   -1.064459    1.083123
 ---------------------------------------------------------------------
                    Distance matrix (angstroms):
                    1          2          3          4          5
     1  Mn   0.000000
     2  O    1.821762   0.000000
     3  H    2.325008   0.959835   0.000000
     4  O    1.821889   2.611767   3.484150   0.000000
     5  H    2.324839   3.415322   4.267739   0.959899   0.000000
     6  O    1.821090   2.611285   3.134947   2.536076   2.560263
     7  H    2.324381   3.450400   3.859988   3.136540   2.937743
     8  O    1.818745   3.640503   4.062050   2.540791   2.405292
     9  H    2.322579   4.062387   4.279649   3.421971   3.362259
    10  O    1.818006   2.536025   2.301533   3.639880   4.060711
    11  H    2.321775   3.136788   2.826442   4.064482   4.499984
    12  O    1.819010   2.540161   2.759827   2.614866   3.298603
    13  H    2.322657   2.875634   3.286750   2.383386   3.107223
    14  H    2.322591   3.387332   3.506977   3.212032   3.703756
    15  H    2.325429   2.444290   3.398642   0.959822   1.567289
    16  H    2.325125   0.959918   1.567358   2.833814   3.510364
    17  H    2.321626   3.225876   3.056824   4.060370   4.288255
    18  H    2.324547   2.949275   3.660724   2.281137   2.137375
    19  H    2.322443   4.061883   4.556733   2.758526   2.328591
                    6          7          8          9         10
     6  O    0.000000
     7  H    0.960021   0.000000
     8  O    2.534622   2.347406   0.000000
     9  H    3.061530   2.718847   0.960108   0.000000
    10  O    2.605257   2.748593   2.606473   2.392848   0.000000
    11  H    3.444886   3.505227   2.750347   2.305222   0.959885
    12  O    3.640099   4.061422   2.609231   2.833582   2.538227
    13  H    4.062670   4.557707   3.028445   3.443229   3.430916
    14  H    4.061572   4.278496   2.441955   2.411193   2.673658
    15  H    2.670492   3.447487   3.387136   4.244531   4.060675
    16  H    2.397039   3.318813   4.061790   4.557738   3.061904
    17  H    2.484803   2.318921   2.642472   2.307685   0.960023
    18  H    0.959858   1.567527   2.953276   3.665802   3.489421
    19  H    2.297892   1.869309   0.959980   1.567353   3.129403
                   11         12         13         14         15
    11  H    0.000000
    12  O    2.352526   0.000000
    13  H    3.308498   0.959935   0.000000
    14  H    2.200452   0.959991   1.567533   0.000000
    15  H    4.606825   3.212091   2.949969   3.953725   0.000000
    16  H    3.822919   3.420362   3.691102   4.243941   2.410850
    17  H    1.567497   3.349453   4.210050   3.362383   4.495491
    18  H    4.288824   4.062660   4.281159   4.558009   2.225950
    19  H    3.454344   3.481323   3.833001   3.396353   3.504877
                   16         17         18         19
    16  H    0.000000
    17  H    3.544793   0.000000
    18  H    2.573032   3.433851   0.000000
    19  H    4.278809   2.920828   2.578800   0.000000
 Stoichiometry    H12MnO6(2+,6)
 Framework group  C1[X(H12MnO6)]
 Deg. of freedom    51
 Full point group                 C1      NOp   1
 Largest Abelian subgroup         C1      NOp   1
 Largest concise Abelian subgroup C1      NOp   1
                         Standard orientation:                         
 ---------------------------------------------------------------------
 Center     Atomic      Atomic             Coordinates (Angstroms)
 Number     Number       Type             X           Y           Z
 ---------------------------------------------------------------------
      1         25           0       -0.020445   -0.030121    0.009875
      2          8           0       -0.320808   -1.687588   -0.683958
      3          1           0       -1.137042   -1.679899   -1.188920
      4          8           0        1.254655   -0.678279    1.138277
      5          1           0        1.943361   -0.019749    1.254154
      6          8           0        1.298207    0.294245   -1.203513
      7          1           0        1.382040    1.240910   -1.339297
      8          8           0        0.280486    1.626554    0.697409
      9          1           0       -0.431358    2.215648    0.436540
     10          8           0       -1.285904    0.615907   -1.124325
     11          1           0       -2.034842    0.938661   -0.618064
     12          8           0       -1.338362   -0.351446    1.221751
     13          1           0       -0.971739   -0.815561    1.977832
     14          1           0       -1.717277    0.481861    1.510897
     15          1           0        1.635399   -1.477016    0.766376
     16          1           0        0.408515   -1.930884   -1.258706
     17          1           0       -0.915243    1.335169   -1.640964
     18          1           0        2.129003   -0.056571   -0.874826
     19          1           0        1.114126    1.965325    0.362984
 ---------------------------------------------------------------------
 Rotational constants (GHZ):           2.0396948           1.9739407           1.9252755
 Leave Link  202 at Thu May 30 09:18:10 2024, MaxMem= 26843545600 cpu:               0.5 elap:               0.1
 (Enter /gpfs/fs1/soft/improv/software/custom-built/gaussian/g16/l301.exe)
 Standard basis: 6-31+G(2df,p) (6D, 7F)
 Ernie: Thresh=  0.10000D-02 Tol=  0.10000D-05 Strict=F.
 There are   347 symmetry adapted cartesian basis functions of A   symmetry.
 There are   317 symmetry adapted basis functions of A   symmetry.
   317 basis functions,   514 primitive gaussians,   347 cartesian basis functions
    44 alpha electrons       39 beta electrons
       nuclear repulsion energy       751.0997080055 Hartrees.
 IExCor= 1009 DFT=T Ex=PBE Corr=PBE ExCW=0 ScaHFX=  0.000000
 ScaDFX=  1.000000  1.000000  1.000000  1.000000 ScalE2=  1.000000  1.000000
 IRadAn=      5 IRanWt=     -1 IRanGd=            0 ICorTp=0 IEmpDi=131
 NAtoms=   19 NActive=   19 NUniq=   19 SFac= 1.00D+00 NAtFMM=   60 NAOKFM=F Big=F
 Integral buffers will be    131072 words long.
 Raffenetti 2 integral format.
 Two-electron integral symmetry is turned on.
 R6Disp:  Grimme-D3 Dispersion energy=       -0.0125517488 Hartrees.
 Nuclear repulsion after empirical dispersion term =      751.0871562568 Hartrees.
 Leave Link  301 at Thu May 30 09:18:11 2024, MaxMem= 26843545600 cpu:               0.4 elap:               0.1
 (Enter /gpfs/fs1/soft/improv/software/custom-built/gaussian/g16/l302.exe)
 NPDir=0 NMtPBC=     1 NCelOv=     1 NCel=       1 NClECP=     1 NCelD=      1
         NCelK=      1 NCelE2=     1 NClLst=     1 CellRange=     0.0.
 One-electron integrals computed using PRISM.
 One-electron integral symmetry used in STVInt
 NBasis=   317 RedAO= T EigKep=  1.52D-05  NBF=   317
 NBsUse=   317 1.00D-06 EigRej= -1.00D+00 NBFU=   317
 Precomputing XC quadrature grid using
 IXCGrd= 4 IRadAn=           5 IRanWt=          -1 IRanGd=           0 AccXCQ= 0.00D+00.
 Generated NRdTot=       0 NPtTot=           0 NUsed=           0 NTot=          32
 NSgBfM=   347   346   347   347   347 MxSgAt=    19 MxSgA2=    19.
 Leave Link  302 at Thu May 30 09:18:11 2024, MaxMem= 26843545600 cpu:              22.0 elap:               0.3
 (Enter /gpfs/fs1/soft/improv/software/custom-built/gaussian/g16/l303.exe)
 DipDrv:  MaxL=1.
 Leave Link  303 at Thu May 30 09:18:11 2024, MaxMem= 26843545600 cpu:               1.0 elap:               0.0
 (Enter /gpfs/fs1/soft/improv/software/custom-built/gaussian/g16/l401.exe)
 ExpMin= 1.19D-02 ExpMax= 5.63D+04 ExpMxC= 8.46D+03 IAcc=3 IRadAn=         5 AccDes= 0.00D+00
 Harris functional with IExCor= 1009 and IRadAn=       5 diagonalized for initial guess.
 HarFok:  IExCor= 1009 AccDes= 0.00D+00 IRadAn=         5 IDoV= 1 UseB2=F ITyADJ=14
 ICtDFT=  3500011 ScaDFX=  1.000000  1.000000  1.000000  1.000000
 FoFCou: FMM=F IPFlag=           0 FMFlag=      100000 FMFlg1=           0
         NFxFlg=           0 DoJE=T BraDBF=F KetDBF=T FulRan=T
         wScrn=  0.000000 ICntrl=       500 IOpCl=  0 I1Cent=   200000004 NGrid=           0
         NMat0=    1 NMatS0=      1 NMatT0=    0 NMatD0=    1 NMtDS0=    0 NMtDT0=    0
 Petite list used in FoFCou.
 Harris En= -1608.20508521319    
 JPrj=0 DoOrth=F DoCkMO=F.
 Initial guess <Sx>= 0.0000 <Sy>= 0.0000 <Sz>= 2.5000 <S**2>= 8.7500 S= 2.5000
 Leave Link  401 at Thu May 30 09:18:12 2024, MaxMem= 26843545600 cpu:              37.6 elap:               0.4
 (Enter /gpfs/fs1/soft/improv/software/custom-built/gaussian/g16/l502.exe)
 Integral symmetry usage will be decided dynamically.
 UHF open shell SCF:
 Using DIIS extrapolation, IDIIS=  1040.
 NGot= 26843545600 LenX= 26843256607 LenY= 26843135757
 Requested convergence on RMS density matrix=1.00D-08 within  50 cycles.
 Requested convergence on MAX density matrix=1.00D-06.
 Requested convergence on             energy=1.00D-06.
 No special actions if energy rises.
 Fock matrices will be formed incrementally for  20 cycles.

 Cycle   1  Pass 1  IDiag  1:
 FoFJK:  IHMeth= 1 ICntrl=     500 DoSepK=F KAlg= 0 I1Cent=           0 FoldK=F
 IRaf= 990000000 NMat=       1 IRICut=       1 DoRegI=T DoRafI=F ISym2E= 0 IDoP0=0 IntGTp=1.
 FoFCou: FMM=F IPFlag=           0 FMFlag=      100000 FMFlg1=           0
         NFxFlg=           0 DoJE=T BraDBF=F KetDBF=F FulRan=T
         wScrn=  0.000000 ICntrl=       500 IOpCl=  0 I1Cent=           0 NGrid=           0
         NMat0=    1 NMatS0=      1 NMatT0=    0 NMatD0=    1 NMtDS0=    0 NMtDT0=    0
 Symmetry not used in FoFCou.
 E= -1607.59553501924    
 DIIS: error= 3.01D-02 at cycle   1 NSaved=   1.
 NSaved= 1 IEnMin= 1 EnMin= -1607.59553501924     IErMin= 1 ErrMin= 3.01D-02
 ErrMax= 3.01D-02  0.00D+00 EMaxC= 1.00D-01 BMatC= 2.99D+00 BMatP= 2.99D+00
 IDIUse=3 WtCom= 6.99D-01 WtEn= 3.01D-01
 Coeff-Com:  0.100D+01
 Coeff-En:   0.100D+01
 Coeff:      0.100D+01
 Gap=    -0.016 Goal=   None    Shift=    0.000
 Gap=    -0.196 Goal=   None    Shift=    0.000
 GapD=   -0.196 DampG=0.250 DampE=0.250 DampFc=0.1250 IDamp=-1.
 Damping current iteration by 1.25D-01
 RMSDP=1.92D-02 MaxDP=2.94D+00              OVMax= 8.32D-01

 Cycle   2  Pass 1  IDiag  1:
 RMSU=  2.34D-03    CP:  9.79D-01
 E= -1607.69166729790     Delta-E=       -0.096132278657 Rises=F Damp=T
 DIIS: error= 1.87D-02 at cycle   2 NSaved=   2.
 NSaved= 2 IEnMin= 2 EnMin= -1607.69166729790     IErMin= 2 ErrMin= 1.87D-02
 ErrMax= 1.87D-02  0.00D+00 EMaxC= 1.00D-01 BMatC= 7.35D-01 BMatP= 2.99D+00
 IDIUse=3 WtCom= 8.13D-01 WtEn= 1.87D-01
 Coeff-Com: -0.402D+00 0.140D+01
 Coeff-En:   0.240D+00 0.760D+00
 Coeff:     -0.281D+00 0.128D+01
 Gap=     0.092 Goal=   None    Shift=    0.000
 Gap=    -0.007 Goal=   None    Shift=    0.000
 RMSDP=4.27D-02 MaxDP=6.17D+00 DE=-9.61D-02 OVMax= 9.92D-01

 Cycle   3  Pass 1  IDiag  1:
 RMSU=  4.16D-02    CP:  1.10D+00  3.00D+00
 E= -1606.72532222455     Delta-E=        0.966345073351 Rises=F Damp=F
 DIIS: error= 5.00D-02 at cycle   3 NSaved=   3.
 NSaved= 3 IEnMin= 2 EnMin= -1607.69166729790     IErMin= 2 ErrMin= 1.87D-02
 ErrMax= 5.00D-02  0.00D+00 EMaxC= 1.00D-01 BMatC= 6.48D+00 BMatP= 7.35D-01
 IDIUse=2 WtCom= 0.00D+00 WtEn= 1.00D+00
 Coeff-En:   0.000D+00 0.830D+00 0.170D+00
 Coeff:      0.000D+00 0.830D+00 0.170D+00
 Gap=     0.015 Goal=   None    Shift=    0.000
 Gap=     0.235 Goal=   None    Shift=    0.000
 RMSDP=4.38D-02 MaxDP=6.06D+00 DE= 9.66D-01 OVMax= 9.39D-01

 Cycle   4  Pass 1  IDiag  1:
 RMSU=  7.38D-03    CP:  7.44D-01  3.00D+00 -1.62D-02
 E= -1607.23153618511     Delta-E=       -0.506213960562 Rises=F Damp=F
 DIIS: error= 6.18D-02 at cycle   4 NSaved=   4.
 NSaved= 4 IEnMin= 2 EnMin= -1607.69166729790     IErMin= 2 ErrMin= 1.87D-02
 ErrMax= 6.18D-02  0.00D+00 EMaxC= 1.00D-01 BMatC= 5.94D+00 BMatP= 7.35D-01
 IDIUse=2 WtCom= 0.00D+00 WtEn= 1.00D+00
 EnCoef did   100 forward-backward iterations
 Coeff-En:   0.419D+00 0.135D-01 0.162D+00 0.406D+00
 Coeff:      0.419D+00 0.135D-01 0.162D+00 0.406D+00
 Gap=     0.020 Goal=   None    Shift=    0.000
 Gap=     0.201 Goal=   None    Shift=    0.000
 RMSDP=1.60D-02 MaxDP=1.90D+00 DE=-5.06D-01 OVMax= 7.93D-01

 Cycle   5  Pass 1  IDiag  1:
 RMSU=  1.39D-02    CP:  8.29D-01  3.00D+00  1.45D-01  5.00D-01
 E= -1608.04983509635     Delta-E=       -0.818298911241 Rises=F Damp=F
 DIIS: error= 6.81D-03 at cycle   5 NSaved=   5.
 NSaved= 5 IEnMin= 5 EnMin= -1608.04983509635     IErMin= 5 ErrMin= 6.81D-03
 ErrMax= 6.81D-03  0.00D+00 EMaxC= 1.00D-01 BMatC= 1.12D-01 BMatP= 7.35D-01
 IDIUse=3 WtCom= 9.32D-01 WtEn= 6.81D-02
 Coeff-Com: -0.122D+00 0.416D+00 0.516D-01 0.542D-01 0.600D+00
 Coeff-En:   0.000D+00 0.000D+00 0.000D+00 0.142D-01 0.986D+00
 Coeff:     -0.114D+00 0.388D+00 0.481D-01 0.515D-01 0.626D+00
 Gap=    -0.013 Goal=   None    Shift=    0.000
 Gap=     0.230 Goal=   None    Shift=    0.000
 RMSDP=1.59D-02 MaxDP=1.91D+00 DE=-8.18D-01 OVMax= 8.11D-01

 Cycle   6  Pass 1  IDiag  1:
 RMSU=  3.89D-03    CP:  7.07D-01  3.00D+00 -2.82D-02  9.16D-01  6.96D-02
 E= -1608.00689607370     Delta-E=        0.042939022650 Rises=F Damp=F
 DIIS: error= 1.17D-02 at cycle   6 NSaved=   6.
 NSaved= 6 IEnMin= 5 EnMin= -1608.04983509635     IErMin= 5 ErrMin= 6.81D-03
 ErrMax= 1.17D-02  0.00D+00 EMaxC= 1.00D-01 BMatC= 3.93D-01 BMatP= 1.12D-01
 IDIUse=2 WtCom= 0.00D+00 WtEn= 1.00D+00
 Coeff-En:   0.000D+00 0.000D+00 0.000D+00 0.000D+00 0.637D+00 0.363D+00
 Coeff:      0.000D+00 0.000D+00 0.000D+00 0.000D+00 0.637D+00 0.363D+00
 Gap=     0.000 Goal=   None    Shift=    0.000
 Gap=     0.239 Goal=   None    Shift=    0.000
 RMSDP=2.14D-02 MaxDP=3.02D+00 DE= 4.29D-02 OVMax= 9.74D-01

 Cycle   7  Pass 1  IDiag  1:
 RMSU=  9.16D-03    CP:  9.19D-01  2.26D+00  2.39D-01  2.32D-01  1.01D+00
                    CP: -1.51D-01
 E= -1607.97449783985     Delta-E=        0.032398233848 Rises=F Damp=F
 DIIS: error= 1.40D-02 at cycle   7 NSaved=   7.
 NSaved= 7 IEnMin= 5 EnMin= -1608.04983509635     IErMin= 5 ErrMin= 6.81D-03
 ErrMax= 1.40D-02  0.00D+00 EMaxC= 1.00D-01 BMatC= 4.52D-01 BMatP= 1.12D-01
 IDIUse=2 WtCom= 0.00D+00 WtEn= 1.00D+00
 EnCoef did    11 forward-backward iterations
 Coeff-En:   0.000D+00 0.000D+00 0.000D+00 0.000D+00 0.533D+00 0.379D+00
 Coeff-En:   0.883D-01
 Coeff:      0.000D+00 0.000D+00 0.000D+00 0.000D+00 0.533D+00 0.379D+00
 Coeff:      0.883D-01
 Gap=    -0.009 Goal=   None    Shift=    0.000
 Gap=     0.229 Goal=   None    Shift=    0.000
 RMSDP=2.15D-02 MaxDP=3.02D+00 DE= 3.24D-02 OVMax= 9.81D-01

 Cycle   8  Pass 1  IDiag  1:
 RMSU=  1.05D-03    CP:  7.07D-01  3.00D+00 -2.81D-02  8.95D-01  7.71D-02
                    CP:  1.09D+00 -2.22D-02
 E= -1608.06072116010     Delta-E=       -0.086223320247 Rises=F Damp=F
 DIIS: error= 5.84D-03 at cycle   8 NSaved=   8.
 NSaved= 8 IEnMin= 8 EnMin= -1608.06072116010     IErMin= 8 ErrMin= 5.84D-03
 ErrMax= 5.84D-03  0.00D+00 EMaxC= 1.00D-01 BMatC= 9.03D-02 BMatP= 1.12D-01
 IDIUse=3 WtCom= 9.42D-01 WtEn= 5.84D-02
 EnCoef did     8 forward-backward iterations
 Coeff-Com: -0.402D-01 0.370D-01-0.193D-02-0.264D-01 0.350D+00 0.182D+00
 Coeff-Com:  0.167D+00 0.333D+00
 Coeff-En:   0.000D+00 0.000D+00 0.000D+00 0.000D+00 0.160D+00 0.000D+00
 Coeff-En:   0.195D+00 0.645D+00
 Coeff:     -0.378D-01 0.348D-01-0.182D-02-0.249D-01 0.339D+00 0.171D+00
 Coeff:      0.168D+00 0.351D+00
 Gap=     0.014 Goal=   None    Shift=    0.000
 Gap=     0.226 Goal=   None    Shift=    0.000
 RMSDP=2.22D-04 MaxDP=1.18D-02 DE=-8.62D-02 OVMax= 1.20D-02

 Cycle   9  Pass 1  IDiag  1:
 RMSU=  1.85D-04    CP:  7.07D-01  3.00D+00 -2.75D-02  8.97D-01  8.05D-02
                    CP:  1.07D+00 -3.05D-02  9.80D-01
 E= -1608.06034655328     Delta-E=        0.000374606820 Rises=F Damp=F
 DIIS: error= 6.30D-03 at cycle   9 NSaved=   9.
 NSaved= 9 IEnMin= 8 EnMin= -1608.06072116010     IErMin= 8 ErrMin= 5.84D-03
 ErrMax= 6.30D-03  0.00D+00 EMaxC= 1.00D-01 BMatC= 9.52D-02 BMatP= 9.03D-02
 IDIUse=3 WtCom= 9.42D-01 WtEn= 5.84D-02
 EnCoef did    40 forward-backward iterations
 Coeff-Com: -0.437D-01 0.590D-01-0.872D-02-0.268D-01 0.267D+00 0.162D-01
 Coeff-Com:  0.196D+00-0.284D+00 0.825D+00
 Coeff-En:   0.000D+00 0.000D+00 0.000D+00 0.000D+00 0.171D+00 0.000D+00
 Coeff-En:   0.192D+00 0.205D-02 0.635D+00
 Coeff:     -0.411D-01 0.556D-01-0.821D-02-0.252D-01 0.262D+00 0.153D-01
 Coeff:      0.196D+00-0.268D+00 0.814D+00
 Gap=     0.009 Goal=   None    Shift=    0.000
 Gap=     0.229 Goal=   None    Shift=    0.000
 RMSDP=1.37D-04 MaxDP=6.91D-03 DE= 3.75D-04 OVMax= 4.43D-03

 Cycle  10  Pass 1  IDiag  1:
 RMSU=  7.64D-05    CP:  7.07D-01  3.00D+00 -2.77D-02  8.94D-01  8.11D-02
                    CP:  1.09D+00 -2.96D-02  1.05D+00  8.93D-01
 E= -1608.06339483472     Delta-E=       -0.003048281438 Rises=F Damp=F
 DIIS: error= 5.74D-03 at cycle  10 NSaved=  10.
 NSaved=10 IEnMin=10 EnMin= -1608.06339483472     IErMin=10 ErrMin= 5.74D-03
 ErrMax= 5.74D-03  0.00D+00 EMaxC= 1.00D-01 BMatC= 7.62D-02 BMatP= 9.03D-02
 IDIUse=3 WtCom= 9.43D-01 WtEn= 5.74D-02
 EnCoef did     8 forward-backward iterations
 Coeff-Com: -0.435D-01 0.605D-01-0.772D-02-0.255D-01 0.217D+00-0.332D-01
 Coeff-Com:  0.194D+00-0.465D+00 0.539D+00 0.564D+00
 Coeff-En:   0.000D+00 0.000D+00 0.000D+00 0.000D+00 0.152D+00 0.000D+00
 Coeff-En:   0.185D+00 0.000D+00 0.000D+00 0.662D+00
 Coeff:     -0.410D-01 0.570D-01-0.727D-02-0.241D-01 0.213D+00-0.313D-01
 Coeff:      0.193D+00-0.438D+00 0.508D+00 0.570D+00
 Gap=     0.007 Goal=   None    Shift=    0.000
 Gap=     0.232 Goal=   None    Shift=    0.000
 RMSDP=2.37D-04 MaxDP=1.58D-02 DE=-3.05D-03 OVMax= 1.76D-02

 Cycle  11  Pass 1  IDiag  1:
 RMSU=  8.13D-05    CP:  7.07D-01  3.00D+00 -2.76D-02  8.91D-01  8.90D-02
                    CP:  1.10D+00 -4.61D-02  1.13D+00  1.31D+00  9.66D-01
 E= -1608.06601362401     Delta-E=       -0.002618789295 Rises=F Damp=F
 DIIS: error= 5.16D-03 at cycle  11 NSaved=  11.
 NSaved=11 IEnMin=11 EnMin= -1608.06601362401     IErMin=11 ErrMin= 5.16D-03
 ErrMax= 5.16D-03  0.00D+00 EMaxC= 1.00D-01 BMatC= 6.13D-02 BMatP= 7.62D-02
 IDIUse=3 WtCom= 9.48D-01 WtEn= 5.16D-02
 EnCoef did     8 forward-backward iterations
 Coeff-Com: -0.684D-01 0.807D-01-0.479D-02-0.658D-02 0.128D+00 0.115D+00
 Coeff-Com:  0.159D+00 0.796D-01-0.169D+01-0.146D+01 0.367D+01
 Coeff-En:   0.000D+00 0.000D+00 0.000D+00 0.000D+00 0.127D+00 0.000D+00
 Coeff-En:   0.182D+00 0.000D+00 0.000D+00 0.000D+00 0.691D+00
 Coeff:     -0.648D-01 0.766D-01-0.454D-02-0.624D-02 0.127D+00 0.109D+00
 Coeff:      0.161D+00 0.755D-01-0.160D+01-0.139D+01 0.352D+01
 Gap=    -0.002 Goal=   None    Shift=    0.000
 Gap=     0.241 Goal=   None    Shift=    0.000
 RMSDP=2.18D-02 MaxDP=3.06D+00 DE=-2.62D-03 OVMax= 9.88D-01

 Cycle  12  Pass 1  IDiag  1:
 RMSU=  3.41D-03    CP:  8.94D-01  2.46D+00  2.42D-01  2.85D-01  1.14D+00
                    CP: -2.42D-01  6.66D-01 -7.32D-01 -3.00D+00  3.00D+00
                    CP: -3.00D+00
 E= -1607.96196131041     Delta-E=        0.104052313598 Rises=F Damp=F
 DIIS: error= 1.41D-02 at cycle  12 NSaved=  12.
 NSaved=12 IEnMin=11 EnMin= -1608.06601362401     IErMin=11 ErrMin= 5.16D-03
 ErrMax= 1.41D-02  0.00D+00 EMaxC= 1.00D-01 BMatC= 5.09D-01 BMatP= 6.13D-02
 IDIUse=2 WtCom= 0.00D+00 WtEn= 1.00D+00
 EnCoef did    36 forward-backward iterations
 Coeff-En:   0.000D+00 0.000D+00 0.000D+00 0.000D+00 0.000D+00 0.000D+00
 Coeff-En:   0.503D-01 0.229D-02 0.000D+00 0.166D-02 0.747D+00 0.199D+00
 Coeff:      0.000D+00 0.000D+00 0.000D+00 0.000D+00 0.000D+00 0.000D+00
 Coeff:      0.503D-01 0.229D-02 0.000D+00 0.166D-02 0.747D+00 0.199D+00
 Gap=    -0.001 Goal=   None    Shift=    0.000
 Gap=     0.239 Goal=   None    Shift=    0.000
 RMSDP=5.09D-03 MaxDP=2.65D-01 DE= 1.04D-01 OVMax= 9.10D-01

 Cycle  13  Pass 1  IDiag  1:
 RMSU=  2.25D-03    CP:  9.15D-01  2.50D+00  2.39D-01  2.39D-01  1.07D+00
                    CP: -1.81D-01  9.92D-01  5.22D-01 -2.30D+00  3.00D+00
                    CP: -3.00D+00  1.55D-01
 E= -1607.96253242963     Delta-E=       -0.000571119222 Rises=F Damp=F
 DIIS: error= 1.41D-02 at cycle  13 NSaved=  13.
 NSaved=13 IEnMin=11 EnMin= -1608.06601362401     IErMin=11 ErrMin= 5.16D-03
 ErrMax= 1.41D-02  0.00D+00 EMaxC= 1.00D-01 BMatC= 4.91D-01 BMatP= 6.13D-02
 IDIUse=2 WtCom= 0.00D+00 WtEn= 1.00D+00
 EnCoef did    24 forward-backward iterations
 Coeff-En:   0.000D+00 0.000D+00 0.000D+00 0.000D+00 0.000D+00 0.000D+00
 Coeff-En:   0.000D+00 0.000D+00 0.000D+00 0.000D+00 0.753D+00 0.167D+00
 Coeff-En:   0.801D-01
 Coeff:      0.000D+00 0.000D+00 0.000D+00 0.000D+00 0.000D+00 0.000D+00
 Coeff:      0.000D+00 0.000D+00 0.000D+00 0.000D+00 0.753D+00 0.167D+00
 Coeff:      0.801D-01
 Gap=    -0.000 Goal=   None    Shift=    0.000
 Gap=     0.239 Goal=   None    Shift=    0.000
 RMSDP=4.54D-03 MaxDP=2.26D-01 DE=-5.71D-04 OVMax= 7.72D-01

 Cycle  14  Pass 1  IDiag  1:
 RMSU=  2.27D-03    CP:  8.90D-01  2.58D+00  2.24D-01  3.14D-01  1.10D+00
                    CP: -1.28D-01  7.82D-01 -4.80D-01  9.47D-01 -1.35D+00
                    CP: -3.00D+00  5.28D-02 -3.01D-01
 E= -1607.98095339688     Delta-E=       -0.018420967247 Rises=F Damp=F
 DIIS: error= 1.34D-02 at cycle  14 NSaved=  14.
 NSaved=14 IEnMin=11 EnMin= -1608.06601362401     IErMin=11 ErrMin= 5.16D-03
 ErrMax= 1.34D-02  0.00D+00 EMaxC= 1.00D-01 BMatC= 4.24D-01 BMatP= 6.13D-02
 IDIUse=2 WtCom= 0.00D+00 WtEn= 1.00D+00
 EnCoef did    67 forward-backward iterations
 Coeff-En:   0.000D+00 0.000D+00 0.000D+00 0.000D+00 0.000D+00 0.000D+00
 Coeff-En:   0.000D+00 0.000D+00 0.000D+00 0.000D+00 0.749D+00 0.150D+00
 Coeff-En:   0.546D-01 0.461D-01
 Coeff:      0.000D+00 0.000D+00 0.000D+00 0.000D+00 0.000D+00 0.000D+00
 Coeff:      0.000D+00 0.000D+00 0.000D+00 0.000D+00 0.749D+00 0.150D+00
 Coeff:      0.546D-01 0.461D-01
 Gap=    -0.000 Goal=   None    Shift=    0.000
 Gap=     0.239 Goal=   None    Shift=    0.000
 RMSDP=5.69D-03 MaxDP=3.59D-01 DE=-1.84D-02 OVMax= 8.99D-01

 Cycle  15  Pass 1  IDiag  1:
 RMSU=  6.03D-04    CP:  9.02D-01  2.46D+00  2.38D-01  2.66D-01  1.14D+00
                    CP: -2.73D-01  6.33D-01  2.73D-01 -3.00D+00  3.00D+00
                    CP: -3.00D+00  6.83D-01  7.88D-01 -7.54D-01
 E= -1607.96836049676     Delta-E=        0.012592900122 Rises=F Damp=F
 DIIS: error= 1.31D-02 at cycle  15 NSaved=  15.
 NSaved=15 IEnMin=11 EnMin= -1608.06601362401     IErMin=11 ErrMin= 5.16D-03
 ErrMax= 1.31D-02  0.00D+00 EMaxC= 1.00D-01 BMatC= 4.72D-01 BMatP= 6.13D-02
 IDIUse=2 WtCom= 0.00D+00 WtEn= 1.00D+00
 EnCoef did   100 forward-backward iterations
 Coeff-En:   0.000D+00 0.000D+00 0.000D+00 0.000D+00 0.000D+00 0.000D+00
 Coeff-En:   0.000D+00 0.000D+00 0.000D+00 0.000D+00 0.747D+00 0.113D+00
 Coeff-En:   0.158D-01 0.703D-01 0.538D-01
 Coeff:      0.000D+00 0.000D+00 0.000D+00 0.000D+00 0.000D+00 0.000D+00
 Coeff:      0.000D+00 0.000D+00 0.000D+00 0.000D+00 0.747D+00 0.113D+00
 Coeff:      0.158D-01 0.703D-01 0.538D-01
 Gap=     0.000 Goal=   None    Shift=    0.000
 Gap=     0.239 Goal=   None    Shift=    0.000
 RMSDP=5.01D-04 MaxDP=3.26D-02 DE= 1.26D-02 OVMax= 7.13D-02

 Cycle  16  Pass 1  IDiag  1:
 RMSU=  6.88D-05    CP:  8.99D-01  2.47D+00  2.36D-01  2.75D-01  1.14D+00
                    CP: -2.69D-01  5.91D-01  1.69D-01 -3.00D+00  3.00D+00
                    CP: -3.00D+00  7.04D-01  6.86D-01 -7.16D-01  9.63D-01
 E= -1607.97083051714     Delta-E=       -0.002470020378 Rises=F Damp=F
 DIIS: error= 1.33D-02 at cycle  16 NSaved=  16.
 NSaved=16 IEnMin=11 EnMin= -1608.06601362401     IErMin=11 ErrMin= 5.16D-03
 ErrMax= 1.33D-02  0.00D+00 EMaxC= 1.00D-01 BMatC= 4.63D-01 BMatP= 6.13D-02
 IDIUse=2 WtCom= 0.00D+00 WtEn= 1.00D+00
 EnCoef did    99 forward-backward iterations
 Coeff-En:   0.000D+00 0.000D+00 0.000D+00 0.000D+00 0.000D+00 0.000D+00
 Coeff-En:   0.000D+00 0.000D+00 0.000D+00 0.000D+00 0.745D+00 0.774D-01
 Coeff-En:   0.223D-03 0.876D-01 0.889D-01 0.955D-03
 Coeff:      0.000D+00 0.000D+00 0.000D+00 0.000D+00 0.000D+00 0.000D+00
 Coeff:      0.000D+00 0.000D+00 0.000D+00 0.000D+00 0.745D+00 0.774D-01
 Coeff:      0.223D-03 0.876D-01 0.889D-01 0.955D-03
 Gap=     0.000 Goal=   None    Shift=    0.000
 Gap=     0.239 Goal=   None    Shift=    0.000
 RMSDP=3.52D-03 MaxDP=2.50D-01 DE=-2.47D-03 OVMax= 4.37D-01

 Cycle  17  Pass 1  IDiag  1:
 RMSU=  4.45D-04    CP:  8.73D-01  2.57D+00  2.15D-01  3.50D-01  1.15D+00
                    CP: -1.88D-01  3.83D-01 -4.95D-01 -3.00D+00  1.94D+00
                    CP: -3.00D+00  5.32D-01 -1.37D-01 -3.77D-02  3.25D-01
                    CP:  3.00D+00
 E= -1607.99134109626     Delta-E=       -0.020510579126 Rises=F Damp=F
 DIIS: error= 1.20D-02 at cycle  17 NSaved=  17.
 NSaved=17 IEnMin=11 EnMin= -1608.06601362401     IErMin=11 ErrMin= 5.16D-03
 ErrMax= 1.20D-02  0.00D+00 EMaxC= 1.00D-01 BMatC= 3.83D-01 BMatP= 6.13D-02
 IDIUse=2 WtCom= 0.00D+00 WtEn= 1.00D+00
 EnCoef did   100 forward-backward iterations
 Coeff-En:   0.000D+00 0.000D+00 0.000D+00 0.000D+00 0.000D+00 0.000D+00
 Coeff-En:   0.000D+00 0.000D+00 0.000D+00 0.000D+00 0.733D+00 0.100D-03
 Coeff-En:   0.287D-03 0.820D-01 0.580D-01 0.465D-04 0.126D+00
 Coeff:      0.000D+00 0.000D+00 0.000D+00 0.000D+00 0.000D+00 0.000D+00
 Coeff:      0.000D+00 0.000D+00 0.000D+00 0.000D+00 0.733D+00 0.100D-03
 Coeff:      0.287D-03 0.820D-01 0.580D-01 0.465D-04 0.126D+00
 Gap=    -0.000 Goal=   None    Shift=    0.000
 Gap=     0.239 Goal=   None    Shift=    0.000
 RMSDP=5.79D-03 MaxDP=4.02D-01 DE=-2.05D-02 OVMax= 7.23D-01

 Cycle  18  Pass 1  IDiag  1:
 RMSU=  3.05D-04    CP:  9.13D-01  2.46D+00  2.45D-01  2.36D-01  1.10D+00
                    CP: -2.36D-01  8.67D-01  3.14D-01 -3.00D+00  3.00D+00
                    CP: -3.00D+00  6.33D-01  1.04D+00 -6.12D-01  3.87D-02
                    CP:  7.39D-01 -1.60D-01
 E= -1607.96148446719     Delta-E=        0.029856629074 Rises=F Damp=F
 DIIS: error= 1.39D-02 at cycle  18 NSaved=  18.
 NSaved=18 IEnMin=11 EnMin= -1608.06601362401     IErMin=11 ErrMin= 5.16D-03
 ErrMax= 1.39D-02  0.00D+00 EMaxC= 1.00D-01 BMatC= 4.97D-01 BMatP= 6.13D-02
 IDIUse=2 WtCom= 0.00D+00 WtEn= 1.00D+00
 EnCoef did   100 forward-backward iterations
 Coeff-En:   0.000D+00 0.000D+00 0.000D+00 0.000D+00 0.000D+00 0.000D+00
 Coeff-En:   0.000D+00 0.000D+00 0.000D+00 0.000D+00 0.732D+00 0.107D-03
 Coeff-En:   0.307D-03 0.740D-01 0.218D-01 0.499D-04 0.147D+00 0.243D-01
 Coeff:      0.000D+00 0.000D+00 0.000D+00 0.000D+00 0.000D+00 0.000D+00
 Coeff:      0.000D+00 0.000D+00 0.000D+00 0.000D+00 0.732D+00 0.107D-03
 Coeff:      0.307D-03 0.740D-01 0.218D-01 0.499D-04 0.147D+00 0.243D-01
 Gap=     0.000 Goal=   None    Shift=    0.000
 Gap=     0.239 Goal=   None    Shift=    0.000
 RMSDP=3.13D-03 MaxDP=2.04D-01 DE= 2.99D-02 OVMax= 3.89D-01

 Cycle  19  Pass 1  IDiag  1:
 RMSU=  1.45D-04    CP:  9.05D-01  2.56D+00  2.29D-01  2.65D-01  1.00D+00
                    CP: -7.57D-02  1.02D+00  2.55D-01 -1.98D+00  3.00D+00
                    CP: -3.00D+00  2.47D-01  9.79D-01 -1.51D-02 -1.54D+00
                    CP:  3.00D+00  2.01D-01  2.33D+00
 E= -1607.97685490722     Delta-E=       -0.015370440035 Rises=F Damp=F
 DIIS: error= 1.33D-02 at cycle  19 NSaved=  19.
 NSaved=19 IEnMin=11 EnMin= -1608.06601362401     IErMin=11 ErrMin= 5.16D-03
 ErrMax= 1.33D-02  0.00D+00 EMaxC= 1.00D-01 BMatC= 4.36D-01 BMatP= 6.13D-02
 IDIUse=2 WtCom= 0.00D+00 WtEn= 1.00D+00
 EnCoef did   100 forward-backward iterations
 Coeff-En:   0.000D+00 0.000D+00 0.000D+00 0.000D+00 0.000D+00 0.000D+00
 Coeff-En:   0.000D+00 0.000D+00 0.000D+00 0.000D+00 0.730D+00 0.116D-03
 Coeff-En:   0.331D-03 0.577D-01 0.468D-04 0.538D-04 0.168D+00 0.164D-01
 Coeff-En:   0.273D-01
 Coeff:      0.000D+00 0.000D+00 0.000D+00 0.000D+00 0.000D+00 0.000D+00
 Coeff:      0.000D+00 0.000D+00 0.000D+00 0.000D+00 0.730D+00 0.116D-03
 Coeff:      0.331D-03 0.577D-01 0.468D-04 0.538D-04 0.168D+00 0.164D-01
 Coeff:      0.273D-01
 Gap=     0.000 Goal=   None    Shift=    0.000
 Gap=     0.239 Goal=   None    Shift=    0.000
 RMSDP=2.77D-03 MaxDP=2.96D-01 DE=-1.54D-02 OVMax= 2.77D-01

 Cycle  20  Pass 1  IDiag  1:
 RMSU=  3.60D-04    CP:  8.85D-01  2.67D+00  2.03D-01  3.27D-01  9.29D-01
                    CP:  8.01D-02  9.73D-01  4.90D-02  1.84D+00  1.94D+00
                    CP: -3.00D+00 -4.76D-02  6.29D-01  5.10D-01 -2.43D+00
                    CP:  3.00D+00  1.46D-01  3.00D+00  3.00D+00
 E= -1607.99980367040     Delta-E=       -0.022948763175 Rises=F Damp=F
 DIIS: error= 1.22D-02 at cycle  20 NSaved=  20.
 NSaved=20 IEnMin=11 EnMin= -1608.06601362401     IErMin=11 ErrMin= 5.16D-03
 ErrMax= 1.22D-02  0.00D+00 EMaxC= 1.00D-01 BMatC= 3.43D-01 BMatP= 6.13D-02
 IDIUse=2 WtCom= 0.00D+00 WtEn= 1.00D+00
 EnCoef did   100 forward-backward iterations
 Coeff-En:   0.000D+00 0.000D+00 0.000D+00 0.000D+00 0.000D+00 0.000D+00
 Coeff-En:   0.000D+00 0.000D+00 0.000D+00 0.000D+00 0.723D+00 0.124D-03
 Coeff-En:   0.356D-03 0.257D-01 0.502D-04 0.577D-04 0.188D+00 0.130D-03
 Coeff-En:   0.815D-04 0.628D-01
 Coeff:      0.000D+00 0.000D+00 0.000D+00 0.000D+00 0.000D+00 0.000D+00
 Coeff:      0.000D+00 0.000D+00 0.000D+00 0.000D+00 0.723D+00 0.124D-03
 Coeff:      0.356D-03 0.257D-01 0.502D-04 0.577D-04 0.188D+00 0.130D-03
 Coeff:      0.815D-04 0.628D-01
 Gap=     0.000 Goal=   None    Shift=    0.000
 Gap=     0.239 Goal=   None    Shift=    0.000
 RMSDP=7.39D-03 MaxDP=7.75D-01 DE=-2.29D-02 OVMax= 6.48D-01

 Cycle  21  Pass 1  IDiag  1:
 Restarting incremental Fock formation.
 E= -1608.04862431325     Delta-E=       -0.048820642854 Rises=F Damp=F
 DIIS: error= 8.41D-03 at cycle  21 NSaved=  20.
 NSaved=20 IEnMin=11 EnMin= -1608.06601362401     IErMin=11 ErrMin= 5.16D-03
 ErrMax= 8.41D-03  0.00D+00 EMaxC= 1.00D-01 BMatC= 1.36D-01 BMatP= 6.13D-02
 IDIUse=3 WtCom= 9.48D-01 WtEn= 5.16D-02
 EnCoef did    71 forward-backward iterations
 Coeff-Com: -0.496D-01 0.606D-01-0.131D-01-0.893D-03 0.236D-01-0.250D-01
 Coeff-Com:  0.190D+00-0.286D+00-0.724D+00-0.315D+00 0.195D+01 0.498D+00
 Coeff-Com:  0.105D+00-0.224D+00 0.321D+01-0.236D+01-0.556D+00-0.922D+00
 Coeff-Com: -0.900D-01 0.533D+00
 Coeff-En:   0.000D+00 0.000D+00 0.000D+00 0.000D+00 0.000D+00 0.000D+00
 Coeff-En:   0.000D+00 0.000D+00 0.000D+00 0.000D+00 0.682D+00 0.128D-03
 Coeff-En:   0.228D-03 0.466D-03 0.644D-02 0.277D-04 0.149D+00 0.165D-01
 Coeff-En:   0.305D-03 0.145D+00
 Coeff:     -0.471D-01 0.574D-01-0.125D-01-0.847D-03 0.224D-01-0.237D-01
 Coeff:      0.180D+00-0.271D+00-0.687D+00-0.298D+00 0.188D+01 0.472D+00
 Coeff:      0.996D-01-0.213D+00 0.304D+01-0.224D+01-0.519D+00-0.873D+00
 Coeff:     -0.853D-01 0.513D+00
 Gap=    -0.001 Goal=   None    Shift=    0.000
 Gap=     0.239 Goal=   None    Shift=    0.000
 RMSDP=9.39D-03 MaxDP=1.17D+00 DE=-4.88D-02 OVMax= 7.22D-01

 Cycle  22  Pass 1  IDiag  1:
 RMSU=  9.03D-03    CP:  1.10D+00
 E= -1607.97280927398     Delta-E=        0.075815039275 Rises=F Damp=F
 DIIS: error= 1.34D-02 at cycle  22 NSaved=  20.
 NSaved=20 IEnMin=10 EnMin= -1608.06601362401     IErMin=10 ErrMin= 5.16D-03
 ErrMax= 1.34D-02  0.00D+00 EMaxC= 1.00D-01 BMatC= 4.64D-01 BMatP= 6.13D-02
 IDIUse=2 WtCom= 0.00D+00 WtEn= 1.00D+00
 Rare condition: small coef for last iteration: -0.444D-15
 Coeff-En:   0.000D+00 0.000D+00 0.000D+00 0.000D+00 0.000D+00 0.000D+00
 Coeff-En:   0.000D+00 0.000D+00 0.000D+00 0.739D+00 0.000D+00 0.000D+00
 Coeff-En:   0.192D+00 0.000D+00 0.122D-01 0.000D+00 0.000D+00 0.000D+00
 Coeff-En:   0.000D+00 0.564D-01
 Coeff:      0.000D+00 0.000D+00 0.000D+00 0.000D+00 0.000D+00 0.000D+00
 Coeff:      0.000D+00 0.000D+00 0.000D+00 0.739D+00 0.000D+00 0.000D+00
 Coeff:      0.192D+00 0.000D+00 0.122D-01 0.000D+00 0.000D+00 0.000D+00
 Coeff:      0.000D+00 0.564D-01
 Gap=     0.003 Goal=   None    Shift=    0.000
 Gap=     0.238 Goal=   None    Shift=    0.000
 RMSDP=1.83D-03 MaxDP=1.88D-01 DE= 7.58D-02 OVMax= 2.10D-01

 Cycle  23  Pass 1  IDiag  1:
 RMSU=  1.59D-03    CP:  1.11D+00  1.09D+00
 E= -1607.96515065336     Delta-E=        0.007658620617 Rises=F Damp=F
 DIIS: error= 1.38D-02 at cycle  23 NSaved=  20.
 NSaved=20 IEnMin=10 EnMin= -1608.06601362401     IErMin=10 ErrMin= 5.16D-03
 ErrMax= 1.38D-02  0.00D+00 EMaxC= 1.00D-01 BMatC= 4.92D-01 BMatP= 6.13D-02
 IDIUse=2 WtCom= 0.00D+00 WtEn= 1.00D+00
 EnCoef did   100 forward-backward iterations
 Coeff-En:   0.000D+00 0.000D+00 0.000D+00 0.000D+00 0.000D+00 0.000D+00
 Coeff-En:   0.000D+00 0.000D+00 0.000D+00 0.729D+00 0.381D-03 0.567D-04
 Coeff-En:   0.632D-01 0.323D-01 0.134D-04 0.151D+00 0.409D-04 0.238D-01
 Coeff-En:   0.313D-04 0.226D-03
 Coeff:      0.000D+00 0.000D+00 0.000D+00 0.000D+00 0.000D+00 0.000D+00
 Coeff:      0.000D+00 0.000D+00 0.000D+00 0.729D+00 0.381D-03 0.567D-04
 Coeff:      0.632D-01 0.323D-01 0.134D-04 0.151D+00 0.409D-04 0.238D-01
 Coeff:      0.313D-04 0.226D-03
 Gap=     0.000 Goal=   None    Shift=    0.000
 Gap=     0.240 Goal=   None    Shift=    0.000
 RMSDP=2.65D-03 MaxDP=1.38D-01 DE= 7.66D-03 OVMax= 3.71D-01

 Cycle  24  Pass 1  IDiag  1:
 RMSU=  1.61D-03    CP:  1.12D+00  1.07D+00  2.31D+00
 E= -1607.96129768532     Delta-E=        0.003852968043 Rises=F Damp=F
 DIIS: error= 1.39D-02 at cycle  24 NSaved=  20.
 NSaved=20 IEnMin=10 EnMin= -1608.06601362401     IErMin=10 ErrMin= 5.16D-03
 ErrMax= 1.39D-02  0.00D+00 EMaxC= 1.00D-01 BMatC= 4.97D-01 BMatP= 6.13D-02
 IDIUse=2 WtCom= 0.00D+00 WtEn= 1.00D+00
 EnCoef did    95 forward-backward iterations
 Coeff-En:   0.000D+00 0.000D+00 0.000D+00 0.000D+00 0.000D+00 0.000D+00
 Coeff-En:   0.000D+00 0.000D+00 0.000D+00 0.723D+00 0.434D-03 0.645D-04
 Coeff-En:   0.251D-01 0.229D-03 0.152D-04 0.188D+00 0.465D-04 0.637D-01
 Coeff-En:   0.257D-03 0.356D-04
 Coeff:      0.000D+00 0.000D+00 0.000D+00 0.000D+00 0.000D+00 0.000D+00
 Coeff:      0.000D+00 0.000D+00 0.000D+00 0.723D+00 0.434D-03 0.645D-04
 Coeff:      0.251D-01 0.229D-03 0.152D-04 0.188D+00 0.465D-04 0.637D-01
 Coeff:      0.257D-03 0.356D-04
 Gap=    -0.000 Goal=   None    Shift=    0.000
 Gap=     0.239 Goal=   None    Shift=    0.000
 RMSDP=1.09D-02 MaxDP=1.22D+00 DE= 3.85D-03 OVMax= 9.84D-01

 Cycle  25  Pass 1  IDiag  1:
 RMSU=  8.35D-05    CP:  1.00D+00  1.35D-02 -5.26D-02 -3.31D-02
 E= -1608.04778342744     Delta-E=       -0.086485742120 Rises=F Damp=F
 DIIS: error= 8.41D-03 at cycle  25 NSaved=  20.
 NSaved=20 IEnMin= 9 EnMin= -1608.06601362401     IErMin= 9 ErrMin= 5.16D-03
 ErrMax= 8.41D-03  0.00D+00 EMaxC= 1.00D-01 BMatC= 1.40D-01 BMatP= 6.13D-02
 IDIUse=3 WtCom= 9.48D-01 WtEn= 5.16D-02
 EnCoef did    75 forward-backward iterations
 Coeff-Com: -0.420D-01 0.568D-01-0.628D-02-0.238D-02-0.377D-01-0.102D+00
 Coeff-Com: -0.131D+01-0.968D+00 0.307D+01 0.651D+00-0.172D+00-0.144D+00
 Coeff-Com:  0.298D+01-0.131D+01-0.793D+00-0.448D+01 0.526D+00-0.518D+00
 Coeff-Com:  0.328D+01 0.315D+00
 Coeff-En:   0.000D+00 0.000D+00 0.000D+00 0.000D+00 0.000D+00 0.000D+00
 Coeff-En:   0.000D+00 0.000D+00 0.683D+00 0.452D-03 0.418D-03 0.141D-03
 Coeff-En:   0.483D-02 0.466D-04 0.146D+00 0.202D-01 0.178D-04 0.268D-03
 Coeff-En:   0.178D-04 0.145D+00
 Coeff:     -0.399D-01 0.539D-01-0.596D-02-0.226D-02-0.358D-01-0.972D-01
 Coeff:     -0.124D+01-0.918D+00 0.295D+01 0.617D+00-0.164D+00-0.136D+00
 Coeff:      0.283D+01-0.124D+01-0.745D+00-0.425D+01 0.499D+00-0.492D+00
 Coeff:      0.311D+01 0.306D+00
 Gap=    -0.003 Goal=   None    Shift=    0.000
 Gap=     0.244 Goal=   None    Shift=    0.000
 RMSDP=1.03D-02 MaxDP=1.24D+00 DE=-8.65D-02 OVMax= 6.47D-01

 Cycle  26  Pass 1  IDiag  1:
 RMSU=  1.70D-03    CP:  1.12D+00  1.07D+00  4.33D-01  7.64D-01 -3.00D+00
 E= -1607.94970395607     Delta-E=        0.098079471373 Rises=F Damp=F
 DIIS: error= 1.48D-02 at cycle  26 NSaved=  20.
 NSaved=20 IEnMin= 8 EnMin= -1608.06601362401     IErMin= 8 ErrMin= 5.16D-03
 ErrMax= 1.48D-02  0.00D+00 EMaxC= 1.00D-01 BMatC= 5.75D-01 BMatP= 6.13D-02
 IDIUse=2 WtCom= 0.00D+00 WtEn= 1.00D+00
 Rare condition: small coef for last iteration:  0.189D-14
 Coeff-En:   0.000D+00 0.000D+00 0.000D+00 0.000D+00 0.000D+00 0.000D+00
 Coeff-En:   0.000D+00 0.753D+00 0.115D+00 0.840D-01 0.000D+00 0.000D+00
 Coeff-En:   0.000D+00 0.000D+00 0.000D+00 0.000D+00 0.000D+00 0.465D-01
 Coeff-En:   0.000D+00 0.188D-02
 Coeff:      0.000D+00 0.000D+00 0.000D+00 0.000D+00 0.000D+00 0.000D+00
 Coeff:      0.000D+00 0.753D+00 0.115D+00 0.840D-01 0.000D+00 0.000D+00
 Coeff:      0.000D+00 0.000D+00 0.000D+00 0.000D+00 0.000D+00 0.465D-01
 Coeff:      0.000D+00 0.188D-02
 Gap=     0.001 Goal=   None    Shift=    0.000
 Gap=     0.242 Goal=   None    Shift=    0.000
 RMSDP=2.32D-03 MaxDP=1.77D-01 DE= 9.81D-02 OVMax= 4.60D-01

 Cycle  27  Pass 1  IDiag  1:
 RMSU=  1.38D-03    CP:  1.13D+00  9.72D-01  2.22D-01  1.02D+00  3.00D+00
                    CP:  1.55D+00
 E= -1607.96345213748     Delta-E=       -0.013748181416 Rises=F Damp=F
 DIIS: error= 1.43D-02 at cycle  27 NSaved=  20.
 NSaved=20 IEnMin= 8 EnMin= -1608.06601362401     IErMin= 8 ErrMin= 5.16D-03
 ErrMax= 1.43D-02  0.00D+00 EMaxC= 1.00D-01 BMatC= 4.95D-01 BMatP= 6.13D-02
 IDIUse=2 WtCom= 0.00D+00 WtEn= 1.00D+00
 EnCoef did   100 forward-backward iterations
 Coeff-En:   0.000D+00 0.000D+00 0.000D+00 0.000D+00 0.000D+00 0.000D+00
 Coeff-En:   0.000D+00 0.732D+00 0.565D-01 0.110D-01 0.420D-01 0.427D-02
 Coeff-En:   0.000D+00 0.111D+00 0.000D+00 0.408D-01 0.975D-04 0.536D-04
 Coeff-En:   0.794D-03 0.831D-03
 Coeff:      0.000D+00 0.000D+00 0.000D+00 0.000D+00 0.000D+00 0.000D+00
 Coeff:      0.000D+00 0.732D+00 0.565D-01 0.110D-01 0.420D-01 0.427D-02
 Coeff:      0.000D+00 0.111D+00 0.000D+00 0.408D-01 0.975D-04 0.536D-04
 Coeff:      0.794D-03 0.831D-03
 Gap=     0.000 Goal=   None    Shift=    0.000
 Gap=     0.239 Goal=   None    Shift=    0.000
 RMSDP=4.56D-03 MaxDP=2.65D-01 DE=-1.37D-02 OVMax= 6.52D-01

 Cycle  28  Pass 1  IDiag  1:
 RMSU=  3.95D-04    CP:  1.11D+00  1.10D+00  1.73D+00  3.38D-01  2.27D+00
                    CP: -3.58D-01  1.11D-01
 E= -1607.96531745425     Delta-E=       -0.001865316768 Rises=F Damp=F
 DIIS: error= 1.34D-02 at cycle  28 NSaved=  20.
 NSaved=20 IEnMin= 8 EnMin= -1608.06601362401     IErMin= 8 ErrMin= 5.16D-03
 ErrMax= 1.34D-02  0.00D+00 EMaxC= 1.00D-01 BMatC= 4.83D-01 BMatP= 6.13D-02
 IDIUse=2 WtCom= 0.00D+00 WtEn= 1.00D+00
 EnCoef did    97 forward-backward iterations
 Rare condition: small coef for last iteration:  0.117D-05
 Coeff-En:   0.000D+00 0.000D+00 0.000D+00 0.000D+00 0.000D+00 0.000D+00
 Coeff-En:   0.000D+00 0.742D+00 0.000D+00 0.000D+00 0.256D+00 0.965D-03
 Coeff-En:   0.000D+00 0.000D+00 0.000D+00 0.000D+00 0.000D+00 0.000D+00
 Coeff-En:   0.493D-03 0.619D-03
 Coeff:      0.000D+00 0.000D+00 0.000D+00 0.000D+00 0.000D+00 0.000D+00
 Coeff:      0.000D+00 0.742D+00 0.000D+00 0.000D+00 0.256D+00 0.965D-03
 Coeff:      0.000D+00 0.000D+00 0.000D+00 0.000D+00 0.000D+00 0.000D+00
 Coeff:      0.493D-03 0.619D-03
 Gap=     0.005 Goal=   None    Shift=    0.000
 Gap=     0.239 Goal=   None    Shift=    0.000
 RMSDP=1.61D-03 MaxDP=9.26D-02 DE=-1.87D-03 OVMax= 2.18D-01

 Cycle  29  Pass 1  IDiag  1:
 RMSU=  1.25D-04    CP:  1.12D+00  1.10D+00  1.05D+00  1.40D-01 -1.39D+00
                    CP:  1.79D-01 -3.70D-02 -4.16D-01
 E= -1607.95802274894     Delta-E=        0.007294705309 Rises=F Damp=F
 DIIS: error= 1.43D-02 at cycle  29 NSaved=  20.
 NSaved=20 IEnMin= 8 EnMin= -1608.06601362401     IErMin= 8 ErrMin= 5.16D-03
 ErrMax= 1.43D-02  0.00D+00 EMaxC= 1.00D-01 BMatC= 5.31D-01 BMatP= 6.13D-02
 IDIUse=2 WtCom= 0.00D+00 WtEn= 1.00D+00
 EnCoef did   100 forward-backward iterations
 Coeff-En:   0.000D+00 0.000D+00 0.000D+00 0.000D+00 0.000D+00 0.000D+00
 Coeff-En:   0.000D+00 0.732D+00 0.484D-01 0.137D-01 0.431D-01 0.543D-03
 Coeff-En:   0.000D+00 0.122D+00 0.417D-05 0.380D-01 0.260D-03 0.704D-04
 Coeff-En:   0.268D-03 0.163D-02
 Coeff:      0.000D+00 0.000D+00 0.000D+00 0.000D+00 0.000D+00 0.000D+00
 Coeff:      0.000D+00 0.732D+00 0.484D-01 0.137D-01 0.431D-01 0.543D-03
 Coeff:      0.000D+00 0.122D+00 0.417D-05 0.380D-01 0.260D-03 0.704D-04
 Coeff:      0.268D-03 0.163D-02
 Gap=     0.000 Goal=   None    Shift=    0.000
 Gap=     0.241 Goal=   None    Shift=    0.000
 RMSDP=1.66D-03 MaxDP=9.59D-02 DE= 7.29D-03 OVMax= 2.27D-01

 Cycle  30  Pass 1  IDiag  1:
 RMSU=  3.35D-06    CP:  1.11D+00  1.10D+00  1.79D+00  4.00D-01  2.19D+00
                    CP: -3.34D-01  1.04D-01  9.34D-01  2.81D-02
 E= -1607.96464490414     Delta-E=       -0.006622155199 Rises=F Damp=F
 DIIS: error= 1.35D-02 at cycle  30 NSaved=  20.
 NSaved=20 IEnMin= 8 EnMin= -1608.06601362401     IErMin= 8 ErrMin= 5.16D-03
 ErrMax= 1.35D-02  0.00D+00 EMaxC= 1.00D-01 BMatC= 4.85D-01 BMatP= 6.13D-02
 IDIUse=2 WtCom= 0.00D+00 WtEn= 1.00D+00
 EnCoef did   100 forward-backward iterations
 Rare condition: small coef for last iteration:  0.327D-05
 Coeff-En:   0.000D+00 0.000D+00 0.000D+00 0.000D+00 0.000D+00 0.000D+00
 Coeff-En:   0.000D+00 0.741D+00 0.000D+00 0.000D+00 0.237D+00 0.000D+00
 Coeff-En:   0.000D+00 0.000D+00 0.000D+00 0.000D+00 0.137D-01 0.000D+00
 Coeff-En:   0.000D+00 0.828D-02
 Coeff:      0.000D+00 0.000D+00 0.000D+00 0.000D+00 0.000D+00 0.000D+00
 Coeff:      0.000D+00 0.741D+00 0.000D+00 0.000D+00 0.237D+00 0.000D+00
 Coeff:      0.000D+00 0.000D+00 0.000D+00 0.000D+00 0.137D-01 0.000D+00
 Coeff:      0.000D+00 0.828D-02
 Gap=     0.004 Goal=   None    Shift=    0.000
 Gap=     0.239 Goal=   None    Shift=    0.000
 RMSDP=1.76D-03 MaxDP=1.03D-01 DE=-6.62D-03 OVMax= 3.05D-01

 Cycle  31  Pass 1  IDiag  1:
 RMSU=  1.78D-05    CP:  1.12D+00  1.10D+00  9.60D-01  9.37D-02 -9.62D-01
                    CP:  1.71D-01 -2.90D-02 -3.59D-01  6.20D-01  1.32D+00
 E= -1607.96070314525     Delta-E=        0.003941758892 Rises=F Damp=F
 DIIS: error= 1.42D-02 at cycle  31 NSaved=  20.
 NSaved=20 IEnMin= 8 EnMin= -1608.06601362401     IErMin= 8 ErrMin= 5.16D-03
 ErrMax= 1.42D-02  0.00D+00 EMaxC= 1.00D-01 BMatC= 5.17D-01 BMatP= 6.13D-02
 IDIUse=2 WtCom= 0.00D+00 WtEn= 1.00D+00
 EnCoef did   100 forward-backward iterations
 Coeff-En:   0.000D+00 0.000D+00 0.000D+00 0.000D+00 0.000D+00 0.000D+00
 Coeff-En:   0.000D+00 0.731D+00 0.246D-01 0.985D-05 0.603D-01 0.181D-02
 Coeff-En:   0.000D+00 0.128D+00 0.757D-05 0.293D-01 0.159D-03 0.163D-04
 Coeff-En:   0.233D-01 0.123D-02
 Coeff:      0.000D+00 0.000D+00 0.000D+00 0.000D+00 0.000D+00 0.000D+00
 Coeff:      0.000D+00 0.731D+00 0.246D-01 0.985D-05 0.603D-01 0.181D-02
 Coeff:      0.000D+00 0.128D+00 0.757D-05 0.293D-01 0.159D-03 0.163D-04
 Coeff:      0.233D-01 0.123D-02
 Gap=     0.000 Goal=   None    Shift=    0.000
 Gap=     0.241 Goal=   None    Shift=    0.000
 RMSDP=2.18D-03 MaxDP=1.80D-01 DE= 3.94D-03 OVMax= 1.84D-01

 Cycle  32  Pass 1  IDiag  1:
 RMSU=  3.62D-05    CP:  1.09D+00  1.03D+00  7.44D-01 -4.96D-01  2.88D+00
                    CP: -6.57D-01  1.75D-01  1.71D+00 -5.76D-01  2.29D+00
                    CP:  3.18D-01
 E= -1607.97995888711     Delta-E=       -0.019255741863 Rises=F Damp=F
 DIIS: error= 1.28D-02 at cycle  32 NSaved=  20.
 NSaved=20 IEnMin= 8 EnMin= -1608.06601362401     IErMin= 8 ErrMin= 5.16D-03
 ErrMax= 1.28D-02  0.00D+00 EMaxC= 1.00D-01 BMatC= 4.28D-01 BMatP= 6.13D-02
 IDIUse=2 WtCom= 0.00D+00 WtEn= 1.00D+00
 EnCoef did    76 forward-backward iterations
 Coeff-En:   0.000D+00 0.000D+00 0.000D+00 0.000D+00 0.000D+00 0.000D+00
 Coeff-En:   0.000D+00 0.723D+00 0.228D-03 0.187D-04 0.263D-01 0.480D-04
 Coeff-En:   0.000D+00 0.185D+00 0.724D-05 0.627D-01 0.184D-03 0.216D-03
 Coeff-En:   0.142D-02 0.734D-03
 Coeff:      0.000D+00 0.000D+00 0.000D+00 0.000D+00 0.000D+00 0.000D+00
 Coeff:      0.000D+00 0.723D+00 0.228D-03 0.187D-04 0.263D-01 0.480D-04
 Coeff:      0.000D+00 0.185D+00 0.724D-05 0.627D-01 0.184D-03 0.216D-03
 Coeff:      0.142D-02 0.734D-03
 Gap=    -0.000 Goal=   None    Shift=    0.000
 Gap=     0.239 Goal=   None    Shift=    0.000
 RMSDP=9.60D-03 MaxDP=1.03D+00 DE=-1.93D-02 OVMax= 9.60D-01

 Cycle  33  Pass 1  IDiag  1:
 RMSU=  3.72D-07    CP:  1.00D+00  2.11D-02 -1.49D-01 -1.19D-01  1.60D+00
                    CP: -2.96D-02  7.64D-03  7.62D-02 -3.71D-02  2.01D-01
                    CP:  2.02D-02  6.56D-02
 E= -1608.04777500795     Delta-E=       -0.067816120838 Rises=F Damp=F
 DIIS: error= 8.22D-03 at cycle  33 NSaved=  20.
 NSaved=20 IEnMin= 7 EnMin= -1608.06601362401     IErMin= 7 ErrMin= 5.16D-03
 ErrMax= 8.22D-03  0.00D+00 EMaxC= 1.00D-01 BMatC= 1.40D-01 BMatP= 6.13D-02
 IDIUse=3 WtCom= 9.48D-01 WtEn= 5.16D-02
 Large coefficients: NSaved= 20 BigCof=   14.06 CofMax=   10.00 Det=-2.64D-07
 Inversion failed.  Reducing to 19 matrices.
 Large coefficients: NSaved= 19 BigCof=   14.60 CofMax=   10.00 Det=-4.25D-07
 Inversion failed.  Reducing to 18 matrices.
 EnCoef did   100 forward-backward iterations
 Coeff-Com: -0.231D-01-0.513D-01-0.150D+00-0.109D+00-0.703D+00-0.553D+00
 Coeff-Com:  0.210D+01 0.790D+00 0.414D-01-0.169D+00 0.352D+01-0.230D+01
 Coeff-Com: -0.100D+01-0.151D+01 0.538D+00-0.618D+00 0.795D+00 0.396D+00
 Coeff-En:   0.000D+00 0.000D+00 0.000D+00 0.000D+00 0.000D+00 0.000D+00
 Coeff-En:   0.683D+00 0.240D-03 0.421D-03 0.629D-03 0.371D-02 0.866D-05
 Coeff-En:   0.139D+00 0.220D-01 0.104D-03 0.193D-03 0.448D-02 0.146D+00
 Coeff:     -0.220D-01-0.487D-01-0.142D+00-0.103D+00-0.667D+00-0.524D+00
 Coeff:      0.203D+01 0.750D+00 0.393D-01-0.160D+00 0.334D+01-0.218D+01
 Coeff:     -0.942D+00-0.143D+01 0.510D+00-0.586D+00 0.754D+00 0.383D+00
 Gap=    -0.002 Goal=   None    Shift=    0.000
 Gap=     0.243 Goal=   None    Shift=    0.000
 RMSDP=1.04D-02 MaxDP=1.23D+00 DE=-6.78D-02 OVMax= 6.61D-01

 Cycle  34  Pass 1  IDiag  1:
 RMSU=  2.86D-04    CP:  1.12D+00  1.08D+00  4.16D-01  8.28D-01 -3.00D+00
                    CP:  9.98D-01  1.08D-02  6.92D-02 -5.47D-01  3.00D+00
                    CP:  1.38D+00  1.01D+00  3.00D+00
 E= -1607.95095587288     Delta-E=        0.096819135066 Rises=F Damp=F
 DIIS: error= 1.46D-02 at cycle  34 NSaved=  19.
 NSaved=19 IEnMin= 7 EnMin= -1608.06601362401     IErMin= 7 ErrMin= 5.16D-03
 ErrMax= 1.46D-02  0.00D+00 EMaxC= 1.00D-01 BMatC= 5.64D-01 BMatP= 6.13D-02
 IDIUse=2 WtCom= 0.00D+00 WtEn= 1.00D+00
 EnCoef did   100 forward-backward iterations
 Rare condition: small coef for last iteration:  0.453D-15
 Coeff-En:   0.000D+00 0.000D+00 0.000D+00 0.000D+00 0.000D+00 0.000D+00
 Coeff-En:   0.753D+00 0.113D+00 0.806D-01 0.000D+00 0.000D+00 0.000D+00
 Coeff-En:   0.000D+00 0.498D-01 0.000D+00 0.000D+00 0.000D+00 0.000D+00
 Coeff-En:   0.379D-02
 Coeff:      0.000D+00 0.000D+00 0.000D+00 0.000D+00 0.000D+00 0.000D+00
 Coeff:      0.753D+00 0.113D+00 0.806D-01 0.000D+00 0.000D+00 0.000D+00
 Coeff:      0.000D+00 0.498D-01 0.000D+00 0.000D+00 0.000D+00 0.000D+00
 Coeff:      0.379D-02
 Gap=     0.001 Goal=   None    Shift=    0.000
 Gap=     0.243 Goal=   None    Shift=    0.000
 RMSDP=2.41D-03 MaxDP=1.84D-01 DE= 9.68D-02 OVMax= 4.75D-01

 Cycle  35  Pass 1  IDiag  1:
 RMSU=  5.06D-06    CP:  1.13D+00  9.68D-01  2.41D-01  1.06D+00  3.00D+00
                    CP:  1.56D+00  1.05D+00  4.00D-02  1.02D-01 -1.85D+00
                    CP: -5.46D-01  1.08D-02 -3.00D+00  2.99D-03
 E= -1607.96329775201     Delta-E=       -0.012341879129 Rises=F Damp=F
 DIIS: error= 1.43D-02 at cycle  35 NSaved=  20.
 NSaved=20 IEnMin= 7 EnMin= -1608.06601362401     IErMin= 7 ErrMin= 5.16D-03
 ErrMax= 1.43D-02  0.00D+00 EMaxC= 1.00D-01 BMatC= 4.96D-01 BMatP= 6.13D-02
 IDIUse=2 WtCom= 0.00D+00 WtEn= 1.00D+00
 EnCoef did   100 forward-backward iterations
 Rare condition: small coef for last iteration:  0.000D+00
 Coeff-En:   0.000D+00 0.000D+00 0.000D+00 0.000D+00 0.000D+00 0.000D+00
 Coeff-En:   0.742D+00 0.000D+00 0.000D+00 0.241D+00 0.106D-01 0.000D+00
 Coeff-En:   0.000D+00 0.121D-03 0.000D+00 0.409D-02 0.000D+00 0.000D+00
 Coeff-En:   0.000D+00 0.312D-02
 Coeff:      0.000D+00 0.000D+00 0.000D+00 0.000D+00 0.000D+00 0.000D+00
 Coeff:      0.742D+00 0.000D+00 0.000D+00 0.241D+00 0.106D-01 0.000D+00
 Coeff:      0.000D+00 0.121D-03 0.000D+00 0.409D-02 0.000D+00 0.000D+00
 Coeff:      0.000D+00 0.312D-02
 Gap=     0.002 Goal=   None    Shift=    0.000
 Gap=     0.240 Goal=   None    Shift=    0.000
 RMSDP=3.74D-03 MaxDP=2.58D-01 DE=-1.23D-02 OVMax= 6.47D-01

 Cycle  36  Pass 1  IDiag  1:
 RMSU=  1.21D-06    CP:  1.12D+00  1.10D+00  1.00D+00  1.10D-01 -1.11D+00
                    CP:  1.66D-01 -3.11D-02 -3.69D-01  7.49D-01  6.72D-01
                    CP:  5.57D-01 -1.36D-02 -1.11D+00 -2.24D-03 -3.55D-02
 E= -1607.95985634440     Delta-E=        0.003441407616 Rises=F Damp=F
 DIIS: error= 1.42D-02 at cycle  36 NSaved=  20.
 NSaved=20 IEnMin= 7 EnMin= -1608.06601362401     IErMin= 7 ErrMin= 5.16D-03
 ErrMax= 1.42D-02  0.00D+00 EMaxC= 1.00D-01 BMatC= 5.21D-01 BMatP= 6.13D-02
 IDIUse=2 WtCom= 0.00D+00 WtEn= 1.00D+00
 EnCoef did   100 forward-backward iterations
 Coeff-En:   0.000D+00 0.000D+00 0.000D+00 0.000D+00 0.000D+00 0.000D+00
 Coeff-En:   0.685D+00 0.245D-01 0.335D-03 0.322D-03 0.580D-01 0.175D-03
 Coeff-En:   0.740D-01 0.115D-03 0.000D+00 0.947D-05 0.237D-04 0.156D+00
 Coeff-En:   0.116D-02 0.578D-04
 Coeff:      0.000D+00 0.000D+00 0.000D+00 0.000D+00 0.000D+00 0.000D+00
 Coeff:      0.685D+00 0.245D-01 0.335D-03 0.322D-03 0.580D-01 0.175D-03
 Coeff:      0.740D-01 0.115D-03 0.000D+00 0.947D-05 0.237D-04 0.156D+00
 Coeff:      0.116D-02 0.578D-04
 Gap=     0.000 Goal=   None    Shift=    0.000
 Gap=     0.241 Goal=   None    Shift=    0.000
 RMSDP=4.07D-03 MaxDP=4.16D-01 DE= 3.44D-03 OVMax= 2.65D-01

 Cycle  37  Pass 1  IDiag  1:
 RMSU=  2.15D-05    CP:  1.07D+00  8.81D-01 -1.45D-01 -1.03D+00  3.00D+00
                    CP: -8.33D-01  2.10D-01  2.03D+00 -8.20D-01  3.00D+00
                    CP: -7.29D-01  1.60D+00 -3.00D+00  1.10D-01  2.07D-01
                    CP: -3.00D+00
 E= -1607.99712816209     Delta-E=       -0.037271817697 Rises=F Damp=F
 DIIS: error= 1.20D-02 at cycle  37 NSaved=  20.
 NSaved=20 IEnMin= 7 EnMin= -1608.06601362401     IErMin= 7 ErrMin= 5.16D-03
 ErrMax= 1.20D-02  0.00D+00 EMaxC= 1.00D-01 BMatC= 3.59D-01 BMatP= 6.13D-02
 IDIUse=2 WtCom= 0.00D+00 WtEn= 1.00D+00
 EnCoef did   100 forward-backward iterations
 Coeff-En:   0.000D+00 0.000D+00 0.000D+00 0.000D+00 0.000D+00 0.000D+00
 Coeff-En:   0.678D+00 0.509D-03 0.392D-03 0.377D-03 0.213D-01 0.296D-04
 Coeff-En:   0.113D+00 0.135D-03 0.000D+00 0.111D-04 0.155D-03 0.157D+00
 Coeff-En:   0.676D-04 0.291D-01
 Coeff:      0.000D+00 0.000D+00 0.000D+00 0.000D+00 0.000D+00 0.000D+00
 Coeff:      0.678D+00 0.509D-03 0.392D-03 0.377D-03 0.213D-01 0.296D-04
 Coeff:      0.113D+00 0.135D-03 0.000D+00 0.111D-04 0.155D-03 0.157D+00
 Coeff:      0.676D-04 0.291D-01
 Gap=     0.000 Goal=   None    Shift=    0.000
 Gap=     0.239 Goal=   None    Shift=    0.000
 RMSDP=2.38D-03 MaxDP=2.21D-01 DE=-3.73D-02 OVMax= 1.90D-01

 Cycle  38  Pass 1  IDiag  1:
 RMSU=  1.89D-05    CP:  1.09D+00  1.03D+00  8.07D-01 -3.84D-01  2.23D+00
                    CP: -7.55D-01  1.98D-01  1.93D+00 -3.05D-01  3.00D+00
                    CP: -2.44D+00  9.18D-01 -3.00D+00  1.01D-01 -2.14D+00
                    CP:  3.00D+00  9.59D-01
 E= -1607.97925470010     Delta-E=        0.017873461989 Rises=F Damp=F
 DIIS: error= 1.26D-02 at cycle  38 NSaved=  20.
 NSaved=20 IEnMin= 7 EnMin= -1608.06601362401     IErMin= 7 ErrMin= 5.16D-03
 ErrMax= 1.26D-02  0.00D+00 EMaxC= 1.00D-01 BMatC= 4.31D-01 BMatP= 6.13D-02
 IDIUse=2 WtCom= 0.00D+00 WtEn= 1.00D+00
 EnCoef did   100 forward-backward iterations
 Coeff-En:   0.000D+00 0.000D+00 0.000D+00 0.000D+00 0.000D+00 0.000D+00
 Coeff-En:   0.675D+00 0.555D-03 0.427D-03 0.411D-03 0.539D-02 0.323D-04
 Coeff-En:   0.970D-01 0.157D-02 0.000D+00 0.121D-04 0.193D-06 0.162D+00
 Coeff-En:   0.582D-01 0.737D-04
 Coeff:      0.000D+00 0.000D+00 0.000D+00 0.000D+00 0.000D+00 0.000D+00
 Coeff:      0.675D+00 0.555D-03 0.427D-03 0.411D-03 0.539D-02 0.323D-04
 Coeff:      0.970D-01 0.157D-02 0.000D+00 0.121D-04 0.193D-06 0.162D+00
 Coeff:      0.582D-01 0.737D-04
 Gap=     0.000 Goal=   None    Shift=    0.000
 Gap=     0.239 Goal=   None    Shift=    0.000
 RMSDP=6.11D-05 MaxDP=4.76D-03 DE= 1.79D-02 OVMax= 5.25D-03

 Cycle  39  Pass 1  IDiag  1:
 RMSU=  2.22D-06    CP:  1.09D+00  1.04D+00  8.34D-01 -3.63D-01  2.21D+00
                    CP: -7.53D-01  1.98D-01  1.93D+00 -3.04D-01  3.00D+00
                    CP: -2.74D+00  8.79D-01 -3.00D+00  9.74D-02 -2.25D+00
                    CP:  3.00D+00  1.02D+00  1.04D+00
 E= -1607.97883482035     Delta-E=        0.000419879757 Rises=F Damp=F
 DIIS: error= 1.25D-02 at cycle  39 NSaved=  20.
 NSaved=20 IEnMin= 7 EnMin= -1608.06601362401     IErMin= 7 ErrMin= 5.16D-03
 ErrMax= 1.25D-02  0.00D+00 EMaxC= 1.00D-01 BMatC= 4.32D-01 BMatP= 6.13D-02
 IDIUse=2 WtCom= 0.00D+00 WtEn= 1.00D+00
 EnCoef did   100 forward-backward iterations
 Coeff-En:   0.000D+00 0.000D+00 0.000D+00 0.000D+00 0.000D+00 0.639D-02
 Coeff-En:   0.673D+00 0.757D-04 0.408D-03 0.392D-03 0.134D-03 0.309D-04
 Coeff-En:   0.117D+00 0.136D-03 0.000D+00 0.115D-04 0.275D-04 0.157D+00
 Coeff-En:   0.375D-06 0.457D-01
 Coeff:      0.000D+00 0.000D+00 0.000D+00 0.000D+00 0.000D+00 0.639D-02
 Coeff:      0.673D+00 0.757D-04 0.408D-03 0.392D-03 0.134D-03 0.309D-04
 Coeff:      0.117D+00 0.136D-03 0.000D+00 0.115D-04 0.275D-04 0.157D+00
 Coeff:      0.375D-06 0.457D-01
 Gap=     0.000 Goal=   None    Shift=    0.000
 Gap=     0.239 Goal=   None    Shift=    0.000
 RMSDP=1.47D-03 MaxDP=1.47D-01 DE= 4.20D-04 OVMax= 1.09D-01

 Cycle  40  Pass 1  IDiag  1:
 RMSU=  4.79D-06    CP:  1.07D+00  9.54D-01  2.92D-01 -8.18D-01  2.47D+00
                    CP: -9.21D-01  2.44D-01  2.37D+00 -4.55D-01  3.00D+00
                    CP: -1.90D+00  1.15D+00 -3.00D+00  9.26D-02 -1.95D+00
                    CP:  3.00D+00  1.06D+00  8.55D-01 -1.56D-01
 E= -1607.99060114282     Delta-E=       -0.011766322475 Rises=F Damp=F
 DIIS: error= 1.22D-02 at cycle  40 NSaved=  20.
 NSaved=20 IEnMin= 7 EnMin= -1608.06601362401     IErMin= 7 ErrMin= 5.16D-03
 ErrMax= 1.22D-02  0.00D+00 EMaxC= 1.00D-01 BMatC= 3.86D-01 BMatP= 6.13D-02
 IDIUse=2 WtCom= 0.00D+00 WtEn= 1.00D+00
 EnCoef did   100 forward-backward iterations
 Coeff-En:   0.000D+00 0.000D+00 0.000D+00 0.000D+00 0.000D+00 0.634D-02
 Coeff-En:   0.671D+00 0.751D-04 0.405D-03 0.389D-03 0.133D-03 0.306D-04
 Coeff-En:   0.112D+00 0.135D-03 0.000D+00 0.115D-04 0.273D-04 0.160D+00
 Coeff-En:   0.185D-01 0.313D-01
 Coeff:      0.000D+00 0.000D+00 0.000D+00 0.000D+00 0.000D+00 0.634D-02
 Coeff:      0.671D+00 0.751D-04 0.405D-03 0.389D-03 0.133D-03 0.306D-04
 Coeff:      0.112D+00 0.135D-03 0.000D+00 0.115D-04 0.273D-04 0.160D+00
 Coeff:      0.185D-01 0.313D-01
 Gap=     0.000 Goal=   None    Shift=    0.000
 Gap=     0.239 Goal=   None    Shift=    0.000
 RMSDP=4.51D-04 MaxDP=4.64D-02 DE=-1.18D-02 OVMax= 3.29D-02

 Cycle  41  Pass 1  IDiag  1:
 Restarting incremental Fock formation.
 E= -1607.98689196179     Delta-E=        0.003709181034 Rises=F Damp=F
 DIIS: error= 1.24D-02 at cycle  41 NSaved=  20.
 NSaved=20 IEnMin= 7 EnMin= -1608.06601362401     IErMin= 7 ErrMin= 5.16D-03
 ErrMax= 1.24D-02  0.00D+00 EMaxC= 1.00D-01 BMatC= 4.01D-01 BMatP= 6.13D-02
 IDIUse=2 WtCom= 0.00D+00 WtEn= 1.00D+00
 EnCoef did   100 forward-backward iterations
 Coeff-En:   0.000D+00 0.000D+00 0.000D+00 0.000D+00 0.000D+00 0.648D-02
 Coeff-En:   0.669D+00 0.767D-04 0.414D-03 0.398D-03 0.310D-04 0.313D-04
 Coeff-En:   0.976D-01 0.282D-04 0.000D+00 0.117D-04 0.440D-04 0.163D+00
 Coeff-En:   0.552D-01 0.817D-02
 Coeff:      0.000D+00 0.000D+00 0.000D+00 0.000D+00 0.000D+00 0.648D-02
 Coeff:      0.669D+00 0.767D-04 0.414D-03 0.398D-03 0.310D-04 0.313D-04
 Coeff:      0.976D-01 0.282D-04 0.000D+00 0.117D-04 0.440D-04 0.163D+00
 Coeff:      0.552D-01 0.817D-02
 Gap=     0.000 Goal=   None    Shift=    0.000
 Gap=     0.239 Goal=   None    Shift=    0.000
 RMSDP=1.16D-03 MaxDP=1.24D-01 DE= 3.71D-03 OVMax= 8.05D-02

 Cycle  42  Pass 1  IDiag  1:
 RMSU=  1.02D-03    CP:  9.81D-01
 E= -1607.99667359246     Delta-E=       -0.009781630675 Rises=F Damp=F
 DIIS: error= 1.19D-02 at cycle  42 NSaved=  20.
 NSaved=20 IEnMin= 7 EnMin= -1608.06601362401     IErMin= 7 ErrMin= 5.16D-03
 ErrMax= 1.19D-02  0.00D+00 EMaxC= 1.00D-01 BMatC= 3.61D-01 BMatP= 6.13D-02
 IDIUse=2 WtCom= 0.00D+00 WtEn= 1.00D+00
 EnCoef did   100 forward-backward iterations
 Coeff-En:   0.000D+00 0.000D+00 0.000D+00 0.000D+00 0.000D+00 0.672D-02
 Coeff-En:   0.665D+00 0.797D-04 0.430D-03 0.413D-03 0.322D-04 0.325D-04
 Coeff-En:   0.810D-01 0.293D-04 0.000D+00 0.121D-04 0.456D-04 0.166D+00
 Coeff-En:   0.846D-05 0.799D-01
 Coeff:      0.000D+00 0.000D+00 0.000D+00 0.000D+00 0.000D+00 0.672D-02
 Coeff:      0.665D+00 0.797D-04 0.430D-03 0.413D-03 0.322D-04 0.325D-04
 Coeff:      0.810D-01 0.293D-04 0.000D+00 0.121D-04 0.456D-04 0.166D+00
 Coeff:      0.846D-05 0.799D-01
 Gap=     0.000 Goal=   None    Shift=    0.000
 Gap=     0.239 Goal=   None    Shift=    0.000
 RMSDP=1.07D-03 MaxDP=1.21D-01 DE=-9.78D-03 OVMax= 6.83D-02

 Cycle  43  Pass 1  IDiag  1:
 RMSU=  1.24D-04    CP:  9.61D-01  1.88D+00
 E= -1608.00595605504     Delta-E=       -0.009282462580 Rises=F Damp=F
 DIIS: error= 1.13D-02 at cycle  43 NSaved=  20.
 NSaved=20 IEnMin= 7 EnMin= -1608.06601362401     IErMin= 7 ErrMin= 5.16D-03
 ErrMax= 1.13D-02  0.00D+00 EMaxC= 1.00D-01 BMatC= 3.23D-01 BMatP= 6.13D-02
 IDIUse=2 WtCom= 0.00D+00 WtEn= 1.00D+00
 EnCoef did   100 forward-backward iterations
 Coeff-En:   0.000D+00 0.000D+00 0.000D+00 0.000D+00 0.000D+00 0.684D-02
 Coeff-En:   0.662D+00 0.811D-04 0.437D-03 0.420D-03 0.328D-04 0.331D-04
 Coeff-En:   0.703D-01 0.298D-04 0.000D+00 0.124D-04 0.465D-04 0.169D+00
 Coeff-En:   0.438D-01 0.472D-01
 Coeff:      0.000D+00 0.000D+00 0.000D+00 0.000D+00 0.000D+00 0.684D-02
 Coeff:      0.662D+00 0.811D-04 0.437D-03 0.420D-03 0.328D-04 0.331D-04
 Coeff:      0.703D-01 0.298D-04 0.000D+00 0.124D-04 0.465D-04 0.169D+00
 Coeff:      0.438D-01 0.472D-01
 Gap=     0.000 Goal=   None    Shift=    0.000
 Gap=     0.239 Goal=   None    Shift=    0.000
 RMSDP=5.30D-04 MaxDP=6.25D-02 DE=-9.28D-03 OVMax= 3.17D-02

 Cycle  44  Pass 1  IDiag  1:
 RMSU=  1.76D-05    CP:  9.51D-01  2.29D+00  1.81D+00
 E= -1608.01056784648     Delta-E=       -0.004611791439 Rises=F Damp=F
 DIIS: error= 1.09D-02 at cycle  44 NSaved=  20.
 NSaved=20 IEnMin= 7 EnMin= -1608.06601362401     IErMin= 7 ErrMin= 5.16D-03
 ErrMax= 1.09D-02  0.00D+00 EMaxC= 1.00D-01 BMatC= 3.03D-01 BMatP= 6.13D-02
 IDIUse=2 WtCom= 0.00D+00 WtEn= 1.00D+00
 EnCoef did   100 forward-backward iterations
 Coeff-En:   0.000D+00 0.000D+00 0.000D+00 0.000D+00 0.000D+00 0.143D-05
 Coeff-En:   0.661D+00 0.893D-04 0.482D-03 0.463D-03 0.361D-04 0.364D-04
 Coeff-En:   0.345D-01 0.328D-04 0.000D+00 0.136D-04 0.512D-04 0.176D+00
 Coeff-En:   0.521D-01 0.758D-01
 Coeff:      0.000D+00 0.000D+00 0.000D+00 0.000D+00 0.000D+00 0.143D-05
 Coeff:      0.661D+00 0.893D-04 0.482D-03 0.463D-03 0.361D-04 0.364D-04
 Coeff:      0.345D-01 0.328D-04 0.000D+00 0.136D-04 0.512D-04 0.176D+00
 Coeff:      0.521D-01 0.758D-01
 Gap=     0.000 Goal=   None    Shift=    0.000
 Gap=     0.239 Goal=   None    Shift=    0.000
 RMSDP=2.48D-03 MaxDP=3.04D-01 DE=-4.61D-03 OVMax= 1.40D-01

 Cycle  45  Pass 1  IDiag  1:
 RMSU=  1.27D-03    CP:  9.01D-01  3.00D+00  3.00D+00 -3.00D+00
 E= -1608.03089509907     Delta-E=       -0.020327252591 Rises=F Damp=F
 DIIS: error= 9.08D-03 at cycle  45 NSaved=  20.
 NSaved=20 IEnMin= 7 EnMin= -1608.06601362401     IErMin= 7 ErrMin= 5.16D-03
 ErrMax= 9.08D-03  0.00D+00 EMaxC= 1.00D-01 BMatC= 2.16D-01 BMatP= 6.13D-02
 IDIUse=3 WtCom= 9.48D-01 WtEn= 5.16D-02
 EnCoef did    90 forward-backward iterations
 Coeff-Com: -0.545D-01-0.253D-01-0.100D+00 0.827D-02-0.384D+00-0.440D+00
 Coeff-Com:  0.143D+01 0.865D+00 0.331D+00-0.209D+00 0.276D+01 0.161D+01
 Coeff-Com: -0.143D+01-0.772D+00-0.886D-01-0.807D+00-0.520D+01 0.688D+00
 Coeff-Com:  0.433D+01-0.150D+01
 Coeff-En:   0.000D+00 0.000D+00 0.000D+00 0.000D+00 0.000D+00 0.172D-05
 Coeff-En:   0.635D+00 0.108D-03 0.580D-03 0.558D-03 0.434D-04 0.439D-04
 Coeff-En:   0.180D-03 0.395D-04 0.000D+00 0.164D-04 0.616D-04 0.169D+00
 Coeff-En:   0.976D-04 0.194D+00
 Coeff:     -0.517D-01-0.240D-01-0.948D-01 0.784D-02-0.364D+00-0.418D+00
 Coeff:      0.139D+01 0.821D+00 0.314D+00-0.198D+00 0.262D+01 0.152D+01
 Coeff:     -0.136D+01-0.732D+00-0.841D-01-0.765D+00-0.493D+01 0.661D+00
 Coeff:      0.411D+01-0.141D+01
 Gap=     0.002 Goal=   None    Shift=    0.000
 Gap=     0.241 Goal=   None    Shift=    0.000
 RMSDP=7.65D-03 MaxDP=8.61D-01 DE=-2.03D-02 OVMax= 4.44D-01

 Cycle  46  Pass 1  IDiag  1:
 RMSU=  2.93D-03    CP:  1.03D+00 -1.73D+00 -2.42D+00 -3.00D+00  2.93D-01
 E= -1607.96063357209     Delta-E=        0.070261526988 Rises=F Damp=F
 DIIS: error= 1.40D-02 at cycle  46 NSaved=  20.
 NSaved=20 IEnMin= 7 EnMin= -1608.06601362401     IErMin= 7 ErrMin= 5.16D-03
 ErrMax= 1.40D-02  0.00D+00 EMaxC= 1.00D-01 BMatC= 5.13D-01 BMatP= 6.13D-02
 IDIUse=2 WtCom= 0.00D+00 WtEn= 1.00D+00
 Coeff-En:   0.000D+00 0.000D+00 0.000D+00 0.000D+00 0.000D+00 0.172D-05
 Coeff-En:   0.635D+00 0.108D-03 0.580D-03 0.558D-03 0.434D-04 0.439D-04
 Coeff-En:   0.180D-03 0.000D+00 0.164D-04 0.616D-04 0.169D+00 0.976D-04
 Coeff-En:   0.194D+00 0.395D-04
 Coeff:      0.000D+00 0.000D+00 0.000D+00 0.000D+00 0.000D+00 0.172D-05
 Coeff:      0.635D+00 0.108D-03 0.580D-03 0.558D-03 0.434D-04 0.439D-04
 Coeff:      0.180D-03 0.000D+00 0.164D-04 0.616D-04 0.169D+00 0.976D-04
 Coeff:      0.194D+00 0.395D-04
 Gap=    -0.000 Goal=   None    Shift=    0.000
 Gap=     0.239 Goal=   None    Shift=    0.000
 RMSDP=1.90D-02 MaxDP=2.65D+00 DE= 7.03D-02 OVMax= 7.59D-01

 Cycle  47  Pass 1  IDiag  1:
 RMSU=  7.21D-03    CP:  5.97D-01  3.00D+00  3.00D+00  3.00D+00  3.00D+00
                    CP: -1.12D-01
 E= -1608.07761421332     Delta-E=       -0.116980641237 Rises=F Damp=F
 DIIS: error= 1.41D-03 at cycle  47 NSaved=  20.
 NSaved=20 IEnMin=20 EnMin= -1608.07761421332     IErMin=20 ErrMin= 1.41D-03
 ErrMax= 1.41D-03  0.00D+00 EMaxC= 1.00D-01 BMatC= 4.99D-03 BMatP= 6.13D-02
 IDIUse=3 WtCom= 9.86D-01 WtEn= 1.41D-02
 EnCoef did    49 forward-backward iterations
 Coeff-Com: -0.225D-01-0.105D-01 0.960D-02-0.464D-01-0.263D+00 0.429D+00
 Coeff-Com:  0.141D+00 0.137D-01-0.945D-01 0.103D+01 0.121D-01-0.591D+00
 Coeff-Com: -0.394D-01-0.447D+00-0.172D+01 0.322D+00 0.208D+01-0.773D+00
 Coeff-Com:  0.319D+00 0.649D+00
 Coeff-En:   0.000D+00 0.000D+00 0.000D+00 0.000D+00 0.000D+00 0.000D+00
 Coeff-En:   0.000D+00 0.000D+00 0.000D+00 0.000D+00 0.000D+00 0.000D+00
 Coeff-En:   0.000D+00 0.000D+00 0.000D+00 0.694D-01 0.000D+00 0.672D-01
 Coeff-En:   0.646D-03 0.863D+00
 Coeff:     -0.221D-01-0.103D-01 0.946D-02-0.457D-01-0.260D+00 0.423D+00
 Coeff:      0.139D+00 0.135D-01-0.931D-01 0.102D+01 0.119D-01-0.582D+00
 Coeff:     -0.388D-01-0.441D+00-0.169D+01 0.318D+00 0.205D+01-0.761D+00
 Coeff:      0.315D+00 0.652D+00
 Gap=     0.000 Goal=   None    Shift=    0.000
 Gap=     0.241 Goal=   None    Shift=    0.000
 RMSDP=1.60D-02 MaxDP=2.35D+00 DE=-1.17D-01 OVMax= 7.55D-01

 Cycle  48  Pass 1  IDiag  1:
 RMSU=  9.16D-04    CP:  9.71D-01  1.63D+00  6.94D-01 -3.00D+00  2.42D-01
                    CP:  8.49D-01 -5.57D-02
 E= -1607.99237651011     Delta-E=        0.085237703208 Rises=F Damp=F
 DIIS: error= 1.20D-02 at cycle  48 NSaved=  20.
 NSaved=20 IEnMin=19 EnMin= -1608.07761421332     IErMin=19 ErrMin= 1.41D-03
 ErrMax= 1.20D-02  0.00D+00 EMaxC= 1.00D-01 BMatC= 3.83D-01 BMatP= 4.99D-03
 IDIUse=2 WtCom= 0.00D+00 WtEn= 1.00D+00
 EnCoef did   100 forward-backward iterations
 Coeff-En:   0.000D+00 0.000D+00 0.000D+00 0.000D+00 0.000D+00 0.000D+00
 Coeff-En:   0.000D+00 0.000D+00 0.000D+00 0.000D+00 0.000D+00 0.000D+00
 Coeff-En:   0.000D+00 0.000D+00 0.000D+00 0.578D-01 0.000D+00 0.303D-01
 Coeff-En:   0.876D+00 0.360D-01
 Coeff:      0.000D+00 0.000D+00 0.000D+00 0.000D+00 0.000D+00 0.000D+00
 Coeff:      0.000D+00 0.000D+00 0.000D+00 0.000D+00 0.000D+00 0.000D+00
 Coeff:      0.000D+00 0.000D+00 0.000D+00 0.578D-01 0.000D+00 0.303D-01
 Coeff:      0.876D+00 0.360D-01
 Gap=     0.000 Goal=   None    Shift=    0.000
 Gap=     0.242 Goal=   None    Shift=    0.000
 RMSDP=3.49D-03 MaxDP=3.50D-01 DE= 8.52D-02 OVMax= 2.93D-01

 Cycle  49  Pass 1  IDiag  1:
 RMSU=  8.15D-04    CP:  1.02D+00 -1.28D+00 -2.39D+00 -3.00D+00  2.33D-01
                    CP:  8.07D-01 -2.82D-04  2.52D-01
 E= -1607.96614059797     Delta-E=        0.026235912140 Rises=F Damp=F
 DIIS: error= 1.44D-02 at cycle  49 NSaved=  20.
 NSaved=20 IEnMin= 6 EnMin= -1608.06601362401     IErMin= 6 ErrMin= 5.16D-03
 ErrMax= 1.44D-02  0.00D+00 EMaxC= 1.00D-01 BMatC= 4.90D-01 BMatP= 6.13D-02
 IDIUse=2 WtCom= 0.00D+00 WtEn= 1.00D+00
 EnCoef did   100 forward-backward iterations
 Coeff-En:   0.000D+00 0.000D+00 0.000D+00 0.000D+00 0.000D+00 0.655D+00
 Coeff-En:   0.384D-02 0.171D-03 0.540D-03 0.330D-01 0.141D-05 0.246D-01
 Coeff-En:   0.000D+00 0.651D-03 0.112D-03 0.166D+00 0.176D-04 0.116D+00
 Coeff-En:   0.184D-04 0.263D-04
 Coeff:      0.000D+00 0.000D+00 0.000D+00 0.000D+00 0.000D+00 0.655D+00
 Coeff:      0.384D-02 0.171D-03 0.540D-03 0.330D-01 0.141D-05 0.246D-01
 Coeff:      0.000D+00 0.651D-03 0.112D-03 0.166D+00 0.176D-04 0.116D+00
 Coeff:      0.184D-04 0.263D-04
[...]
    16  H   -0.000001  -0.000001  -0.000057   0.315878  -0.000055  -0.000057
    17  H   -0.000001  -0.000057   0.000000  -0.000055   0.315900  -0.000001
    18  H    0.000000   0.000000  -0.000056  -0.000057  -0.000001   0.315902
    19  H   -0.000001  -0.000001  -0.000001   0.000000  -0.000001  -0.000057
              19
     1  Mn  -0.000677
     2  O   -0.000343
     3  H    0.000000
     4  O    0.000971
     5  H   -0.000057
     6  O    0.003240
     7  H   -0.000056
     8  O    0.288512
     9  H   -0.015092
    10  O    0.000977
    11  H   -0.000058
    12  O    0.000734
    13  H   -0.000001
    14  H   -0.000001
    15  H   -0.000001
    16  H    0.000000
    17  H   -0.000001
    18  H   -0.000057
    19  H    0.315917
          Atomic-Atomic Spin Densities.
               1          2          3          4          5          6
     1  Mn   5.249358  -0.059603   0.002426  -0.059669   0.002429  -0.059592
     2  O   -0.059603   0.124283  -0.005851  -0.016415   0.000255  -0.016485
     3  H    0.002426  -0.005851   0.004598   0.000628  -0.000002   0.000256
     4  O   -0.059669  -0.016415   0.000628   0.124428  -0.005853  -0.016412
     5  H    0.002429   0.000255  -0.000002  -0.005853   0.004591   0.000628
     6  O   -0.059592  -0.016485   0.000256  -0.016412   0.000628   0.124298
     7  H    0.002421   0.000637  -0.000002   0.000254  -0.000002  -0.005854
     8  O   -0.059538   0.012376  -0.000166  -0.016469   0.001152  -0.016394
     9  H    0.002424  -0.000166   0.000000   0.000634  -0.000028   0.000254
    10  O   -0.059635  -0.016387   0.000630   0.012395  -0.000166  -0.016439
    11  H    0.002418   0.000253  -0.000002  -0.000167   0.000000   0.000631
    12  O   -0.059635  -0.016421   0.001146  -0.016460   0.000631   0.012387
    13  H    0.002424   0.000631  -0.000028   0.001149  -0.000028  -0.000166
    14  H    0.002424   0.000629  -0.000028   0.000255  -0.000002  -0.000166
    15  H    0.002426   0.001146  -0.000028  -0.005852   0.000728   0.000630
    16  H    0.002421  -0.005847   0.000728   0.000631  -0.000002   0.001155
    17  H    0.002433   0.001142  -0.000028  -0.000166   0.000000   0.000632
    18  H    0.002426   0.000633  -0.000002   0.001145  -0.000028  -0.005857
    19  H    0.002420  -0.000166   0.000000   0.000632  -0.000028   0.001147
               7          8          9         10         11         12
     1  Mn   0.002421  -0.059538   0.002424  -0.059635   0.002418  -0.059635
     2  O    0.000637   0.012376  -0.000166  -0.016387   0.000253  -0.016421
     3  H   -0.000002  -0.000166   0.000000   0.000630  -0.000002   0.001146
     4  O    0.000254  -0.016469   0.000634   0.012395  -0.000167  -0.016460
     5  H   -0.000002   0.001152  -0.000028  -0.000166   0.000000   0.000631
     6  O   -0.005854  -0.016394   0.000254  -0.016439   0.000631   0.012387
     7  H    0.004595   0.000628  -0.000002   0.001150  -0.000028  -0.000166
     8  O    0.000628   0.124156  -0.005854  -0.016453   0.001154  -0.016378
     9  H   -0.000002  -0.005854   0.004595   0.000633  -0.000028   0.001143
    10  O    0.001150  -0.016453   0.000633   0.124377  -0.005848  -0.016478
    11  H   -0.000028   0.001154  -0.000028  -0.005848   0.004584   0.000633
    12  O   -0.000166  -0.016378   0.001143  -0.016478   0.000633   0.124369
    13  H    0.000000   0.000628  -0.000028   0.000255  -0.000002  -0.005850
    14  H    0.000000   0.000629  -0.000028   0.001151  -0.000028  -0.005850
    15  H   -0.000002   0.000255  -0.000002  -0.000166   0.000000   0.000632
    16  H   -0.000029  -0.000166   0.000000   0.000626  -0.000002   0.000254
    17  H   -0.000028   0.000255  -0.000002  -0.005861   0.000729   0.000633
    18  H    0.000730   0.000632  -0.000002   0.000255  -0.000002  -0.000166
    19  H   -0.000028  -0.005850   0.000730   0.000634  -0.000029   0.000254
              13         14         15         16         17         18
     1  Mn   0.002424   0.002424   0.002426   0.002421   0.002433   0.002426
     2  O    0.000631   0.000629   0.001146  -0.005847   0.001142   0.000633
     3  H   -0.000028  -0.000028  -0.000028   0.000728  -0.000028  -0.000002
     4  O    0.001149   0.000255  -0.005852   0.000631  -0.000166   0.001145
     5  H   -0.000028  -0.000002   0.000728  -0.000002   0.000000  -0.000028
     6  O   -0.000166  -0.000166   0.000630   0.001155   0.000632  -0.005857
     7  H    0.000000   0.000000  -0.000002  -0.000029  -0.000028   0.000730
     8  O    0.000628   0.000629   0.000255  -0.000166   0.000255   0.000632
     9  H   -0.000028  -0.000028  -0.000002   0.000000  -0.000002  -0.000002
    10  O    0.000255   0.001151  -0.000166   0.000626  -0.005861   0.000255
    11  H   -0.000002  -0.000028   0.000000  -0.000002   0.000729  -0.000002
    12  O   -0.005850  -0.005850   0.000632   0.000254   0.000633  -0.000166
    13  H    0.004594   0.000727  -0.000028  -0.000002  -0.000002   0.000000
    14  H    0.000727   0.004591  -0.000002  -0.000002  -0.000028   0.000000
    15  H   -0.000028  -0.000002   0.004594  -0.000028   0.000000  -0.000028
    16  H   -0.000002  -0.000002  -0.000028   0.004589  -0.000028  -0.000028
    17  H   -0.000002  -0.000028   0.000000  -0.000028   0.004602  -0.000002
    18  H    0.000000   0.000000  -0.000028  -0.000028  -0.000002   0.004602
    19  H   -0.000002  -0.000002  -0.000002   0.000000  -0.000002  -0.000028
              19
     1  Mn   0.002420
     2  O   -0.000166
     3  H    0.000000
     4  O    0.000632
     5  H   -0.000028
     6  O    0.001147
     7  H   -0.000028
     8  O   -0.005850
     9  H    0.000730
    10  O    0.000634
    11  H   -0.000029
    12  O    0.000254
    13  H   -0.000002
    14  H   -0.000002
    15  H   -0.000002
    16  H    0.000000
    17  H   -0.000002
    18  H   -0.000028
    19  H    0.004590
 Mulliken charges and spin densities:
               1          2
     1  Mn   1.143725   4.920778
     2  O   -0.669150   0.004642
     3  H    0.406038   0.004277
     4  O   -0.669296   0.004689
     5  H    0.405993   0.004275
     6  O   -0.669419   0.004651
     7  H    0.406015   0.004275
     8  O   -0.669373   0.004597
     9  H    0.406009   0.004273
    10  O   -0.669422   0.004672
    11  H    0.405946   0.004269
    12  O   -0.669210   0.004679
    13  H    0.406003   0.004274
    14  H    0.406002   0.004272
    15  H    0.405979   0.004274
    16  H    0.406008   0.004271
    17  H    0.406049   0.004282
    18  H    0.406111   0.004281
    19  H    0.405993   0.004271
 Sum of Mulliken charges =   2.00000   5.00000
 Mulliken charges and spin densities with hydrogens summed into heavy atoms:
               1          2
     1  Mn   1.143725   4.920778
     2  O    0.142895   0.013190
     4  O    0.142676   0.013237
     6  O    0.142707   0.013207
     8  O    0.142629   0.013141
    10  O    0.142573   0.013222
    12  O    0.142796   0.013225
 Electronic spatial extent (au):  <R**2>=           1214.5196
 Charge=              2.0000 electrons
 Dipole moment (field-independent basis, Debye):
    X=              0.0019    Y=              0.0014    Z=             -0.0027  Tot=              0.0035
 Quadrupole moment (field-independent basis, Debye-Ang):
   XX=            -15.7748   YY=            -15.7719   ZZ=            -15.7847
   XY=             -0.0139   XZ=              0.0000   YZ=              0.0097
 Traceless Quadrupole moment (field-independent basis, Debye-Ang):
   XX=              0.0023   YY=              0.0053   ZZ=             -0.0075
   XY=             -0.0139   XZ=              0.0000   YZ=              0.0097
 Octapole moment (field-independent basis, Debye-Ang**2):
  XXX=              0.0135  YYY=             -0.0027  ZZZ=             -0.0249  XYY=             -0.0444
  XXY=              0.0462  XXZ=              0.0194  XZZ=              0.0345  YZZ=             -0.0470
  YYZ=             -0.0070  XYZ=              0.0016
 Hexadecapole moment (field-independent basis, Debye-Ang**3):
 XXXX=           -251.8337 YYYY=           -232.9641 ZZZZ=           -271.4770 XXXY=              7.6392
 XXXZ=            -35.1427 YYYX=             -8.9212 YYYZ=            -27.4631 ZZZX=            -13.4348
 ZZZY=              5.9321 XXYY=            -73.3969 XXZZ=            -34.6189 YYZZ=            -53.3121
 XXYZ=             21.6145 YYXZ=             48.5609 ZZXY=              1.1568
 N-N= 6.277433619211D+02 E-N=-5.044787098756D+03  KE= 1.603930165987D+03
                          Isotropic Fermi Contact Couplings
        Atom                 a.u.       MegaHertz       Gauss      10(-4) cm-1
     1  Mn(55)             0.41528      91.80506      32.75833      30.62287
     2  O(17)              0.09181     -11.13073      -3.97172      -3.71281
     3  H(1)               0.00174       1.55985       0.55659       0.52031
     4  O(17)              0.09185     -11.13588      -3.97356      -3.71453
     5  H(1)               0.00174       1.55862       0.55615       0.51990
     6  O(17)              0.09186     -11.13679      -3.97388      -3.71483
     7  H(1)               0.00174       1.55768       0.55582       0.51958
     8  O(17)              0.09179     -11.12813      -3.97079      -3.71195
     9  H(1)               0.00174       1.55736       0.55570       0.51948
    10  O(17)              0.09187     -11.13778      -3.97424      -3.71516
    11  H(1)               0.00174       1.55431       0.55462       0.51846
    12  O(17)              0.09184     -11.13474      -3.97315      -3.71415
    13  H(1)               0.00174       1.55859       0.55614       0.51989
    14  H(1)               0.00174       1.55752       0.55576       0.51953
    15  H(1)               0.00174       1.55780       0.55586       0.51963
    16  H(1)               0.00174       1.55581       0.55515       0.51896
    17  H(1)               0.00175       1.56198       0.55735       0.52102
    18  H(1)               0.00175       1.56046       0.55681       0.52051
    19  H(1)               0.00174       1.55646       0.55538       0.51918
 --------------------------------------------------------
       Center         ----  Spin Dipole Couplings  ----
                      3XX-RR        3YY-RR        3ZZ-RR
 --------------------------------------------------------
     1   Atom        0.000076      0.000100     -0.000176
     2   Atom        0.057613     -0.077478      0.019864
     3   Atom        0.004128     -0.028234      0.024106
     4   Atom       -0.024247      0.035032     -0.010785
     5   Atom       -0.021030      0.002647      0.018383
     6   Atom       -0.033147      0.042986     -0.009840
     7   Atom       -0.028560      0.049721     -0.021161
     8   Atom        0.057606     -0.077968      0.020361
     9   Atom        0.030772     -0.020029     -0.010743
    10   Atom       -0.023727      0.034911     -0.011184
    11   Atom        0.023434     -0.003738     -0.019696
    12   Atom       -0.033539      0.042735     -0.009196
    13   Atom       -0.028584      0.049619     -0.021034
    14   Atom       -0.008657     -0.000385      0.009043
    15   Atom        0.023242     -0.003648     -0.019594
    16   Atom        0.030972     -0.020050     -0.010922
    17   Atom       -0.020890      0.002627      0.018263
    18   Atom       -0.008795     -0.000311      0.009106
    19   Atom        0.004137     -0.028169      0.024033
 --------------------------------------------------------
                        XY            XZ            YZ
 --------------------------------------------------------
     1   Atom       -0.000074     -0.000015      0.000077
     2   Atom        0.012105     -0.094335      0.047136
     3   Atom        0.007032     -0.043759     -0.010966
     4   Atom        0.061501      0.094806      0.048881
     5   Atom        0.017458      0.019609      0.041251
     6   Atom       -0.073556     -0.000555     -0.095875
     7   Atom       -0.012637      0.005694     -0.026907
     8   Atom        0.012136     -0.094241      0.046766
     9   Atom       -0.025633     -0.034998      0.012957
    10   Atom        0.061731      0.094816      0.048689
    11   Atom        0.038548      0.022653      0.017664
    12   Atom       -0.073817     -0.000560     -0.095720
    13   Atom       -0.012509      0.005688     -0.027102
    14   Atom       -0.024929      0.030733     -0.033776
    15   Atom        0.038524      0.022712      0.017757
    16   Atom       -0.025710     -0.034914      0.012908
    17   Atom        0.017555      0.019714      0.041153
    18   Atom       -0.024873      0.030639     -0.033808
    19   Atom        0.007151     -0.043751     -0.011107
 --------------------------------------------------------


 ---------------------------------------------------------------------------------
              Anisotropic Spin Dipole Couplings in Principal Axis System
 ---------------------------------------------------------------------------------

       Atom             a.u.   MegaHertz   Gauss  10(-4) cm-1        Axes

              Baa    -0.0002    -0.026    -0.009    -0.009 -0.0163 -0.2542  0.9670
     1 Mn(55) Bbb     0.0000     0.003     0.001     0.001  0.7995  0.5774  0.1652
              Bcc     0.0002     0.023     0.008     0.008 -0.6004  0.7759  0.1938
 
              Baa    -0.1138     8.232     2.937     2.746 -0.3402  0.7854 -0.5172
     2 O(17)  Bbb    -0.0232     1.682     0.600     0.561  0.5607  0.6109  0.5590
              Bcc     0.1370    -9.913    -3.537    -3.307  0.7549 -0.0998 -0.6481
 
              Baa    -0.0318   -16.971    -6.056    -5.661  0.5608  0.6110  0.5587
     3 H(1)   Bbb    -0.0291   -15.515    -5.536    -5.175 -0.5540  0.7784 -0.2953
              Bcc     0.0609    32.486    11.592    10.836 -0.6153 -0.1439  0.7750
 
              Baa    -0.1137     8.229     2.936     2.745  0.7550 -0.0991 -0.6482
     4 O(17)  Bbb    -0.0233     1.686     0.602     0.562 -0.3383  0.7879 -0.5145
              Bcc     0.1370    -9.915    -3.538    -3.307  0.5618  0.6078  0.5613
 
              Baa    -0.0318   -16.980    -6.059    -5.664 -0.3381  0.7876 -0.5151
     5 H(1)   Bbb    -0.0291   -15.520    -5.538    -5.177  0.8903  0.0904 -0.4463
              Bcc     0.0609    32.500    11.597    10.841  0.3050  0.6095  0.7318
 
              Baa    -0.1137     8.225     2.935     2.744  0.5590  0.6077  0.5641
     6 O(17)  Bbb    -0.0234     1.691     0.603     0.564  0.7567 -0.0957 -0.6467
              Bcc     0.1370    -9.916    -3.538    -3.308 -0.3391  0.7884 -0.5133
 
              Baa    -0.0318   -16.978    -6.058    -5.663  0.7565 -0.0962 -0.6469
     7 H(1)   Bbb    -0.0291   -15.517    -5.537    -5.176  0.6360  0.3387  0.6933
              Bcc     0.0609    32.496    11.595    10.839 -0.1524  0.9359 -0.3174
 
              Baa    -0.1136     8.221     2.934     2.742 -0.3384  0.7886 -0.5133
     8 O(17)  Bbb    -0.0234     1.696     0.605     0.566  0.5623  0.6069  0.5617
              Bcc     0.1371    -9.917    -3.539    -3.308  0.7545 -0.0985 -0.6488
 
              Baa    -0.0318   -16.970    -6.055    -5.661  0.5626  0.6065  0.5618
     9 H(1)   Bbb    -0.0291   -15.512    -5.535    -5.174 -0.0924  0.7214 -0.6864
              Bcc     0.0609    32.482    11.590    10.835  0.8215 -0.3343 -0.4619
 
              Baa    -0.1137     8.225     2.935     2.744  0.7536 -0.1002 -0.6496
    10 O(17)  Bbb    -0.0234     1.692     0.604     0.564 -0.3385  0.7880 -0.5143
              Bcc     0.1370    -9.917    -3.539    -3.308  0.5635  0.6075  0.5599
 
              Baa    -0.0318   -16.988    -6.062    -5.667 -0.3388  0.7879 -0.5142
    11 H(1)   Bbb    -0.0291   -15.524    -5.539    -5.178 -0.5461  0.2803  0.7894
              Bcc     0.0609    32.512    11.601    10.845  0.7661  0.5482  0.3353
 
              Baa    -0.1138     8.232     2.937     2.746  0.5633  0.6079  0.5595
    12 O(17)  Bbb    -0.0233     1.683     0.601     0.562  0.7534 -0.0999 -0.6499
              Bcc     0.1370    -9.915    -3.538    -3.307 -0.3392  0.7877 -0.5143
 
              Baa    -0.0318   -16.978    -6.058    -5.663  0.7533 -0.1006 -0.6499
    13 H(1)   Bbb    -0.0291   -15.519    -5.537    -5.176  0.6400  0.3391  0.6894
              Bcc     0.0609    32.497    11.596    10.840 -0.1511  0.9353 -0.3199
 
              Baa    -0.0318   -16.982    -6.060    -5.665  0.7538 -0.1000 -0.6494
    14 H(1)   Bbb    -0.0291   -15.521    -5.538    -5.177  0.4330  0.8190  0.3765
              Bcc     0.0609    32.503    11.598    10.842  0.4943 -0.5650  0.6607
 
              Baa    -0.0318   -16.978    -6.058    -5.663 -0.3390  0.7877 -0.5143
    15 H(1)   Bbb    -0.0291   -15.519    -5.537    -5.176 -0.5478  0.2792  0.7886
              Bcc     0.0609    32.496    11.595    10.840  0.7648  0.5491  0.3369
 
              Baa    -0.0318   -16.988    -6.062    -5.667  0.5608  0.6107  0.5591
    16 H(1)   Bbb    -0.0291   -15.525    -5.540    -5.179 -0.0938  0.7178 -0.6899
              Bcc     0.0609    32.513    11.602    10.845  0.8227 -0.3344 -0.4598
 
              Baa    -0.0318   -16.961    -6.052    -5.657 -0.3384  0.7879 -0.5145
    17 H(1)   Bbb    -0.0291   -15.506    -5.533    -5.172  0.8895  0.0893 -0.4482
              Bcc     0.0608    32.467    11.585    10.830  0.3072  0.6093  0.7310
 
              Baa    -0.0318   -16.967    -6.054    -5.660  0.7571 -0.0959 -0.6463
    18 H(1)   Bbb    -0.0291   -15.509    -5.534    -5.173  0.4290  0.8190  0.3810
              Bcc     0.0609    32.476    11.588    10.833  0.4928 -0.5657  0.6612
 
              Baa    -0.0318   -16.974    -6.057    -5.662  0.5623  0.6073  0.5613
    19 H(1)   Bbb    -0.0291   -15.515    -5.536    -5.175 -0.5523  0.7809 -0.2917
              Bcc     0.0609    32.489    11.593    10.837 -0.6155 -0.1460  0.7745
 

 ---------------------------------------------------------------------------------

 No NMR shielding tensors so no spin-rotation constants.
 Leave Link  601 at Thu May 30 10:54:41 2024, MaxMem= 26843545600 cpu:              29.3 elap:               0.4
 (Enter /gpfs/fs1/soft/improv/software/custom-built/gaussian/g16/l9999.exe)
 Unable to Open any file for archive entry.
 1\1\GINC-I588\SP\UPBEPBE\Gen\H12Mn1O6(2+,6)\HHARB\30-May-2024\0\\#p PB
 EPBE empiricaldispersion=gd3 scf=(maxcycles=500,xqc,maxconventional=50
 ) scrf=(cpcm,solvent=water) geom=allcheck guess=read chkbasis\\Title\\
 2,6\Mn,-0.7845780245,0.7136352288,0.0312514227\O,-1.3786616817,2.81009
 88821,-0.2001735691\H,-1.5121345881,3.2898580057,-1.0389376295\O,1.323
 5604029,1.3117055131,0.0471357147\H,2.0960882517,0.7226069476,0.133946
 3977\O,-0.8654046458,0.934283732,2.2102396725\H,-1.6402618629,0.782491
 9542,2.7830276742\O,-0.1905231932,-1.3830167952,0.2654915776\H,-0.0027
 667866,-2.0194376579,-0.4494069395\O,-2.8917901078,0.1115399597,0.0150
 624524\H,-3.2383018555,-0.796799778,0.0941773653\O,-0.7060460578,0.493
 887815,-2.1476074818\H,0.0664119548,0.6506188933,-2.7221636307\H,-1.43
 69482319,0.2203801399,-2.7326868634\H,1.673054855,2.2188676426,-0.0319
 674072\H,-1.5616501889,3.4461626911,0.5164441395\H,-3.6663053436,0.698
 0504619,-0.0721805558\H,-0.1337549337,1.2031694982,2.7970819279\H,-0.0
 615055324,-1.8620233641,1.1053111423\\Version=ES64L-G16RevC.02\State=6
 -A\HF=-1608.6705446\S2=8.753127\S2-1=0.\S2A=8.750002\RMSD=2.332e-09\Di
 pole=0.0001421,-0.001103,0.000837\Quadrupole=0.0012269,0.0006056,-0.00
 18325,-0.005829,-0.0043718,0.0113065\PG=C01 [X(H12Mn1O6)]\\@
 The archive entry for this job was punched.


 NEVER LISTEN TO CRITICISM
 OR YOU'LL BE DOIN' EVERYBODY ELSE'S THING BUT BUT YOUR OWN.

                                               -- ANDY CAPP
 Job cpu time:       0 days  1 hours  9 minutes 18.5 seconds.
 Elapsed time:       0 days  0 hours  0 minutes 35.5 seconds.
 File lengths (MBytes):  RWF=    124 Int=      0 D2E=      0 Chk=     32 Scr=      1
 Normal termination of Gaussian 16 at Thu May 30 10:54:41 2024.
