 Entering Gaussian System, Link 0=g16
 Input=Mn_3_PBE.com
 Output=Mn_3_PBE.log
 Initial command:
 /gpfs/fs1/soft/improv/software/custom-built/gaussian/g16/l1.exe "/scratch/Gau-772702.inp" -scrdir="/scratch/"
 Default CPUs for threads: 0-127
 Default linda workers: i737.lcrc.anl.gov
 Default is to use 128 SMP processors on each worker.
 Entering Link 1 = /gpfs/fs1/soft/improv/software/custom-built/gaussian/g16/l1.exe PID=    772703.
  
 Copyright (c) 1988-2021, Gaussian, Inc.  All Rights Reserved.
  
 This is part of the Gaussian(R) 16 program.  It is based on
 the Gaussian(R) 09 system (copyright 2009, Gaussian, Inc.),
 the Gaussian(R) 03 system (copyright 2003, Gaussian, Inc.),
 the Gaussian(R) 98 system (copyright 1998, Gaussian, Inc.),
 the Gaussian(R) 94 system (copyright 1995, Gaussian, Inc.),
 the Gaussian 92(TM) system (copyright 1992, Gaussian, Inc.),
 the Gaussian 90(TM) system (copyright 1990, Gaussian, Inc.),
 the Gaussian 88(TM) system (copyright 1988, Gaussian, Inc.),
 the Gaussian 86(TM) system (copyright 1986, Carnegie Mellon
 University), and the Gaussian 82(TM) system (copyright 1983,
 Carnegie Mellon University). Gaussian is a federally registered
 trademark of Gaussian, Inc.
  
 This software contains proprietary and confidential information,
 including trade secrets, belonging to Gaussian, Inc.
  
 This software is provided under written license and may be
 used, copied, transmitted, or stored only in accord with that
 written license.
  
 The following legend is applicable only to US Government
 contracts under FAR:
  
                    RESTRICTED RIGHTS LEGEND
  
 Use, reproduction and disclosure by the US Government is
 subject to restrictions as set forth in subparagraphs (a)
 and (c) of the Commercial Computer Software - Restricted
 Rights clause in FAR 52.227-19.
  
 Gaussian, Inc.
 340 Quinnipiac St., Bldg. 40, Wallingford CT 06492
  
  
 ---------------------------------------------------------------
 Warning -- This program may not be used in any manner that
 competes with the business of Gaussian, Inc. or will provide
 assistance to any competitor of Gaussian, Inc.  The licensee
 of this program is prohibited from giving any competitor of
 Gaussian, Inc. access to this program.  By using this program,
 the user acknowledges that Gaussian, Inc. is engaged in the
 business of creating and licensing software in the field of
 computational chemistry and represents and warrants to the
 licensee that it is not a competitor of Gaussian, Inc. and that
 it will not use this program in any manner prohibited above.
 ---------------------------------------------------------------
  

 Cite this work as:
 Gaussian 16, Revision C.02,
 M. J. Frisch, G. W. Trucks, H. B. Schlegel, G. E. Scuseria, 
 M. A. Robb, J. R. Cheeseman, G. Scalmani, V. Barone, 
 G. A. Petersson, H. Nakatsuji, X. Li, M. Caricato, A. V. Marenich, 
 J. Bloino, B. G. Janesko, R. Gomperts, B. Mennucci, H. P. Hratchian, 
 J. V. Ortiz, A. F. Izmaylov, J. L. Sonnenberg, D. Williams-Young, 
 F. Ding, F. Lipparini, F. Egidi, J. Goings, B. Peng, A. Petrone, 
 T. Henderson, D. Ranasinghe, V. G. Zakrzewski, J. Gao, N. Rega, 
 G. Zheng, W. Liang, M. Hada, M. Ehara, K. Toyota, R. Fukuda, 
 J. Hasegawa, M. Ishida, T. Nakajima, Y. Honda, O. Kitao, H. Nakai, 
 T. Vreven, K. Throssell, J. A. Montgomery, Jr., J. E. Peralta, 
 F. Ogliaro, M. J. Bearpark, J. J. Heyd, E. N. Brothers, K. N. Kudin, 
 V. N. Staroverov, T. A. Keith, R. Kobayashi, J. Normand, 
 K. Raghavachari, A. P. Rendell, J. C. Burant, S. S. Iyengar, 
 J. Tomasi, M. Cossi, J. M. Millam, M. Klene, C. Adamo, R. Cammi, 
 J. W. Ochterski, R. L. Martin, K. Morokuma, O. Farkas, 
 J. B. Foresman, and D. J. Fox, Gaussian, Inc., Wallingford CT, 2019.
 
 ******************************************
 Gaussian 16:  ES64L-G16RevC.02  7-Dec-2021
                30-May-2024 
 ******************************************
 %chk=Mn_3_PBE.chk
 SetSPE:  set environment variable "OMP_PROC_BIND" = "true"
 SetSPE:  set environment variable "OMP_PLACES" = "{0},{1},{2},{3},{4},{5},{6},{7},{8},{9},{10},{11},{12},{13},{14},{15},{16},{17},{18},{19},{20},{21},{22},{23},{24},{25},{26},{27},{28},{29},{30},{31},{32},{33},{34},{35},{36},{37},{38},{39},{40},{41},{42},{43},{44},{45},{46},{47},{48},{49},{50},{51},{52},{53},{54},{55},{56},{57},{58},{59},{60},{61},{62},{63},{64},{65},{66},{67},{68},{69},{70},{71},{72},{73},{74},{75},{76},{77},{78},{79},{80},{81},{82},{83},{84},{85},{86},{87},{88},{89},{90},{91},{92},{93},{94},{95},{96},{97},{98},{99},{100},{101},{102},{103},{104},{105},{106},{107},{108},{109},{110},{111},{112},{113},{114},{115},{116},{117},{118},{119},{120},{121},{122},{123},{124},{125},{126},{127}"
 SetLPE:    new flags="-opt 'Tsnet.Node.lindarsharg: ssh'  -nodelist 'i737.lcrc.anl.gov' -env GAUSS_MDEF=26843545600 -env GAUSS_EXEDIR="/gpfs/fs1/soft/improv/software/custom-built/gaussian/g16/bsd:/gpfs/fs1/soft/improv/software/custom-built/gaussian/g16" -env "OMP_PROC_BIND=true" -env "OMP_PLACES={0},{1},{2},{3},{4},{5},{6},{7},{8},{9},{10},{11},{12},{13},{14},{15},{16},{17},{18},{19},{20},{21},{22},{23},{24},{25},{26},{27},{28},{29},{30},{31},{32},{33},{34},{35},{36},{37},{38},{39},{40},{41},{42},{43},{44},{45},{46},{47},{48},{49},{50},{51},{52},{53},{54},{55},{56},{57},{58},{59},{60},{61},{62},{63},{64},{65},{66},{67},{68},{69},{70},{71},{72},{73},{74},{75},{76},{77},{78},{79},{80},{81},{82},{83},{84},{85},{86},{87},{88},{89},{90},{91},{92},{93},{94},{95},{96},{97},{98},{99},{100},{101},{102},{103},{104},{105},{106},{107},{108},{109},{110},{111},{112},{113},{114},{115},{116},{117},{118},{119},{120},{121},{122},{123},{124},{125},{126},{127}" -env GAUSS_ADEF="0,1,2,3,4,5,6,7,8,9,10,11,12,13,14,15,16,17,18,19,20,21,22,23,24,25,26,27,28,29,30,31,32,33,34,35,36,37,38,39,40,41,42,43,44,45,46,47,48,49,50,51,52,53,54,55,56,57,58,59,60,61,62,63,64,65,66,67,68,69,70,71,72,73,74,75,76,77,78,79,80,81,82,83,84,85,86,87,88,89,90,91,92,93,94,95,96,97,98,99,100,101,102,103,104,105,106,107,108,109,110,111,112,113,114,115,116,117,118,119,120,121,122,123,124,125,126,127""
 Will use up to    1 processors via Linda.
 ----------------------------------------------------------------------
 #p PBEPBE empiricaldispersion=gd3 6-31+G(2df,p) opt=(cartesian,calcall
 ,maxcycles=500) freq scf=(maxcycles=500,xqc,maxconventional=50)
 ----------------------------------------------------------------------
 1/6=500,10=4,18=10,26=3,38=1/1,3;
 2/12=2,17=6,18=5,29=2,40=1/2;
 3/5=1,6=6,7=114,11=2,25=1,30=1,71=2,74=1009,124=31,140=1/1,2,3;
 4//1;
 5/5=2,7=500,8=3,13=1,38=5,85=50/2,8;
 8/6=4,10=90,11=11/1;
 11/6=1,8=1,9=11,15=111,16=1/1,2,10;
 10/6=1/2;
 6/7=2,8=2,9=2,10=2,18=1,28=1/1;
 7/7=1,10=1,25=1/1,2,3,16;
 1/6=500,10=4,18=10,26=3/3(3);
 2/29=1/2;
 7/7=1,8=1,9=1,25=1,44=-1/16;
 99/12=1/99;
 2/29=1/2;
 3/5=1,6=6,7=114,11=2,25=1,30=1,71=2,74=1009,124=31,140=1/1,2,3;
 4/5=5,16=3,69=1/1;
 5/5=2,7=500,8=3,13=1,38=5,85=50/2,8;
 8/6=4,10=90,11=11/1;
 11/6=1,8=1,9=11,15=111,16=1/1,2,10;
 10/6=1/2;
 7/7=1,10=1,25=1/1,2,3,16;
 1/6=500,10=4,18=10,26=3/3(-8);
 2/29=1/2;
 6/7=2,8=2,9=2,10=2,18=1,19=2,28=1/1;
 7/7=1,8=1,9=1,25=1,44=-1/16;
 99/12=1/99;
 Leave Link    1 at Thu May 30 09:19:16 2024, MaxMem=           0 cpu:               1.7 elap:               0.1
 (Enter /gpfs/fs1/soft/improv/software/custom-built/gaussian/g16/l101.exe)
 -----
 Title
 -----
 Symbolic Z-matrix:
 Charge =  3 Multiplicity = 5
 Mn                   -0.79304   0.81881  -0.09491 
 O                    -1.20497   2.57394  -0.35687 
 H                    -2.12106   2.64974  -0.63312 
 O                     0.99012   1.19063  -0.05794 
 H                     1.42696   0.5998    0.55971 
 O                    -0.81752   1.03069   1.71365 
 H                    -1.02108   0.1906    2.13133 
 O                    -0.38507  -0.93351   0.17118 
 H                    -1.15682  -1.47369  -0.01433 
 O                    -2.57341   0.45178  -0.12186 
 H                    -2.77756  -0.08744  -0.88929 
 O                    -0.76966   0.60461  -1.90111 
 H                     0.09872   0.83457  -2.23949 
 H                    -0.96534  -0.30999  -2.11742 
 H                     1.12208   2.09943   0.22124 
 H                    -1.07671   3.0584    0.46184 
 H                    -2.81407  -0.02398   0.6765 
 H                     0.0422    1.33615   2.01181 
 H                    -0.11532  -1.06446   1.08312 
 
 ITRead=  0  0  0  0  0  0  0  0  0  0  0  0  0  0  0  0  0  0  0
 MicOpt= -1 -1 -1 -1 -1 -1 -1 -1 -1 -1 -1 -1 -1 -1 -1 -1 -1 -1 -1
 NAtoms=     19 NQM=       19 NQMF=       0 NMMI=      0 NMMIF=      0
                NMic=       0 NMicF=      0.
                    Isotopes and Nuclear Properties:
 (Nuclear quadrupole moments (NQMom) in fm**2, nuclear magnetic moments (NMagM)
  in nuclear magnetons)

  Atom         1           2           3           4           5           6           7           8           9          10
 IAtWgt=          55          16           1          16           1          16           1          16           1          16
 AtmWgt=  54.9380463  15.9949146   1.0078250  15.9949146   1.0078250  15.9949146   1.0078250  15.9949146   1.0078250  15.9949146
 NucSpn=           5           0           1           0           1           0           1           0           1           0
 AtZEff=  -0.0000000  -0.0000000  -0.0000000  -0.0000000  -0.0000000  -0.0000000  -0.0000000  -0.0000000  -0.0000000  -0.0000000
 NQMom=   33.0000000   0.0000000   0.0000000   0.0000000   0.0000000   0.0000000   0.0000000   0.0000000   0.0000000   0.0000000
 NMagM=    3.4532000   0.0000000   2.7928460   0.0000000   2.7928460   0.0000000   2.7928460   0.0000000   2.7928460   0.0000000
 AtZNuc=  25.0000000   8.0000000   1.0000000   8.0000000   1.0000000   8.0000000   1.0000000   8.0000000   1.0000000   8.0000000

  Atom        11          12          13          14          15          16          17          18          19
 IAtWgt=           1          16           1           1           1           1           1           1           1
 AtmWgt=   1.0078250  15.9949146   1.0078250   1.0078250   1.0078250   1.0078250   1.0078250   1.0078250   1.0078250
 NucSpn=           1           0           1           1           1           1           1           1           1
 AtZEff=  -0.0000000  -0.0000000  -0.0000000  -0.0000000  -0.0000000  -0.0000000  -0.0000000  -0.0000000  -0.0000000
 NQMom=    0.0000000   0.0000000   0.0000000   0.0000000   0.0000000   0.0000000   0.0000000   0.0000000   0.0000000
 NMagM=    2.7928460   0.0000000   2.7928460   2.7928460   2.7928460   2.7928460   2.7928460   2.7928460   2.7928460
 AtZNuc=   1.0000000   8.0000000   1.0000000   1.0000000   1.0000000   1.0000000   1.0000000   1.0000000   1.0000000
 Leave Link  101 at Thu May 30 09:19:17 2024, MaxMem= 26843545600 cpu:               0.4 elap:               0.0
 (Enter /gpfs/fs1/soft/improv/software/custom-built/gaussian/g16/l103.exe)

 GradGradGradGradGradGradGradGradGradGradGradGradGradGradGradGradGradGrad
 Berny optimization.
 Initialization pass.
 No Z-matrix variables, so optimization will use Cartesian coordinates.
 Trust Radius=3.00D-01 FncErr=1.00D-07 GrdErr=1.00D-06 EigMax=2.50D+02 EigMin=1.00D-04
 Number of steps in this run=    114 maximum allowed number of steps=    114.
 GradGradGradGradGradGradGradGradGradGradGradGradGradGradGradGradGradGrad

 Leave Link  103 at Thu May 30 09:19:17 2024, MaxMem= 26843545600 cpu:               0.4 elap:               0.0
 (Enter /gpfs/fs1/soft/improv/software/custom-built/gaussian/g16/l202.exe)
 ---------------------------------------------------------------------------------------------------
                            Z-MATRIX (ANGSTROMS AND DEGREES)
   CD    Cent   Atom    N1       Length/X        N2       Alpha/Y        N3        Beta/Z          J
 ---------------------------------------------------------------------------------------------------
      1      1  Mn       0  -0.793037          0.818805         -0.094905
      2      2  O        0  -1.204971          2.573941         -0.356874
      3      3  H        0  -2.121063          2.649743         -0.633122
      4      4  O        0   0.990122          1.190635         -0.057941
      5      5  H        0   1.426962          0.599798          0.559707
      6      6  O        0  -0.817519          1.030691          1.713650
      7      7  H        0  -1.021079          0.190602          2.131326
      8      8  O        0  -0.385068         -0.933506          0.171177
      9      9  H        0  -1.156817         -1.473692         -0.014327
     10     10  O        0  -2.573405          0.451778         -0.121857
     11     11  H        0  -2.777557         -0.087440         -0.889285
     12     12  O        0  -0.769659          0.604612         -1.901109
     13     13  H        0   0.098725          0.834573         -2.239490
     14     14  H        0  -0.965336         -0.309994         -2.117418
     15     15  H        0   1.122081          2.099426          0.221242
     16     16  H        0  -1.076711          3.058396          0.461841
     17     17  H        0  -2.814074         -0.023981          0.676500
     18     18  H        0   0.042204          1.336153          2.011809
     19     19  H        0  -0.115315         -1.064459          1.083123
 ---------------------------------------------------------------------------------------------------
                         Z-Matrix orientation:                         
 ---------------------------------------------------------------------
 Center     Atomic      Atomic             Coordinates (Angstroms)
 Number     Number       Type             X           Y           Z
 ---------------------------------------------------------------------
      1         25           0       -0.793037    0.818805   -0.094905
      2          8           0       -1.204971    2.573941   -0.356874
      3          1           0       -2.121063    2.649743   -0.633122
      4          8           0        0.990122    1.190635   -0.057941
      5          1           0        1.426962    0.599798    0.559707
      6          8           0       -0.817519    1.030691    1.713650
      7          1           0       -1.021079    0.190602    2.131326
      8          8           0       -0.385068   -0.933506    0.171177
      9          1           0       -1.156817   -1.473692   -0.014327
     10          8           0       -2.573405    0.451778   -0.121857
     11          1           0       -2.777557   -0.087440   -0.889285
     12          8           0       -0.769659    0.604612   -1.901109
     13          1           0        0.098725    0.834573   -2.239490
     14          1           0       -0.965336   -0.309994   -2.117418
     15          1           0        1.122081    2.099426    0.221242
     16          1           0       -1.076711    3.058396    0.461841
     17          1           0       -2.814074   -0.023981    0.676500
     18          1           0        0.042204    1.336153    2.011809
     19          1           0       -0.115315   -1.064459    1.083123
 ---------------------------------------------------------------------
                    Distance matrix (angstroms):
                    1          2          3          4          5
     1  Mn   0.000000
     2  O    1.821762   0.000000
     3  H    2.325008   0.959835   0.000000
     4  O    1.821889   2.611767   3.484150   0.000000
     5  H    2.324839   3.415322   4.267739   0.959899   0.000000
     6  O    1.821090   2.611285   3.134947   2.536076   2.560263
     7  H    2.324381   3.450400   3.859988   3.136540   2.937743
     8  O    1.818745   3.640503   4.062050   2.540791   2.405292
     9  H    2.322579   4.062387   4.279649   3.421971   3.362259
    10  O    1.818006   2.536025   2.301533   3.639880   4.060711
    11  H    2.321775   3.136788   2.826442   4.064482   4.499984
    12  O    1.819010   2.540161   2.759827   2.614866   3.298603
    13  H    2.322657   2.875634   3.286750   2.383386   3.107223
    14  H    2.322591   3.387332   3.506977   3.212032   3.703756
    15  H    2.325429   2.444290   3.398642   0.959822   1.567289
    16  H    2.325125   0.959918   1.567358   2.833814   3.510364
    17  H    2.321626   3.225876   3.056824   4.060370   4.288255
    18  H    2.324547   2.949275   3.660724   2.281137   2.137375
    19  H    2.322443   4.061883   4.556733   2.758526   2.328591
                    6          7          8          9         10
     6  O    0.000000
     7  H    0.960021   0.000000
     8  O    2.534622   2.347406   0.000000
     9  H    3.061530   2.718847   0.960108   0.000000
    10  O    2.605257   2.748593   2.606473   2.392848   0.000000
    11  H    3.444886   3.505227   2.750347   2.305222   0.959885
    12  O    3.640099   4.061422   2.609231   2.833582   2.538227
    13  H    4.062670   4.557707   3.028445   3.443229   3.430916
    14  H    4.061572   4.278496   2.441955   2.411193   2.673658
    15  H    2.670492   3.447487   3.387136   4.244531   4.060675
    16  H    2.397039   3.318813   4.061790   4.557738   3.061904
    17  H    2.484803   2.318921   2.642472   2.307685   0.960023
    18  H    0.959858   1.567527   2.953276   3.665802   3.489421
    19  H    2.297892   1.869309   0.959980   1.567353   3.129403
                   11         12         13         14         15
    11  H    0.000000
    12  O    2.352526   0.000000
    13  H    3.308498   0.959935   0.000000
    14  H    2.200452   0.959991   1.567533   0.000000
    15  H    4.606825   3.212091   2.949969   3.953725   0.000000
    16  H    3.822919   3.420362   3.691102   4.243941   2.410850
    17  H    1.567497   3.349453   4.210050   3.362383   4.495491
    18  H    4.288824   4.062660   4.281159   4.558009   2.225950
    19  H    3.454344   3.481323   3.833001   3.396353   3.504877
                   16         17         18         19
    16  H    0.000000
    17  H    3.544793   0.000000
    18  H    2.573032   3.433851   0.000000
    19  H    4.278809   2.920828   2.578800   0.000000
 Stoichiometry    H12MnO6(3+,5)
 Framework group  C1[X(H12MnO6)]
 Deg. of freedom    51
 Full point group                 C1      NOp   1
 Largest Abelian subgroup         C1      NOp   1
 Largest concise Abelian subgroup C1      NOp   1
                         Standard orientation:                         
 ---------------------------------------------------------------------
 Center     Atomic      Atomic             Coordinates (Angstroms)
 Number     Number       Type             X           Y           Z
 ---------------------------------------------------------------------
      1         25           0       -0.020445   -0.030121    0.009875
      2          8           0       -0.320808   -1.687588   -0.683958
      3          1           0       -1.137042   -1.679899   -1.188920
      4          8           0        1.254655   -0.678279    1.138277
      5          1           0        1.943361   -0.019749    1.254154
      6          8           0        1.298207    0.294245   -1.203513
      7          1           0        1.382040    1.240910   -1.339297
      8          8           0        0.280486    1.626554    0.697409
      9          1           0       -0.431358    2.215648    0.436540
     10          8           0       -1.285904    0.615907   -1.124325
     11          1           0       -2.034842    0.938661   -0.618064
     12          8           0       -1.338362   -0.351446    1.221751
     13          1           0       -0.971739   -0.815561    1.977832
     14          1           0       -1.717277    0.481861    1.510897
     15          1           0        1.635399   -1.477016    0.766376
     16          1           0        0.408515   -1.930884   -1.258706
     17          1           0       -0.915243    1.335169   -1.640964
     18          1           0        2.129003   -0.056571   -0.874826
     19          1           0        1.114126    1.965325    0.362984
 ---------------------------------------------------------------------
 Rotational constants (GHZ):           2.0396948           1.9739407           1.9252755
 Leave Link  202 at Thu May 30 09:19:17 2024, MaxMem= 26843545600 cpu:               0.4 elap:               0.0
 (Enter /gpfs/fs1/soft/improv/software/custom-built/gaussian/g16/l301.exe)
 Standard basis: 6-31+G(2df,p) (6D, 7F)
 Ernie: Thresh=  0.10000D-02 Tol=  0.10000D-05 Strict=F.
 There are   347 symmetry adapted cartesian basis functions of A   symmetry.
 There are   317 symmetry adapted basis functions of A   symmetry.
   317 basis functions,   514 primitive gaussians,   347 cartesian basis functions
    43 alpha electrons       39 beta electrons
       nuclear repulsion energy       751.0997080055 Hartrees.
 IExCor= 1009 DFT=T Ex=PBE Corr=PBE ExCW=0 ScaHFX=  0.000000
 ScaDFX=  1.000000  1.000000  1.000000  1.000000 ScalE2=  1.000000  1.000000
 IRadAn=      5 IRanWt=     -1 IRanGd=            0 ICorTp=0 IEmpDi=131
 NAtoms=   19 NActive=   19 NUniq=   19 SFac= 1.00D+00 NAtFMM=   60 NAOKFM=F Big=F
 Integral buffers will be    131072 words long.
 Raffenetti 2 integral format.
 Two-electron integral symmetry is turned on.
 R6Disp:  Grimme-D3 Dispersion energy=       -0.0125517488 Hartrees.
 Nuclear repulsion after empirical dispersion term =      751.0871562568 Hartrees.
 Leave Link  301 at Thu May 30 09:19:17 2024, MaxMem= 26843545600 cpu:               0.4 elap:               0.1
 (Enter /gpfs/fs1/soft/improv/software/custom-built/gaussian/g16/l302.exe)
 NPDir=0 NMtPBC=     1 NCelOv=     1 NCel=       1 NClECP=     1 NCelD=      1
         NCelK=      1 NCelE2=     1 NClLst=     1 CellRange=     0.0.
 One-electron integrals computed using PRISM.
 One-electron integral symmetry used in STVInt
 NBasis=   317 RedAO= T EigKep=  1.52D-05  NBF=   317
 NBsUse=   317 1.00D-06 EigRej= -1.00D+00 NBFU=   317
 Precomputing XC quadrature grid using
 IXCGrd= 4 IRadAn=           5 IRanWt=          -1 IRanGd=           0 AccXCQ= 0.00D+00.
 Generated NRdTot=       0 NPtTot=           0 NUsed=           0 NTot=          32
 NSgBfM=   347   346   347   347   347 MxSgAt=    19 MxSgA2=    19.
 Leave Link  302 at Thu May 30 09:19:18 2024, MaxMem= 26843545600 cpu:              22.0 elap:               0.3
 (Enter /gpfs/fs1/soft/improv/software/custom-built/gaussian/g16/l303.exe)
 DipDrv:  MaxL=1.
 Leave Link  303 at Thu May 30 09:19:18 2024, MaxMem= 26843545600 cpu:               1.0 elap:               0.0
 (Enter /gpfs/fs1/soft/improv/software/custom-built/gaussian/g16/l401.exe)
 ExpMin= 1.19D-02 ExpMax= 5.63D+04 ExpMxC= 8.46D+03 IAcc=3 IRadAn=         5 AccDes= 0.00D+00
 Harris functional with IExCor= 1009 and IRadAn=       5 diagonalized for initial guess.
 HarFok:  IExCor= 1009 AccDes= 0.00D+00 IRadAn=         5 IDoV= 1 UseB2=F ITyADJ=14
 ICtDFT=  3500011 ScaDFX=  1.000000  1.000000  1.000000  1.000000
 FoFCou: FMM=F IPFlag=           0 FMFlag=      100000 FMFlg1=           0
         NFxFlg=           0 DoJE=T BraDBF=F KetDBF=T FulRan=T
         wScrn=  0.000000 ICntrl=       500 IOpCl=  0 I1Cent=   200000004 NGrid=           0
         NMat0=    1 NMatS0=      1 NMatT0=    0 NMatD0=    1 NMtDS0=    0 NMtDT0=    0
 Petite list used in FoFCou.
 Harris En= -1608.07622745919    
 JPrj=0 DoOrth=F DoCkMO=F.
 Initial guess <Sx>= 0.0000 <Sy>= 0.0000 <Sz>= 2.0000 <S**2>= 6.0000 S= 2.0000
 Leave Link  401 at Thu May 30 09:19:18 2024, MaxMem= 26843545600 cpu:              37.4 elap:               0.4
 (Enter /gpfs/fs1/soft/improv/software/custom-built/gaussian/g16/l502.exe)
 Integral symmetry usage will be decided dynamically.
 UHF open shell SCF:
 Using DIIS extrapolation, IDIIS=  1040.
 NGot= 26843545600 LenX= 26843256607 LenY= 26843135757
 Requested convergence on RMS density matrix=1.00D-08 within  50 cycles.
 Requested convergence on MAX density matrix=1.00D-06.
 Requested convergence on             energy=1.00D-06.
 No special actions if energy rises.
 Fock matrices will be formed incrementally for  20 cycles.

 Cycle   1  Pass 1  IDiag  1:
 FoFJK:  IHMeth= 1 ICntrl=     500 DoSepK=F KAlg= 0 I1Cent=           0 FoldK=F
 IRaf= 990000000 NMat=       1 IRICut=       1 DoRegI=T DoRafI=F ISym2E= 0 IDoP0=0 IntGTp=1.
 FoFCou: FMM=F IPFlag=           0 FMFlag=      100000 FMFlg1=           0
         NFxFlg=           0 DoJE=T BraDBF=F KetDBF=F FulRan=T
         wScrn=  0.000000 ICntrl=       500 IOpCl=  0 I1Cent=           0 NGrid=           0
         NMat0=    1 NMatS0=      1 NMatT0=    0 NMatD0=    1 NMtDS0=    0 NMtDT0=    0
 Symmetry not used in FoFCou.
 E= -1606.60128601325    
 DIIS: error= 4.33D-02 at cycle   1 NSaved=   1.
 NSaved= 1 IEnMin= 1 EnMin= -1606.60128601325     IErMin= 1 ErrMin= 4.33D-02
 ErrMax= 4.33D-02  0.00D+00 EMaxC= 1.00D-01 BMatC= 5.33D+00 BMatP= 5.33D+00
 IDIUse=3 WtCom= 5.67D-01 WtEn= 4.33D-01
 Coeff-Com:  0.100D+01
 Coeff-En:   0.100D+01
 Coeff:      0.100D+01
 Gap=    -0.705 Goal=   None    Shift=    0.000
 Gap=    -0.578 Goal=   None    Shift=    0.000
 GapD=   -0.705 DampG=0.250 DampE=0.250 DampFc=0.1250 IDamp=-1.
 Damping current iteration by 1.25D-01
 RMSDP=3.55D-02 MaxDP=3.21D+00              OVMax= 9.53D-01

 Cycle   2  Pass 1  IDiag  1:
 RMSU=  4.42D-03    CP:  1.01D+00
 E= -1606.98793427318     Delta-E=       -0.386648259933 Rises=F Damp=T
 DIIS: error= 1.59D-02 at cycle   2 NSaved=   2.
 NSaved= 2 IEnMin= 2 EnMin= -1606.98793427318     IErMin= 2 ErrMin= 1.59D-02
 ErrMax= 1.59D-02  0.00D+00 EMaxC= 1.00D-01 BMatC= 8.68D-01 BMatP= 5.33D+00
 IDIUse=3 WtCom= 8.41D-01 WtEn= 1.59D-01
 Coeff-Com: -0.504D+00 0.150D+01
 Coeff-En:   0.000D+00 0.100D+01
 Coeff:     -0.424D+00 0.142D+01
 Gap=    -0.006 Goal=   None    Shift=    0.000
 Gap=     0.018 Goal=   None    Shift=    0.000
 RMSDP=1.24D-02 MaxDP=2.61D+00 DE=-3.87D-01 OVMax= 9.66D-01

 Cycle   3  Pass 1  IDiag  1:
 RMSU=  1.01D-02    CP:  7.18D-01  1.23D+00
 E= -1607.47512823765     Delta-E=       -0.487193964470 Rises=F Damp=F
 DIIS: error= 1.27D-02 at cycle   3 NSaved=   3.
 NSaved= 3 IEnMin= 3 EnMin= -1607.47512823765     IErMin= 3 ErrMin= 1.27D-02
 ErrMax= 1.27D-02  0.00D+00 EMaxC= 1.00D-01 BMatC= 4.18D-01 BMatP= 8.68D-01
 IDIUse=3 WtCom= 8.73D-01 WtEn= 1.27D-01
 Coeff-Com: -0.250D+00 0.794D+00 0.456D+00
 Coeff-En:   0.000D+00 0.000D+00 0.100D+01
 Coeff:     -0.219D+00 0.694D+00 0.525D+00
 Gap=    -0.011 Goal=   None    Shift=    0.000
 Gap=     0.178 Goal=   None    Shift=    0.000
 RMSDP=4.39D-03 MaxDP=3.94D-01 DE=-4.87D-01 OVMax= 9.91D-01

 Cycle   4  Pass 1  IDiag  1:
 RMSU=  4.21D-03    CP:  7.25D-01  1.28D+00  8.82D-01
 E= -1607.51925238799     Delta-E=       -0.044124150340 Rises=F Damp=F
 DIIS: error= 1.01D-02 at cycle   4 NSaved=   4.
 NSaved= 4 IEnMin= 4 EnMin= -1607.51925238799     IErMin= 4 ErrMin= 1.01D-02
 ErrMax= 1.01D-02  0.00D+00 EMaxC= 1.00D-01 BMatC= 1.84D-01 BMatP= 4.18D-01
 IDIUse=3 WtCom= 8.99D-01 WtEn= 1.01D-01
 Coeff-Com: -0.143D+00 0.391D+00 0.369D+00 0.383D+00
 Coeff-En:   0.000D+00 0.000D+00 0.328D+00 0.672D+00
 Coeff:     -0.129D+00 0.352D+00 0.365D+00 0.412D+00
 Gap=    -0.005 Goal=   None    Shift=    0.000
 Gap=     0.181 Goal=   None    Shift=    0.000
 RMSDP=4.06D-03 MaxDP=3.78D-01 DE=-4.41D-02 OVMax= 9.87D-01

 Cycle   5  Pass 1  IDiag  1:
 RMSU=  1.28D-03    CP:  7.26D-01  1.32D+00  9.70D-01  1.09D-01
 E= -1607.53821444771     Delta-E=       -0.018962059720 Rises=F Damp=F
 DIIS: error= 5.91D-03 at cycle   5 NSaved=   5.
 NSaved= 5 IEnMin= 5 EnMin= -1607.53821444771     IErMin= 5 ErrMin= 5.91D-03
 ErrMax= 5.91D-03  0.00D+00 EMaxC= 1.00D-01 BMatC= 6.30D-02 BMatP= 1.84D-01
 IDIUse=3 WtCom= 9.41D-01 WtEn= 5.91D-02
 Coeff-Com: -0.719D-01 0.133D+00 0.211D+00 0.367D+00 0.361D+00
 Coeff-En:   0.000D+00 0.000D+00 0.000D+00 0.331D+00 0.669D+00
 Coeff:     -0.677D-01 0.125D+00 0.199D+00 0.365D+00 0.379D+00
 Gap=    -0.004 Goal=   None    Shift=    0.000
 Gap=     0.172 Goal=   None    Shift=    0.000
 RMSDP=4.01D-03 MaxDP=3.84D-01 DE=-1.90D-02 OVMax= 9.86D-01

 Cycle   6  Pass 1  IDiag  1:
 RMSU=  6.39D-04    CP:  7.25D-01  1.31D+00  8.83D-01  9.72D-01 -2.49D-02
 E= -1607.54395108003     Delta-E=       -0.005736632317 Rises=F Damp=F
 DIIS: error= 5.83D-03 at cycle   6 NSaved=   6.
 NSaved= 6 IEnMin= 6 EnMin= -1607.54395108003     IErMin= 6 ErrMin= 5.83D-03
 ErrMax= 5.83D-03  0.00D+00 EMaxC= 1.00D-01 BMatC= 3.86D-02 BMatP= 6.30D-02
 IDIUse=3 WtCom= 9.42D-01 WtEn= 5.83D-02
 Coeff-Com: -0.442D-01 0.680D-01 0.720D-01 0.103D+00 0.399D+00 0.401D+00
 Coeff-En:   0.000D+00 0.000D+00 0.000D+00 0.000D+00 0.421D+00 0.579D+00
 Coeff:     -0.416D-01 0.640D-01 0.678D-01 0.974D-01 0.401D+00 0.412D+00
 Gap=     0.001 Goal=   None    Shift=    0.000
 Gap=     0.166 Goal=   None    Shift=    0.000
 RMSDP=1.86D-03 MaxDP=1.45D-01 DE=-5.74D-03 OVMax= 4.57D-01

 Cycle   7  Pass 1  IDiag  1:
 RMSU=  1.48D-03    CP:  7.25D-01  1.31D+00  9.05D-01  7.46D-01  4.16D-01
                    CP:  8.66D-01
 E= -1607.54755039469     Delta-E=       -0.003599314664 Rises=F Damp=F
 DIIS: error= 4.47D-03 at cycle   7 NSaved=   7.
 NSaved= 7 IEnMin= 7 EnMin= -1607.54755039469     IErMin= 7 ErrMin= 4.47D-03
 ErrMax= 4.47D-03  0.00D+00 EMaxC= 1.00D-01 BMatC= 1.77D-02 BMatP= 3.86D-02
 IDIUse=3 WtCom= 9.55D-01 WtEn= 4.47D-02
 EnCoef did     4 forward-backward iterations
 Coeff-Com: -0.387D-01 0.623D-01 0.516D-01 0.532D-01 0.364D+00 0.365D+00
 Coeff-Com:  0.143D+00
 Coeff-En:   0.000D+00 0.000D+00 0.000D+00 0.000D+00 0.357D+00 0.414D+00
 Coeff-En:   0.229D+00
 Coeff:     -0.370D-01 0.595D-01 0.493D-01 0.508D-01 0.363D+00 0.367D+00
 Coeff:      0.147D+00
 Gap=    -0.001 Goal=   None    Shift=    0.000
 Gap=     0.166 Goal=   None    Shift=    0.000
 RMSDP=3.81D-03 MaxDP=2.56D-01 DE=-3.60D-03 OVMax= 9.34D-01

 Cycle   8  Pass 1  IDiag  1:
 RMSU=  3.59D-04    CP:  7.25D-01  1.32D+00  9.16D-01  6.44D-01  1.79D-01
                    CP:  5.13D-01 -1.53D+00
 E= -1607.54271980722     Delta-E=        0.004830587471 Rises=F Damp=F
 DIIS: error= 9.33D-03 at cycle   8 NSaved=   8.
 NSaved= 8 IEnMin= 7 EnMin= -1607.54755039469     IErMin= 7 ErrMin= 4.47D-03
 ErrMax= 9.33D-03  0.00D+00 EMaxC= 1.00D-01 BMatC= 3.79D-02 BMatP= 1.77D-02
 IDIUse=3 WtCom= 9.55D-01 WtEn= 4.47D-02
 EnCoef did     4 forward-backward iterations
 Coeff-Com: -0.189D-01 0.376D-01-0.554D-02-0.721D-01 0.203D+00 0.134D+00
 Coeff-Com:  0.461D+00 0.260D+00
 Coeff-En:   0.000D+00 0.000D+00 0.000D+00 0.000D+00 0.157D+00 0.000D+00
 Coeff-En:   0.529D+00 0.314D+00
 Coeff:     -0.180D-01 0.359D-01-0.529D-02-0.689D-01 0.201D+00 0.128D+00
 Coeff:      0.464D+00 0.263D+00
 Gap=     0.000 Goal=   None    Shift=    0.000
 Gap=     0.166 Goal=   None    Shift=    0.000
 RMSDP=2.39D-03 MaxDP=1.93D-01 DE= 4.83D-03 OVMax= 5.91D-01

 Cycle   9  Pass 1  IDiag  1:
 RMSU=  1.52D-04    CP:  7.25D-01  1.33D+00  9.63D-01  1.66D-01  8.27D-01
                    CP:  1.51D-01 -9.73D-01  8.30D-01
 E= -1607.54338329173     Delta-E=       -0.000663484503 Rises=F Damp=F
 DIIS: error= 6.22D-03 at cycle   9 NSaved=   9.
 NSaved= 9 IEnMin= 7 EnMin= -1607.54755039469     IErMin= 7 ErrMin= 4.47D-03
 ErrMax= 6.22D-03  0.00D+00 EMaxC= 1.00D-01 BMatC= 3.05D-02 BMatP= 1.77D-02
 IDIUse=3 WtCom= 9.55D-01 WtEn= 4.47D-02
 EnCoef did     4 forward-backward iterations
 Coeff-Com: -0.143D-01 0.270D-01-0.125D-01-0.599D-01 0.129D+00 0.167D+00
 Coeff-Com:  0.440D+00 0.154D+00 0.170D+00
 Coeff-En:   0.000D+00 0.000D+00 0.000D+00 0.000D+00 0.000D+00 0.000D+00
 Coeff-En:   0.556D+00 0.149D+00 0.295D+00
 Coeff:     -0.136D-01 0.258D-01-0.120D-01-0.572D-01 0.123D+00 0.160D+00
 Coeff:      0.446D+00 0.154D+00 0.175D+00
 Gap=    -0.001 Goal=   None    Shift=    0.000
 Gap=     0.166 Goal=   None    Shift=    0.000
 RMSDP=3.93D-03 MaxDP=3.79D-01 DE=-6.63D-04 OVMax= 9.70D-01

 Cycle  10  Pass 1  IDiag  1:
 RMSU=  9.86D-05    CP:  7.25D-01  1.32D+00  8.81D-01  9.75D-01  1.65D-02
                    CP:  1.03D+00 -1.01D-01  3.19D-01 -5.25D-01
 E= -1607.54732198862     Delta-E=       -0.003938696894 Rises=F Damp=F
 DIIS: error= 4.14D-03 at cycle  10 NSaved=  10.
 NSaved=10 IEnMin= 7 EnMin= -1607.54755039469     IErMin=10 ErrMin= 4.14D-03
 ErrMax= 4.14D-03  0.00D+00 EMaxC= 1.00D-01 BMatC= 1.78D-02 BMatP= 1.77D-02
 IDIUse=3 WtCom= 9.59D-01 WtEn= 4.14D-02
 EnCoef did   100 forward-backward iterations
 Coeff-Com: -0.516D-02 0.139D-01-0.103D-01-0.628D-01 0.846D-01-0.145D-01
 Coeff-Com:  0.406D+00 0.892D-01 0.216D+00 0.283D+00
 Coeff-En:   0.000D+00 0.000D+00 0.000D+00 0.000D+00 0.000D+00 0.000D+00
 Coeff-En:   0.392D+00 0.485D-02 0.367D+00 0.236D+00
 Coeff:     -0.494D-02 0.133D-01-0.986D-02-0.602D-01 0.811D-01-0.139D-01
 Coeff:      0.406D+00 0.857D-01 0.222D+00 0.281D+00
 Gap=     0.000 Goal=   None    Shift=    0.000
 Gap=     0.166 Goal=   None    Shift=    0.000
 RMSDP=1.82D-03 MaxDP=1.44D-01 DE=-3.94D-03 OVMax= 4.51D-01

 Cycle  11  Pass 1  IDiag  1:
 RMSU=  3.55D-05    CP:  7.25D-01  1.32D+00  9.00D-01  7.79D-01  3.97D-01
                    CP:  9.63D-01  9.34D-01  2.52D-03 -1.77D-01  7.14D-01
 E= -1607.54857004490     Delta-E=       -0.001248056281 Rises=F Damp=F
 DIIS: error= 4.04D-03 at cycle  11 NSaved=  11.
 NSaved=11 IEnMin=11 EnMin= -1607.54857004490     IErMin=11 ErrMin= 4.04D-03
 ErrMax= 4.04D-03  0.00D+00 EMaxC= 1.00D-01 BMatC= 1.21D-02 BMatP= 1.77D-02
 IDIUse=3 WtCom= 9.60D-01 WtEn= 4.04D-02
 EnCoef did   100 forward-backward iterations
 Coeff-Com: -0.223D-02 0.720D-02-0.282D-02-0.389D-01 0.645D-01-0.490D-01
 Coeff-Com:  0.229D+00 0.130D+00 0.198D+00 0.213D+00 0.250D+00
 Coeff-En:   0.000D+00 0.000D+00 0.000D+00 0.000D+00 0.000D+00 0.000D+00
 Coeff-En:   0.669D-02 0.000D+00 0.353D+00 0.210D+00 0.431D+00
 Coeff:     -0.214D-02 0.691D-02-0.271D-02-0.373D-01 0.619D-01-0.470D-01
 Coeff:      0.220D+00 0.125D+00 0.204D+00 0.213D+00 0.257D+00
 Gap=     0.000 Goal=   None    Shift=    0.000
 Gap=     0.166 Goal=   None    Shift=    0.000
 RMSDP=2.13D-03 MaxDP=1.68D-01 DE=-1.25D-03 OVMax= 5.27D-01

 Cycle  12  Pass 1  IDiag  1:
 RMSU=  2.57D-05    CP:  7.25D-01  1.32D+00  8.81D-01  9.72D-01 -1.32D-02
                    CP:  1.02D+00 -3.38D-01  4.56D-01 -6.44D-01  9.73D-01
                    CP: -3.42D-02
 E= -1607.54725329215     Delta-E=        0.001316752749 Rises=F Damp=F
 DIIS: error= 3.56D-03 at cycle  12 NSaved=  12.
 NSaved=12 IEnMin=11 EnMin= -1607.54857004490     IErMin=12 ErrMin= 3.56D-03
 ErrMax= 3.56D-03  0.00D+00 EMaxC= 1.00D-01 BMatC= 1.65D-02 BMatP= 1.21D-02
 IDIUse=3 WtCom= 9.60D-01 WtEn= 4.04D-02
 EnCoef did   100 forward-backward iterations
 Coeff-Com:  0.432D-02-0.263D-02 0.671D-02-0.842D-02 0.176D-01-0.109D+00
 Coeff-Com: -0.799D-02-0.458D-01 0.233D+00-0.903D+00 0.581D+00 0.123D+01
 Coeff-En:   0.000D+00 0.000D+00 0.000D+00 0.000D+00 0.000D+00 0.000D+00
 Coeff-En:   0.730D-02 0.000D+00 0.339D+00 0.235D-02 0.460D+00 0.192D+00
 Coeff:      0.415D-02-0.252D-02 0.643D-02-0.808D-02 0.169D-01-0.104D+00
 Coeff:     -0.737D-02-0.440D-01 0.237D+00-0.866D+00 0.576D+00 0.119D+01
 Gap=    -0.001 Goal=   None    Shift=    0.000
 Gap=     0.167 Goal=   None    Shift=    0.000
 RMSDP=4.04D-03 MaxDP=3.65D-01 DE= 1.32D-03 OVMax= 9.98D-01

 Cycle  13  Pass 1  IDiag  1:
 RMSU=  2.86D-05    CP:  7.25D-01  1.32D+00  9.68D-01  1.14D-01  1.04D+00
                    CP:  2.43D-01  3.99D-02  5.40D-01  9.67D-01 -4.85D-02
                    CP:  9.06D-01  5.10D-01
 E= -1607.54376052839     Delta-E=        0.003492763758 Rises=F Damp=F
 DIIS: error= 6.02D-03 at cycle  13 NSaved=  13.
 NSaved=13 IEnMin=11 EnMin= -1607.54857004490     IErMin=12 ErrMin= 3.56D-03
 ErrMax= 6.02D-03  0.00D+00 EMaxC= 1.00D-01 BMatC= 3.30D-02 BMatP= 1.21D-02
 IDIUse=3 WtCom= 9.60D-01 WtEn= 4.04D-02
 EnCoef did   100 forward-backward iterations
 Rare condition: small coef for last iteration:  0.000D+00
 Coeff-Com:  0.534D-02-0.385D-02 0.167D-03-0.179D-01-0.785D-02-0.905D-01
 Coeff-Com: -0.221D-01 0.730D-01 0.757D-01-0.366D+00 0.497D+00 0.682D+00
 Coeff-Com:  0.175D+00
 Coeff-En:   0.000D+00 0.000D+00 0.000D+00 0.000D+00 0.000D+00 0.000D+00
 Coeff-En:   0.142D-01 0.000D+00 0.248D-01 0.000D+00 0.186D+00 0.445D+00
 Coeff-En:   0.330D+00
 Coeff:      0.534D-02-0.385D-02 0.167D-03-0.179D-01-0.785D-02-0.905D-01
 Coeff:     -0.221D-01 0.730D-01 0.757D-01-0.366D+00 0.497D+00 0.682D+00
 Coeff:      0.175D+00
 Gap=     0.001 Goal=   None    Shift=    0.000
 Gap=     0.166 Goal=   None    Shift=    0.000
 RMSDP=2.30D-04 MaxDP=1.49D-02 DE= 3.49D-03 OVMax= 5.65D-02

 Cycle  14  Pass 1  IDiag  1:
 RMSU=  1.17D-05    CP:  7.25D-01  1.33D+00  9.69D-01  1.06D-01  1.03D+00
                    CP:  2.19D-01 -1.12D-01  5.90D-01  1.00D+00 -1.07D-01
                    CP:  8.63D-01  3.40D-01  8.54D-01
 E= -1607.54363079211     Delta-E=        0.000129736284 Rises=F Damp=F
 DIIS: error= 6.23D-03 at cycle  14 NSaved=  14.
 NSaved=14 IEnMin=11 EnMin= -1607.54857004490     IErMin=12 ErrMin= 3.56D-03
 ErrMax= 6.23D-03  0.00D+00 EMaxC= 1.00D-01 BMatC= 3.28D-02 BMatP= 1.21D-02
 IDIUse=3 WtCom= 9.60D-01 WtEn= 4.04D-02
 EnCoef did   100 forward-backward iterations
 Coeff-Com:  0.492D-02-0.346D-02 0.100D-02-0.159D-01-0.261D-02-0.892D-01
 Coeff-Com: -0.211D-01 0.355D-01 0.142D+00-0.546D+00 0.507D+00 0.874D+00
 Coeff-Com:  0.362D+00-0.249D+00
 Coeff-En:   0.000D+00 0.000D+00 0.000D+00 0.000D+00 0.000D+00 0.000D+00
 Coeff-En:   0.720D-02 0.000D+00 0.102D+00 0.000D+00 0.311D+00 0.333D+00
 Coeff-En:   0.000D+00 0.246D+00
 Coeff:      0.472D-02-0.332D-02 0.960D-03-0.153D-01-0.250D-02-0.856D-01
 Coeff:     -0.200D-01 0.341D-01 0.141D+00-0.524D+00 0.499D+00 0.852D+00
 Coeff:      0.347D+00-0.229D+00
 Gap=     0.001 Goal=   None    Shift=    0.000
 Gap=     0.166 Goal=   None    Shift=    0.000
 RMSDP=1.43D-04 MaxDP=9.42D-03 DE= 1.30D-04 OVMax= 3.52D-02

 Cycle  15  Pass 1  IDiag  1:
 RMSU=  2.95D-06    CP:  7.25D-01  1.33D+00  9.68D-01  1.10D-01  1.04D+00
                    CP:  2.34D-01 -1.72D-02  5.56D-01  9.84D-01 -9.13D-02
                    CP:  9.05D-01  3.90D-01  8.73D-01  9.03D-01
 E= -1607.54375394466     Delta-E=       -0.000123152548 Rises=F Damp=F
 DIIS: error= 6.08D-03 at cycle  15 NSaved=  15.
 NSaved=15 IEnMin=11 EnMin= -1607.54857004490     IErMin=12 ErrMin= 3.56D-03
 ErrMax= 6.08D-03  0.00D+00 EMaxC= 1.00D-01 BMatC= 3.27D-02 BMatP= 1.21D-02
 IDIUse=3 WtCom= 9.60D-01 WtEn= 4.04D-02
 EnCoef did   100 forward-backward iterations
 Rare condition: small coef for last iteration: -0.776D-15
 Coeff-Com:  0.463D-02-0.337D-02 0.194D-03-0.171D-01-0.254D-02-0.896D-01
 Coeff-Com: -0.608D-02 0.334D-01 0.185D+00-0.495D+00 0.472D+00 0.835D+00
 Coeff-Com:  0.344D+00-0.694D+00 0.434D+00
 Coeff-En:   0.000D+00 0.000D+00 0.000D+00 0.000D+00 0.000D+00 0.000D+00
 Coeff-En:   0.150D-01 0.000D+00 0.254D-01 0.000D+00 0.190D+00 0.442D+00
 Coeff-En:   0.227D+00 0.000D+00 0.101D+00
 Coeff:      0.463D-02-0.337D-02 0.194D-03-0.171D-01-0.254D-02-0.896D-01
 Coeff:     -0.608D-02 0.334D-01 0.185D+00-0.495D+00 0.472D+00 0.835D+00
 Coeff:      0.344D+00-0.694D+00 0.434D+00
 Gap=     0.001 Goal=   None    Shift=    0.000
 Gap=     0.166 Goal=   None    Shift=    0.000
 RMSDP=4.16D-05 MaxDP=2.65D-03 DE=-1.23D-04 OVMax= 1.02D-02

 Cycle  16  Pass 1  IDiag  1:
 RMSU=  1.58D-06    CP:  7.25D-01  1.33D+00  9.68D-01  1.12D-01  1.04D+00
                    CP:  2.38D-01  1.01D-02  5.44D-01  9.83D-01 -8.82D-02
                    CP:  9.05D-01  4.00D-01  8.84D-01  8.39D-01  9.14D-01
 E= -1607.54380803343     Delta-E=       -0.000054088771 Rises=F Damp=F
 DIIS: error= 6.01D-03 at cycle  16 NSaved=  16.
 NSaved=16 IEnMin=11 EnMin= -1607.54857004490     IErMin=12 ErrMin= 3.56D-03
 ErrMax= 6.01D-03  0.00D+00 EMaxC= 1.00D-01 BMatC= 3.25D-02 BMatP= 1.21D-02
 IDIUse=3 WtCom= 9.60D-01 WtEn= 4.04D-02
 EnCoef did   100 forward-backward iterations
 Coeff-Com:  0.563D-02-0.451D-02-0.466D-03-0.191D-01-0.105D-01-0.965D-01
 Coeff-Com:  0.420D-01 0.288D-01 0.274D+00-0.316D+00 0.368D+00 0.685D+00
 Coeff-Com: -0.141D+00-0.730D+00-0.285D+01 0.376D+01
 Coeff-En:   0.000D+00 0.000D+00 0.000D+00 0.000D+00 0.000D+00 0.000D+00
 Coeff-En:   0.208D-02 0.000D+00 0.125D+00 0.000D+00 0.324D+00 0.325D+00
 Coeff-En:   0.000D+00 0.147D+00 0.111D-02 0.758D-01
 Coeff:      0.541D-02-0.433D-02-0.447D-03-0.183D-01-0.101D-01-0.926D-01
 Coeff:      0.404D-01 0.277D-01 0.268D+00-0.303D+00 0.366D+00 0.671D+00
 Coeff:     -0.135D+00-0.694D+00-0.273D+01 0.361D+01
 Gap=     0.001 Goal=   None    Shift=    0.000
 Gap=     0.166 Goal=   None    Shift=    0.000
 RMSDP=4.56D-04 MaxDP=2.63D-02 DE=-5.41D-05 OVMax= 1.12D-01

 Cycle  17  Pass 1  IDiag  1:
 RMSU=  4.58D-06    CP:  7.25D-01  1.32D+00  9.65D-01  1.44D-01  1.05D+00
                    CP:  2.95D-01  3.01D-01  4.16D-01  9.72D-01 -1.02D-01
                    CP:  9.74D-01  1.03D-01  7.51D-01  8.07D-01  1.27D+00
                    CP:  2.79D+00
 E= -1607.54475719946     Delta-E=       -0.000949166032 Rises=F Damp=F
 DIIS: error= 5.08D-03 at cycle  17 NSaved=  17.
 NSaved=17 IEnMin=11 EnMin= -1607.54857004490     IErMin=12 ErrMin= 3.56D-03
 ErrMax= 5.08D-03  0.00D+00 EMaxC= 1.00D-01 BMatC= 2.87D-02 BMatP= 1.21D-02
 IDIUse=3 WtCom= 9.60D-01 WtEn= 4.04D-02
 EnCoef did   100 forward-backward iterations
 Rare condition: small coef for last iteration: -0.397D-15
 Coeff-Com:  0.645D-02-0.525D-02 0.427D-02-0.138D-01 0.446D-02-0.828D-01
 Coeff-Com:  0.571D-01 0.266D-01 0.692D-01-0.188D+00 0.239D+00 0.550D+00
 Coeff-Com: -0.740D+00 0.542D+01-0.574D+01-0.641D+00 0.203D+01
 Coeff-En:   0.000D+00 0.000D+00 0.000D+00 0.000D+00 0.000D+00 0.000D+00
 Coeff-En:   0.178D-02 0.000D+00 0.140D-01 0.000D+00 0.110D+00 0.486D+00
 Coeff-En:   0.000D+00 0.000D+00 0.000D+00 0.000D+00 0.388D+00
 Coeff:      0.645D-02-0.525D-02 0.427D-02-0.138D-01 0.446D-02-0.828D-01
 Coeff:      0.571D-01 0.266D-01 0.692D-01-0.188D+00 0.239D+00 0.550D+00
 Coeff:     -0.740D+00 0.542D+01-0.574D+01-0.641D+00 0.203D+01
 Gap=    -0.000 Goal=   None    Shift=    0.000
 Gap=     0.166 Goal=   None    Shift=    0.000
 RMSDP=3.77D-03 MaxDP=3.54D-01 DE=-9.49D-04 OVMax= 9.33D-01

 Cycle  18  Pass 1  IDiag  1:
 RMSU=  1.04D-05    CP:  7.25D-01  1.32D+00  8.82D-01  9.56D-01  9.20D-02
                    CP:  1.06D+00  2.24D-01  2.44D-01 -5.26D-01  8.63D-01
                    CP:  3.69D-01 -1.42D-02 -1.01D-01  3.50D-01 -1.85D+00
                    CP: -1.15D+00  3.12D-01
 E= -1607.54801434256     Delta-E=       -0.003257143103 Rises=F Damp=F
 DIIS: error= 4.20D-03 at cycle  18 NSaved=  18.
 NSaved=18 IEnMin=11 EnMin= -1607.54857004490     IErMin=12 ErrMin= 3.56D-03
 ErrMax= 4.20D-03  0.00D+00 EMaxC= 1.00D-01 BMatC= 1.50D-02 BMatP= 1.21D-02
 IDIUse=3 WtCom= 9.60D-01 WtEn= 4.04D-02
 EnCoef did   100 forward-backward iterations
 Rare condition: small coef for last iteration:  0.000D+00
 Coeff-Com:  0.744D-02-0.638D-02 0.594D-02-0.108D-01 0.128D-01-0.575D-01
 Coeff-Com:  0.475D-01 0.529D-01 0.127D+00-0.202D+00-0.666D-01 0.145D+00
 Coeff-Com: -0.120D+01 0.774D+01-0.789D+01-0.163D+01 0.339D+01 0.538D+00
 Coeff-En:   0.000D+00 0.000D+00 0.000D+00 0.000D+00 0.000D+00 0.000D+00
 Coeff-En:   0.000D+00 0.106D-01 0.725D-01 0.000D+00 0.000D+00 0.850D-01
 Coeff-En:   0.000D+00 0.630D-02 0.191D-02 0.187D-01 0.337D+00 0.468D+00
 Coeff:      0.744D-02-0.638D-02 0.594D-02-0.108D-01 0.128D-01-0.575D-01
 Coeff:      0.475D-01 0.529D-01 0.127D+00-0.202D+00-0.666D-01 0.145D+00
 Coeff:     -0.120D+01 0.774D+01-0.789D+01-0.163D+01 0.339D+01 0.538D+00
 Gap=     0.001 Goal=   None    Shift=    0.000
 Gap=     0.166 Goal=   None    Shift=    0.000
 RMSDP=7.23D-04 MaxDP=5.44D-02 DE=-3.26D-03 OVMax= 1.78D-01

 Cycle  19  Pass 1  IDiag  1:
 RMSU=  8.06D-06    CP:  7.25D-01  1.32D+00  8.80D-01  9.75D-01  7.79D-04
                    CP:  1.02D+00 -2.53D-01  3.88D-01 -4.60D-01  7.62D-01
                    CP: -5.38D-02 -6.36D-01 -2.72D-01  1.08D+00 -3.00D+00
                    CP:  6.54D-01  1.28D+00  1.63D+00
 E= -1607.54646176712     Delta-E=        0.001552575446 Rises=F Damp=F
 DIIS: error= 4.30D-03 at cycle  19 NSaved=  19.
 NSaved=19 IEnMin=11 EnMin= -1607.54857004490     IErMin=12 ErrMin= 3.56D-03
 ErrMax= 4.30D-03  0.00D+00 EMaxC= 1.00D-01 BMatC= 2.21D-02 BMatP= 1.21D-02
 IDIUse=3 WtCom= 9.60D-01 WtEn= 4.04D-02
 EnCoef did   100 forward-backward iterations
 Coeff-Com:  0.274D-02-0.767D-03 0.154D-02-0.189D-01 0.373D-02-0.989D-01
 Coeff-Com: -0.436D-02 0.855D-01 0.327D+00 0.267D-01-0.395D+00 0.129D+01
 Coeff-Com: -0.826D+00 0.277D+01-0.705D+01 0.310D+01 0.212D+01 0.154D+01
 Coeff-Com: -0.188D+01
 Coeff-En:   0.000D+00 0.000D+00 0.000D+00 0.000D+00 0.000D+00 0.000D+00
 Coeff-En:   0.000D+00 0.758D-02 0.220D+00 0.971D-03 0.399D+00 0.249D+00
 Coeff-En:   0.425D-06 0.117D+00 0.744D-03 0.128D-02 0.101D-02 0.332D-02
 Coeff-En:   0.316D-04
 Coeff:      0.263D-02-0.736D-03 0.148D-02-0.181D-01 0.358D-02-0.949D-01
 Coeff:     -0.418D-02 0.823D-01 0.323D+00 0.257D-01-0.363D+00 0.125D+01
 Coeff:     -0.792D+00 0.266D+01-0.676D+01 0.298D+01 0.203D+01 0.148D+01
 Coeff:     -0.180D+01
 Gap=    -0.001 Goal=   None    Shift=    0.000
 Gap=     0.167 Goal=   None    Shift=    0.000
 RMSDP=3.93D-03 MaxDP=3.39D-01 DE= 1.55D-03 OVMax= 9.73D-01

 Cycle  20  Pass 1  IDiag  1:
 RMSU=  6.49D-06    CP:  7.25D-01  1.32D+00  9.63D-01  1.60D-01  1.04D+00
                    CP:  3.28D-01  4.04D-01  3.95D-01  8.47D-01  6.12D-02
                    CP:  1.10D+00  8.52D-01  9.70D-01 -2.09D-01  3.00D+00
                    CP:  2.91D+00 -8.79D-01  1.66D-01 -2.87D-01
 E= -1607.54431931514     Delta-E=        0.002142451975 Rises=F Damp=F
 DIIS: error= 5.21D-03 at cycle  20 NSaved=  20.
 NSaved=20 IEnMin=11 EnMin= -1607.54857004490     IErMin=12 ErrMin= 3.56D-03
 ErrMax= 5.21D-03  0.00D+00 EMaxC= 1.00D-01 BMatC= 3.22D-02 BMatP= 1.21D-02
 IDIUse=3 WtCom= 9.60D-01 WtEn= 4.04D-02
 Large coefficients: NSaved= 20 BigCof=   11.90 CofMax=   10.00 Det=-2.04D-08
 Inversion failed.  Reducing to 19 matrices.
 Large coefficients: NSaved= 19 BigCof=   12.20 CofMax=   10.00 Det=-2.05D-08
 Inversion failed.  Reducing to 18 matrices.
 Large coefficients: NSaved= 18 BigCof=   12.75 CofMax=   10.00 Det=-2.06D-08
 Inversion failed.  Reducing to 17 matrices.
 Large coefficients: NSaved= 17 BigCof=   11.59 CofMax=   10.00 Det=-2.44D-08
 Inversion failed.  Reducing to 16 matrices.
 EnCoef did   100 forward-backward iterations
 Rare condition: small coef for last iteration:  0.889D-16
 Coeff-Com: -0.832D-02-0.755D-01-0.106D+00 0.634D-01 0.459D+00-0.314D+00
 Coeff-Com: -0.175D+00 0.180D+01-0.118D+00-0.171D+01-0.376D+01 0.481D+01
 Coeff-Com:  0.852D+00 0.154D+01-0.209D+01-0.159D+00
 Coeff-En:   0.000D+00 0.000D+00 0.868D-02 0.000D+00 0.179D-01 0.000D+00
 Coeff-En:   0.343D-01 0.868D-02 0.000D+00 0.000D+00 0.000D+00 0.000D+00
 Coeff-En:   0.105D-01 0.104D-01 0.494D+00 0.415D+00
 Coeff:     -0.832D-02-0.755D-01-0.106D+00 0.634D-01 0.459D+00-0.314D+00
 Coeff:     -0.175D+00 0.180D+01-0.118D+00-0.171D+01-0.376D+01 0.481D+01
 Coeff:      0.852D+00 0.154D+01-0.209D+01-0.159D+00
 Gap=     0.002 Goal=   None    Shift=    0.000
 Gap=     0.166 Goal=   None    Shift=    0.000
 RMSDP=2.08D-04 MaxDP=1.18D-02 DE= 2.14D-03 OVMax= 5.00D-02

 Cycle  21  Pass 1  IDiag  1:
 Restarting incremental Fock formation.
 E= -1607.54291177861     Delta-E=        0.001407536534 Rises=F Damp=F
 DIIS: error= 6.01D-03 at cycle  21 NSaved=  17.
 NSaved=17 IEnMin= 7 EnMin= -1607.54857004490     IErMin= 8 ErrMin= 3.56D-03
 ErrMax= 6.01D-03  0.00D+00 EMaxC= 1.00D-01 BMatC= 4.01D-02 BMatP= 1.21D-02
 IDIUse=3 WtCom= 9.60D-01 WtEn= 4.04D-02
 EnCoef did   100 forward-backward iterations
 Rare condition: small coef for last iteration:  0.000D+00
 Coeff-Com:  0.124D-01-0.101D+00-0.135D+00 0.878D-01 0.121D+00-0.116D+00
 Coeff-Com: -0.340D+00 0.207D+01-0.568D+00 0.729D+01-0.384D+01-0.638D+01
 Coeff-Com:  0.249D+01 0.183D+01-0.263D+01 0.185D+00 0.102D+01
 Coeff-En:   0.000D+00 0.000D+00 0.174D-01 0.000D+00 0.263D-01 0.000D+00
 Coeff-En:   0.781D-01 0.136D-01 0.000D+00 0.000D+00 0.000D+00 0.000D+00
 Coeff-En:   0.290D-01 0.292D-01 0.456D+00 0.000D+00 0.350D+00
 Coeff:      0.124D-01-0.101D+00-0.135D+00 0.878D-01 0.121D+00-0.116D+00
 Coeff:     -0.340D+00 0.207D+01-0.568D+00 0.729D+01-0.384D+01-0.638D+01
 Coeff:      0.249D+01 0.183D+01-0.263D+01 0.185D+00 0.102D+01
 Gap=     0.004 Goal=   None    Shift=    0.000
 Gap=     0.165 Goal=   None    Shift=    0.000
 RMSDP=1.88D-04 MaxDP=1.02D-02 DE= 1.41D-03 OVMax= 4.43D-02

 Cycle  22  Pass 1  IDiag  1:
 RMSU=  1.88D-04    CP:  1.00D+00
 E= -1607.54122027146     Delta-E=        0.001691507148 Rises=F Damp=F
 DIIS: error= 7.01D-03 at cycle  22 NSaved=  18.
 NSaved=18 IEnMin= 7 EnMin= -1607.54857004490     IErMin= 8 ErrMin= 3.56D-03
 ErrMax= 7.01D-03  0.00D+00 EMaxC= 1.00D-01 BMatC= 5.00D-02 BMatP= 1.21D-02
 IDIUse=3 WtCom= 9.60D-01 WtEn= 4.04D-02
 EnCoef did   100 forward-backward iterations
 Rare condition: small coef for last iteration:  0.000D+00
 Coeff-Com: -0.525D-02-0.433D-01-0.108D+00 0.484D-01 0.207D+00-0.356D+00
 Coeff-Com:  0.175D-01 0.146D+01 0.237D+00-0.791D+00-0.511D+00 0.140D+01
 Coeff-Com:  0.227D+00 0.978D+00-0.147D+01 0.253D+00 0.891D+00-0.144D+01
 Coeff-En:   0.000D+00 0.000D+00 0.294D-01 0.000D+00 0.372D-01 0.000D+00
 Coeff-En:   0.111D+00 0.253D-01 0.000D+00 0.000D+00 0.000D+00 0.000D+00
 Coeff-En:   0.499D-01 0.438D-01 0.414D+00 0.000D+00 0.000D+00 0.289D+00
 Coeff:     -0.525D-02-0.433D-01-0.108D+00 0.484D-01 0.207D+00-0.356D+00
 Coeff:      0.175D-01 0.146D+01 0.237D+00-0.791D+00-0.511D+00 0.140D+01
 Coeff:      0.227D+00 0.978D+00-0.147D+01 0.253D+00 0.891D+00-0.144D+01
 Gap=    -0.000 Goal=   None    Shift=    0.000
 Gap=     0.169 Goal=   None    Shift=    0.000
 RMSDP=3.12D-03 MaxDP=2.95D-01 DE= 1.69D-03 OVMax= 7.68D-01

 Cycle  23  Pass 1  IDiag  1:
 RMSU=  2.67D-03    CP:  9.88D-01 -3.00D+00
 E= -1607.54859990682     Delta-E=       -0.007379635364 Rises=F Damp=F
 DIIS: error= 4.17D-03 at cycle  23 NSaved=  19.
 NSaved=19 IEnMin=19 EnMin= -1607.54859990682     IErMin= 8 ErrMin= 3.56D-03
 ErrMax= 4.17D-03  0.00D+00 EMaxC= 1.00D-01 BMatC= 1.18D-02 BMatP= 1.21D-02
 IDIUse=3 WtCom= 9.60D-01 WtEn= 4.04D-02
 EnCoef did   100 forward-backward iterations
 Coeff-Com: -0.729D-02-0.851D-03-0.137D+00-0.556D-01 0.315D+00-0.212D+00
 Coeff-Com: -0.116D+01 0.143D+01 0.454D+00-0.272D+01 0.229D+01 0.133D+01
 Coeff-Com: -0.933D+00 0.582D+00-0.127D+01 0.139D+01 0.113D+00-0.169D+01
 Coeff-Com:  0.128D+01
 Coeff-En:   0.000D+00 0.000D+00 0.349D-03 0.433D-02 0.181D+00 0.329D-02
 Coeff-En:   0.762D-01 0.287D+00 0.941D-03 0.147D+00 0.293D-03 0.320D-03
 Coeff-En:   0.345D-03 0.680D-03 0.885D-03 0.238D-02 0.175D-03 0.625D-02
 Coeff-En:   0.288D+00
 Coeff:     -0.700D-02-0.817D-03-0.131D+00-0.532D-01 0.310D+00-0.203D+00
 Coeff:     -0.111D+01 0.139D+01 0.435D+00-0.260D+01 0.219D+01 0.128D+01
 Coeff:     -0.895D+00 0.558D+00-0.122D+01 0.134D+01 0.109D+00-0.162D+01
 Coeff:      0.124D+01
 Gap=     0.001 Goal=   None    Shift=    0.000
 Gap=     0.166 Goal=   None    Shift=    0.000
 RMSDP=1.99D-03 MaxDP=1.56D-01 DE=-7.38D-03 OVMax= 4.92D-01

 Cycle  24  Pass 1  IDiag  1:
 RMSU=  1.85D-03    CP:  9.81D-01 -3.00D+00  1.27D+00
 E= -1607.54651924120     Delta-E=        0.002080665626 Rises=F Damp=F
 DIIS: error= 4.48D-03 at cycle  24 NSaved=  20.
 NSaved=20 IEnMin=19 EnMin= -1607.54859990682     IErMin= 8 ErrMin= 3.56D-03
 ErrMax= 4.48D-03  0.00D+00 EMaxC= 1.00D-01 BMatC= 2.25D-02 BMatP= 1.18D-02
 IDIUse=3 WtCom= 9.60D-01 WtEn= 4.04D-02
 EnCoef did   100 forward-backward iterations
 Rare condition: small coef for last iteration:  0.218D-14
 Coeff-Com: -0.877D-02 0.116D-01-0.136D+00-0.616D-01 0.303D+00-0.183D+00
 Coeff-Com: -0.124D+01 0.154D+01 0.494D+00-0.315D+01 0.239D+01 0.172D+01
 Coeff-Com: -0.917D+00 0.611D+00-0.904D+00 0.112D+01 0.655D-02-0.146D+01
 Coeff-Com:  0.141D+01-0.538D+00
 Coeff-En:   0.000D+00 0.000D+00 0.335D-02 0.152D-01 0.101D+00 0.000D+00
 Coeff-En:   0.000D+00 0.138D+00 0.000D+00 0.832D-02 0.251D-02 0.245D-01
 Coeff-En:   0.821D-01 0.000D+00 0.105D+00 0.000D+00 0.000D+00 0.154D+00
 Coeff-En:   0.244D+00 0.123D+00
 Coeff:     -0.877D-02 0.116D-01-0.136D+00-0.616D-01 0.303D+00-0.183D+00
 Coeff:     -0.124D+01 0.154D+01 0.494D+00-0.315D+01 0.239D+01 0.172D+01
 Coeff:     -0.917D+00 0.611D+00-0.904D+00 0.112D+01 0.655D-02-0.146D+01
 Coeff:      0.141D+01-0.538D+00
 Gap=     0.001 Goal=   None    Shift=    0.000
 Gap=     0.166 Goal=   None    Shift=    0.000
 RMSDP=3.34D-04 MaxDP=2.50D-02 DE= 2.08D-03 OVMax= 8.21D-02

 Cycle  25  Pass 1  IDiag  1:
 RMSU=  9.76D-06    CP:  9.82D-01 -3.00D+00  1.27D+00  8.21D-01
 E= -1607.54734104747     Delta-E=       -0.000821806274 Rises=F Damp=F
 DIIS: error= 4.45D-03 at cycle  25 NSaved=  20.
 NSaved=20 IEnMin=18 EnMin= -1607.54859990682     IErMin= 7 ErrMin= 3.56D-03
 ErrMax= 4.45D-03  0.00D+00 EMaxC= 1.00D-01 BMatC= 1.86D-02 BMatP= 1.18D-02
 IDIUse=3 WtCom= 9.60D-01 WtEn= 4.04D-02
 EnCoef did   100 forward-backward iterations
 Coeff-Com:  0.472D-01-0.136D+00-0.444D-02 0.168D+00 0.559D-01-0.150D+01
 Coeff-Com:  0.162D+01 0.575D+00-0.313D+01 0.385D+01 0.425D+00-0.129D+01
 Coeff-Com: -0.939D+00 0.912D+00 0.133D+01 0.145D+00-0.164D+01 0.156D+01
 Coeff-Com: -0.494D+01 0.389D+01
 Coeff-En:   0.000D+00 0.322D-02 0.487D-02 0.188D+00 0.640D-03 0.437D-01
 Coeff-En:   0.284D+00 0.105D-02 0.144D+00 0.159D-03 0.578D-04 0.555D-03
 Coeff-En:   0.107D-02 0.425D-03 0.755D-03 0.453D-05 0.291D-02 0.324D+00
 Coeff-En:   0.000D+00 0.922D-03
 Coeff:      0.453D-01-0.130D+00-0.406D-02 0.169D+00 0.536D-01-0.144D+01
 Coeff:      0.156D+01 0.552D+00-0.300D+01 0.370D+01 0.408D+00-0.124D+01
 Coeff:     -0.901D+00 0.875D+00 0.128D+01 0.139D+00-0.157D+01 0.151D+01
 Coeff:     -0.474D+01 0.374D+01
 Gap=     0.000 Goal=   None    Shift=    0.000
 Gap=     0.166 Goal=   None    Shift=    0.000
 RMSDP=1.84D-03 MaxDP=1.41D-01 DE=-8.22D-04 OVMax= 4.55D-01

 Cycle  26  Pass 1  IDiag  1:
 RMSU=  6.11D-06    CP:  9.89D-01 -3.00D+00  9.52D-01 -5.19D-02 -3.55D-01
 E= -1607.54850597568     Delta-E=       -0.001164928211 Rises=F Damp=F
 DIIS: error= 4.52D-03 at cycle  26 NSaved=  20.
 NSaved=20 IEnMin=17 EnMin= -1607.54859990682     IErMin= 7 ErrMin= 3.56D-03
 ErrMax= 4.52D-03  0.00D+00 EMaxC= 1.00D-01 BMatC= 1.21D-02 BMatP= 1.18D-02
 IDIUse=3 WtCom= 9.60D-01 WtEn= 4.04D-02
 EnCoef did   100 forward-backward iterations
 Coeff-Com:  0.888D-01-0.209D+00 0.148D-02 0.540D-01 0.384D+00-0.237D+01
 Coeff-Com:  0.238D+01 0.730D+00-0.334D+01 0.526D+01-0.124D+01-0.137D+01
 Coeff-Com: -0.121D+01 0.208D+01 0.593D+00-0.645D+00 0.124D+01-0.811D+01
 Coeff-Com:  0.535D+01 0.132D+01
 Coeff-En:   0.000D+00 0.340D-02 0.514D-02 0.251D+00 0.675D-03 0.447D-03
 Coeff-En:   0.256D+00 0.111D-02 0.771D-01 0.168D-03 0.610D-04 0.586D-03
 Coeff-En:   0.113D-02 0.449D-03 0.796D-03 0.478D-05 0.272D+00 0.000D+00
 Coeff-En:   0.972D-03 0.130D+00
 Coeff:      0.852D-01-0.201D+00 0.163D-02 0.620D-01 0.369D+00-0.228D+01
 Coeff:      0.230D+01 0.700D+00-0.320D+01 0.505D+01-0.119D+01-0.131D+01
 Coeff:     -0.116D+01 0.200D+01 0.569D+00-0.619D+00 0.120D+01-0.778D+01
 Coeff:      0.514D+01 0.127D+01
 Gap=    -0.000 Goal=   None    Shift=    0.000
 Gap=     0.168 Goal=   None    Shift=    0.000
 RMSDP=3.01D-03 MaxDP=2.82D-01 DE=-1.16D-03 OVMax= 7.40D-01

 Cycle  27  Pass 1  IDiag  1:
 RMSU=  4.47D-06    CP:  1.00D+00  9.25D-01 -1.60D-05 -3.69D-04  2.78D-01
                    CP:  7.44D-01
 E= -1607.54130303271     Delta-E=        0.007202942974 Rises=F Damp=F
 DIIS: error= 6.96D-03 at cycle  27 NSaved=  20.
 NSaved=20 IEnMin=16 EnMin= -1607.54859990682     IErMin= 6 ErrMin= 3.56D-03
 ErrMax= 6.96D-03  0.00D+00 EMaxC= 1.00D-01 BMatC= 4.96D-02 BMatP= 1.18D-02
 IDIUse=3 WtCom= 9.60D-01 WtEn= 4.04D-02
 EnCoef did   100 forward-backward iterations
 Coeff-Com:  0.764D-01-0.140D+00 0.127D+00 0.205D+00-0.187D+01 0.151D+01
 Coeff-Com:  0.417D+00-0.269D+01 0.349D+01 0.468D+00-0.111D+01-0.158D+01
 Coeff-Com:  0.145D+01 0.151D+01-0.410D+00 0.573D+00-0.632D+01 0.542D+01
 Coeff-Com:  0.126D+01-0.139D+01
 Coeff-En:   0.000D+00 0.368D-02 0.318D+00 0.418D-02 0.484D-03 0.231D+00
 Coeff-En:   0.120D-02 0.389D-04 0.182D-03 0.660D-04 0.634D-03 0.122D-02
 Coeff-En:   0.486D-03 0.863D-03 0.517D-05 0.160D+00 0.000D+00 0.105D-02
 Coeff-En:   0.270D+00 0.556D-02
 Coeff:      0.733D-01-0.134D+00 0.135D+00 0.197D+00-0.180D+01 0.145D+01
 Coeff:      0.400D+00-0.258D+01 0.335D+01 0.450D+00-0.107D+01-0.152D+01
 Coeff:      0.139D+01 0.145D+01-0.393D+00 0.556D+00-0.607D+01 0.520D+01
 Coeff:      0.122D+01-0.133D+01
 Gap=    -0.000 Goal=   None    Shift=    0.000
 Gap=     0.169 Goal=   None    Shift=    0.000
 RMSDP=3.60D-03 MaxDP=3.46D-01 DE= 7.20D-03 OVMax= 8.87D-01

 Cycle  28  Pass 1  IDiag  1:
 RMSU=  4.99D-06    CP:  9.84D-01 -3.00D+00  1.20D+00  3.67D-01 -2.27D-01
                    CP:  7.99D-01 -2.29D-01
 E= -1607.54833811316     Delta-E=       -0.007035080456 Rises=F Damp=F
 DIIS: error= 4.22D-03 at cycle  28 NSaved=  20.
 NSaved=20 IEnMin=15 EnMin= -1607.54859990682     IErMin= 6 ErrMin= 3.56D-03
 ErrMax= 4.22D-03  0.00D+00 EMaxC= 1.00D-01 BMatC= 1.40D-02 BMatP= 1.18D-02
 IDIUse=3 WtCom= 9.60D-01 WtEn= 4.04D-02
 EnCoef did   100 forward-backward iterations
 Rare condition: small coef for last iteration:  0.484D-05
 Coeff-Com:  0.340D-01-0.109D+00 0.131D+00 0.127D+00-0.147D+01 0.149D+01
 Coeff-Com:  0.132D+00-0.528D+00 0.169D+01-0.472D+00-0.421D+00-0.911D+00
 Coeff-Com:  0.555D+00 0.139D+01 0.597D+00-0.490D+01 0.455D+01 0.870D+00
 Coeff-Com: -0.146D+01-0.301D+00
 Coeff-En:   0.000D+00 0.000D+00 0.959D-01 0.000D+00 0.000D+00 0.127D+00
 Coeff-En:   0.000D+00 0.779D-02 0.235D-02 0.230D-01 0.705D-01 0.000D+00
 Coeff-En:   0.757D-01 0.608D-01 0.000D+00 0.208D-01 0.694D-01 0.000D+00
 Coeff-En:   0.154D+00 0.292D+00
 Coeff:      0.340D-01-0.109D+00 0.131D+00 0.127D+00-0.147D+01 0.149D+01
 Coeff:      0.132D+00-0.528D+00 0.169D+01-0.472D+00-0.421D+00-0.911D+00
 Coeff:      0.555D+00 0.139D+01 0.597D+00-0.490D+01 0.455D+01 0.870D+00
 Coeff:     -0.146D+01-0.301D+00
 Gap=     0.001 Goal=   None    Shift=    0.000
 Gap=     0.166 Goal=   None    Shift=    0.000
 RMSDP=2.05D-04 MaxDP=1.57D-02 DE=-7.04D-03 OVMax= 5.07D-02

 Cycle  29  Pass 1  IDiag  1:
 RMSU=  1.32D-06    CP:  9.85D-01 -3.00D+00  1.16D+00  2.71D-01 -4.27D-01
                    CP:  9.33D-01 -1.56D-01  8.26D-01
 E= -1607.54845258581     Delta-E=       -0.000114472648 Rises=F Damp=F
 DIIS: error= 4.04D-03 at cycle  29 NSaved=  20.
 NSaved=20 IEnMin=15 EnMin= -1607.54859990682     IErMin= 6 ErrMin= 3.56D-03
 ErrMax= 4.04D-03  0.00D+00 EMaxC= 1.00D-01 BMatC= 1.33D-02 BMatP= 1.18D-02
 IDIUse=3 WtCom= 9.60D-01 WtEn= 4.04D-02
 EnCoef did   100 forward-backward iterations
 Coeff-Com:  0.338D-01-0.164D+00 0.540D-01 0.331D+00-0.193D+01 0.246D+01
 Coeff-Com:  0.292D+00-0.562D+00 0.263D+01-0.213D+01-0.474D+00-0.317D+00
 Coeff-Com:  0.989D+00 0.263D+00 0.131D+01-0.653D+01 0.441D+01 0.665D+00
 Coeff-Com: -0.167D+01 0.134D+01
 Coeff-En:   0.000D+00 0.000D+00 0.228D+00 0.311D-03 0.347D-03 0.279D+00
 Coeff-En:   0.594D-03 0.974D-01 0.111D-02 0.425D-03 0.759D-03 0.000D+00
 Coeff-En:   0.549D-02 0.122D-02 0.486D-03 0.531D-02 0.330D-02 0.375D+00
 Coeff-En:   0.000D+00 0.120D-02
 Coeff:      0.325D-01-0.157D+00 0.611D-01 0.317D+00-0.185D+01 0.238D+01
 Coeff:      0.280D+00-0.535D+00 0.253D+01-0.205D+01-0.455D+00-0.304D+00
 Coeff:      0.950D+00 0.253D+00 0.126D+01-0.627D+01 0.423D+01 0.653D+00
 Coeff:     -0.160D+01 0.129D+01
 Gap=    -0.002 Goal=   None    Shift=    0.000
 Gap=     0.168 Goal=   None    Shift=    0.000
 RMSDP=3.50D-03 MaxDP=3.37D-01 DE=-1.14D-04 OVMax= 8.62D-01

 Cycle  30  Pass 1  IDiag  1:
 RMSU=  6.21D-06    CP:  1.00D+00  9.56D-01  1.44D-03 -4.17D-03  2.34D+00
                    CP: -2.61D-01  1.39D+00 -1.04D+00 -2.27D+00
 E= -1607.54062536681     Delta-E=        0.007827219005 Rises=F Damp=F
 DIIS: error= 7.23D-03 at cycle  30 NSaved=  20.
 NSaved=20 IEnMin=14 EnMin= -1607.54859990682     IErMin= 5 ErrMin= 3.56D-03
 ErrMax= 7.23D-03  0.00D+00 EMaxC= 1.00D-01 BMatC= 5.39D-02 BMatP= 1.18D-02
 IDIUse=3 WtCom= 9.60D-01 WtEn= 4.04D-02
 EnCoef did   100 forward-backward iterations
 Coeff-Com:  0.441D-01-0.115D+00 0.273D+00-0.164D+01 0.167D+01 0.304D+00
 Coeff-Com: -0.135D+01 0.324D+01-0.754D+00-0.111D+01-0.126D+01 0.984D+00
 Coeff-Com:  0.124D+01 0.537D+00-0.586D+01 0.542D+01 0.875D+00-0.321D+01
 Coeff-Com:  0.293D+01-0.121D+01
 Coeff-En:   0.000D+00 0.000D+00 0.000D+00 0.122D-03 0.413D+00 0.145D-02
 Coeff-En:   0.334D+00 0.593D-04 0.119D-04 0.248D-02 0.208D-04 0.193D-03
 Coeff-En:   0.438D-03 0.133D-03 0.297D-03 0.185D-02 0.241D+00 0.288D-03
 Coeff-En:   0.396D-04 0.360D-02
 Coeff:      0.423D-01-0.111D+00 0.262D+00-0.158D+01 0.162D+01 0.292D+00
 Coeff:     -0.128D+01 0.311D+01-0.723D+00-0.106D+01-0.121D+01 0.945D+00
 Coeff:      0.119D+01 0.515D+00-0.562D+01 0.520D+01 0.849D+00-0.308D+01
 Coeff:      0.281D+01-0.116D+01
 Gap=     0.000 Goal=   None    Shift=    0.000
 Gap=     0.169 Goal=   None    Shift=    0.000
 RMSDP=2.24D-03 MaxDP=1.91D-01 DE= 7.83D-03 OVMax= 5.48D-01

 Cycle  31  Pass 1  IDiag  1:
 RMSU=  1.10D-05    CP:  9.93D-01 -3.00D+00  5.99D-01 -2.37D-01  4.32D-01
                    CP:  1.88D-01  9.45D-01 -3.00D+00 -7.38D-01 -1.01D-01
 E= -1607.54799318478     Delta-E=       -0.007367817972 Rises=F Damp=F
 DIIS: error= 5.91D-03 at cycle  31 NSaved=  20.
 NSaved=20 IEnMin=13 EnMin= -1607.54859990682     IErMin= 5 ErrMin= 3.56D-03
 ErrMax= 5.91D-03  0.00D+00 EMaxC= 1.00D-01 BMatC= 1.36D-02 BMatP= 1.18D-02
 IDIUse=3 WtCom= 9.60D-01 WtEn= 4.04D-02
 EnCoef did   100 forward-backward iterations
 Coeff-Com:  0.251D-01-0.718D-01 0.203D+00-0.125D+01 0.116D+01 0.316D-01
 Coeff-Com:  0.145D+01 0.178D+00-0.112D+01 0.360D-01-0.426D+00 0.911D+00
 Coeff-Com:  0.512D+00-0.319D+01 0.351D+01-0.743D+00-0.209D+01 0.197D+01
 Coeff-Com: -0.130D+01 0.119D+01
 Coeff-En:   0.000D+00 0.000D+00 0.000D+00 0.000D+00 0.437D+00 0.137D+00
 Coeff-En:   0.186D+00 0.814D-02 0.140D-02 0.000D+00 0.168D-02 0.426D-02
 Coeff-En:   0.971D-04 0.279D-03 0.114D-03 0.206D+00 0.391D-03 0.241D-02
 Coeff-En:   0.141D-01 0.243D-03
 Coeff:      0.241D-01-0.689D-01 0.195D+00-0.120D+01 0.113D+01 0.359D-01
 Coeff:      0.140D+01 0.171D+00-0.108D+01 0.346D-01-0.408D+00 0.874D+00
 Coeff:      0.491D+00-0.306D+01 0.337D+01-0.705D+00-0.200D+01 0.190D+01
 Coeff:     -0.124D+01 0.114D+01
 Gap=    -0.000 Goal=   None    Shift=    0.000
 Gap=     0.166 Goal=   None    Shift=    0.000
 RMSDP=3.23D-03 MaxDP=2.45D-01 DE=-7.37D-03 OVMax= 8.00D-01

 Cycle  32  Pass 1  IDiag  1:
 RMSU=  3.56D-05    CP:  9.81D-01 -1.56D+00  1.27D+00  1.14D+00 -3.00D+00
                    CP:  2.67D+00 -2.14D+00  3.00D+00  3.00D+00 -2.83D+00
                    CP:  5.25D-03
 E= -1607.54579202181     Delta-E=        0.002201162972 Rises=F Damp=F
 DIIS: error= 5.13D-03 at cycle  32 NSaved=  20.
 NSaved=20 IEnMin=13 EnMin= -1607.54859990682     IErMin= 5 ErrMin= 3.56D-03
 ErrMax= 5.13D-03  0.00D+00 EMaxC= 1.00D-01 BMatC= 2.48D-02 BMatP= 1.18D-02
 IDIUse=3 WtCom= 9.60D-01 WtEn= 4.04D-02
 Large coefficients: NSaved= 20 BigCof=   12.23 CofMax=   10.00 Det=-5.62D-08
 Inversion failed.  Reducing to 19 matrices.
 Large coefficients: NSaved= 19 BigCof=   11.64 CofMax=   10.00 Det=-5.82D-08
 Inversion failed.  Reducing to 18 matrices.
 Large coefficients: NSaved= 18 BigCof=   11.65 CofMax=   10.00 Det=-8.26D-08
 Inversion failed.  Reducing to 17 matrices.
 EnCoef did   100 forward-backward iterations
 Coeff-Com:  0.173D-01-0.292D-01 0.246D+00-0.808D+00 0.121D+01 0.109D+00
 Coeff-Com:  0.122D+01-0.543D+00-0.615D-01 0.135D+01-0.969D+01 0.621D+01
 Coeff-Com: -0.395D+00 0.293D+01-0.379D+01 0.271D+00 0.276D+01
 Coeff-En:   0.000D+00 0.000D+00 0.000D+00 0.000D+00 0.443D+00 0.357D+00
 Coeff-En:   0.000D+00 0.191D-02 0.362D-02 0.000D+00 0.544D-02 0.000D+00
 Coeff-En:   0.000D+00 0.000D+00 0.000D+00 0.132D+00 0.572D-01
 Coeff:      0.166D-01-0.280D-01 0.236D+00-0.775D+00 0.118D+01 0.119D+00
 Coeff:      0.117D+01-0.521D+00-0.588D-01 0.129D+01-0.930D+01 0.596D+01
 Coeff:     -0.379D+00 0.282D+01-0.363D+01 0.265D+00 0.265D+01
 Gap=    -0.004 Goal=   None    Shift=    0.000
 Gap=     0.170 Goal=   None    Shift=    0.000
 RMSDP=4.05D-03 MaxDP=3.64D-01 DE= 2.20D-03 OVMax= 9.99D-01

 Cycle  33  Pass 1  IDiag  1:
 RMSU=  1.53D-05    CP:  1.00D+00  2.91D+00  1.07D-02  2.62D-02 -3.00D+00
                    CP:  3.00D+00 -3.00D+00  2.21D+00  3.00D+00 -3.00D+00
                    CP:  1.55D+00  1.18D+00
 E= -1607.53962630208     Delta-E=        0.006165719730 Rises=F Damp=F
 DIIS: error= 8.23D-03 at cycle  33 NSaved=  18.
 NSaved=18 IEnMin=10 EnMin= -1607.54859990682     IErMin= 5 ErrMin= 3.56D-03
 ErrMax= 8.23D-03  0.00D+00 EMaxC= 1.00D-01 BMatC= 5.83D-02 BMatP= 1.18D-02
 IDIUse=3 WtCom= 9.60D-01 WtEn= 4.04D-02
 Large coefficients: NSaved= 18 BigCof=   10.68 CofMax=   10.00 Det=-1.07D-07
 Inversion failed.  Reducing to 17 matrices.
 Large coefficients: NSaved= 17 BigCof=   10.26 CofMax=   10.00 Det=-1.03D-07
 Inversion failed.  Reducing to 16 matrices.
 EnCoef did   100 forward-backward iterations
 Coeff-Com: -0.547D-02 0.164D+00-0.484D+00 0.100D+01 0.298D+00 0.146D+01
 Coeff-Com: -0.947D+00 0.133D+01-0.975D+01 0.643D+01-0.135D+00 0.338D+01
 Coeff-Com: -0.471D+01-0.378D-01 0.315D+01-0.138D+00
 Coeff-En:   0.000D+00 0.000D+00 0.000D+00 0.509D+00 0.356D+00 0.000D+00
 Coeff-En:   0.159D-02 0.800D-03 0.417D-04 0.000D+00 0.634D-05 0.000D+00
 Coeff-En:   0.000D+00 0.127D+00 0.129D-02 0.376D-02
 Coeff:     -0.525D-02 0.158D+00-0.465D+00 0.981D+00 0.301D+00 0.140D+01
 Coeff:     -0.908D+00 0.127D+01-0.936D+01 0.617D+01-0.129D+00 0.324D+01
 Coeff:     -0.452D+01-0.311D-01 0.303D+01-0.132D+00
 Gap=     0.004 Goal=   None    Shift=    0.000
 Gap=     0.164 Goal=   None    Shift=    0.000
 RMSDP=1.96D-05 MaxDP=8.85D-04 DE= 6.17D-03 OVMax= 2.95D-03

 Cycle  34  Pass 1  IDiag  1:
 RMSU=  4.52D-06    CP:  1.00D+00  2.83D+00  9.10D-03  2.73D-02 -3.00D+00
                    CP:  3.00D+00 -3.00D+00  2.79D+00  3.00D+00 -3.00D+00
                    CP:  1.49D+00  1.43D+00  1.16D+00
 E= -1607.54010780980     Delta-E=       -0.000481507723 Rises=F Damp=F
 DIIS: error= 8.02D-03 at cycle  34 NSaved=  17.
 NSaved=17 IEnMin= 8 EnMin= -1607.54859990682     IErMin= 4 ErrMin= 3.56D-03
 ErrMax= 8.02D-03  0.00D+00 EMaxC= 1.00D-01 BMatC= 5.53D-02 BMatP= 1.18D-02
 IDIUse=3 WtCom= 9.60D-01 WtEn= 4.04D-02
 EnCoef did   100 forward-backward iterations
 Rare condition: small coef for last iteration:  0.122D-14
 Coeff-Com: -0.243D-01 0.199D+00-0.676D+00 0.110D+01 0.368D+00 0.859D+00
 Coeff-Com: -0.474D+00 0.118D+01-0.883D+01 0.555D+01-0.305D+00 0.236D+01
 Coeff-Com: -0.280D+01-0.394D-01 0.264D+01-0.270D+01 0.259D+01
 Coeff-En:   0.000D+00 0.000D+00 0.000D+00 0.364D-01 0.204D-01 0.000D+00
 Coeff-En:   0.618D-02 0.000D+00 0.615D-02 0.264D-01 0.000D+00 0.661D-02
 Coeff-En:   0.921D-01 0.229D+00 0.341D+00 0.000D+00 0.235D+00
 Coeff:     -0.243D-01 0.199D+00-0.676D+00 0.110D+01 0.368D+00 0.859D+00
 Coeff:     -0.474D+00 0.118D+01-0.883D+01 0.555D+01-0.305D+00 0.236D+01
 Coeff:     -0.280D+01-0.394D-01 0.264D+01-0.270D+01 0.259D+01
 Gap=     0.003 Goal=   None    Shift=    0.000
 Gap=     0.166 Goal=   None    Shift=    0.000
 RMSDP=7.91D-05 MaxDP=4.00D-03 DE=-4.82D-04 OVMax= 1.53D-02

 Cycle  35  Pass 1  IDiag  1:
 RMSU=  9.28D-06    CP:  1.00D+00  2.44D+00  3.49D-03  2.84D-02 -3.00D+00
                    CP:  3.00D+00 -3.00D+00  3.00D+00  3.00D+00 -3.00D+00
                    CP:  8.22D-01  2.06D+00  1.31D+00  3.00D+00
 E= -1607.54153785528     Delta-E=       -0.001430045483 Rises=F Damp=F
 DIIS: error= 7.31D-03 at cycle  35 NSaved=  18.
 NSaved=18 IEnMin= 8 EnMin= -1607.54859990682     IErMin= 4 ErrMin= 3.56D-03
 ErrMax= 7.31D-03  0.00D+00 EMaxC= 1.00D-01 BMatC= 4.66D-02 BMatP= 1.18D-02
 IDIUse=3 WtCom= 9.60D-01 WtEn= 4.04D-02
 EnCoef did   100 forward-backward iterations
 Coeff-Com: -0.215D-01 0.302D+00-0.789D+00 0.965D+00-0.527D-01 0.778D+00
 Coeff-Com: -0.498D+00 0.998D+00-0.862D+01 0.593D+01-0.213D+00 0.205D+01
 Coeff-Com: -0.271D+01 0.228D+00 0.240D+01-0.344D+01 0.246D+01 0.124D+01
 Coeff-En:   0.000D+00 0.000D+00 0.000D+00 0.459D+00 0.358D+00 0.272D-03
 Coeff-En:   0.587D-03 0.262D-05 0.296D-02 0.172D-03 0.112D-03 0.434D-02
 Coeff-En:   0.634D-02 0.123D+00 0.399D-01 0.000D+00 0.000D+00 0.479D-02
 Coeff:     -0.207D-01 0.289D+00-0.757D+00 0.945D+00-0.361D-01 0.747D+00
 Coeff:     -0.477D+00 0.957D+00-0.827D+01 0.569D+01-0.204D+00 0.197D+01
 Coeff:     -0.260D+01 0.223D+00 0.230D+01-0.330D+01 0.236D+01 0.119D+01
 Gap=     0.002 Goal=   None    Shift=    0.000
 Gap=     0.166 Goal=   None    Shift=    0.000
 RMSDP=7.98D-05 MaxDP=4.72D-03 DE=-1.43D-03 OVMax= 1.77D-02

 Cycle  36  Pass 1  IDiag  1:
 RMSU=  1.96D-05    CP:  1.00D+00  2.75D+00  4.82D-03  4.10D-02 -3.00D+00
                    CP:  3.00D+00 -3.00D+00  3.00D+00  3.00D+00 -3.00D+00
                    CP:  1.83D-01  3.00D+00  1.94D+00  3.00D+00  2.37D+00
 E= -1607.54225906135     Delta-E=       -0.000721206064 Rises=F Damp=F
 DIIS: error= 7.03D-03 at cycle  36 NSaved=  19.
 NSaved=19 IEnMin= 8 EnMin= -1607.54859990682     IErMin= 4 ErrMin= 3.56D-03
 ErrMax= 7.03D-03  0.00D+00 EMaxC= 1.00D-01 BMatC= 4.17D-02 BMatP= 1.18D-02
 IDIUse=3 WtCom= 9.60D-01 WtEn= 4.04D-02
 EnCoef did   100 forward-backward iterations
 Rare condition: small coef for last iteration: -0.110D-14
 Coeff-Com: -0.223D-01 0.277D+00-0.745D+00 0.948D+00-0.941D-01 0.815D+00
 Coeff-Com: -0.513D+00 0.928D+00-0.822D+01 0.568D+01-0.304D+00 0.218D+01
 Coeff-Com: -0.283D+01 0.361D+00 0.225D+01-0.286D+01 0.182D+01 0.883D+00
 Coeff-Com:  0.428D+00
 Coeff-En:   0.000D+00 0.000D+00 0.000D+00 0.165D-01 0.618D-02 0.000D+00
 Coeff-En:   0.532D-02 0.000D+00 0.562D-02 0.240D-01 0.000D+00 0.608D-02
 Coeff-En:   0.941D-01 0.232D+00 0.344D+00 0.000D+00 0.000D+00 0.000D+00
 Coeff-En:   0.266D+00
 Coeff:     -0.223D-01 0.277D+00-0.745D+00 0.948D+00-0.941D-01 0.815D+00
 Coeff:     -0.513D+00 0.928D+00-0.822D+01 0.568D+01-0.304D+00 0.218D+01
 Coeff:     -0.283D+01 0.361D+00 0.225D+01-0.286D+01 0.182D+01 0.883D+00
 Coeff:      0.428D+00
 Gap=     0.002 Goal=   None    Shift=    0.000
 Gap=     0.166 Goal=   None    Shift=    0.000
 RMSDP=3.97D-05 MaxDP=2.60D-03 DE=-7.21D-04 OVMax= 9.58D-03

 Cycle  37  Pass 1  IDiag  1:
 RMSU=  9.53D-06    CP:  1.00D+00  2.93D+00  6.58D-03  4.64D-02 -3.00D+00
                    CP:  3.00D+00 -3.00D+00  3.00D+00  3.00D+00 -3.00D+00
                    CP: -4.37D-02  3.00D+00  2.16D+00  3.00D+00  2.93D+00
                    CP:  1.64D+00
 E= -1607.54235334709     Delta-E=       -0.000094285741 Rises=F Damp=F
 DIIS: error= 7.01D-03 at cycle  37 NSaved=  20.
 NSaved=20 IEnMin= 8 EnMin= -1607.54859990682     IErMin= 4 ErrMin= 3.56D-03
 ErrMax= 7.01D-03  0.00D+00 EMaxC= 1.00D-01 BMatC= 4.09D-02 BMatP= 1.18D-02
 IDIUse=3 WtCom= 9.60D-01 WtEn= 4.04D-02
 EnCoef did   100 forward-backward iterations
 Coeff-Com: -0.242D-01 0.283D+00-0.768D+00 0.968D+00-0.810D-01 0.721D+00
 Coeff-Com: -0.396D+00 0.946D+00-0.852D+01 0.585D+01-0.229D+00 0.224D+01
 Coeff-Com: -0.284D+01 0.285D+00 0.231D+01-0.300D+01 0.198D+01 0.958D+00
 Coeff-Com:  0.759D+00-0.416D+00
 Coeff-En:   0.000D+00 0.000D+00 0.000D+00 0.339D+00 0.257D+00 0.000D+00
 Coeff-En:   0.142D-02 0.000D+00 0.212D-02 0.936D-03 0.139D-02 0.271D-03
 Coeff-En:   0.348D-02 0.176D+00 0.144D+00 0.000D+00 0.000D+00 0.000D+00
 Coeff-En:   0.000D+00 0.745D-01
 Coeff:     -0.232D-01 0.271D+00-0.737D+00 0.942D+00-0.674D-01 0.692D+00
 Coeff:     -0.380D+00 0.908D+00-0.818D+01 0.561D+01-0.219D+00 0.214D+01
 Coeff:     -0.273D+01 0.280D+00 0.222D+01-0.288D+01 0.190D+01 0.919D+00
 Coeff:      0.728D+00-0.396D+00
 Gap=     0.002 Goal=   None    Shift=    0.000
 Gap=     0.166 Goal=   None    Shift=    0.000
 RMSDP=3.51D-05 MaxDP=2.33D-03 DE=-9.43D-05 OVMax= 8.60D-03

 Cycle  38  Pass 1  IDiag  1:
 RMSU=  3.45D-07    CP:  1.00D+00  2.76D+00  4.77D-03  4.21D-02 -3.00D+00
                    CP:  3.00D+00 -3.00D+00  3.00D+00  3.00D+00 -3.00D+00
                    CP:  7.23D-02  3.00D+00  1.99D+00  3.00D+00  2.56D+00
                    CP:  1.19D+00  2.91D-01
 E= -1607.54236195166     Delta-E=       -0.000008604572 Rises=F Damp=F
 DIIS: error= 6.98D-03 at cycle  38 NSaved=  20.
 NSaved=20 IEnMin= 8 EnMin= -1607.54859990682     IErMin= 4 ErrMin= 3.56D-03
 ErrMax= 6.98D-03  0.00D+00 EMaxC= 1.00D-01 BMatC= 4.11D-02 BMatP= 1.18D-02
 IDIUse=3 WtCom= 9.60D-01 WtEn= 4.04D-02
 EnCoef did   100 forward-backward iterations
 Rare condition: small coef for last iteration:  0.382D-14
 Coeff-Com: -0.319D-01 0.211D+00-0.702D+00 0.968D+00-0.234D+00 0.925D+00
 Coeff-Com: -0.566D+00 0.791D+00-0.681D+01 0.484D+01-0.632D+00 0.184D+01
 Coeff-Com: -0.240D+01 0.755D+00 0.170D+01-0.974D+00-0.523D+00-0.365D+01
 Coeff-Com: -0.150D+01 0.700D+01
 Coeff-En:   0.000D+00 0.000D+00 0.000D+00 0.156D-01 0.555D-02 0.000D+00
 Coeff-En:   0.528D-02 0.000D+00 0.560D-02 0.239D-01 0.000D+00 0.606D-02
 Coeff-En:   0.942D-01 0.232D+00 0.344D+00 0.000D+00 0.000D+00 0.000D+00
 Coeff-En:   0.000D+00 0.268D+00
 Coeff:     -0.319D-01 0.211D+00-0.702D+00 0.968D+00-0.234D+00 0.925D+00
 Coeff:     -0.566D+00 0.791D+00-0.681D+01 0.484D+01-0.632D+00 0.184D+01
 Coeff:     -0.240D+01 0.755D+00 0.170D+01-0.974D+00-0.523D+00-0.365D+01
 Coeff:     -0.150D+01 0.700D+01
 Gap=     0.001 Goal=   None    Shift=    0.000
 Gap=     0.166 Goal=   None    Shift=    0.000
 RMSDP=8.98D-05 MaxDP=5.62D-03 DE=-8.60D-06 OVMax= 2.05D-02

 Cycle  39  Pass 1  IDiag  1:
 RMSU=  9.97D-06    CP:  1.00D+00  3.00D+00  3.71D-03  6.63D-02 -3.00D+00
                    CP:  3.00D+00 -3.00D+00  3.00D+00  3.00D+00 -3.00D+00
                    CP: -7.47D-01  3.00D+00  2.49D+00  3.00D+00  3.00D+00
                    CP:  2.86D+00  2.84D+00  3.00D+00
 E= -1607.54298085625     Delta-E=       -0.000618904592 Rises=F Damp=F
 DIIS: error= 6.69D-03 at cycle  39 NSaved=  20.
 NSaved=20 IEnMin= 8 EnMin= -1607.54859990682     IErMin= 4 ErrMin= 3.56D-03
 ErrMax= 6.69D-03  0.00D+00 EMaxC= 1.00D-01 BMatC= 3.68D-02 BMatP= 1.18D-02
 IDIUse=3 WtCom= 9.60D-01 WtEn= 4.04D-02
 Large coefficients: NSaved= 20 BigCof=   12.41 CofMax=   10.00 Det=-5.96D-09
 Inversion failed.  Reducing to 19 matrices.
 Large coefficients: NSaved= 19 BigCof=   13.51 CofMax=   10.00 Det=-6.23D-09
 Inversion failed.  Reducing to 18 matrices.
 EnCoef did   100 forward-backward iterations
 Coeff-Com: -0.330D-01 0.226D+00-0.699D+00 0.111D+01 0.511D-01 0.599D+00
 Coeff-Com: -0.354D+00 0.850D+00-0.781D+01 0.512D+01-0.622D+00 0.271D+01
 Coeff-Com: -0.282D+01 0.544D+00 0.204D+01-0.427D+01 0.168D+01 0.268D+01
 Coeff-En:   0.000D+00 0.000D+00 0.000D+00 0.295D+00 0.511D-04 0.000D+00
 Coeff-En:   0.216D-03 0.000D+00 0.228D-03 0.432D-03 0.833D-02 0.147D-03
 Coeff-En:   0.152D-02 0.264D+00 0.159D+00 0.000D+00 0.000D+00 0.270D+00
 Coeff:     -0.317D-01 0.217D+00-0.671D+00 0.108D+01 0.491D-01 0.575D+00
 Coeff:     -0.340D+00 0.816D+00-0.749D+01 0.491D+01-0.597D+00 0.260D+01
 Coeff:     -0.271D+01 0.533D+00 0.196D+01-0.409D+01 0.161D+01 0.258D+01
 Gap=     0.002 Goal=   None    Shift=    0.000
 Gap=     0.166 Goal=   None    Shift=    0.000
 RMSDP=2.70D-04 MaxDP=1.74D-02 DE=-6.19D-04 OVMax= 6.58D-02

 Cycle  40  Pass 1  IDiag  1:
 RMSU=  2.80D-06    CP:  1.00D+00  1.84D+00 -2.18D-03  2.40D-02 -3.00D+00
                    CP:  3.00D+00 -3.00D+00  3.00D+00  3.00D+00 -3.00D+00
                    CP:  4.16D-01  2.09D+00  1.14D+00  3.00D+00  1.22D+00
                    CP:  5.00D-02 -8.45D-02  3.00D+00  4.74D-03
 E= -1607.54267302106     Delta-E=        0.000307835190 Rises=F Damp=F
 DIIS: error= 6.67D-03 at cycle  40 NSaved=  19.
 NSaved=19 IEnMin= 8 EnMin= -1607.54859990682     IErMin= 4 ErrMin= 3.56D-03
 ErrMax= 6.67D-03  0.00D+00 EMaxC= 1.00D-01 BMatC= 4.00D-02 BMatP= 1.18D-02
 IDIUse=3 WtCom= 9.60D-01 WtEn= 4.04D-02
 EnCoef did   100 forward-backward iterations
 Rare condition: small coef for last iteration:  0.577D-15
 Coeff-Com: -0.455D-01 0.376D+00-0.110D+01 0.119D+01-0.271D+00 0.356D+00
 Coeff-Com: -0.130D+00 0.931D+00-0.715D+01 0.494D+01-0.536D+00 0.139D+00
 Coeff-Com: -0.177D+00 0.460D+00 0.154D+01-0.407D+01-0.146D+01 0.428D+01
 Coeff-Com:  0.173D+01
 Coeff-En:   0.000D+00 0.000D+00 0.000D+00 0.175D-01 0.705D-02 0.000D+00
 Coeff-En:   0.532D-02 0.000D+00 0.560D-02 0.238D-01 0.000D+00 0.598D-02
 Coeff-En:   0.923D-01 0.205D+00 0.355D+00 0.000D+00 0.000D+00 0.000D+00
 Coeff-En:   0.283D+00
 Coeff:     -0.455D-01 0.376D+00-0.110D+01 0.119D+01-0.271D+00 0.356D+00
 Coeff:     -0.130D+00 0.931D+00-0.715D+01 0.494D+01-0.536D+00 0.139D+00
 Coeff:     -0.177D+00 0.460D+00 0.154D+01-0.407D+01-0.146D+01 0.428D+01
 Coeff:      0.173D+01
 Gap=     0.001 Goal=   None    Shift=    0.000
 Gap=     0.166 Goal=   None    Shift=    0.000
 RMSDP=4.69D-04 MaxDP=2.65D-02 DE= 3.08D-04 OVMax= 1.15D-01

 Cycle  41  Pass 1  IDiag  1:
 Restarting incremental Fock formation.
 E= -1607.54422658663     Delta-E=       -0.001553565568 Rises=F Damp=F
 DIIS: error= 5.39D-03 at cycle  41 NSaved=  20.
 NSaved=20 IEnMin= 8 EnMin= -1607.54859990682     IErMin= 4 ErrMin= 3.56D-03
 ErrMax= 5.39D-03  0.00D+00 EMaxC= 1.00D-01 BMatC= 3.24D-02 BMatP= 1.18D-02
 IDIUse=3 WtCom= 9.60D-01 WtEn= 4.04D-02
 EnCoef did   100 forward-backward iterations
 Coeff-Com: -0.524D-01 0.436D+00-0.122D+01 0.136D+01-0.925D+00 0.374D+00
 Coeff-Com: -0.767D-01 0.140D+01-0.987D+01 0.664D+01 0.125D+00 0.128D+00
 Coeff-Com: -0.602D+00-0.456D+00 0.246D+01-0.705D+00-0.414D+01 0.302D+01
 Coeff-Com:  0.181D+01 0.131D+01
 Coeff-En:   0.000D+00 0.000D+00 0.000D+00 0.270D+00 0.337D-05 0.000D+00
 Coeff-En:   0.408D-03 0.000D+00 0.987D-03 0.111D-02 0.153D-01 0.111D-02
 Coeff-En:   0.725D-06 0.260D+00 0.180D+00 0.000D+00 0.000D+00 0.269D+00
 Coeff-En:   0.000D+00 0.235D-02
 Coeff:     -0.503D-01 0.418D+00-0.117D+01 0.132D+01-0.888D+00 0.359D+00
 Coeff:     -0.736D-01 0.134D+01-0.947D+01 0.637D+01 0.120D+00 0.123D+00
 Coeff:     -0.578D+00-0.427D+00 0.237D+01-0.676D+00-0.398D+01 0.290D+01
 Coeff:      0.174D+01 0.126D+01
 Gap=     0.003 Goal=   None    Shift=    0.000
 Gap=     0.166 Goal=   None    Shift=    0.000
 RMSDP=3.95D-04 MaxDP=2.19D-02 DE=-1.55D-03 OVMax= 9.49D-02

 Cycle  42  Pass 1  IDiag  1:
 RMSU=  3.95D-04    CP:  1.00D+00
 E= -1607.54148459845     Delta-E=        0.002741988179 Rises=F Damp=F
 DIIS: error= 7.14D-03 at cycle  42 NSaved=  20.
 NSaved=20 IEnMin= 8 EnMin= -1607.54859990682     IErMin= 4 ErrMin= 3.56D-03
 ErrMax= 7.14D-03  0.00D+00 EMaxC= 1.00D-01 BMatC= 4.79D-02 BMatP= 1.18D-02
 IDIUse=3 WtCom= 9.60D-01 WtEn= 4.04D-02
 Large coefficients: NSaved= 20 BigCof=   10.28 CofMax=   10.00 Det=-4.58D-08
 Inversion failed.  Reducing to 19 matrices.
 EnCoef did   100 forward-backward iterations
 Rare condition: small coef for last iteration:  0.174D-14
 Coeff-Com: -0.360D-01 0.366D+00-0.935D+00 0.108D+01-0.569D+00 0.427D+00
 Coeff-Com: -0.138D+00 0.110D+01-0.948D+01 0.644D+01-0.182D+00 0.213D+01
 Coeff-Com: -0.253D+01 0.643D-01 0.244D+01 0.152D+00 0.600D+00 0.128D+01
 Coeff-Com: -0.122D+01
 Coeff-En:   0.000D+00 0.000D+00 0.000D+00 0.308D-01 0.165D-01 0.000D+00
 Coeff-En:   0.585D-02 0.000D+00 0.585D-02 0.251D-01 0.000D+00 0.622D-02
 Coeff-En:   0.896D-01 0.194D+00 0.359D+00 0.000D+00 0.000D+00 0.000D+00
 Coeff-En:   0.267D+00
 Coeff:     -0.360D-01 0.366D+00-0.935D+00 0.108D+01-0.569D+00 0.427D+00
 Coeff:     -0.138D+00 0.110D+01-0.948D+01 0.644D+01-0.182D+00 0.213D+01
 Coeff:     -0.253D+01 0.643D-01 0.244D+01 0.152D+00 0.600D+00 0.128D+01
 Coeff:     -0.122D+01
 Gap=     0.003 Goal=   None    Shift=    0.000
 Gap=     0.165 Goal=   None    Shift=    0.000
 RMSDP=3.34D-04 MaxDP=2.13D-02 DE= 2.74D-03 OVMax= 8.17D-02

 Cycle  43  Pass 1  IDiag  1:
 RMSU=  1.06D-04    CP:  1.00D+00  1.80D+00
 E= -1607.54130694169     Delta-E=        0.000177656759 Rises=F Damp=F
 DIIS: error= 7.56D-03 at cycle  43 NSaved=  20.
 NSaved=20 IEnMin= 8 EnMin= -1607.54859990682     IErMin= 4 ErrMin= 3.56D-03
 ErrMax= 7.56D-03  0.00D+00 EMaxC= 1.00D-01 BMatC= 4.74D-02 BMatP= 1.18D-02
 IDIUse=3 WtCom= 9.60D-01 WtEn= 4.04D-02
 Large coefficients: NSaved= 20 BigCof=   11.39 CofMax=   10.00 Det=-8.70D-08
 Inversion failed.  Reducing to 19 matrices.
 Large coefficients: NSaved= 19 BigCof=   11.37 CofMax=   10.00 Det=-9.78D-08
 Inversion failed.  Reducing to 18 matrices.
[...]
    15  H   -0.000067  -0.000002   0.275566  -0.000004  -0.000000  -0.000066
    16  H    0.000000   0.000000  -0.000004   0.273122   0.000004  -0.000085
    17  H   -0.000002  -0.000066  -0.000000   0.000004   0.275566  -0.000002
    18  H    0.000000   0.000000  -0.000066  -0.000085  -0.000002   0.299735
    19  H    0.000000   0.000000   0.000004   0.000000  -0.000004  -0.000085
              19
     1  Mn  -0.010862
     2  O   -0.000450
     3  H   -0.000000
     4  O   -0.000088
     5  H   -0.000004
     6  O    0.003805
     7  H   -0.000085
     8  O    0.296494
     9  H   -0.013003
    10  O   -0.000090
    11  H    0.000004
    12  O    0.000960
    13  H    0.000000
    14  H    0.000000
    15  H    0.000004
    16  H    0.000000
    17  H   -0.000004
    18  H   -0.000085
    19  H    0.273121
          Atomic-Atomic Spin Densities.
               1          2          3          4          5          6
     1  Mn   4.128899  -0.042018  -0.000972  -0.046762  -0.000037  -0.075828
     2  O   -0.042018   0.043612   0.000612   0.023524  -0.000525  -0.017329
     3  H   -0.000972   0.000612   0.001336  -0.000708   0.000003   0.000267
     4  O   -0.046762   0.023524  -0.000708   0.053022  -0.000572  -0.021107
     5  H   -0.000037  -0.000525   0.000003  -0.000572   0.000946   0.000688
     6  O   -0.075828  -0.017329   0.000267  -0.021107   0.000688   0.201469
     7  H    0.002553   0.000642  -0.000002   0.000411  -0.000003  -0.006441
     8  O   -0.042018   0.002811  -0.000076   0.023518  -0.000478  -0.017329
     9  H   -0.000972  -0.000076  -0.000000  -0.000708   0.000030   0.000267
    10  O   -0.046763   0.023518  -0.000708   0.003882  -0.000093  -0.021105
    11  H   -0.000037  -0.000478   0.000030  -0.000093   0.000000   0.000689
    12  O   -0.075837  -0.017328   0.001529  -0.021105   0.000689   0.011179
    13  H    0.002553   0.000642  -0.000034   0.001537  -0.000033  -0.000159
    14  H    0.002552   0.000642  -0.000034   0.000411  -0.000003  -0.000159
    15  H   -0.000037  -0.000479   0.000030  -0.000572  -0.000295   0.000688
    16  H   -0.000970   0.000610  -0.000630  -0.000708   0.000003   0.001530
    17  H   -0.000037  -0.000525   0.000003  -0.000093   0.000000   0.000689
    18  H    0.002552   0.000643  -0.000002   0.001537  -0.000033  -0.006441
    19  H   -0.000970  -0.000076   0.000000  -0.000708   0.000030   0.001530
               7          8          9         10         11         12
     1  Mn   0.002553  -0.042018  -0.000972  -0.046763  -0.000037  -0.075837
     2  O    0.000642   0.002811  -0.000076   0.023518  -0.000478  -0.017328
     3  H   -0.000002  -0.000076  -0.000000  -0.000708   0.000030   0.001529
     4  O    0.000411   0.023518  -0.000708   0.003882  -0.000093  -0.021105
     5  H   -0.000003  -0.000478   0.000030  -0.000093   0.000000   0.000689
     6  O   -0.006441  -0.017329   0.000267  -0.021105   0.000689   0.011179
     7  H    0.004256   0.000642  -0.000002   0.001537  -0.000033  -0.000159
     8  O    0.000642   0.043612   0.000612   0.023524  -0.000525  -0.017328
     9  H   -0.000002   0.000612   0.001336  -0.000708   0.000003   0.001529
    10  O    0.001537   0.023524  -0.000708   0.053023  -0.000572  -0.021107
    11  H   -0.000033  -0.000525   0.000003  -0.000572   0.000946   0.000689
    12  O   -0.000159  -0.017328   0.001529  -0.021107   0.000689   0.201497
    13  H    0.000000   0.000642  -0.000034   0.000411  -0.000003  -0.006441
    14  H    0.000000   0.000642  -0.000034   0.001538  -0.000033  -0.006440
    15  H   -0.000003  -0.000525   0.000003  -0.000093   0.000000   0.000688
    16  H   -0.000034  -0.000076   0.000000  -0.000708   0.000030   0.000267
    17  H   -0.000033  -0.000479   0.000030  -0.000572  -0.000295   0.000688
    18  H    0.001162   0.000643  -0.000002   0.000411  -0.000003  -0.000159
    19  H   -0.000034   0.000610  -0.000630  -0.000708   0.000003   0.000267
              13         14         15         16         17         18
     1  Mn   0.002553   0.002552  -0.000037  -0.000970  -0.000037   0.002552
     2  O    0.000642   0.000642  -0.000479   0.000610  -0.000525   0.000643
     3  H   -0.000034  -0.000034   0.000030  -0.000630   0.000003  -0.000002
     4  O    0.001537   0.000411  -0.000572  -0.000708  -0.000093   0.001537
     5  H   -0.000033  -0.000003  -0.000295   0.000003   0.000000  -0.000033
     6  O   -0.000159  -0.000159   0.000688   0.001530   0.000689  -0.006441
     7  H    0.000000   0.000000  -0.000003  -0.000034  -0.000033   0.001162
     8  O    0.000642   0.000642  -0.000525  -0.000076  -0.000479   0.000643
     9  H   -0.000034  -0.000034   0.000003   0.000000   0.000030  -0.000002
    10  O    0.000411   0.001538  -0.000093  -0.000708  -0.000572   0.000411
    11  H   -0.000003  -0.000033   0.000000   0.000030  -0.000295  -0.000003
    12  O   -0.006441  -0.006440   0.000688   0.000267   0.000688  -0.000159
    13  H    0.004255   0.001162  -0.000033  -0.000002  -0.000003   0.000000
    14  H    0.001162   0.004251  -0.000003  -0.000002  -0.000033   0.000000
    15  H   -0.000033  -0.000003   0.000945   0.000030   0.000000  -0.000033
    16  H   -0.000002  -0.000002   0.000030   0.001336   0.000003  -0.000034
    17  H   -0.000003  -0.000033   0.000000   0.000003   0.000945  -0.000003
    18  H    0.000000   0.000000  -0.000033  -0.000034  -0.000003   0.004252
    19  H   -0.000002  -0.000002   0.000003  -0.000000   0.000030  -0.000034
              19
     1  Mn  -0.000970
     2  O   -0.000076
     3  H    0.000000
     4  O   -0.000708
     5  H    0.000030
     6  O    0.001530
     7  H   -0.000034
     8  O    0.000610
     9  H   -0.000630
    10  O   -0.000708
    11  H    0.000003
    12  O    0.000267
    13  H   -0.000002
    14  H   -0.000002
    15  H    0.000003
    16  H   -0.000000
    17  H    0.000030
    18  H   -0.000034
    19  H    0.001336
 Mulliken charges and spin densities:
               1          2
     1  Mn   1.307979   3.805852
     2  O   -0.588245   0.018422
     3  H    0.450286   0.000646
     4  O   -0.592568   0.014707
     5  H    0.448001   0.000316
     6  O   -0.617482   0.053095
     7  H    0.423886   0.004460
     8  O   -0.588248   0.018422
     9  H    0.450289   0.000646
    10  O   -0.592571   0.014707
    11  H    0.447991   0.000316
    12  O   -0.617449   0.053116
    13  H    0.423886   0.004460
    14  H    0.423881   0.004457
    15  H    0.447952   0.000314
    16  H    0.450282   0.000646
    17  H    0.447966   0.000315
    18  H    0.423881   0.004458
    19  H    0.450283   0.000646
 Sum of Mulliken charges =   3.00000   4.00000
 Mulliken charges and spin densities with hydrogens summed into heavy atoms:
               1          2
     1  Mn   1.307979   3.805852
     2  O    0.312323   0.019714
     4  O    0.303384   0.015337
     6  O    0.230285   0.062013
     8  O    0.312324   0.019714
    10  O    0.303386   0.015338
    12  O    0.230318   0.062033
 Electronic spatial extent (au):  <R**2>=           1052.7233
 Charge=              3.0000 electrons
 Dipole moment (field-independent basis, Debye):
    X=              0.0017    Y=              0.0000    Z=              0.0002  Tot=              0.0017
 Quadrupole moment (field-independent basis, Debye-Ang):
   XX=             -8.2939   YY=             -6.8056   ZZ=             -6.3926
   XY=              0.0120   XZ=              0.0009   YZ=              0.0002
 Traceless Quadrupole moment (field-independent basis, Debye-Ang):
   XX=             -1.1299   YY=              0.3584   ZZ=              0.7714
   XY=              0.0120   XZ=              0.0009   YZ=              0.0002
 Octapole moment (field-independent basis, Debye-Ang**2):
  XXX=              0.0048  YYY=              0.0005  ZZZ=              0.0011  XYY=              0.0066
  XXY=              0.0002  XXZ=             -0.0007  XZZ=              0.0040  YZZ=             -0.0004
  YYZ=              0.0012  XYZ=              0.0020
 Hexadecapole moment (field-independent basis, Debye-Ang**3):
 XXXX=            -71.2632 YYYY=            -46.1768 ZZZZ=            -46.2273 XXXY=              0.1508
 XXXZ=              0.0002 YYYX=             -0.0137 YYYZ=              1.8844 ZZZX=              0.0000
 ZZZY=             -1.8206 XXYY=            -91.4122 XXZZ=            -95.0484 YYZZ=            -80.2653
 XXYZ=              0.0385 YYXZ=              0.0077 ZZXY=             -0.0008
 N-N= 6.683286823942D+02 E-N=-5.104384359326D+03  KE= 1.603023014915D+03
                          Isotropic Fermi Contact Couplings
        Atom                 a.u.       MegaHertz       Gauss      10(-4) cm-1
     1  Mn(55)             0.32792      90.61766      32.33463      30.22680
     2  O(17)             -0.00999       1.51468       0.54048       0.50524
     3  H(1)               0.00023       0.25876       0.09233       0.08631
     4  O(17)             -0.00933       1.41401       0.50455       0.47166
     5  H(1)              -0.00003      -0.03592      -0.01282      -0.01198
     6  O(17)              0.14707     -22.28803      -7.95292      -7.43449
     7  H(1)               0.00204       2.27545       0.81194       0.75901
     8  O(17)             -0.00999       1.51459       0.54044       0.50521
     9  H(1)               0.00023       0.25896       0.09240       0.08638
    10  O(17)             -0.00933       1.41381       0.50448       0.47160
    11  H(1)              -0.00003      -0.03612      -0.01289      -0.01205
    12  O(17)              0.14707     -22.28884      -7.95321      -7.43476
    13  H(1)               0.00204       2.27522       0.81185       0.75893
    14  H(1)               0.00203       2.27317       0.81112       0.75825
    15  H(1)              -0.00003      -0.03691      -0.01317      -0.01231
    16  H(1)               0.00023       0.25861       0.09228       0.08626
    17  H(1)              -0.00003      -0.03659      -0.01306      -0.01220
    18  H(1)               0.00203       2.27355       0.81126       0.75837
    19  H(1)               0.00023       0.25853       0.09225       0.08624
 --------------------------------------------------------
       Center         ----  Spin Dipole Couplings  ----
                      3XX-RR        3YY-RR        3ZZ-RR
 --------------------------------------------------------
     1   Atom        2.061240     -0.982717     -1.078523
     2   Atom       -0.124470      0.191023     -0.066554
     3   Atom       -0.019977     -0.028708      0.048685
     4   Atom        0.175881     -0.055510     -0.120371
     5   Atom       -0.027297      0.048420     -0.021124
     6   Atom        0.160619     -0.198007      0.037388
     7   Atom        0.040816     -0.010829     -0.029987
     8   Atom       -0.124470      0.191022     -0.066553
     9   Atom       -0.019976     -0.028708      0.048684
    10   Atom        0.175880     -0.055509     -0.120371
    11   Atom       -0.027296      0.048421     -0.021125
    12   Atom        0.160604     -0.198049      0.037444
    13   Atom        0.040818     -0.010829     -0.029989
    14   Atom        0.040882     -0.010886     -0.029996
    15   Atom       -0.027293      0.047312     -0.020019
    16   Atom       -0.019969     -0.028709      0.048678
    17   Atom       -0.027293      0.047310     -0.020017
    18   Atom        0.040881     -0.010888     -0.029993
    19   Atom       -0.019970     -0.028709      0.048679
 --------------------------------------------------------
                        XY            XZ            YZ
 --------------------------------------------------------
     1   Atom        0.001195      0.000040      0.000890
     2   Atom       -0.000146      0.000002      0.002577
     3   Atom       -0.000280      0.029611     -0.000722
     4   Atom        0.000305     -0.000004      0.000637
     5   Atom       -0.000029      0.000017     -0.028330
     6   Atom        0.000174      0.000006     -0.002238
     7   Atom        0.027757      0.000263      0.000182
     8   Atom       -0.000115     -0.000003      0.002578
     9   Atom        0.000288     -0.029613     -0.000746
    10   Atom        0.000429     -0.000071      0.000633
    11   Atom       -0.000031      0.000020     -0.028329
    12   Atom        0.000169      0.000003     -0.002230
    13   Atom        0.027760      0.000263      0.000182
    14   Atom       -0.027708     -0.000262      0.000181
    15   Atom       -0.000028     -0.000017      0.029632
    16   Atom        0.000289     -0.029623     -0.000749
    17   Atom       -0.000015     -0.000017      0.029632
    18   Atom       -0.027703     -0.000264      0.000182
    19   Atom       -0.000281      0.029621     -0.000725
 --------------------------------------------------------


 ---------------------------------------------------------------------------------
              Anisotropic Spin Dipole Couplings in Principal Axis System
 ---------------------------------------------------------------------------------

       Atom             a.u.   MegaHertz   Gauss  10(-4) cm-1        Axes

              Baa    -1.0785  -142.303   -50.777   -47.467 -0.0000 -0.0093  1.0000
     1 Mn(55) Bbb    -0.9827  -129.660   -46.266   -43.250 -0.0004  1.0000  0.0093
              Bcc     2.0612   271.964    97.043    90.717  1.0000  0.0004  0.0000
 
              Baa    -0.1245     9.007     3.214     3.004  1.0000  0.0005 -0.0000
     2 O(17)  Bbb    -0.0666     4.818     1.719     1.607  0.0001 -0.0100  0.9999
              Bcc     0.1910   -13.824    -4.933    -4.611 -0.0005  0.9999  0.0100
 
              Baa    -0.0310   -16.531    -5.899    -5.514  0.9374  0.0051 -0.3483
     3 H(1)   Bbb    -0.0287   -15.321    -5.467    -5.110 -0.0017  0.9999  0.0100
              Bcc     0.0597    31.852    11.366    10.625  0.3484 -0.0088  0.9373
 
              Baa    -0.1204     8.710     3.108     2.905  0.0000 -0.0098  1.0000
     4 O(17)  Bbb    -0.0555     4.016     1.433     1.340 -0.0013  1.0000  0.0098
              Bcc     0.1759   -12.727    -4.541    -4.245  1.0000  0.0013 -0.0000
 
              Baa    -0.0312   -16.649    -5.941    -5.553 -0.0016  0.3352  0.9421
     5 H(1)   Bbb    -0.0273   -14.564    -5.197    -4.858  1.0000  0.0009  0.0014
              Bcc     0.0585    31.213    11.138    10.412 -0.0004  0.9421 -0.3352
 
              Baa    -0.1980    14.329     5.113     4.780 -0.0005  1.0000  0.0095
     6 O(17)  Bbb     0.0374    -2.707    -0.966    -0.903 -0.0000 -0.0095  1.0000
              Bcc     0.1606   -11.622    -4.147    -3.877  1.0000  0.0005  0.0000
 
              Baa    -0.0300   -16.000    -5.709    -5.337 -0.0000 -0.0095  1.0000
     7 H(1)   Bbb    -0.0229   -12.228    -4.363    -4.079 -0.3993  0.9168  0.0087
              Bcc     0.0529    28.228    10.073     9.416  0.9168  0.3993  0.0038
 
              Baa    -0.1245     9.007     3.214     3.004  1.0000  0.0004  0.0000
     8 O(17)  Bbb    -0.0666     4.818     1.719     1.607 -0.0000 -0.0100  0.9999
              Bcc     0.1910   -13.824    -4.933    -4.611 -0.0004  0.9999  0.0100
 
              Baa    -0.0310   -16.531    -5.899    -5.514  0.9373 -0.0044  0.3484
     9 H(1)   Bbb    -0.0287   -15.321    -5.467    -5.111  0.0010  0.9999  0.0100
              Bcc     0.0597    31.852    11.366    10.625 -0.3484 -0.0090  0.9373
 
              Baa    -0.1204     8.710     3.108     2.905  0.0003 -0.0098  1.0000
    10 O(17)  Bbb    -0.0555     4.016     1.433     1.340 -0.0019  1.0000  0.0098
              Bcc     0.1759   -12.727    -4.541    -4.245  1.0000  0.0019 -0.0002
 
              Baa    -0.0312   -16.649    -5.941    -5.554 -0.0022  0.3352  0.9421
    11 H(1)   Bbb    -0.0273   -14.564    -5.197    -4.858  1.0000  0.0011  0.0019
              Bcc     0.0585    31.213    11.138    10.412 -0.0004  0.9421 -0.3352
 
              Baa    -0.1981    14.332     5.114     4.781 -0.0005  1.0000  0.0095
    12 O(17)  Bbb     0.0375    -2.711    -0.967    -0.904 -0.0000 -0.0095  1.0000
              Bcc     0.1606   -11.621    -4.147    -3.876  1.0000  0.0005  0.0000
 
              Baa    -0.0300   -16.002    -5.710    -5.338 -0.0000 -0.0095  1.0000
    13 H(1)   Bbb    -0.0229   -12.228    -4.363    -4.079 -0.3993  0.9168  0.0087
              Bcc     0.0529    28.230    10.073     9.417  0.9168  0.3993  0.0038
 
              Baa    -0.0300   -16.005    -5.711    -5.339 -0.0000 -0.0095  1.0000
    14 H(1)   Bbb    -0.0229   -12.228    -4.363    -4.079  0.3984  0.9172  0.0087
              Bcc     0.0529    28.233    10.074     9.418  0.9172 -0.3983 -0.0038
 
              Baa    -0.0312   -16.648    -5.940    -5.553  0.0016 -0.3531  0.9356
    15 H(1)   Bbb    -0.0273   -14.562    -5.196    -4.857  1.0000  0.0009 -0.0014
              Bcc     0.0585    31.210    11.137    10.411 -0.0004  0.9356  0.3531
 
              Baa    -0.0310   -16.532    -5.899    -5.514  0.9373 -0.0043  0.3485
    16 H(1)   Bbb    -0.0287   -15.322    -5.467    -5.111  0.0009  0.9999  0.0100
              Bcc     0.0597    31.854    11.366    10.625 -0.3485 -0.0091  0.9373
 
              Baa    -0.0312   -16.648    -5.940    -5.553  0.0028 -0.3531  0.9356
    17 H(1)   Bbb    -0.0273   -14.562    -5.196    -4.857  1.0000  0.0012 -0.0025
              Bcc     0.0585    31.210    11.136    10.410 -0.0002  0.9356  0.3531
 
              Baa    -0.0300   -16.004    -5.711    -5.338  0.0000 -0.0095  1.0000
    18 H(1)   Bbb    -0.0229   -12.227    -4.363    -4.079  0.3983  0.9172  0.0087
              Bcc     0.0529    28.231    10.074     9.417  0.9172 -0.3983 -0.0038
 
              Baa    -0.0310   -16.532    -5.899    -5.514  0.9373  0.0049 -0.3485
    19 H(1)   Bbb    -0.0287   -15.321    -5.467    -5.111 -0.0015  0.9999  0.0100
              Bcc     0.0597    31.853    11.366    10.625  0.3485 -0.0088  0.9373
 

 ---------------------------------------------------------------------------------

 No NMR shielding tensors so no spin-rotation constants.
 Leave Link  601 at Thu May 30 10:55:19 2024, MaxMem= 26843545600 cpu:              28.9 elap:               0.3
 (Enter /gpfs/fs1/soft/improv/software/custom-built/gaussian/g16/l9999.exe)
 Unable to Open any file for archive entry.
 1\1\GINC-I737\SP\UPBEPBE\Gen\H12Mn1O6(3+,5)\HHARB\30-May-2024\0\\#p PB
 EPBE empiricaldispersion=gd3 scf=(maxcycles=500,xqc,maxconventional=50
 ) scrf=(cpcm,solvent=water) geom=allcheck guess=read chkbasis\\Title\\
 3,5\Mn,-0.7848101642,0.7129421303,0.0317390869\O,-1.3152291478,2.58775
 17995,-0.2718115407\H,-1.4354203642,3.0089698827,-1.1546840508\O,1.122
 1420315,1.2517364417,0.0289165824\H,1.8893434208,0.6470500009,0.150545
 9926\O,-0.8723747972,1.0351821496,2.1740250784\H,-1.6486714523,0.91108
 14795,2.7627921681\O,-0.2543997481,-1.1618336452,0.3355157046\H,-0.069
 4826903,-1.8223465388,-0.3722102365\O,-2.691753402,0.1741199642,0.0342
 864096\H,-3.458963481,0.7787849739,-0.0871473577\O,-0.6972737328,0.390
 7313844,-2.11050051\H,0.0790233956,0.5148084084,-2.6992723466\H,-1.425
 8101811,0.0898772655,-2.6965130157\H,1.4593951979,2.1680666107,-0.0958
 571196\H,-1.500179158,3.2481223521,0.4360309154\H,-3.0290192802,-0.742
 171481,0.1596669201\H,-0.1438708541,1.3360820231,2.7600540927\H,-0.134
 1631624,-1.5828754317,1.2184686368\\Version=ES64L-G16RevC.02\State=5-A
 \HF=-1608.421043\S2=6.02001\S2-1=0.\S2A=6.000042\RMSD=7.963e-09\Dipole
 =-0.0000172,0.0000296,0.0006788\Quadrupole=0.2860362,0.5202564,-0.8062
 925,-0.0704525,0.0474545,-0.2106634\PG=C01 [X(H12Mn1O6)]\\@
 The archive entry for this job was punched.


 IBM COMPATIBILITY IS LIKE PREGNANCY. YOU ARE OR
 OR YOU ARE NOT. -- ADAM OSBORNE
 Job cpu time:       0 days  1 hours 31 minutes 10.8 seconds.
 Elapsed time:       0 days  0 hours  0 minutes 46.4 seconds.
 File lengths (MBytes):  RWF=    121 Int=      0 D2E=      0 Chk=     32 Scr=      1
 Normal termination of Gaussian 16 at Thu May 30 10:55:19 2024.
