 Entering Gaussian System, Link 0=g16
 Input=Ti_2_PBE.com
 Output=Ti_2_PBE.log
 Initial command:
 /gpfs/fs1/soft/improv/software/custom-built/gaussian/g16/l1.exe "/scratch/Gau-725899.inp" -scrdir="/scratch/"
 Default CPUs for threads: 0-127
 Default linda workers: i738.lcrc.anl.gov
 Default is to use 128 SMP processors on each worker.
 Entering Link 1 = /gpfs/fs1/soft/improv/software/custom-built/gaussian/g16/l1.exe PID=    725900.
  
 Copyright (c) 1988-2021, Gaussian, Inc.  All Rights Reserved.
  
 This is part of the Gaussian(R) 16 program.  It is based on
 the Gaussian(R) 09 system (copyright 2009, Gaussian, Inc.),
 the Gaussian(R) 03 system (copyright 2003, Gaussian, Inc.),
 the Gaussian(R) 98 system (copyright 1998, Gaussian, Inc.),
 the Gaussian(R) 94 system (copyright 1995, Gaussian, Inc.),
 the Gaussian 92(TM) system (copyright 1992, Gaussian, Inc.),
 the Gaussian 90(TM) system (copyright 1990, Gaussian, Inc.),
 the Gaussian 88(TM) system (copyright 1988, Gaussian, Inc.),
 the Gaussian 86(TM) system (copyright 1986, Carnegie Mellon
 University), and the Gaussian 82(TM) system (copyright 1983,
 Carnegie Mellon University). Gaussian is a federally registered
 trademark of Gaussian, Inc.
  
 This software contains proprietary and confidential information,
 including trade secrets, belonging to Gaussian, Inc.
  
 This software is provided under written license and may be
 used, copied, transmitted, or stored only in accord with that
 written license.
  
 The following legend is applicable only to US Government
 contracts under FAR:
  
                    RESTRICTED RIGHTS LEGEND
  
 Use, reproduction and disclosure by the US Government is
 subject to restrictions as set forth in subparagraphs (a)
 and (c) of the Commercial Computer Software - Restricted
 Rights clause in FAR 52.227-19.
  
 Gaussian, Inc.
 340 Quinnipiac St., Bldg. 40, Wallingford CT 06492
  
  
 ---------------------------------------------------------------
 Warning -- This program may not be used in any manner that
 competes with the business of Gaussian, Inc. or will provide
 assistance to any competitor of Gaussian, Inc.  The licensee
 of this program is prohibited from giving any competitor of
 Gaussian, Inc. access to this program.  By using this program,
 the user acknowledges that Gaussian, Inc. is engaged in the
 business of creating and licensing software in the field of
 computational chemistry and represents and warrants to the
 licensee that it is not a competitor of Gaussian, Inc. and that
 it will not use this program in any manner prohibited above.
 ---------------------------------------------------------------
  

 Cite this work as:
 Gaussian 16, Revision C.02,
 M. J. Frisch, G. W. Trucks, H. B. Schlegel, G. E. Scuseria, 
 M. A. Robb, J. R. Cheeseman, G. Scalmani, V. Barone, 
 G. A. Petersson, H. Nakatsuji, X. Li, M. Caricato, A. V. Marenich, 
 J. Bloino, B. G. Janesko, R. Gomperts, B. Mennucci, H. P. Hratchian, 
 J. V. Ortiz, A. F. Izmaylov, J. L. Sonnenberg, D. Williams-Young, 
 F. Ding, F. Lipparini, F. Egidi, J. Goings, B. Peng, A. Petrone, 
 T. Henderson, D. Ranasinghe, V. G. Zakrzewski, J. Gao, N. Rega, 
 G. Zheng, W. Liang, M. Hada, M. Ehara, K. Toyota, R. Fukuda, 
 J. Hasegawa, M. Ishida, T. Nakajima, Y. Honda, O. Kitao, H. Nakai, 
 T. Vreven, K. Throssell, J. A. Montgomery, Jr., J. E. Peralta, 
 F. Ogliaro, M. J. Bearpark, J. J. Heyd, E. N. Brothers, K. N. Kudin, 
 V. N. Staroverov, T. A. Keith, R. Kobayashi, J. Normand, 
 K. Raghavachari, A. P. Rendell, J. C. Burant, S. S. Iyengar, 
 J. Tomasi, M. Cossi, J. M. Millam, M. Klene, C. Adamo, R. Cammi, 
 J. W. Ochterski, R. L. Martin, K. Morokuma, O. Farkas, 
 J. B. Foresman, and D. J. Fox, Gaussian, Inc., Wallingford CT, 2019.
 
 ******************************************
 Gaussian 16:  ES64L-G16RevC.02  7-Dec-2021
                30-May-2024 
 ******************************************
 %chk=Ti_2_PBE.chk
 SetSPE:  set environment variable "OMP_PROC_BIND" = "true"
 SetSPE:  set environment variable "OMP_PLACES" = "{0},{1},{2},{3},{4},{5},{6},{7},{8},{9},{10},{11},{12},{13},{14},{15},{16},{17},{18},{19},{20},{21},{22},{23},{24},{25},{26},{27},{28},{29},{30},{31},{32},{33},{34},{35},{36},{37},{38},{39},{40},{41},{42},{43},{44},{45},{46},{47},{48},{49},{50},{51},{52},{53},{54},{55},{56},{57},{58},{59},{60},{61},{62},{63},{64},{65},{66},{67},{68},{69},{70},{71},{72},{73},{74},{75},{76},{77},{78},{79},{80},{81},{82},{83},{84},{85},{86},{87},{88},{89},{90},{91},{92},{93},{94},{95},{96},{97},{98},{99},{100},{101},{102},{103},{104},{105},{106},{107},{108},{109},{110},{111},{112},{113},{114},{115},{116},{117},{118},{119},{120},{121},{122},{123},{124},{125},{126},{127}"
 SetLPE:    new flags="-opt 'Tsnet.Node.lindarsharg: ssh'  -nodelist 'i738.lcrc.anl.gov' -env GAUSS_MDEF=26843545600 -env GAUSS_EXEDIR="/gpfs/fs1/soft/improv/software/custom-built/gaussian/g16/bsd:/gpfs/fs1/soft/improv/software/custom-built/gaussian/g16" -env "OMP_PROC_BIND=true" -env "OMP_PLACES={0},{1},{2},{3},{4},{5},{6},{7},{8},{9},{10},{11},{12},{13},{14},{15},{16},{17},{18},{19},{20},{21},{22},{23},{24},{25},{26},{27},{28},{29},{30},{31},{32},{33},{34},{35},{36},{37},{38},{39},{40},{41},{42},{43},{44},{45},{46},{47},{48},{49},{50},{51},{52},{53},{54},{55},{56},{57},{58},{59},{60},{61},{62},{63},{64},{65},{66},{67},{68},{69},{70},{71},{72},{73},{74},{75},{76},{77},{78},{79},{80},{81},{82},{83},{84},{85},{86},{87},{88},{89},{90},{91},{92},{93},{94},{95},{96},{97},{98},{99},{100},{101},{102},{103},{104},{105},{106},{107},{108},{109},{110},{111},{112},{113},{114},{115},{116},{117},{118},{119},{120},{121},{122},{123},{124},{125},{126},{127}" -env GAUSS_ADEF="0,1,2,3,4,5,6,7,8,9,10,11,12,13,14,15,16,17,18,19,20,21,22,23,24,25,26,27,28,29,30,31,32,33,34,35,36,37,38,39,40,41,42,43,44,45,46,47,48,49,50,51,52,53,54,55,56,57,58,59,60,61,62,63,64,65,66,67,68,69,70,71,72,73,74,75,76,77,78,79,80,81,82,83,84,85,86,87,88,89,90,91,92,93,94,95,96,97,98,99,100,101,102,103,104,105,106,107,108,109,110,111,112,113,114,115,116,117,118,119,120,121,122,123,124,125,126,127""
 Will use up to    1 processors via Linda.
 ----------------------------------------------------------------------
 #p PBEPBE empiricaldispersion=gd3 6-31+G(2df,p) opt=(cartesian,calcall
 ,maxcycles=500) freq scf=(maxcycles=500,xqc,maxconventional=50)
 ----------------------------------------------------------------------
 1/6=500,10=4,18=10,26=3,38=1/1,3;
 2/12=2,17=6,18=5,29=2,40=1/2;
 3/5=1,6=6,7=114,11=2,25=1,30=1,71=2,74=1009,124=31,140=1/1,2,3;
 4//1;
 5/5=2,7=500,8=3,13=1,38=5,85=50/2,8;
 8/6=4,10=90,11=11/1;
 11/6=1,8=1,9=11,15=111,16=1/1,2,10;
 10/6=1/2;
 6/7=2,8=2,9=2,10=2,18=1,28=1/1;
 7/7=1,10=1,25=1/1,2,3,16;
 1/6=500,10=4,18=10,26=3/3(3);
 2/29=1/2;
 7/7=1,8=1,9=1,25=1,44=-1/16;
 99/12=1/99;
 2/29=1/2;
 3/5=1,6=6,7=114,11=2,25=1,30=1,71=2,74=1009,124=31,140=1/1,2,3;
 4/5=5,16=3,69=1/1;
 5/5=2,7=500,8=3,13=1,38=5,85=50/2,8;
 8/6=4,10=90,11=11/1;
 11/6=1,8=1,9=11,15=111,16=1/1,2,10;
 10/6=1/2;
 7/7=1,10=1,25=1/1,2,3,16;
 1/6=500,10=4,18=10,26=3/3(-8);
 2/29=1/2;
 6/7=2,8=2,9=2,10=2,18=1,19=2,28=1/1;
 7/7=1,8=1,9=1,25=1,44=-1/16;
 99/12=1/99;
 Leave Link    1 at Thu May 30 09:19:54 2024, MaxMem=           0 cpu:               1.6 elap:               0.1
 (Enter /gpfs/fs1/soft/improv/software/custom-built/gaussian/g16/l101.exe)
 -----
 Title
 -----
 Symbolic Z-matrix:
 Charge =  2 Multiplicity = 3
 Ti                   -0.79304   0.81881  -0.09491 
 O                    -1.20497   2.57394  -0.35687 
 H                    -2.12106   2.64974  -0.63312 
 O                     0.99012   1.19063  -0.05794 
 H                     1.42696   0.5998    0.55971 
 O                    -0.81752   1.03069   1.71365 
 H                    -1.02108   0.1906    2.13133 
 O                    -0.38507  -0.93351   0.17118 
 H                    -1.15682  -1.47369  -0.01433 
 O                    -2.57341   0.45178  -0.12186 
 H                    -2.77756  -0.08744  -0.88929 
 O                    -0.76966   0.60461  -1.90111 
 H                     0.09872   0.83457  -2.23949 
 H                    -0.96534  -0.30999  -2.11742 
 H                     1.12208   2.09943   0.22124 
 H                    -1.07671   3.0584    0.46184 
 H                    -2.81407  -0.02398   0.6765 
 H                     0.0422    1.33615   2.01181 
 H                    -0.11532  -1.06446   1.08312 
 
 ITRead=  0  0  0  0  0  0  0  0  0  0  0  0  0  0  0  0  0  0  0
 MicOpt= -1 -1 -1 -1 -1 -1 -1 -1 -1 -1 -1 -1 -1 -1 -1 -1 -1 -1 -1
 NAtoms=     19 NQM=       19 NQMF=       0 NMMI=      0 NMMIF=      0
                NMic=       0 NMicF=      0.
                    Isotopes and Nuclear Properties:
 (Nuclear quadrupole moments (NQMom) in fm**2, nuclear magnetic moments (NMagM)
  in nuclear magnetons)

  Atom         1           2           3           4           5           6           7           8           9          10
 IAtWgt=          48          16           1          16           1          16           1          16           1          16
 AtmWgt=  47.9479467  15.9949146   1.0078250  15.9949146   1.0078250  15.9949146   1.0078250  15.9949146   1.0078250  15.9949146
 NucSpn=           0           0           1           0           1           0           1           0           1           0
 AtZEff=  -0.0000000  -0.0000000  -0.0000000  -0.0000000  -0.0000000  -0.0000000  -0.0000000  -0.0000000  -0.0000000  -0.0000000
 NQMom=    0.0000000   0.0000000   0.0000000   0.0000000   0.0000000   0.0000000   0.0000000   0.0000000   0.0000000   0.0000000
 NMagM=    0.0000000   0.0000000   2.7928460   0.0000000   2.7928460   0.0000000   2.7928460   0.0000000   2.7928460   0.0000000
 AtZNuc=  22.0000000   8.0000000   1.0000000   8.0000000   1.0000000   8.0000000   1.0000000   8.0000000   1.0000000   8.0000000

  Atom        11          12          13          14          15          16          17          18          19
 IAtWgt=           1          16           1           1           1           1           1           1           1
 AtmWgt=   1.0078250  15.9949146   1.0078250   1.0078250   1.0078250   1.0078250   1.0078250   1.0078250   1.0078250
 NucSpn=           1           0           1           1           1           1           1           1           1
 AtZEff=  -0.0000000  -0.0000000  -0.0000000  -0.0000000  -0.0000000  -0.0000000  -0.0000000  -0.0000000  -0.0000000
 NQMom=    0.0000000   0.0000000   0.0000000   0.0000000   0.0000000   0.0000000   0.0000000   0.0000000   0.0000000
 NMagM=    2.7928460   0.0000000   2.7928460   2.7928460   2.7928460   2.7928460   2.7928460   2.7928460   2.7928460
 AtZNuc=   1.0000000   8.0000000   1.0000000   1.0000000   1.0000000   1.0000000   1.0000000   1.0000000   1.0000000
 Leave Link  101 at Thu May 30 09:19:54 2024, MaxMem= 26843545600 cpu:               0.4 elap:               0.0
 (Enter /gpfs/fs1/soft/improv/software/custom-built/gaussian/g16/l103.exe)

 GradGradGradGradGradGradGradGradGradGradGradGradGradGradGradGradGradGrad
 Berny optimization.
 Initialization pass.
 No Z-matrix variables, so optimization will use Cartesian coordinates.
 Trust Radius=3.00D-01 FncErr=1.00D-07 GrdErr=1.00D-06 EigMax=2.50D+02 EigMin=1.00D-04
 Number of steps in this run=    114 maximum allowed number of steps=    114.
 GradGradGradGradGradGradGradGradGradGradGradGradGradGradGradGradGradGrad

 Leave Link  103 at Thu May 30 09:19:54 2024, MaxMem= 26843545600 cpu:               0.4 elap:               0.0
 (Enter /gpfs/fs1/soft/improv/software/custom-built/gaussian/g16/l202.exe)
 ---------------------------------------------------------------------------------------------------
                            Z-MATRIX (ANGSTROMS AND DEGREES)
   CD    Cent   Atom    N1       Length/X        N2       Alpha/Y        N3        Beta/Z          J
 ---------------------------------------------------------------------------------------------------
      1      1  Ti       0  -0.793037          0.818805         -0.094905
      2      2  O        0  -1.204971          2.573941         -0.356874
      3      3  H        0  -2.121063          2.649743         -0.633122
      4      4  O        0   0.990122          1.190635         -0.057941
      5      5  H        0   1.426962          0.599798          0.559707
      6      6  O        0  -0.817519          1.030691          1.713650
      7      7  H        0  -1.021079          0.190602          2.131326
      8      8  O        0  -0.385068         -0.933506          0.171177
      9      9  H        0  -1.156817         -1.473692         -0.014327
     10     10  O        0  -2.573405          0.451778         -0.121857
     11     11  H        0  -2.777557         -0.087440         -0.889285
     12     12  O        0  -0.769659          0.604612         -1.901109
     13     13  H        0   0.098725          0.834573         -2.239490
     14     14  H        0  -0.965336         -0.309994         -2.117418
     15     15  H        0   1.122081          2.099426          0.221242
     16     16  H        0  -1.076711          3.058396          0.461841
     17     17  H        0  -2.814074         -0.023981          0.676500
     18     18  H        0   0.042204          1.336153          2.011809
     19     19  H        0  -0.115315         -1.064459          1.083123
 ---------------------------------------------------------------------------------------------------
                         Z-Matrix orientation:                         
 ---------------------------------------------------------------------
 Center     Atomic      Atomic             Coordinates (Angstroms)
 Number     Number       Type             X           Y           Z
 ---------------------------------------------------------------------
      1         22           0       -0.793037    0.818805   -0.094905
      2          8           0       -1.204971    2.573941   -0.356874
      3          1           0       -2.121063    2.649743   -0.633122
      4          8           0        0.990122    1.190635   -0.057941
      5          1           0        1.426962    0.599798    0.559707
      6          8           0       -0.817519    1.030691    1.713650
      7          1           0       -1.021079    0.190602    2.131326
      8          8           0       -0.385068   -0.933506    0.171177
      9          1           0       -1.156817   -1.473692   -0.014327
     10          8           0       -2.573405    0.451778   -0.121857
     11          1           0       -2.777557   -0.087440   -0.889285
     12          8           0       -0.769659    0.604612   -1.901109
     13          1           0        0.098725    0.834573   -2.239490
     14          1           0       -0.965336   -0.309994   -2.117418
     15          1           0        1.122081    2.099426    0.221242
     16          1           0       -1.076711    3.058396    0.461841
     17          1           0       -2.814074   -0.023981    0.676500
     18          1           0        0.042204    1.336153    2.011809
     19          1           0       -0.115315   -1.064459    1.083123
 ---------------------------------------------------------------------
                    Distance matrix (angstroms):
                    1          2          3          4          5
     1  Ti   0.000000
     2  O    1.821762   0.000000
     3  H    2.325008   0.959835   0.000000
     4  O    1.821889   2.611767   3.484150   0.000000
     5  H    2.324839   3.415322   4.267739   0.959899   0.000000
     6  O    1.821090   2.611285   3.134947   2.536076   2.560263
     7  H    2.324381   3.450400   3.859988   3.136540   2.937743
     8  O    1.818745   3.640503   4.062050   2.540791   2.405292
     9  H    2.322579   4.062387   4.279649   3.421971   3.362259
    10  O    1.818006   2.536025   2.301533   3.639880   4.060711
    11  H    2.321775   3.136788   2.826442   4.064482   4.499984
    12  O    1.819010   2.540161   2.759827   2.614866   3.298603
    13  H    2.322657   2.875634   3.286750   2.383386   3.107223
    14  H    2.322591   3.387332   3.506977   3.212032   3.703756
    15  H    2.325429   2.444290   3.398642   0.959822   1.567289
    16  H    2.325125   0.959918   1.567358   2.833814   3.510364
    17  H    2.321626   3.225876   3.056824   4.060370   4.288255
    18  H    2.324547   2.949275   3.660724   2.281137   2.137375
    19  H    2.322443   4.061883   4.556733   2.758526   2.328591
                    6          7          8          9         10
     6  O    0.000000
     7  H    0.960021   0.000000
     8  O    2.534622   2.347406   0.000000
     9  H    3.061530   2.718847   0.960108   0.000000
    10  O    2.605257   2.748593   2.606473   2.392848   0.000000
    11  H    3.444886   3.505227   2.750347   2.305222   0.959885
    12  O    3.640099   4.061422   2.609231   2.833582   2.538227
    13  H    4.062670   4.557707   3.028445   3.443229   3.430916
    14  H    4.061572   4.278496   2.441955   2.411193   2.673658
    15  H    2.670492   3.447487   3.387136   4.244531   4.060675
    16  H    2.397039   3.318813   4.061790   4.557738   3.061904
    17  H    2.484803   2.318921   2.642472   2.307685   0.960023
    18  H    0.959858   1.567527   2.953276   3.665802   3.489421
    19  H    2.297892   1.869309   0.959980   1.567353   3.129403
                   11         12         13         14         15
    11  H    0.000000
    12  O    2.352526   0.000000
    13  H    3.308498   0.959935   0.000000
    14  H    2.200452   0.959991   1.567533   0.000000
    15  H    4.606825   3.212091   2.949969   3.953725   0.000000
    16  H    3.822919   3.420362   3.691102   4.243941   2.410850
    17  H    1.567497   3.349453   4.210050   3.362383   4.495491
    18  H    4.288824   4.062660   4.281159   4.558009   2.225950
    19  H    3.454344   3.481323   3.833001   3.396353   3.504877
                   16         17         18         19
    16  H    0.000000
    17  H    3.544793   0.000000
    18  H    2.573032   3.433851   0.000000
    19  H    4.278809   2.920828   2.578800   0.000000
 Stoichiometry    H12O6Ti(2+,3)
 Framework group  C1[X(H12O6Ti)]
 Deg. of freedom    51
 Full point group                 C1      NOp   1
 Largest Abelian subgroup         C1      NOp   1
 Largest concise Abelian subgroup C1      NOp   1
                         Standard orientation:                         
 ---------------------------------------------------------------------
 Center     Atomic      Atomic             Coordinates (Angstroms)
 Number     Number       Type             X           Y           Z
 ---------------------------------------------------------------------
      1         22           0       -0.021180   -0.031230    0.010242
      2          8           0       -0.320919   -1.688924   -0.683318
      3          1           0       -1.137185   -1.681640   -1.188234
      4          8           0        1.254245   -0.678703    1.138670
      5          1           0        1.942694   -0.019880    1.254406
      6          8           0        1.297272    0.293478   -1.203273
      7          1           0        1.380717    1.240156   -1.339207
      8          8           0        0.279127    1.625671    0.697504
      9          1           0       -0.432969    2.214440    0.436587
     10          8           0       -1.286964    0.614116   -1.123984
     11          1           0       -2.036002    0.936648   -0.617728
     12          8           0       -1.338898   -0.352897    1.222244
     13          1           0       -0.972045   -0.816749    1.978376
     14          1           0       -1.718130    0.480302    1.511284
     15          1           0        1.635288   -1.477345    0.766869
     16          1           0        0.408469   -1.932016   -1.258072
     17          1           0       -0.916621    1.333448   -1.640754
     18          1           0        2.128227   -0.056953   -0.874579
     19          1           0        1.112611    1.964725    0.362979
 ---------------------------------------------------------------------
 Rotational constants (GHZ):           2.0397079           1.9739543           1.9252950
 Leave Link  202 at Thu May 30 09:19:55 2024, MaxMem= 26843545600 cpu:               0.5 elap:               0.0
 (Enter /gpfs/fs1/soft/improv/software/custom-built/gaussian/g16/l301.exe)
 Standard basis: 6-31+G(2df,p) (6D, 7F)
 Ernie: Thresh=  0.10000D-02 Tol=  0.10000D-05 Strict=F.
 There are   347 symmetry adapted cartesian basis functions of A   symmetry.
 There are   317 symmetry adapted basis functions of A   symmetry.
   317 basis functions,   514 primitive gaussians,   347 cartesian basis functions
    41 alpha electrons       39 beta electrons
       nuclear repulsion energy       701.0339313636 Hartrees.
 IExCor= 1009 DFT=T Ex=PBE Corr=PBE ExCW=0 ScaHFX=  0.000000
 ScaDFX=  1.000000  1.000000  1.000000  1.000000 ScalE2=  1.000000  1.000000
 IRadAn=      5 IRanWt=     -1 IRanGd=            0 ICorTp=0 IEmpDi=131
 NAtoms=   19 NActive=   19 NUniq=   19 SFac= 1.00D+00 NAtFMM=   60 NAOKFM=F Big=F
 Integral buffers will be    131072 words long.
 Raffenetti 2 integral format.
 Two-electron integral symmetry is turned on.
 R6Disp:  Grimme-D3 Dispersion energy=       -0.0121816038 Hartrees.
 Nuclear repulsion after empirical dispersion term =      701.0217497598 Hartrees.
 Leave Link  301 at Thu May 30 09:19:55 2024, MaxMem= 26843545600 cpu:               0.4 elap:               0.0
 (Enter /gpfs/fs1/soft/improv/software/custom-built/gaussian/g16/l302.exe)
 NPDir=0 NMtPBC=     1 NCelOv=     1 NCel=       1 NClECP=     1 NCelD=      1
         NCelK=      1 NCelE2=     1 NClLst=     1 CellRange=     0.0.
 One-electron integrals computed using PRISM.
 One-electron integral symmetry used in STVInt
 NBasis=   317 RedAO= T EigKep=  4.19D-05  NBF=   317
 NBsUse=   317 1.00D-06 EigRej= -1.00D+00 NBFU=   317
 Precomputing XC quadrature grid using
 IXCGrd= 4 IRadAn=           5 IRanWt=          -1 IRanGd=           0 AccXCQ= 0.00D+00.
 Generated NRdTot=       0 NPtTot=           0 NUsed=           0 NTot=          32
 NSgBfM=   347   347   347   347   347 MxSgAt=    19 MxSgA2=    19.
 Leave Link  302 at Thu May 30 09:19:55 2024, MaxMem= 26843545600 cpu:              21.8 elap:               0.3
 (Enter /gpfs/fs1/soft/improv/software/custom-built/gaussian/g16/l303.exe)
 DipDrv:  MaxL=1.
 Leave Link  303 at Thu May 30 09:19:55 2024, MaxMem= 26843545600 cpu:               0.9 elap:               0.0
 (Enter /gpfs/fs1/soft/improv/software/custom-built/gaussian/g16/l401.exe)
 ExpMin= 9.99D-03 ExpMax= 4.32D+04 ExpMxC= 6.48D+03 IAcc=3 IRadAn=         5 AccDes= 0.00D+00
 Harris functional with IExCor= 1009 and IRadAn=       5 diagonalized for initial guess.
 HarFok:  IExCor= 1009 AccDes= 0.00D+00 IRadAn=         5 IDoV= 1 UseB2=F ITyADJ=14
 ICtDFT=  3500011 ScaDFX=  1.000000  1.000000  1.000000  1.000000
 FoFCou: FMM=F IPFlag=           0 FMFlag=      100000 FMFlg1=           0
         NFxFlg=           0 DoJE=T BraDBF=F KetDBF=T FulRan=T
         wScrn=  0.000000 ICntrl=       500 IOpCl=  0 I1Cent=   200000004 NGrid=           0
         NMat0=    1 NMatS0=      1 NMatT0=    0 NMatD0=    1 NMtDS0=    0 NMtDT0=    0
 Petite list used in FoFCou.
 Harris En= -1306.94158290351    
 JPrj=0 DoOrth=F DoCkMO=F.
 Initial guess <Sx>= 0.0000 <Sy>= 0.0000 <Sz>= 1.0000 <S**2>= 2.0000 S= 1.0000
 Leave Link  401 at Thu May 30 09:19:56 2024, MaxMem= 26843545600 cpu:              40.0 elap:               0.5
 (Enter /gpfs/fs1/soft/improv/software/custom-built/gaussian/g16/l502.exe)
 Integral symmetry usage will be decided dynamically.
 UHF open shell SCF:
 Using DIIS extrapolation, IDIIS=  1040.
 NGot= 26843545600 LenX= 26843256607 LenY= 26843135757
 Requested convergence on RMS density matrix=1.00D-08 within  50 cycles.
 Requested convergence on MAX density matrix=1.00D-06.
 Requested convergence on             energy=1.00D-06.
 No special actions if energy rises.
 Fock matrices will be formed incrementally for  20 cycles.

 Cycle   1  Pass 1  IDiag  1:
 FoFJK:  IHMeth= 1 ICntrl=     500 DoSepK=F KAlg= 0 I1Cent=           0 FoldK=F
 IRaf= 990000000 NMat=       1 IRICut=       1 DoRegI=T DoRafI=F ISym2E= 0 IDoP0=0 IntGTp=1.
 FoFCou: FMM=F IPFlag=           0 FMFlag=      100000 FMFlg1=           0
         NFxFlg=           0 DoJE=T BraDBF=F KetDBF=F FulRan=T
         wScrn=  0.000000 ICntrl=       500 IOpCl=  0 I1Cent=           0 NGrid=           0
         NMat0=    1 NMatS0=      1 NMatT0=    0 NMatD0=    1 NMtDS0=    0 NMtDT0=    0
 Symmetry not used in FoFCou.
 E= -1306.13111099810    
 DIIS: error= 3.52D-02 at cycle   1 NSaved=   1.
 NSaved= 1 IEnMin= 1 EnMin= -1306.13111099810     IErMin= 1 ErrMin= 3.52D-02
 ErrMax= 3.52D-02  0.00D+00 EMaxC= 1.00D-01 BMatC= 2.51D+00 BMatP= 2.51D+00
 IDIUse=3 WtCom= 6.48D-01 WtEn= 3.52D-01
 Coeff-Com:  0.100D+01
 Coeff-En:   0.100D+01
 Coeff:      0.100D+01
 Gap=     0.022 Goal=   None    Shift=    0.000
 Gap=     0.320 Goal=   None    Shift=    0.000
 GapD=    0.022 DampG=0.250 DampE=0.250 DampFc=0.1250 IDamp=-1.
 Damping current iteration by 1.25D-01
 RMSDP=6.40D-02 MaxDP=5.52D+00              OVMax= 9.45D-01

 Cycle   2  Pass 1  IDiag  1:
 RMSU=  8.00D-03    CP:  1.00D+00
 E= -1306.27067733030     Delta-E=       -0.139566332194 Rises=F Damp=T
 DIIS: error= 2.33D-02 at cycle   2 NSaved=   2.
 NSaved= 2 IEnMin= 2 EnMin= -1306.27067733030     IErMin= 2 ErrMin= 2.33D-02
 ErrMax= 2.33D-02  0.00D+00 EMaxC= 1.00D-01 BMatC= 1.01D+00 BMatP= 2.51D+00
 IDIUse=3 WtCom= 7.67D-01 WtEn= 2.33D-01
 Coeff-Com: -0.149D+01 0.249D+01
 Coeff-En:   0.000D+00 0.100D+01
 Coeff:     -0.114D+01 0.214D+01
 Gap=     0.018 Goal=   None    Shift=    0.000
 Gap=     0.235 Goal=   None    Shift=    0.000
 RMSDP=8.65D-03 MaxDP=6.82D-01 DE=-1.40D-01 OVMax= 9.95D-01

 Cycle   3  Pass 1  IDiag  1:
 RMSU=  4.72D-03    CP:  9.42D-01  1.05D-01
 E= -1306.39688873255     Delta-E=       -0.126211402248 Rises=F Damp=F
 DIIS: error= 2.16D-02 at cycle   3 NSaved=   3.
 NSaved= 3 IEnMin= 3 EnMin= -1306.39688873255     IErMin= 3 ErrMin= 2.16D-02
 ErrMax= 2.16D-02  0.00D+00 EMaxC= 1.00D-01 BMatC= 1.12D+00 BMatP= 1.01D+00
 IDIUse=2 WtCom= 0.00D+00 WtEn= 1.00D+00
 Coeff-En:   0.000D+00 0.310D+00 0.690D+00
 Coeff:      0.000D+00 0.310D+00 0.690D+00
 Gap=     0.012 Goal=   None    Shift=    0.000
 Gap=     0.471 Goal=   None    Shift=    0.000
 RMSDP=5.22D-02 MaxDP=7.99D+00 DE=-1.26D-01 OVMax= 9.98D-01

 Cycle   4  Pass 1  IDiag  1:
 RMSU=  3.55D-02    CP:  1.02D+00  3.00D+00 -4.67D-01
 E= -1305.64473892249     Delta-E=        0.752149810053 Rises=F Damp=F
 DIIS: error= 4.39D-02 at cycle   4 NSaved=   4.
 NSaved= 4 IEnMin= 3 EnMin= -1306.39688873255     IErMin= 3 ErrMin= 2.16D-02
 ErrMax= 4.39D-02  0.00D+00 EMaxC= 1.00D-01 BMatC= 3.36D+00 BMatP= 1.01D+00
 IDIUse=2 WtCom= 0.00D+00 WtEn= 1.00D+00
 EnCoef did     1 forward-backward iterations
 Coeff-En:   0.666D-01 0.000D+00 0.671D+00 0.262D+00
 Coeff:      0.666D-01 0.000D+00 0.671D+00 0.262D+00
 Gap=     0.016 Goal=   None    Shift=    0.000
 Gap=     0.291 Goal=   None    Shift=    0.000
 RMSDP=4.98D-02 MaxDP=7.62D+00 DE= 7.52D-01 OVMax= 9.98D-01

 Cycle   5  Pass 1  IDiag  1:
 RMSU=  1.27D-02    CP:  9.60D-01  5.81D-01  3.92D-01  2.60D-02
 E= -1306.51308247491     Delta-E=       -0.868343552416 Rises=F Damp=F
 DIIS: error= 1.37D-02 at cycle   5 NSaved=   5.
 NSaved= 5 IEnMin= 5 EnMin= -1306.51308247491     IErMin= 5 ErrMin= 1.37D-02
 ErrMax= 1.37D-02  0.00D+00 EMaxC= 1.00D-01 BMatC= 4.64D-01 BMatP= 1.01D+00
 IDIUse=3 WtCom= 8.63D-01 WtEn= 1.37D-01
 Coeff-Com: -0.562D+00 0.873D+00 0.308D+00-0.361D-01 0.417D+00
 Coeff-En:   0.000D+00 0.000D+00 0.383D+00 0.000D+00 0.617D+00
 Coeff:     -0.486D+00 0.754D+00 0.319D+00-0.312D-01 0.445D+00
 Gap=     0.010 Goal=   None    Shift=    0.000
 Gap=     0.258 Goal=   None    Shift=    0.000
 RMSDP=1.15D-02 MaxDP=1.43D+00 DE=-8.68D-01 OVMax= 8.54D-01

 Cycle   6  Pass 1  IDiag  1:
 RMSU=  3.28D-03    CP:  9.59D-01  1.96D-01  7.46D-01 -2.34D-03  1.76D-01
 E= -1306.58898243219     Delta-E=       -0.075899957283 Rises=F Damp=F
 DIIS: error= 6.73D-03 at cycle   6 NSaved=   6.
 NSaved= 6 IEnMin= 6 EnMin= -1306.58898243219     IErMin= 6 ErrMin= 6.73D-03
 ErrMax= 6.73D-03  0.00D+00 EMaxC= 1.00D-01 BMatC= 8.08D-02 BMatP= 4.64D-01
 IDIUse=3 WtCom= 9.33D-01 WtEn= 6.73D-02
 Coeff-Com: -0.421D+00 0.535D+00-0.287D-02-0.267D-01 0.241D+00 0.674D+00
 Coeff-En:   0.000D+00 0.000D+00 0.000D+00 0.000D+00 0.277D+00 0.723D+00
 Coeff:     -0.392D+00 0.499D+00-0.268D-02-0.249D-01 0.244D+00 0.677D+00
 Gap=    -0.001 Goal=   None    Shift=    0.000
 Gap=     0.252 Goal=   None    Shift=    0.000
 RMSDP=1.18D-02 MaxDP=1.74D+00 DE=-7.59D-02 OVMax= 7.09D-01

 Cycle   7  Pass 1  IDiag  1:
 RMSU=  2.80D-03    CP:  9.58D-01  6.31D-01  5.30D-01  2.86D-02  1.01D+00
                    CP:  2.89D-01
 E= -1306.58587560783     Delta-E=        0.003106824360 Rises=F Damp=F
 DIIS: error= 7.02D-03 at cycle   7 NSaved=   7.
 NSaved= 7 IEnMin= 6 EnMin= -1306.58898243219     IErMin= 6 ErrMin= 6.73D-03
 ErrMax= 7.02D-03  0.00D+00 EMaxC= 1.00D-01 BMatC= 9.32D-02 BMatP= 8.08D-02
 IDIUse=3 WtCom= 9.33D-01 WtEn= 6.73D-02
 Coeff-Com: -0.124D+00 0.178D+00-0.671D-01-0.146D-01-0.767D-01 0.611D+00
 Coeff-Com:  0.493D+00
 Coeff-En:   0.000D+00 0.000D+00 0.000D+00 0.000D+00 0.000D+00 0.517D+00
 Coeff-En:   0.483D+00
 Coeff:     -0.116D+00 0.166D+00-0.626D-01-0.136D-01-0.715D-01 0.605D+00
 Coeff:      0.493D+00
 Gap=     0.007 Goal=   None    Shift=    0.000
 Gap=     0.254 Goal=   None    Shift=    0.000
 RMSDP=3.45D-03 MaxDP=5.74D-01 DE= 3.11D-03 OVMax= 2.04D-01

 Cycle   8  Pass 1  IDiag  1:
 RMSU=  1.14D-03    CP:  9.58D-01  5.27D-01  5.85D-01  1.58D-02  8.25D-01
                    CP:  8.46D-01  6.62D-01
 E= -1306.60341210764     Delta-E=       -0.017536499810 Rises=F Damp=F
 DIIS: error= 3.93D-03 at cycle   8 NSaved=   8.
 NSaved= 8 IEnMin= 8 EnMin= -1306.60341210764     IErMin= 8 ErrMin= 3.93D-03
 ErrMax= 3.93D-03  0.00D+00 EMaxC= 1.00D-01 BMatC= 3.14D-02 BMatP= 8.08D-02
 IDIUse=3 WtCom= 9.61D-01 WtEn= 3.93D-02
 Coeff-Com: -0.386D-01 0.622D-01-0.558D-01-0.520D-02-0.103D+00 0.449D+00
 Coeff-Com:  0.845D-01 0.607D+00
 Coeff-En:   0.000D+00 0.000D+00 0.000D+00 0.000D+00 0.000D+00 0.370D+00
 Coeff-En:   0.000D+00 0.630D+00
 Coeff:     -0.371D-01 0.598D-01-0.536D-01-0.500D-02-0.990D-01 0.446D+00
 Coeff:      0.811D-01 0.608D+00
 Gap=     0.007 Goal=   None    Shift=    0.000
 Gap=     0.253 Goal=   None    Shift=    0.000
 RMSDP=1.19D-03 MaxDP=1.21D-01 DE=-1.75D-02 OVMax= 5.03D-02

 Cycle   9  Pass 1  IDiag  1:
 RMSU=  5.46D-04    CP:  9.58D-01  4.94D-01  5.92D-01  1.80D-02  7.87D-01
                    CP:  8.68D-01  9.13D-01  5.11D-01
 E= -1306.60689269940     Delta-E=       -0.003480591759 Rises=F Damp=F
 DIIS: error= 3.04D-03 at cycle   9 NSaved=   9.
 NSaved= 9 IEnMin= 9 EnMin= -1306.60689269940     IErMin= 9 ErrMin= 3.04D-03
 ErrMax= 3.04D-03  0.00D+00 EMaxC= 1.00D-01 BMatC= 1.84D-02 BMatP= 3.14D-02
 IDIUse=3 WtCom= 9.70D-01 WtEn= 3.04D-02
 Coeff-Com: -0.545D-01 0.707D-01-0.231D-01-0.276D-02-0.183D-01 0.305D+00
 Coeff-Com: -0.263D+00 0.357D+00 0.630D+00
 Coeff-En:   0.000D+00 0.000D+00 0.000D+00 0.000D+00 0.000D+00 0.306D+00
 Coeff-En:   0.000D+00 0.000D+00 0.694D+00
 Coeff:     -0.528D-01 0.686D-01-0.224D-01-0.267D-02-0.178D-01 0.305D+00
 Coeff:     -0.255D+00 0.346D+00 0.632D+00
 Gap=     0.007 Goal=   None    Shift=    0.000
 Gap=     0.254 Goal=   None    Shift=    0.000
 RMSDP=1.38D-03 MaxDP=2.28D-01 DE=-3.48D-03 OVMax= 8.67D-02

 Cycle  10  Pass 1  IDiag  1:
 RMSU=  1.47D-04    CP:  9.59D-01  4.55D-01  6.16D-01  1.27D-02  7.04D-01
                    CP:  1.03D+00  7.40D-01  7.73D-01  7.41D-01
 E= -1306.61040656516     Delta-E=       -0.003513865756 Rises=F Damp=F
 DIIS: error= 1.67D-03 at cycle  10 NSaved=  10.
 NSaved=10 IEnMin=10 EnMin= -1306.61040656516     IErMin=10 ErrMin= 1.67D-03
 ErrMax= 1.67D-03  0.00D+00 EMaxC= 1.00D-01 BMatC= 5.80D-03 BMatP= 1.84D-02
 IDIUse=3 WtCom= 9.83D-01 WtEn= 1.67D-02
 Coeff-Com: -0.570D-01 0.658D-01-0.104D-01-0.771D-03 0.278D-01 0.186D+00
 Coeff-Com: -0.216D+00-0.100D+00 0.272D+00 0.833D+00
 Coeff-En:   0.000D+00 0.000D+00 0.000D+00 0.000D+00 0.000D+00 0.185D+00
 Coeff-En:   0.000D+00 0.000D+00 0.000D+00 0.815D+00
 Coeff:     -0.561D-01 0.647D-01-0.102D-01-0.758D-03 0.274D-01 0.186D+00
 Coeff:     -0.213D+00-0.984D-01 0.268D+00 0.833D+00
 Gap=     0.007 Goal=   None    Shift=    0.000
 Gap=     0.253 Goal=   None    Shift=    0.000
 RMSDP=5.18D-04 MaxDP=7.48D-02 DE=-3.51D-03 OVMax= 3.36D-02

 Cycle  11  Pass 1  IDiag  1:
 RMSU=  8.86D-05    CP:  9.59D-01  4.35D-01  6.26D-01  1.14D-02  6.69D-01
                    CP:  1.08D+00  7.06D-01  7.51D-01  8.02D-01  1.11D+00
 E= -1306.61127372908     Delta-E=       -0.000867163919 Rises=F Damp=F
 DIIS: error= 1.14D-03 at cycle  11 NSaved=  11.
 NSaved=11 IEnMin=11 EnMin= -1306.61127372908     IErMin=11 ErrMin= 1.14D-03
 ErrMax= 1.14D-03  0.00D+00 EMaxC= 1.00D-01 BMatC= 2.64D-03 BMatP= 5.80D-03
 IDIUse=3 WtCom= 9.89D-01 WtEn= 1.14D-02
 Coeff-Com: -0.228D-01 0.252D-01-0.588D-02 0.341D-03 0.119D-01 0.883D-01
 Coeff-Com: -0.223D-01-0.259D+00-0.182D+00 0.597D+00 0.769D+00
 Coeff-En:   0.000D+00 0.000D+00 0.000D+00 0.000D+00 0.000D+00 0.122D+00
 Coeff-En:   0.000D+00 0.000D+00 0.000D+00 0.000D+00 0.878D+00
 Coeff:     -0.225D-01 0.249D-01-0.582D-02 0.337D-03 0.117D-01 0.886D-01
 Coeff:     -0.220D-01-0.256D+00-0.179D+00 0.590D+00 0.770D+00
 Gap=     0.007 Goal=   None    Shift=    0.000
 Gap=     0.254 Goal=   None    Shift=    0.000
 RMSDP=5.02D-04 MaxDP=7.43D-02 DE=-8.67D-04 OVMax= 3.13D-02

 Cycle  12  Pass 1  IDiag  1:
 RMSU=  4.75D-05    CP:  9.59D-01  4.15D-01  6.36D-01  1.02D-02  6.34D-01
                    CP:  1.11D+00  6.68D-01  7.38D-01  8.50D-01  1.15D+00
                    CP:  1.17D+00
 E= -1306.61178350151     Delta-E=       -0.000509772429 Rises=F Damp=F
 DIIS: error= 6.12D-04 at cycle  12 NSaved=  12.
 NSaved=12 IEnMin=12 EnMin= -1306.61178350151     IErMin=12 ErrMin= 6.12D-04
 ErrMax= 6.12D-04  0.00D+00 EMaxC= 1.00D-01 BMatC= 7.42D-04 BMatP= 2.64D-03
 IDIUse=3 WtCom= 9.94D-01 WtEn= 6.12D-03
 Coeff-Com: -0.100D-01 0.114D-01-0.287D-02 0.305D-03 0.411D-02 0.466D-01
 Coeff-Com:  0.161D-01-0.170D+00-0.194D+00 0.250D+00 0.394D+00 0.654D+00
 Coeff-En:   0.000D+00 0.000D+00 0.000D+00 0.000D+00 0.000D+00 0.515D-01
 Coeff-En:   0.000D+00 0.000D+00 0.000D+00 0.000D+00 0.000D+00 0.948D+00
 Coeff:     -0.999D-02 0.113D-01-0.286D-02 0.303D-03 0.409D-02 0.467D-01
 Coeff:      0.160D-01-0.169D+00-0.193D+00 0.249D+00 0.392D+00 0.655D+00
 Gap=     0.007 Goal=   None    Shift=    0.000
 Gap=     0.254 Goal=   None    Shift=    0.000
 RMSDP=9.08D-05 MaxDP=7.28D-03 DE=-5.10D-04 OVMax= 6.27D-03

 Cycle  13  Pass 1  IDiag  1:
 RMSU=  2.28D-05    CP:  9.59D-01  4.11D-01  6.37D-01  1.02D-02  6.28D-01
                    CP:  1.12D+00  6.77D-01  7.23D-01  8.84D-01  1.33D+00
                    CP:  1.20D+00  8.56D-01
 E= -1306.61185754433     Delta-E=       -0.000074042825 Rises=F Damp=F
 DIIS: error= 4.68D-04 at cycle  13 NSaved=  13.
 NSaved=13 IEnMin=13 EnMin= -1306.61185754433     IErMin=13 ErrMin= 4.68D-04
 ErrMax= 4.68D-04  0.00D+00 EMaxC= 1.00D-01 BMatC= 4.48D-04 BMatP= 7.42D-04
 IDIUse=3 WtCom= 9.95D-01 WtEn= 4.68D-03
 Coeff-Com: -0.302D-02 0.348D-02-0.103D-02 0.987D-04 0.102D-02 0.241D-01
 Coeff-Com:  0.223D-01-0.906D-01-0.142D+00 0.626D-01 0.613D-01 0.413D+00
 Coeff-Com:  0.649D+00
 Coeff-En:   0.000D+00 0.000D+00 0.000D+00 0.000D+00 0.000D+00 0.332D-01
 Coeff-En:   0.000D+00 0.000D+00 0.000D+00 0.000D+00 0.000D+00 0.000D+00
 Coeff-En:   0.967D+00
 Coeff:     -0.301D-02 0.346D-02-0.103D-02 0.983D-04 0.102D-02 0.241D-01
 Coeff:      0.222D-01-0.901D-01-0.142D+00 0.623D-01 0.611D-01 0.411D+00
 Coeff:      0.651D+00
 Gap=     0.007 Goal=   None    Shift=    0.000
 Gap=     0.254 Goal=   None    Shift=    0.000
 RMSDP=1.39D-04 MaxDP=2.16D-02 DE=-7.40D-05 OVMax= 8.22D-03

 Cycle  14  Pass 1  IDiag  1:
 RMSU=  1.06D-05    CP:  9.59D-01  4.06D-01  6.40D-01  9.84D-03  6.19D-01
                    CP:  1.12D+00  6.62D-01  7.31D-01  8.75D-01  1.32D+00
                    CP:  1.28D+00  1.11D+00  1.22D+00
 E= -1306.61192357273     Delta-E=       -0.000066028396 Rises=F Damp=F
 DIIS: error= 3.12D-04 at cycle  14 NSaved=  14.
 NSaved=14 IEnMin=14 EnMin= -1306.61192357273     IErMin=14 ErrMin= 3.12D-04
 ErrMax= 3.12D-04  0.00D+00 EMaxC= 1.00D-01 BMatC= 1.96D-04 BMatP= 4.48D-04
 IDIUse=3 WtCom= 9.97D-01 WtEn= 3.12D-03
 Coeff-Com: -0.170D-02 0.194D-02-0.390D-03-0.306D-04 0.120D-02 0.138D-01
 Coeff-Com:  0.832D-02-0.289D-01-0.661D-01 0.218D-02-0.765D-01-0.477D-02
 Coeff-Com:  0.246D+00 0.905D+00
 Coeff-En:   0.000D+00 0.000D+00 0.000D+00 0.000D+00 0.000D+00 0.976D-02
 Coeff-En:   0.000D+00 0.000D+00 0.000D+00 0.000D+00 0.000D+00 0.000D+00
 Coeff-En:   0.000D+00 0.990D+00
 Coeff:     -0.170D-02 0.194D-02-0.388D-03-0.305D-04 0.120D-02 0.138D-01
 Coeff:      0.830D-02-0.288D-01-0.659D-01 0.218D-02-0.763D-01-0.475D-02
 Coeff:      0.246D+00 0.905D+00
 Gap=     0.007 Goal=   None    Shift=    0.000
 Gap=     0.254 Goal=   None    Shift=    0.000
 RMSDP=1.24D-04 MaxDP=1.72D-02 DE=-6.60D-05 OVMax= 7.91D-03

 Cycle  15  Pass 1  IDiag  1:
 RMSU=  5.36D-06    CP:  9.59D-01  4.01D-01  6.42D-01  9.59D-03  6.10D-01
                    CP:  1.13D+00  6.55D-01  7.28D-01  8.81D-01  1.33D+00
                    CP:  1.33D+00  1.28D+00  1.46D+00  1.48D+00
 E= -1306.61196173764     Delta-E=       -0.000038164916 Rises=F Damp=F
 DIIS: error= 1.59D-04 at cycle  15 NSaved=  15.
 NSaved=15 IEnMin=15 EnMin= -1306.61196173764     IErMin=15 ErrMin= 1.59D-04
 ErrMax= 1.59D-04  0.00D+00 EMaxC= 1.00D-01 BMatC= 5.09D-05 BMatP= 1.96D-04
 IDIUse=3 WtCom= 9.98D-01 WtEn= 1.59D-03
 Coeff-Com: -0.867D-03 0.959D-03-0.225D-03-0.181D-04 0.660D-03 0.622D-02
 Coeff-Com:  0.991D-03-0.521D-02-0.198D-01 0.657D-02-0.350D-01-0.110D+00
 Coeff-Com: -0.124D+00 0.304D+00 0.976D+00
 Coeff-En:   0.000D+00 0.000D+00 0.000D+00 0.000D+00 0.000D+00 0.000D+00
 Coeff-En:   0.000D+00 0.000D+00 0.000D+00 0.000D+00 0.000D+00 0.000D+00
 Coeff-En:   0.000D+00 0.000D+00 0.100D+01
 Coeff:     -0.866D-03 0.957D-03-0.225D-03-0.180D-04 0.659D-03 0.621D-02
 Coeff:      0.990D-03-0.520D-02-0.198D-01 0.656D-02-0.349D-01-0.110D+00
 Coeff:     -0.124D+00 0.304D+00 0.976D+00
 Gap=     0.007 Goal=   None    Shift=    0.000
 Gap=     0.254 Goal=   None    Shift=    0.000
 RMSDP=9.74D-05 MaxDP=1.41D-02 DE=-3.82D-05 OVMax= 6.32D-03

 Cycle  16  Pass 1  IDiag  1:
 RMSU=  2.95D-06    CP:  9.59D-01  3.98D-01  6.44D-01  9.36D-03  6.03D-01
                    CP:  1.13D+00  6.46D-01  7.28D-01  8.77D-01  1.34D+00
                    CP:  1.34D+00  1.39D+00  1.58D+00  1.88D+00  1.65D+00
 E= -1306.61197421838     Delta-E=       -0.000012480741 Rises=F Damp=F
 DIIS: error= 4.19D-05 at cycle  16 NSaved=  16.
 NSaved=16 IEnMin=16 EnMin= -1306.61197421838     IErMin=16 ErrMin= 4.19D-05
 ErrMax= 4.19D-05  0.00D+00 EMaxC= 1.00D-01 BMatC= 3.55D-06 BMatP= 5.09D-05
 IDIUse=1 WtCom= 1.00D+00 WtEn= 0.00D+00
 Coeff-Com: -0.288D-03 0.292D-03-0.141D-03 0.309D-05 0.134D-03 0.208D-02
 Coeff-Com: -0.243D-03-0.400D-03-0.380D-02 0.910D-02 0.134D-02-0.641D-01
 Coeff-Com: -0.130D+00-0.470D-01 0.581D+00 0.652D+00
 Coeff:     -0.288D-03 0.292D-03-0.141D-03 0.309D-05 0.134D-03 0.208D-02
 Coeff:     -0.243D-03-0.400D-03-0.380D-02 0.910D-02 0.134D-02-0.641D-01
 Coeff:     -0.130D+00-0.470D-01 0.581D+00 0.652D+00
 Gap=     0.007 Goal=   None    Shift=    0.000
 Gap=     0.254 Goal=   None    Shift=    0.000
 RMSDP=3.59D-05 MaxDP=5.20D-03 DE=-1.25D-05 OVMax= 2.30D-03

 Cycle  17  Pass 1  IDiag  1:
 RMSU=  1.24D-06    CP:  9.59D-01  3.96D-01  6.45D-01  9.28D-03  6.01D-01
                    CP:  1.14D+00  6.43D-01  7.28D-01  8.77D-01  1.33D+00
                    CP:  1.35D+00  1.42D+00  1.60D+00  2.01D+00  1.92D+00
                    CP:  8.96D-01
 E= -1306.61197515259     Delta-E=       -0.000000934205 Rises=F Damp=F
 DIIS: error= 2.02D-06 at cycle  17 NSaved=  17.
 NSaved=17 IEnMin=17 EnMin= -1306.61197515259     IErMin=17 ErrMin= 2.02D-06
 ErrMax= 2.02D-06  0.00D+00 EMaxC= 1.00D-01 BMatC= 1.73D-08 BMatP= 3.55D-06
 IDIUse=1 WtCom= 1.00D+00 WtEn= 0.00D+00
 Coeff-Com: -0.143D-03 0.146D-03-0.835D-04 0.391D-05 0.387D-05 0.927D-03
 Coeff-Com:  0.530D-04-0.976D-03-0.207D-02 0.601D-02 0.680D-02-0.166D-01
 Coeff-Com: -0.440D-01-0.632D-01 0.182D+00 0.401D+00 0.530D+00
 Coeff:     -0.143D-03 0.146D-03-0.835D-04 0.391D-05 0.387D-05 0.927D-03
 Coeff:      0.530D-04-0.976D-03-0.207D-02 0.601D-02 0.680D-02-0.166D-01
 Coeff:     -0.440D-01-0.632D-01 0.182D+00 0.401D+00 0.530D+00
 Gap=     0.007 Goal=   None    Shift=    0.000
 Gap=     0.254 Goal=   None    Shift=    0.000
 RMSDP=1.43D-06 MaxDP=1.67D-04 DE=-9.34D-07 OVMax= 6.53D-05

 Cycle  18  Pass 1  IDiag  1:
 RMSU=  6.87D-07    CP:  9.59D-01  3.96D-01  6.45D-01  9.28D-03  6.01D-01
                    CP:  1.14D+00  6.44D-01  7.27D-01  8.77D-01  1.33D+00
                    CP:  1.35D+00  1.41D+00  1.58D+00  2.02D+00  1.94D+00
                    CP:  9.94D-01  1.05D+00
 E= -1306.61197515586     Delta-E=       -0.000000003274 Rises=F Damp=F
 DIIS: error= 5.21D-07 at cycle  18 NSaved=  18.
 NSaved=18 IEnMin=18 EnMin= -1306.61197515586     IErMin=18 ErrMin= 5.21D-07
 ErrMax= 5.21D-07  0.00D+00 EMaxC= 1.00D-01 BMatC= 1.35D-09 BMatP= 1.73D-08
 IDIUse=1 WtCom= 1.00D+00 WtEn= 0.00D+00
 Coeff-Com: -0.510D-05 0.174D-05-0.381D-05-0.368D-06-0.186D-04-0.497D-05
 Coeff-Com:  0.343D-04-0.502D-03 0.769D-05 0.141D-02 0.307D-02 0.644D-02
 Coeff-Com:  0.103D-01-0.200D-01-0.512D-01 0.376D-01 0.223D+00 0.790D+00
 Coeff:     -0.510D-05 0.174D-05-0.381D-05-0.368D-06-0.186D-04-0.497D-05
 Coeff:      0.343D-04-0.502D-03 0.769D-05 0.141D-02 0.307D-02 0.644D-02
 Coeff:      0.103D-01-0.200D-01-0.512D-01 0.376D-01 0.223D+00 0.790D+00
 Gap=     0.007 Goal=   None    Shift=    0.000
 Gap=     0.254 Goal=   None    Shift=    0.000
 RMSDP=8.94D-07 MaxDP=1.12D-04 DE=-3.27D-09 OVMax= 7.57D-05

 Cycle  19  Pass 1  IDiag  1:
 RMSU=  1.47D-07    CP:  9.59D-01  3.96D-01  6.45D-01  9.28D-03  6.01D-01
                    CP:  1.14D+00  6.44D-01  7.27D-01  8.77D-01  1.33D+00
                    CP:  1.35D+00  1.41D+00  1.57D+00  2.01D+00  1.94D+00
                    CP:  1.01D+00  1.18D+00  1.02D+00
 E= -1306.61197515588     Delta-E=       -0.000000000015 Rises=F Damp=F
 DIIS: error= 7.08D-07 at cycle  19 NSaved=  19.
 NSaved=19 IEnMin=19 EnMin= -1306.61197515588     IErMin=18 ErrMin= 5.21D-07
 ErrMax= 7.08D-07  0.00D+00 EMaxC= 1.00D-01 BMatC= 1.18D-09 BMatP= 1.35D-09
 IDIUse=1 WtCom= 1.00D+00 WtEn= 0.00D+00
 Coeff-Com:  0.105D-04-0.134D-04 0.507D-05-0.279D-06-0.722D-05-0.743D-04
 Coeff-Com:  0.773D-05-0.154D-03 0.188D-03 0.128D-03 0.662D-03 0.442D-02
 Coeff-Com:  0.854D-02-0.378D-02-0.362D-01-0.124D-01 0.554D-01 0.361D+00
 Coeff-Com:  0.622D+00
 Coeff:      0.105D-04-0.134D-04 0.507D-05-0.279D-06-0.722D-05-0.743D-04
 Coeff:      0.773D-05-0.154D-03 0.188D-03 0.128D-03 0.662D-03 0.442D-02
 Coeff:      0.854D-02-0.378D-02-0.362D-01-0.124D-01 0.554D-01 0.361D+00
 Coeff:      0.622D+00
 Gap=     0.007 Goal=   None    Shift=    0.000
 Gap=     0.254 Goal=   None    Shift=    0.000
 RMSDP=2.71D-07 MaxDP=3.80D-05 DE=-1.52D-11 OVMax= 1.25D-05

 Cycle  20  Pass 1  IDiag  1:
 RMSU=  5.96D-08    CP:  9.59D-01  3.96D-01  6.45D-01  9.28D-03  6.01D-01
                    CP:  1.14D+00  6.44D-01  7.27D-01  8.77D-01  1.33D+00
                    CP:  1.35D+00  1.41D+00  1.57D+00  2.01D+00  1.94D+00
                    CP:  1.00D+00  1.22D+00  1.15D+00  1.06D+00
 E= -1306.61197515605     Delta-E=       -0.000000000176 Rises=F Damp=F
 DIIS: error= 5.28D-07 at cycle  20 NSaved=  20.
 NSaved=20 IEnMin=20 EnMin= -1306.61197515605     IErMin=18 ErrMin= 5.21D-07
 ErrMax= 5.28D-07  0.00D+00 EMaxC= 1.00D-01 BMatC= 5.55D-10 BMatP= 1.18D-09
 IDIUse=1 WtCom= 1.00D+00 WtEn= 0.00D+00
 Coeff-Com:  0.167D-05-0.242D-05-0.171D-07 0.500D-07 0.497D-07-0.173D-05
 Coeff-Com:  0.714D-05-0.617D-04-0.437D-05-0.414D-04-0.158D-03 0.119D-02
 Coeff-Com:  0.283D-02 0.159D-02-0.786D-02-0.707D-02-0.466D-02 0.513D-01
 Coeff-Com:  0.380D+00 0.583D+00
 Coeff:      0.167D-05-0.242D-05-0.171D-07 0.500D-07 0.497D-07-0.173D-05
 Coeff:      0.714D-05-0.617D-04-0.437D-05-0.414D-04-0.158D-03 0.119D-02
 Coeff:      0.283D-02 0.159D-02-0.786D-02-0.707D-02-0.466D-02 0.513D-01
 Coeff:      0.380D+00 0.583D+00
 Gap=     0.007 Goal=   None    Shift=    0.000
 Gap=     0.254 Goal=   None    Shift=    0.000
 RMSDP=5.17D-07 MaxDP=7.50D-05 DE=-1.76D-10 OVMax= 3.41D-05

 Cycle  21  Pass 1  IDiag  1:
 Restarting incremental Fock formation.
 E= -1306.61197515621     Delta-E=       -0.000000000158 Rises=F Damp=F
 DIIS: error= 1.57D-07 at cycle  21 NSaved=  20.
 NSaved=20 IEnMin=20 EnMin= -1306.61197515621     IErMin=20 ErrMin= 1.57D-07
 ErrMax= 1.57D-07  0.00D+00 EMaxC= 1.00D-01 BMatC= 5.28D-11 BMatP= 5.55D-10
 IDIUse=1 WtCom= 1.00D+00 WtEn= 0.00D+00
 Coeff-Com:  0.160D-05-0.161D-05 0.437D-06 0.502D-06-0.818D-05-0.149D-04
 Coeff-Com:  0.628D-04 0.629D-04-0.729D-04-0.191D-03-0.454D-03-0.523D-03
 Coeff-Com:  0.360D-03 0.252D-02 0.590D-03-0.130D-01-0.629D-01 0.415D-01
 Coeff-Com:  0.273D+00 0.759D+00
 Coeff:      0.160D-05-0.161D-05 0.437D-06 0.502D-06-0.818D-05-0.149D-04
 Coeff:      0.628D-04 0.629D-04-0.729D-04-0.191D-03-0.454D-03-0.523D-03
 Coeff:      0.360D-03 0.252D-02 0.590D-03-0.130D-01-0.629D-01 0.415D-01
 Coeff:      0.273D+00 0.759D+00
 Gap=     0.007 Goal=   None    Shift=    0.000
 Gap=     0.254 Goal=   None    Shift=    0.000
 RMSDP=1.89D-07 MaxDP=2.66D-05 DE=-1.58D-10 OVMax= 1.28D-05

 Cycle  22  Pass 1  IDiag  1:
 RMSU=  1.80D-07    CP:  1.00D+00
 E= -1306.61197515621     Delta-E=        0.000000000004 Rises=F Damp=F
 DIIS: error= 8.57D-08 at cycle  22 NSaved=  20.
 NSaved=20 IEnMin=19 EnMin= -1306.61197515621     IErMin=20 ErrMin= 8.57D-08
 ErrMax= 8.57D-08  0.00D+00 EMaxC= 1.00D-01 BMatC= 1.50D-11 BMatP= 5.28D-11
 IDIUse=1 WtCom= 1.00D+00 WtEn= 0.00D+00
 Coeff-Com:  0.120D-06-0.179D-07 0.280D-07-0.643D-06-0.259D-05 0.162D-04
 Coeff-Com:  0.568D-05-0.649D-05-0.233D-04-0.196D-03-0.246D-03-0.136D-03
 Coeff-Com:  0.122D-02 0.185D-02-0.113D-02-0.223D-01-0.430D-01-0.321D-01
 Coeff-Com:  0.978D-01 0.998D+00
 Coeff:      0.120D-06-0.179D-07 0.280D-07-0.643D-06-0.259D-05 0.162D-04
 Coeff:      0.568D-05-0.649D-05-0.233D-04-0.196D-03-0.246D-03-0.136D-03
 Coeff:      0.122D-02 0.185D-02-0.113D-02-0.223D-01-0.430D-01-0.321D-01
 Coeff:      0.978D-01 0.998D+00
 Gap=     0.007 Goal=   None    Shift=    0.000
 Gap=     0.254 Goal=   None    Shift=    0.000
 RMSDP=6.64D-08 MaxDP=1.00D-05 DE= 4.32D-12 OVMax= 4.11D-06

 Cycle  23  Pass 1  IDiag  1:
 RMSU=  3.42D-08    CP:  1.00D+00  7.06D-01
 E= -1306.61197515621     Delta-E=       -0.000000000000 Rises=F Damp=F
 DIIS: error= 1.62D-08 at cycle  23 NSaved=  20.
 NSaved=20 IEnMin=18 EnMin= -1306.61197515621     IErMin=20 ErrMin= 1.62D-08
 ErrMax= 1.62D-08  0.00D+00 EMaxC= 1.00D-01 BMatC= 6.67D-13 BMatP= 1.50D-11
 IDIUse=1 WtCom= 1.00D+00 WtEn= 0.00D+00
 Coeff-Com:  0.187D-06-0.469D-07-0.187D-05 0.528D-06-0.499D-06-0.157D-05
 Coeff-Com:  0.607D-05 0.204D-04 0.485D-04 0.812D-04-0.161D-03-0.461D-03
 Coeff-Com:  0.763D-03 0.348D-02 0.699D-02-0.194D-01-0.687D-01-0.151D+00
 Coeff-Com:  0.289D+00 0.940D+00
 Coeff:      0.187D-06-0.469D-07-0.187D-05 0.528D-06-0.499D-06-0.157D-05
 Coeff:      0.607D-05 0.204D-04 0.485D-04 0.812D-04-0.161D-03-0.461D-03
 Coeff:      0.763D-03 0.348D-02 0.699D-02-0.194D-01-0.687D-01-0.151D+00
 Coeff:      0.289D+00 0.940D+00
 Gap=     0.007 Goal=   None    Shift=    0.000
 Gap=     0.254 Goal=   None    Shift=    0.000
 RMSDP=1.17D-08 MaxDP=9.19D-07 DE=-4.55D-13 OVMax= 1.25D-06

 Cycle  24  Pass 1  IDiag  1:
 RMSU=  5.60D-09    CP:  1.00D+00  6.87D-01  1.28D+00
 E= -1306.61197515622     Delta-E=       -0.000000000014 Rises=F Damp=F
 DIIS: error= 1.11D-08 at cycle  24 NSaved=  20.
 NSaved=20 IEnMin=20 EnMin= -1306.61197515622     IErMin=20 ErrMin= 1.11D-08
 ErrMax= 1.11D-08  0.00D+00 EMaxC= 1.00D-01 BMatC= 2.60D-13 BMatP= 6.67D-13
 IDIUse=1 WtCom= 1.00D+00 WtEn= 0.00D+00
 Coeff-Com: -0.143D-06-0.457D-06 0.283D-06-0.429D-06-0.553D-06 0.132D-05
 Coeff-Com:  0.479D-05 0.406D-04 0.559D-04-0.241D-04-0.291D-03 0.157D-03
 Coeff-Com:  0.151D-02 0.472D-02-0.277D-03-0.169D-01-0.521D-01-0.929D-02
 Coeff-Com:  0.194D+00 0.878D+00
 Coeff:     -0.143D-06-0.457D-06 0.283D-06-0.429D-06-0.553D-06 0.132D-05
 Coeff:      0.479D-05 0.406D-04 0.559D-04-0.241D-04-0.291D-03 0.157D-03
 Coeff:      0.151D-02 0.472D-02-0.277D-03-0.169D-01-0.521D-01-0.929D-02
 Coeff:      0.194D+00 0.878D+00
 Gap=     0.007 Goal=   None    Shift=    0.000
 Gap=     0.254 Goal=   None    Shift=    0.000
 RMSDP=1.05D-08 MaxDP=1.26D-06 DE=-1.36D-11 OVMax= 8.08D-07

 Cycle  25  Pass 1  IDiag  1:
 RMSU=  1.76D-09    CP:  1.00D+00  6.40D-01  1.39D+00  1.58D+00
 E= -1306.61197515621     Delta-E=        0.000000000012 Rises=F Damp=F
 DIIS: error= 1.71D-09 at cycle  25 NSaved=  20.
 NSaved=20 IEnMin=19 EnMin= -1306.61197515622     IErMin=20 ErrMin= 1.71D-09
 ErrMax= 1.71D-09  0.00D+00 EMaxC= 1.00D-01 BMatC= 1.35D-14 BMatP= 2.60D-13
 IDIUse=1 WtCom= 1.00D+00 WtEn= 0.00D+00
 Coeff-Com: -0.134D-06-0.321D-06 0.608D-06 0.132D-05-0.155D-05-0.288D-05
 Coeff-Com:  0.934D-05 0.130D-04 0.232D-04-0.772D-04-0.840D-04 0.586D-04
 Coeff-Com:  0.707D-03 0.270D-02 0.347D-02 0.236D-02-0.504D-01-0.116D+00
 Coeff-Com:  0.524D+00 0.633D+00
 Coeff:     -0.134D-06-0.321D-06 0.608D-06 0.132D-05-0.155D-05-0.288D-05
 Coeff:      0.934D-05 0.130D-04 0.232D-04-0.772D-04-0.840D-04 0.586D-04
 Coeff:      0.707D-03 0.270D-02 0.347D-02 0.236D-02-0.504D-01-0.116D+00
 Coeff:      0.524D+00 0.633D+00
 Gap=     0.007 Goal=   None    Shift=    0.000
 Gap=     0.254 Goal=   None    Shift=    0.000
 RMSDP=1.44D-09 MaxDP=8.19D-08 DE= 1.16D-11 OVMax= 1.42D-07

 SCF Done:  E(UPBE-PBE) =  -1306.61197516     A.U. after   25 cycles
            NFock= 25  Conv=0.14D-08     -V/T= 2.0003
 <Sx>= 0.0000 <Sy>= 0.0000 <Sz>= 1.0000 <S**2>= 2.0024 S= 1.0008
 <L.S>=  0.00000000000    
 KE= 1.306205555454D+03 PE=-4.467686796061D+03 EE= 1.153847515691D+03
 Annihilation of the first spin contaminant:
 S**2 before annihilation     2.0024,   after     2.0000
 Leave Link  502 at Thu May 30 09:21:22 2024, MaxMem= 26843545600 cpu:           10271.2 elap:              85.3
 (Enter /gpfs/fs1/soft/improv/software/custom-built/gaussian/g16/l508.exe)
 QCSCF skips out because SCF is already converged.
 Leave Link  508 at Thu May 30 09:21:22 2024, MaxMem= 26843545600 cpu:               0.2 elap:               0.0
 (Enter /gpfs/fs1/soft/improv/software/custom-built/gaussian/g16/l801.exe)
 DoSCS=F DFT=T ScalE2(SS,OS)=  1.000000  1.000000
 Range of M.O.s used for correlation:     1   317
 NBasis=   317 NAE=    41 NBE=    39 NFC=     0 NFV=     0
 NROrb=    317 NOA=    41 NOB=    39 NVA=   276 NVB=   278

 **** Warning!!: The largest alpha MO coefficient is  0.78988673D+02


 **** Warning!!: The smallest alpha delta epsilon is  0.69891401D-02


 **** Warning!!: The largest beta MO coefficient is  0.78982156D+02

 Leave Link  801 at Thu May 30 09:21:22 2024, MaxMem= 26843545600 cpu:               0.3 elap:               0.0
 (Enter /gpfs/fs1/soft/improv/software/custom-built/gaussian/g16/l1101.exe)
 Using compressed storage, NAtomX=    19.
 Will process     20 centers per pass.
 R6Disp: Adding Grimme-D3 dispersion energy 1st derivatives to the gradient.
 Leave Link 1101 at Thu May 30 09:21:23 2024, MaxMem= 26843545600 cpu:              51.4 elap:               0.5
 (Enter /gpfs/fs1/soft/improv/software/custom-built/gaussian/g16/l1102.exe)
 Symmetrizing basis deriv contribution to polar:
 IMax=3 JMax=2 DiffMx= 0.00D+00
 Leave Link 1102 at Thu May 30 09:21:23 2024, MaxMem= 26843545600 cpu:               0.9 elap:               0.0
 (Enter /gpfs/fs1/soft/improv/software/custom-built/gaussian/g16/l1110.exe)
 Forming Gx(P) for the SCF density, NAtomX=    19.
 Integral derivatives from FoFJK, PRISM(SPDF).
 Do as many integral derivatives as possible in FoFJK.
 G2DrvN: MDV=   26843543431.
 G2DrvN: will do    20 centers at a time, making    1 passes.
 Calling FoFCou, ICntrl=  3507 FMM=F I1Cent=   0 AccDes= 0.00D+00.
 FoFJK:  IHMeth= 1 ICntrl=    3507 DoSepK=F KAlg= 0 I1Cent=           0 FoldK=F
 IRaf=         0 NMat=       1 IRICut=       1 DoRegI=T DoRafI=F ISym2E= 0 IDoP0=0 IntGTp=1.
 FoFCou: FMM=F IPFlag=           0 FMFlag=      100000 FMFlg1=           0
         NFxFlg=           0 DoJE=F BraDBF=F KetDBF=F FulRan=T
         wScrn=  0.000000 ICntrl=      3507 IOpCl=  0 I1Cent=           0 NGrid=           0
         NMat0=    1 NMatS0=      1 NMatT0=    0 NMatD0=    1 NMtDS0=    0 NMtDT0=    0
 Symmetry not used in FoFCou.
 End of G2Drv F.D. properties file   721 does not exist.
 End of G2Drv F.D. properties file   722 does not exist.
 End of G2Drv F.D. properties file   788 does not exist.
 Leave Link 1110 at Thu May 30 09:21:37 2024, MaxMem= 26843545600 cpu:            1750.4 elap:              14.1
 (Enter /gpfs/fs1/soft/improv/software/custom-built/gaussian/g16/l1002.exe)
 Minotr:  UHF open shell wavefunction.
          IDoAtm=1111111111111111111
          Direct CPHF calculation.
          Differentiating once with respect to electric field.
                with respect to dipole field.
          Differentiating once with respect to nuclear coordinates.
          Requested convergence is 1.0D-08 RMS, and 1.0D-07 maximum.
          Secondary convergence is 1.0D-12 RMS, and 1.0D-12 maximum.
          NewPWx=T KeepS1=F KeepF1=F KeepIn=T MapXYZ=F SortEE=F KeepMc=T.
         6034 words used for storage of precomputed grid.
 Two-electron integrals replicated using symmetry.
          MDV=   26843545600 using IRadAn=       1.
          Solving linear equations simultaneously, MaxMat=     384.
 FoF2E skips out because all densities are zero.
 CalDSu exits because no D1Ps are significant.
 FoFJK:  IHMeth= 1 ICntrl=     500 DoSepK=F KAlg= 0 I1Cent=           0 FoldK=F
 IRaf= 990000000 NMat=      57 IRICut=       1 DoRegI=T DoRafI=F ISym2E= 2 IDoP0=3 IntGTp=2.
 FoFCou: FMM=F IPFlag=           0 FMFlag=      100000 FMFlg1=           0
         NFxFlg=           0 DoJE=F BraDBF=F KetDBF=F FulRan=T
         wScrn=  0.000000 ICntrl=       500 IOpCl=  0 I1Cent=           0 NGrid=           0
         NMat0=   57 NMatS0=     57 NMatT0=    0 NMatD0=   57 NMtDS0=    0 NMtDT0=    0
 Integrals replicated using symmetry in FoFCou.
          There are    60 degrees of freedom in the 1st order CPHF.  IDoFFX=6 NUNeed=     3.
     57 vectors produced by pass  0 Test12= 3.69D-14 1.67D-09 XBig12= 9.33D+03 6.92D+01.
 AX will form    57 AO Fock derivatives at one time.
     57 vectors produced by pass  1 Test12= 3.69D-14 1.67D-09 XBig12= 4.97D+03 1.84D+01.
     57 vectors produced by pass  2 Test12= 3.69D-14 1.67D-09 XBig12= 4.02D+01 7.93D-01.
     57 vectors produced by pass  3 Test12= 3.69D-14 1.67D-09 XBig12= 1.79D-01 3.61D-02.
     57 vectors produced by pass  4 Test12= 3.69D-14 1.67D-09 XBig12= 1.09D-03 2.79D-03.
     57 vectors produced by pass  5 Test12= 3.69D-14 1.67D-09 XBig12= 3.80D-06 1.62D-04.
     26 vectors produced by pass  6 Test12= 3.69D-14 1.67D-09 XBig12= 5.69D-09 6.79D-06.
      3 vectors produced by pass  7 Test12= 3.69D-14 1.67D-09 XBig12= 1.02D-11 2.44D-07.
      2 vectors produced by pass  8 Test12= 3.69D-14 1.67D-09 XBig12= 1.47D-14 1.02D-08.
 InvSVY:  IOpt=1 It=  1 EMax= 7.11D-14
 Solved reduced A of dimension   373 with    60 vectors.
 FullF1:  Do perturbations      1 to       3.
 Isotropic polarizability for W=    0.000000      117.19 Bohr**3.
 End of Minotr F.D. properties file   721 does not exist.
 End of Minotr F.D. properties file   722 does not exist.
 End of Minotr F.D. properties file   788 does not exist.
 Leave Link 1002 at Thu May 30 09:22:26 2024, MaxMem= 26843545600 cpu:            5782.0 elap:              48.4
 (Enter /gpfs/fs1/soft/improv/software/custom-built/gaussian/g16/l601.exe)
 Copying SCF densities to generalized density rwf, IOpCl= 1 IROHF=0.

 **********************************************************************

            Population analysis using the SCF Density.

 **********************************************************************

 Orbital symmetries:
 Alpha Orbitals:
       Occupied  (A) (A) (A) (A) (A) (A) (A) (A) (A) (A) (A) (A)
                 (A) (A) (A) (A) (A) (A) (A) (A) (A) (A) (A) (A)
                 (A) (A) (A) (A) (A) (A) (A) (A) (A) (A) (A) (A)
                 (A) (A) (A) (A) (A)
       Virtual   (A) (A) (A) (A) (A) (A) (A) (A) (A) (A) (A) (A)
                 (A) (A) (A) (A) (A) (A) (A) (A) (A) (A) (A) (A)
                 (A) (A) (A) (A) (A) (A) (A) (A) (A) (A) (A) (A)
                 (A) (A) (A) (A) (A) (A) (A) (A) (A) (A) (A) (A)
                 (A) (A) (A) (A) (A) (A) (A) (A) (A) (A) (A) (A)
                 (A) (A) (A) (A) (A) (A) (A) (A) (A) (A) (A) (A)
                 (A) (A) (A) (A) (A) (A) (A) (A) (A) (A) (A) (A)
                 (A) (A) (A) (A) (A) (A) (A) (A) (A) (A) (A) (A)
                 (A) (A) (A) (A) (A) (A) (A) (A) (A) (A) (A) (A)
                 (A) (A) (A) (A) (A) (A) (A) (A) (A) (A) (A) (A)
                 (A) (A) (A) (A) (A) (A) (A) (A) (A) (A) (A) (A)
                 (A) (A) (A) (A) (A) (A) (A) (A) (A) (A) (A) (A)
                 (A) (A) (A) (A) (A) (A) (A) (A) (A) (A) (A) (A)
                 (A) (A) (A) (A) (A) (A) (A) (A) (A) (A) (A) (A)
                 (A) (A) (A) (A) (A) (A) (A) (A) (A) (A) (A) (A)
                 (A) (A) (A) (A) (A) (A) (A) (A) (A) (A) (A) (A)
                 (A) (A) (A) (A) (A) (A) (A) (A) (A) (A) (A) (A)
                 (A) (A) (A) (A) (A) (A) (A) (A) (A) (A) (A) (A)
                 (A) (A) (A) (A) (A) (A) (A) (A) (A) (A) (A) (A)
                 (A) (A) (A) (A) (A) (A) (A) (A) (A) (A) (A) (A)
                 (A) (A) (A) (A) (A) (A) (A) (A) (A) (A) (A) (A)
                 (A) (A) (A) (A) (A) (A) (A) (A) (A) (A) (A) (A)
                 (A) (A) (A) (A) (A) (A) (A) (A) (A) (A) (A) (A)
 Beta  Orbitals:
       Occupied  (A) (A) (A) (A) (A) (A) (A) (A) (A) (A) (A) (A)
                 (A) (A) (A) (A) (A) (A) (A) (A) (A) (A) (A) (A)
                 (A) (A) (A) (A) (A) (A) (A) (A) (A) (A) (A) (A)
                 (A) (A) (A)
       Virtual   (A) (A) (A) (A) (A) (A) (A) (A) (A) (A) (A) (A)
                 (A) (A) (A) (A) (A) (A) (A) (A) (A) (A) (A) (A)
                 (A) (A) (A) (A) (A) (A) (A) (A) (A) (A) (A) (A)
                 (A) (A) (A) (A) (A) (A) (A) (A) (A) (A) (A) (A)
                 (A) (A) (A) (A) (A) (A) (A) (A) (A) (A) (A) (A)
                 (A) (A) (A) (A) (A) (A) (A) (A) (A) (A) (A) (A)
                 (A) (A) (A) (A) (A) (A) (A) (A) (A) (A) (A) (A)
                 (A) (A) (A) (A) (A) (A) (A) (A) (A) (A) (A) (A)
                 (A) (A) (A) (A) (A) (A) (A) (A) (A) (A) (A) (A)
                 (A) (A) (A) (A) (A) (A) (A) (A) (A) (A) (A) (A)
                 (A) (A) (A) (A) (A) (A) (A) (A) (A) (A) (A) (A)
                 (A) (A) (A) (A) (A) (A) (A) (A) (A) (A) (A) (A)
                 (A) (A) (A) (A) (A) (A) (A) (A) (A) (A) (A) (A)
                 (A) (A) (A) (A) (A) (A) (A) (A) (A) (A) (A) (A)
                 (A) (A) (A) (A) (A) (A) (A) (A) (A) (A) (A) (A)
                 (A) (A) (A) (A) (A) (A) (A) (A) (A) (A) (A) (A)
                 (A) (A) (A) (A) (A) (A) (A) (A) (A) (A) (A) (A)
                 (A) (A) (A) (A) (A) (A) (A) (A) (A) (A) (A) (A)
                 (A) (A) (A) (A) (A) (A) (A) (A) (A) (A) (A) (A)
                 (A) (A) (A) (A) (A) (A) (A) (A) (A) (A) (A) (A)
                 (A) (A) (A) (A) (A) (A) (A) (A) (A) (A) (A) (A)
                 (A) (A) (A) (A) (A) (A) (A) (A) (A) (A) (A) (A)
                 (A) (A) (A) (A) (A) (A) (A) (A) (A) (A) (A) (A)
                 (A) (A)
 The electronic state is 3-A.
 Alpha  occ. eigenvalues -- -177.90587 -19.71217 -19.18473 -19.18437 -19.17602
 Alpha  occ. eigenvalues --  -19.17318 -19.16821 -19.16790 -16.49960 -16.49682
 Alpha  occ. eigenvalues --  -16.49059  -2.51855  -1.70019  -1.69655  -1.69055
 Alpha  occ. eigenvalues --   -1.36767  -1.35070  -1.34274  -1.33493  -1.32804
 Alpha  occ. eigenvalues --   -1.32511  -0.93611  -0.92520  -0.90403  -0.90127
 Alpha  occ. eigenvalues --   -0.89475  -0.88043  -0.80700  -0.80242  -0.79455
 Alpha  occ. eigenvalues --   -0.77311  -0.76352  -0.74003  -0.72222  -0.69958
 Alpha  occ. eigenvalues --   -0.69542  -0.68433  -0.67025  -0.65377  -0.42081
 Alpha  occ. eigenvalues --   -0.41383
 Alpha virt. eigenvalues --   -0.40684  -0.38497  -0.35649  -0.33524  -0.32338
 Alpha virt. eigenvalues --   -0.29878  -0.29492  -0.26738  -0.26419  -0.24215
 Alpha virt. eigenvalues --   -0.22591  -0.22214  -0.21745  -0.20712  -0.20301
 Alpha virt. eigenvalues --   -0.19250  -0.18799  -0.18234  -0.17358  -0.16037
 Alpha virt. eigenvalues --   -0.15046  -0.14768  -0.13923  -0.12833  -0.12336
 Alpha virt. eigenvalues --   -0.10777  -0.10597  -0.10448  -0.09524  -0.08073
 Alpha virt. eigenvalues --   -0.07403  -0.06628  -0.05220  -0.05051  -0.04090
 Alpha virt. eigenvalues --   -0.03841  -0.03677  -0.01815  -0.01518  -0.00064
 Alpha virt. eigenvalues --    0.00934   0.01537   0.02291   0.04083   0.04726
 Alpha virt. eigenvalues --    0.04983   0.07070   0.07473   0.08750   0.09347
 Alpha virt. eigenvalues --    0.11532   0.13478   0.14610   0.17306   0.19712
 Alpha virt. eigenvalues --    0.21676   0.35448   0.35922   0.36356   0.37704
 Alpha virt. eigenvalues --    0.39849   0.40383   0.40811   0.41685   0.45423
 Alpha virt. eigenvalues --    0.46704   0.47943   0.48452   0.48625   0.51050
 Alpha virt. eigenvalues --    0.51457   0.51719   0.52229   0.53911   0.54220
 Alpha virt. eigenvalues --    0.57289   0.59132   0.60524   0.61206   0.62991
 Alpha virt. eigenvalues --    0.64277   0.65196   0.65890   0.66989   0.67987
 Alpha virt. eigenvalues --    0.69777   0.70434   0.71074   0.73272   0.73895
 Alpha virt. eigenvalues --    0.76693   0.77109   0.80681   0.82030   0.83206
 Alpha virt. eigenvalues --    0.85670   0.87844   0.90074   0.90871   0.91099
 Alpha virt. eigenvalues --    0.92688   0.94705   0.96679   0.98080   1.01138
 Alpha virt. eigenvalues --    1.01709   1.07102   1.08740   1.11854   1.13341
 Alpha virt. eigenvalues --    1.17465   1.21829   1.23636   1.26237   1.29050
 Alpha virt. eigenvalues --    1.33695   1.34497   1.38919   1.40904   1.44885
 Alpha virt. eigenvalues --    1.46603   1.48488   1.50338   1.51803   1.57579
 Alpha virt. eigenvalues --    1.60947   1.79771   1.80625   1.82479   1.82964
 Alpha virt. eigenvalues --    1.83974   1.85842   1.86992   1.88351   1.92892
 Alpha virt. eigenvalues --    1.95705   1.98865   2.00380   2.01864   2.04477
 Alpha virt. eigenvalues --    2.08386   2.09428   2.12157   2.16809   2.18596
 Alpha virt. eigenvalues --    2.23760   2.30273   2.31956   2.38467   2.40231
 Alpha virt. eigenvalues --    2.42307   2.44451   2.46504   2.47521   2.48999
 Alpha virt. eigenvalues --    2.50797   2.52771   2.54450   2.55760   2.57816
 Alpha virt. eigenvalues --    2.58709   2.59956   2.60712   2.62356   2.65016
 Alpha virt. eigenvalues --    2.71942   2.73654   2.74982   2.76665   2.77417
 Alpha virt. eigenvalues --    2.79118   2.81736   2.86033   2.87203   2.90166
 Alpha virt. eigenvalues --    2.95434   2.98700   3.01858   3.16352   3.17092
 Alpha virt. eigenvalues --    3.17660   3.20437   3.23540   3.59408   3.61640
 Alpha virt. eigenvalues --    3.64396   3.67468   3.69263   3.71449   3.72808
 Alpha virt. eigenvalues --    3.74239   3.74989   3.75916   3.77242   3.80558
 Alpha virt. eigenvalues --    3.83664   3.85906   3.87776   3.94596   3.95216
 Alpha virt. eigenvalues --    3.98105   4.01156   4.06653   4.07092   4.10144
 Alpha virt. eigenvalues --    4.13502   4.16516   4.17873   4.25691   4.26751
 Alpha virt. eigenvalues --    4.27007   4.31070   4.31885   4.40428   4.42053
 Alpha virt. eigenvalues --    4.44621   4.46098   4.47811   4.48329   4.50778
 Alpha virt. eigenvalues --    4.59603   4.70837   4.76096   4.78165   4.82339
 Alpha virt. eigenvalues --    4.83216   4.84641   4.93505   4.95735   4.98185
 Alpha virt. eigenvalues --    4.98423   4.98797   4.99495   5.05509   5.06712
 Alpha virt. eigenvalues --    5.08131   5.13265   5.14348   5.15677   5.17685
 Alpha virt. eigenvalues --    5.19979   5.24732   5.25889   5.29323   5.32560
 Alpha virt. eigenvalues --    5.32672   5.34008   5.35651   5.36954   5.38300
 Alpha virt. eigenvalues --    5.42381   5.43732   5.44683   5.46916   5.47599
 Alpha virt. eigenvalues --    5.49362   5.51367   5.52804   5.56367   5.61260
 Alpha virt. eigenvalues --    5.89022   5.91207   5.95585   6.97788   7.00568
 Alpha virt. eigenvalues --    7.01668   7.12551   7.18260   7.22364  13.18684
 Alpha virt. eigenvalues --   13.21214  13.22200  13.78045  13.81902  13.87836
 Alpha virt. eigenvalues --   28.46702
  Beta  occ. eigenvalues -- -177.90587 -19.70039 -19.18436 -19.18394 -19.17562
  Beta  occ. eigenvalues --  -19.17273 -19.16805 -19.16803 -16.49305 -16.48828
  Beta  occ. eigenvalues --  -16.47839  -2.47781  -1.67153  -1.66007  -1.63960
  Beta  occ. eigenvalues --   -1.36494  -1.34853  -1.34031  -1.33113  -1.32570
  Beta  occ. eigenvalues --   -1.32111  -0.93081  -0.92152  -0.90062  -0.89759
  Beta  occ. eigenvalues --   -0.89218  -0.87804  -0.80288  -0.79820  -0.78994
  Beta  occ. eigenvalues --   -0.77005  -0.76042  -0.73736  -0.71843  -0.69768
  Beta  occ. eigenvalues --   -0.69296  -0.68103  -0.66823  -0.65224
  Beta virt. eigenvalues --   -0.39840  -0.37183  -0.36077  -0.35456  -0.34448
  Beta virt. eigenvalues --   -0.32361  -0.31531  -0.28816  -0.28639  -0.25828
  Beta virt. eigenvalues --   -0.25511  -0.23068  -0.21855  -0.21471  -0.20279
  Beta virt. eigenvalues --   -0.19376  -0.19021  -0.18427  -0.17675  -0.17482
  Beta virt. eigenvalues --   -0.16186  -0.15043  -0.14386  -0.14043  -0.13179
  Beta virt. eigenvalues --   -0.12076  -0.11728  -0.10028  -0.09961  -0.09695
  Beta virt. eigenvalues --   -0.08745  -0.07313  -0.06532  -0.06027  -0.04184
  Beta virt. eigenvalues --   -0.04121  -0.03188  -0.02999  -0.02820  -0.00965
  Beta virt. eigenvalues --   -0.00730   0.00924   0.01927   0.02377   0.03171
  Beta virt. eigenvalues --    0.05026   0.05816   0.05995   0.07960   0.08383
  Beta virt. eigenvalues --    0.09525   0.10302   0.12568   0.14854   0.15858
  Beta virt. eigenvalues --    0.18167   0.20868   0.22662   0.36328   0.37023
  Beta virt. eigenvalues --    0.37914   0.38884   0.41091   0.41558   0.41949
  Beta virt. eigenvalues --    0.42879   0.46069   0.47442   0.48645   0.49063
  Beta virt. eigenvalues --    0.49372   0.51729   0.52275   0.52520   0.52975
  Beta virt. eigenvalues --    0.54604   0.54984   0.57804   0.59629   0.61201
  Beta virt. eigenvalues --    0.61902   0.63522   0.64818   0.65844   0.66727
  Beta virt. eigenvalues --    0.67422   0.68416   0.70320   0.71008   0.71993
  Beta virt. eigenvalues --    0.73853   0.74547   0.77333   0.77711   0.81459
  Beta virt. eigenvalues --    0.82430   0.83733   0.86064   0.89179   0.90778
  Beta virt. eigenvalues --    0.91471   0.91747   0.93127   0.96403   0.97351
  Beta virt. eigenvalues --    0.98443   1.02017   1.02307   1.08374   1.09796
  Beta virt. eigenvalues --    1.13104   1.14194   1.18298   1.25018   1.25523
  Beta virt. eigenvalues --    1.28279   1.31670   1.35916   1.36893   1.40118
  Beta virt. eigenvalues --    1.41997   1.45936   1.47205   1.49850   1.51405
  Beta virt. eigenvalues --    1.53724   1.58973   1.61996   1.80718   1.81473
  Beta virt. eigenvalues --    1.83028   1.84052   1.85119   1.86482   1.87765
  Beta virt. eigenvalues --    1.89178   1.93734   1.96417   1.99609   2.01453
  Beta virt. eigenvalues --    2.02695   2.05451   2.09567   2.10590   2.13388
  Beta virt. eigenvalues --    2.18188   2.20179   2.26078   2.31589   2.33054
  Beta virt. eigenvalues --    2.39566   2.41474   2.43441   2.45804   2.47583
  Beta virt. eigenvalues --    2.48675   2.50075   2.51753   2.54013   2.55758
  Beta virt. eigenvalues --    2.56794   2.59094   2.60032   2.61003   2.61676
  Beta virt. eigenvalues --    2.63616   2.65966   2.72920   2.74392   2.75925
  Beta virt. eigenvalues --    2.77391   2.78874   2.80674   2.83942   2.87568
  Beta virt. eigenvalues --    2.89049   2.93189   2.97177   3.00381   3.03514
  Beta virt. eigenvalues --    3.18431   3.18826   3.19710   3.22436   3.25934
  Beta virt. eigenvalues --    3.59759   3.61973   3.64602   3.68226   3.69622
  Beta virt. eigenvalues --    3.72077   3.73059   3.74708   3.75444   3.76343
  Beta virt. eigenvalues --    3.77483   3.80987   3.84103   3.86223   3.87983
  Beta virt. eigenvalues --    3.94953   3.95574   3.98406   4.01766   4.07173
  Beta virt. eigenvalues --    4.07843   4.10832   4.17614   4.18389   4.18995
  Beta virt. eigenvalues --    4.26350   4.27734   4.29090   4.32011   4.33697
  Beta virt. eigenvalues --    4.41151   4.42859   4.45538   4.47245   4.48384
  Beta virt. eigenvalues --    4.49227   4.51766   4.61741   4.71044   4.76636
  Beta virt. eigenvalues --    4.78571   4.82784   4.83621   4.85136   4.93691
  Beta virt. eigenvalues --    4.95931   4.98434   4.98569   4.99003   4.99792
  Beta virt. eigenvalues --    5.05944   5.07112   5.08620   5.13791   5.15422
  Beta virt. eigenvalues --    5.16194   5.18534   5.20474   5.25136   5.26525
  Beta virt. eigenvalues --    5.29805   5.32910   5.33014   5.34420   5.36053
  Beta virt. eigenvalues --    5.37611   5.38920   5.42870   5.44087   5.45357
  Beta virt. eigenvalues --    5.47423   5.48223   5.49746   5.52132   5.53367
  Beta virt. eigenvalues --    5.56969   5.62111   5.89231   5.91447   5.95959
  Beta virt. eigenvalues --    6.98171   7.01004   7.02127   7.12815   7.18519
  Beta virt. eigenvalues --    7.22676  13.19002  13.21518  13.22510  13.78245
  Beta virt. eigenvalues --   13.82107  13.88037  28.48536
          Condensed to atoms (all electrons):
               1          2          3          4          5          6
     1  Ti  22.781168  -0.046335  -0.000829   0.094596   0.014454  -0.369201
     2  O   -0.046335   7.998147   0.288296  -0.050368  -0.004576   0.012626
     3  H   -0.000829   0.288296   0.310361   0.005714   0.000095  -0.010024
     4  O    0.094596  -0.050368   0.005714   8.084430   0.283839  -0.121533
     5  H    0.014454  -0.004576   0.000095   0.283839   0.344153  -0.007378
     6  O   -0.369201   0.012626  -0.010024  -0.121533  -0.007378   8.455336
     7  H    0.060446  -0.005303   0.000369   0.005584   0.002877   0.215538
     8  O   -0.125616   0.039336  -0.000402  -0.076355   0.000591  -0.129929
     9  H    0.011658   0.000029  -0.000006   0.002458   0.000327  -0.004649
    10  O   -0.134879  -0.019051   0.021864   0.018245  -0.002013   0.019072
    11  H    0.045042   0.008507   0.000712  -0.001329   0.000075  -0.005993
    12  O   -0.478921   0.003724  -0.014503   0.031100  -0.022624   0.064791
    13  H    0.003409  -0.007805   0.000648   0.019012   0.000800  -0.000632
    14  H    0.030793   0.005747   0.000145  -0.006796   0.000383  -0.001559
    15  H   -0.003294   0.010464  -0.000054   0.285453  -0.019338  -0.003699
    16  H   -0.034140   0.335621  -0.017597  -0.007815   0.000102   0.004249
    17  H   -0.007608  -0.002177   0.000860  -0.000191   0.000046  -0.001334
    18  H    0.042923   0.000428   0.000310   0.028562   0.007756   0.213904
    19  H    0.060394  -0.004398   0.000091   0.007887   0.011668  -0.006830
               7          8          9         10         11         12
     1  Ti   0.060446  -0.125616   0.011658  -0.134879   0.045042  -0.478921
     2  O   -0.005303   0.039336   0.000029  -0.019051   0.008507   0.003724
     3  H    0.000369  -0.000402  -0.000006   0.021864   0.000712  -0.014503
     4  O    0.005584  -0.076355   0.002458   0.018245  -0.001329   0.031100
     5  H    0.002877   0.000591   0.000327  -0.002013   0.000075  -0.022624
     6  O    0.215538  -0.129929  -0.004649   0.019072  -0.005993   0.064791
     7  H    0.367523   0.000329  -0.000323  -0.011619   0.000342  -0.008599
     8  O    0.000329   8.187874   0.292430  -0.033030  -0.005147   0.014452
     9  H   -0.000323   0.292430   0.309884  -0.003000   0.004182  -0.008935
    10  O   -0.011619  -0.033030  -0.003000   8.165674   0.235251  -0.028811
    11  H    0.000342  -0.005147   0.004182   0.235251   0.349307  -0.013941
    12  O   -0.008599   0.014452  -0.008935  -0.028811  -0.013941   8.413100
    13  H    0.000049  -0.005642   0.000013   0.006089  -0.000061   0.283363
    14  H    0.000007   0.006921   0.003662  -0.015544   0.010901   0.246136
    15  H    0.000105   0.002157  -0.000021  -0.002511   0.000013  -0.000799
    16  H   -0.000286   0.000091   0.000019  -0.006062   0.000145  -0.000330
    17  H    0.004637  -0.003461  -0.001864   0.308429  -0.023177  -0.004064
    18  H   -0.008929  -0.002329   0.000400  -0.004925   0.000117  -0.006975
    19  H    0.025310   0.216970  -0.015250  -0.014146   0.000969  -0.021881
              13         14         15         16         17         18
     1  Ti   0.003409   0.030793  -0.003294  -0.034140  -0.007608   0.042923
     2  O   -0.007805   0.005747   0.010464   0.335621  -0.002177   0.000428
     3  H    0.000648   0.000145  -0.000054  -0.017597   0.000860   0.000310
     4  O    0.019012  -0.006796   0.285453  -0.007815  -0.000191   0.028562
     5  H    0.000800   0.000383  -0.019338   0.000102   0.000046   0.007756
     6  O   -0.000632  -0.001559  -0.003699   0.004249  -0.001334   0.213904
     7  H    0.000049   0.000007   0.000105  -0.000286   0.004637  -0.008929
     8  O   -0.005642   0.006921   0.002157   0.000091  -0.003461  -0.002329
     9  H    0.000013   0.003662  -0.000021   0.000019  -0.001864   0.000400
    10  O    0.006089  -0.015544  -0.002511  -0.006062   0.308429  -0.004925
    11  H   -0.000061   0.010901   0.000013   0.000145  -0.023177   0.000117
    12  O    0.283363   0.246136  -0.000799  -0.000330  -0.004064  -0.006975
    13  H    0.291377  -0.018496  -0.000482  -0.000089   0.000004  -0.000000
    14  H   -0.018496   0.351102   0.000083   0.000018  -0.000117   0.000077
    15  H   -0.000482   0.000083   0.297760   0.001695   0.000001   0.002161
    16  H   -0.000089   0.000018   0.001695   0.304540  -0.000116   0.001328
    17  H    0.000004  -0.000117   0.000001  -0.000116   0.304966  -0.000014
    18  H   -0.000000   0.000077   0.002161   0.001328  -0.000014   0.347910
    19  H    0.000313   0.000577   0.000038  -0.000032   0.001648   0.004384
              19
     1  Ti   0.060394
     2  O   -0.004398
     3  H    0.000091
     4  O    0.007887
     5  H    0.011668
     6  O   -0.006830
     7  H    0.025310
     8  O    0.216970
     9  H   -0.015250
    10  O   -0.014146
    11  H    0.000969
    12  O   -0.021881
    13  H    0.000313
    14  H    0.000577
    15  H    0.000038
    16  H   -0.000032
    17  H    0.001648
    18  H    0.004384
    19  H    0.392693
          Atomic-Atomic Spin Densities.
               1          2          3          4          5          6
     1  Ti   3.216584  -0.108225   0.007116  -0.045887   0.025318  -0.470227
     2  O   -0.108225   0.098976  -0.019104  -0.023110  -0.004282   0.043150
     3  H    0.007116  -0.019104   0.038340   0.003790   0.000125  -0.010082
     4  O   -0.045887  -0.023110   0.003790   0.153562  -0.020313  -0.045151
     5  H    0.025318  -0.004282   0.000125  -0.020313   0.065152  -0.007149
     6  O   -0.470227   0.043150  -0.010082  -0.045151  -0.007149   0.479545
     7  H    0.065552  -0.008350   0.000375   0.007115   0.002914  -0.086262
     8  O   -0.180310   0.003071   0.000116  -0.028006  -0.000150  -0.011834
     9  H    0.012926   0.001207   0.000005  -0.001318   0.000310  -0.005776
    10  O   -0.271627  -0.050827   0.017373   0.004244  -0.001233   0.064634
    11  H    0.045969   0.006304   0.000932  -0.000136   0.000066  -0.007874
    12  O   -0.564235   0.005883  -0.011840  -0.004585  -0.023726   0.031886
    13  H    0.014923  -0.003037   0.000596   0.013639   0.000843  -0.000255
    14  H    0.025443   0.004076   0.000148  -0.008145   0.000355  -0.001473
    15  H   -0.001068   0.007220  -0.000072  -0.008767   0.000187   0.002140
    16  H   -0.026016   0.025657  -0.003324  -0.000076   0.000033   0.003357
    17  H    0.000431  -0.003427   0.000794   0.000940   0.000057  -0.002341
    18  H    0.049316   0.003202   0.000256   0.019761   0.008744  -0.083115
    19  H    0.067369  -0.003076   0.000089   0.014675   0.011315  -0.013848
               7          8          9         10         11         12
     1  Ti   0.065552  -0.180310   0.012926  -0.271627   0.045969  -0.564235
     2  O   -0.008350   0.003071   0.001207  -0.050827   0.006304   0.005883
     3  H    0.000375   0.000116   0.000005   0.017373   0.000932  -0.011840
     4  O    0.007115  -0.028006  -0.001318   0.004244  -0.000136  -0.004585
     5  H    0.002914  -0.000150   0.000310  -0.001233   0.000066  -0.023726
     6  O   -0.086262  -0.011834  -0.005776   0.064634  -0.007874   0.031886
     7  H    0.077674  -0.002612  -0.000202  -0.006066   0.000278  -0.007214
     8  O   -0.002612   0.184376  -0.002274   0.018884   0.001330   0.058097
     9  H   -0.000202  -0.002274   0.013979  -0.009077   0.004140  -0.004287
    10  O   -0.006066   0.018884  -0.009077   0.240388  -0.058498   0.016952
    11  H    0.000278   0.001330   0.004140  -0.058498   0.065107  -0.016277
    12  O   -0.007214   0.058097  -0.004287   0.016952  -0.016277   0.527590
    13  H    0.000046  -0.003869  -0.000102   0.002297  -0.000022  -0.026170
    14  H    0.000021   0.008296   0.003497  -0.005961   0.009108  -0.052108
    15  H   -0.000110  -0.000016   0.000030  -0.001137   0.000019  -0.002959
    16  H   -0.000274   0.000003   0.000017  -0.007129   0.000161  -0.001169
    17  H    0.003841  -0.003729  -0.000976   0.009943  -0.002946  -0.005514
    18  H    0.006297  -0.002005   0.000345  -0.007594   0.000155  -0.006062
    19  H    0.022882  -0.086659   0.000373  -0.011403   0.000755  -0.025457
              13         14         15         16         17         18
     1  Ti   0.014923   0.025443  -0.001068  -0.026016   0.000431   0.049316
     2  O   -0.003037   0.004076   0.007220   0.025657  -0.003427   0.003202
     3  H    0.000596   0.000148  -0.000072  -0.003324   0.000794   0.000256
     4  O    0.013639  -0.008145  -0.008767  -0.000076   0.000940   0.019761
     5  H    0.000843   0.000355   0.000187   0.000033   0.000057   0.008744
     6  O   -0.000255  -0.001473   0.002140   0.003357  -0.002341  -0.083115
     7  H    0.000046   0.000021  -0.000110  -0.000274   0.003841   0.006297
     8  O   -0.003869   0.008296  -0.000016   0.000003  -0.003729  -0.002005
     9  H   -0.000102   0.003497   0.000030   0.000017  -0.000976   0.000345
    10  O    0.002297  -0.005961  -0.001137  -0.007129   0.009943  -0.007594
    11  H   -0.000022   0.009108   0.000019   0.000161  -0.002946   0.000155
    12  O   -0.026170  -0.052108  -0.002959  -0.001169  -0.005514  -0.006062
    13  H    0.016429  -0.003822  -0.000316  -0.000097   0.000052   0.000012
    14  H   -0.003822   0.049557   0.000105   0.000064  -0.000172   0.000076
    15  H   -0.000316   0.000105   0.010973   0.001115  -0.000010   0.002513
    16  H   -0.000097   0.000064   0.001115   0.012173  -0.000135   0.001629
    17  H    0.000052  -0.000172  -0.000010  -0.000135   0.008102   0.000002
    18  H    0.000012   0.000076   0.002513   0.001629   0.000002   0.079026
    19  H    0.000320   0.000579  -0.000034  -0.000015   0.001667   0.004605
              19
     1  Ti   0.067369
     2  O   -0.003076
     3  H    0.000089
     4  O    0.014675
     5  H    0.011315
     6  O   -0.013848
     7  H    0.022882
     8  O   -0.086659
     9  H    0.000373
    10  O   -0.011403
    11  H    0.000755
    12  O   -0.025457
    13  H    0.000320
    14  H    0.000579
    15  H   -0.000034
    16  H   -0.000015
    17  H    0.001667
    18  H    0.004605
    19  H    0.117844
[...]
    17  H    0.000002  -0.000005   0.000000   0.000002   0.317153  -0.000032
    18  H   -0.000000   0.000000  -0.000005  -0.000009  -0.000032   0.317103
    19  H    0.000002  -0.000032  -0.000032  -0.000000  -0.000005  -0.000005
              19
     1  Ti  -0.001366
     2  O   -0.000292
     3  H    0.000000
     4  O    0.003322
     5  H   -0.000008
     6  O    0.002295
     7  H   -0.000002
     8  O    0.283831
     9  H   -0.016579
    10  O    0.000578
    11  H    0.000002
    12  O    0.000962
    13  H    0.000002
    14  H   -0.000032
    15  H   -0.000032
    16  H   -0.000000
    17  H   -0.000005
    18  H   -0.000005
    19  H    0.317135
          Atomic-Atomic Spin Densities.
               1          2          3          4          5          6
     1  Ti   2.310681  -0.022938  -0.005509  -0.022863  -0.007061  -0.022886
     2  O   -0.022938  -0.010243   0.002794   0.000731  -0.000060   0.000329
     3  H   -0.005509   0.002794   0.004806  -0.000084   0.000002  -0.000445
     4  O   -0.022863   0.000731  -0.000084  -0.010315   0.004942   0.000720
     5  H   -0.007061  -0.000060   0.000002   0.004942   0.006502   0.000909
     6  O   -0.022886   0.000329  -0.000445   0.000720   0.000909  -0.010306
     7  H   -0.007045  -0.000427   0.000002  -0.000063  -0.000026   0.004940
     8  O   -0.022907  -0.000134  -0.000034   0.000290   0.000544   0.000738
     9  H   -0.007062  -0.000007  -0.000000  -0.000425  -0.000003  -0.000061
    10  O   -0.022861   0.000296   0.001494  -0.000143  -0.000007   0.000284
    11  H   -0.007067   0.000544   0.000038  -0.000007   0.000000  -0.000426
    12  O   -0.022915   0.000738   0.000400   0.000298  -0.000426  -0.000138
    13  H   -0.007043   0.000906   0.000044   0.000543  -0.000003  -0.000007
    14  H   -0.005523  -0.000083  -0.000004  -0.000443   0.000002  -0.000034
    15  H   -0.005516   0.000399  -0.000004   0.002804  -0.001963  -0.000083
    16  H   -0.007055   0.004938  -0.001962   0.000913  -0.000026   0.000545
    17  H   -0.005514  -0.000444  -0.000017  -0.000034  -0.000000   0.001492
    18  H   -0.005530   0.001498  -0.000017   0.000405   0.000045   0.002805
    19  H   -0.005514  -0.000034   0.000000   0.001495   0.000038   0.000400
               7          8          9         10         11         12
     1  Ti  -0.007045  -0.022907  -0.007062  -0.022861  -0.007067  -0.022915
     2  O   -0.000427  -0.000134  -0.000007   0.000296   0.000544   0.000738
     3  H    0.000002  -0.000034  -0.000000   0.001494   0.000038   0.000400
     4  O   -0.000063   0.000290  -0.000425  -0.000143  -0.000007   0.000298
     5  H   -0.000026   0.000544  -0.000003  -0.000007   0.000000  -0.000426
     6  O    0.004940   0.000738  -0.000061   0.000284  -0.000426  -0.000138
     7  H    0.006498   0.000903  -0.000026   0.000543  -0.000003  -0.000007
     8  O    0.000903  -0.010279   0.004945   0.000729  -0.000060   0.000321
     9  H   -0.000026   0.004945   0.006497   0.000912  -0.000026   0.000546
    10  O    0.000543   0.000729   0.000912  -0.010316   0.004949   0.000718
    11  H   -0.000003  -0.000060  -0.000026   0.004949   0.006503   0.000909
    12  O   -0.000007   0.000321   0.000546   0.000718   0.000909  -0.010265
    13  H    0.000000  -0.000427  -0.000003  -0.000062  -0.000026   0.004939
    14  H   -0.000000   0.001497   0.000038   0.000405   0.000044   0.002800
    15  H    0.000002  -0.000444   0.000002  -0.000034  -0.000000   0.001493
    16  H   -0.000003  -0.000007   0.000000  -0.000425  -0.000003  -0.000061
    17  H    0.000038   0.000399   0.000044   0.002798  -0.001965  -0.000083
    18  H   -0.001965  -0.000083   0.000002  -0.000443   0.000002  -0.000034
    19  H    0.000044   0.002793  -0.001966  -0.000084   0.000002  -0.000445
              13         14         15         16         17         18
     1  Ti  -0.007043  -0.005523  -0.005516  -0.007055  -0.005514  -0.005530
     2  O    0.000906  -0.000083   0.000399   0.004938  -0.000444   0.001498
     3  H    0.000044  -0.000004  -0.000004  -0.001962  -0.000017  -0.000017
     4  O    0.000543  -0.000443   0.002804   0.000913  -0.000034   0.000405
     5  H   -0.000003   0.000002  -0.001963  -0.000026  -0.000000   0.000045
     6  O   -0.000007  -0.000034  -0.000083   0.000545   0.001492   0.002805
     7  H    0.000000  -0.000000   0.000002  -0.000003   0.000038  -0.001965
     8  O   -0.000427   0.001497  -0.000444  -0.000007   0.000399  -0.000083
     9  H   -0.000003   0.000038   0.000002   0.000000   0.000044   0.000002
    10  O   -0.000062   0.000405  -0.000034  -0.000425   0.002798  -0.000443
    11  H   -0.000026   0.000044  -0.000000  -0.000003  -0.001965   0.000002
    12  O    0.004939   0.002800   0.001493  -0.000061  -0.000083  -0.000034
    13  H    0.006490  -0.001963   0.000038  -0.000026   0.000002  -0.000000
    14  H   -0.001963   0.004802  -0.000017   0.000002  -0.000004   0.000000
    15  H    0.000038  -0.000017   0.004795   0.000044   0.000000  -0.000004
    16  H   -0.000026   0.000002   0.000044   0.006490   0.000002   0.000038
    17  H    0.000002  -0.000004   0.000000   0.000002   0.004806  -0.000017
    18  H   -0.000000   0.000000  -0.000004   0.000038  -0.000017   0.004807
    19  H    0.000002  -0.000017  -0.000017  -0.000000  -0.000004  -0.000004
              19
     1  Ti  -0.005514
     2  O   -0.000034
     3  H    0.000000
     4  O    0.001495
     5  H    0.000038
     6  O    0.000400
     7  H    0.000044
     8  O    0.002793
     9  H   -0.001966
    10  O   -0.000084
    11  H    0.000002
    12  O   -0.000445
    13  H    0.000002
    14  H   -0.000017
    15  H   -0.000017
    16  H   -0.000000
    17  H   -0.000004
    18  H   -0.000004
    19  H    0.004821
 Mulliken charges and spin densities:
               1          2
     1  Ti   1.207225   2.097871
     2  O   -0.683866  -0.021197
     3  H    0.410221   0.001506
     4  O   -0.683824  -0.021235
     5  H    0.405656   0.003407
     6  O   -0.683768  -0.021224
     7  H    0.405699   0.003406
     8  O   -0.683700  -0.021216
     9  H    0.405678   0.003405
    10  O   -0.683685  -0.021246
    11  H    0.405641   0.003407
    12  O   -0.683788  -0.021213
    13  H    0.405695   0.003404
    14  H    0.410242   0.001504
    15  H    0.410238   0.001496
    16  H    0.405685   0.003404
    17  H    0.410209   0.001501
    18  H    0.410244   0.001506
    19  H    0.410196   0.001513
 Sum of Mulliken charges =   2.00000   2.00000
 Mulliken charges and spin densities with hydrogens summed into heavy atoms:
               1          2
     1  Ti   1.207225   2.097871
     2  O    0.132040  -0.016287
     4  O    0.132070  -0.016332
     6  O    0.132175  -0.016312
     8  O    0.132174  -0.016298
    10  O    0.132165  -0.016338
    12  O    0.132150  -0.016304
 Electronic spatial extent (au):  <R**2>=           1223.7778
 Charge=              2.0000 electrons
 Dipole moment (field-independent basis, Debye):
    X=              0.0002    Y=             -0.0009    Z=              0.0001  Tot=              0.0009
 Quadrupole moment (field-independent basis, Debye-Ang):
   XX=            -14.3785   YY=            -14.3724   ZZ=            -19.1456
   XY=              0.0045   XZ=             -0.0131   YZ=              0.0046
 Traceless Quadrupole moment (field-independent basis, Debye-Ang):
   XX=              1.5870   YY=              1.5931   ZZ=             -3.1801
   XY=              0.0045   XZ=             -0.0131   YZ=              0.0046
 Octapole moment (field-independent basis, Debye-Ang**2):
  XXX=              0.0053  YYY=             -0.0037  ZZZ=              0.0022  XYY=              0.0026
  XXY=             -0.0027  XXZ=              0.0009  XZZ=             -0.0022  YZZ=             -0.0084
  YYZ=             -0.0029  XYZ=              0.0004
 Hexadecapole moment (field-independent basis, Debye-Ang**3):
 XXXX=           -250.9807 YYYY=           -250.0104 ZZZZ=           -310.5696 XXXY=              0.2763
 XXXZ=            -37.1920 YYYX=             -0.2560 YYYZ=            -21.8562 ZZZX=             -0.7069
 ZZZY=              0.4020 XXYY=            -83.2999 XXZZ=            -26.4360 YYZZ=            -26.9547
 XXYZ=             21.4933 YYXZ=             37.7965 ZZXY=              0.0187
 N-N= 5.844146791399D+02 E-N=-4.237152837186D+03  KE= 1.302834093094D+03
                          Isotropic Fermi Contact Couplings
        Atom                 a.u.       MegaHertz       Gauss      10(-4) cm-1
     1  Ti(47)            -0.07604       9.59592       3.42406       3.20086
     2  O(17)             -0.01525       4.62272       1.64950       1.54197
     3  H(1)               0.00146       3.26359       1.16453       1.08862
     4  O(17)             -0.01523       4.61604       1.64712       1.53975
     5  H(1)               0.00241       5.38599       1.92186       1.79657
     6  O(17)             -0.01524       4.62067       1.64877       1.54129
     7  H(1)               0.00241       5.38881       1.92286       1.79751
     8  O(17)             -0.01525       4.62365       1.64983       1.54228
     9  H(1)               0.00241       5.38352       1.92097       1.79575
    10  O(17)             -0.01523       4.61588       1.64706       1.53969
    11  H(1)               0.00241       5.38650       1.92204       1.79674
    12  O(17)             -0.01524       4.61925       1.64827       1.54082
    13  H(1)               0.00241       5.38408       1.92117       1.79594
    14  H(1)               0.00146       3.25884       1.16284       1.08703
    15  H(1)               0.00146       3.25508       1.16149       1.08578
    16  H(1)               0.00241       5.37931       1.91947       1.79434
    17  H(1)               0.00146       3.26201       1.16397       1.08809
    18  H(1)               0.00146       3.26278       1.16424       1.08835
    19  H(1)               0.00146       3.27387       1.16820       1.09205
 --------------------------------------------------------
       Center         ----  Spin Dipole Couplings  ----
                      3XX-RR        3YY-RR        3ZZ-RR
 --------------------------------------------------------
     1   Atom        0.303674      0.302896     -0.606570
     2   Atom       -0.019534      0.018197      0.001337
     3   Atom       -0.011815      0.007517      0.004298
     4   Atom        0.004379     -0.005815      0.001436
     5   Atom        0.016385     -0.011727     -0.004659
     6   Atom        0.012996     -0.014542      0.001546
     7   Atom       -0.006688      0.011393     -0.004705
     8   Atom       -0.019550      0.018195      0.001355
     9   Atom       -0.002602      0.007399     -0.004798
    10   Atom        0.004398     -0.005856      0.001458
    11   Atom        0.016384     -0.011727     -0.004657
    12   Atom        0.013020     -0.014565      0.001545
    13   Atom       -0.006688      0.011406     -0.004718
    14   Atom        0.002308     -0.006607      0.004299
    15   Atom        0.002983     -0.007447      0.004464
    16   Atom       -0.002600      0.007412     -0.004812
    17   Atom        0.002992     -0.007446      0.004454
    18   Atom        0.002313     -0.006613      0.004300
    19   Atom       -0.011816      0.007524      0.004292
 --------------------------------------------------------
                        XY            XZ            YZ
 --------------------------------------------------------
     1   Atom       -0.000226     -0.003033      0.001597
     2   Atom        0.004998      0.015980      0.004197
     3   Atom       -0.000542      0.000495     -0.016865
     4   Atom       -0.018964     -0.004329     -0.015869
     5   Atom        0.002380     -0.013512     -0.001387
     6   Atom        0.013952     -0.011571      0.011605
     7   Atom        0.011055      0.005577      0.012336
     8   Atom        0.004945      0.015940      0.004182
     9   Atom       -0.013425      0.007888     -0.010919
    10   Atom       -0.018952     -0.004317     -0.015854
    11   Atom        0.002385     -0.013515     -0.001389
    12   Atom        0.013940     -0.011601      0.011615
    13   Atom        0.011059      0.005572      0.012330
    14   Atom        0.008594      0.014412      0.008778
    15   Atom       -0.008058     -0.014847      0.008054
    16   Atom       -0.013430      0.007881     -0.010910
    17   Atom       -0.008061     -0.014847      0.008053
    18   Atom        0.008592      0.014418      0.008774
    19   Atom       -0.000539      0.000489     -0.016867
 --------------------------------------------------------


 ---------------------------------------------------------------------------------
              Anisotropic Spin Dipole Couplings in Principal Axis System
 ---------------------------------------------------------------------------------

       Atom             a.u.   MegaHertz   Gauss  10(-4) cm-1        Axes

              Baa    -0.6066    18.274     6.521     6.096  0.0033 -0.0018  1.0000
     1 Ti(47) Bbb     0.3028    -9.123    -3.255    -3.043  0.2630  0.9648  0.0008
              Bcc     0.3037    -9.151    -3.265    -3.052  0.9648 -0.2630 -0.0037
 
              Baa    -0.0283     2.049     0.731     0.683  0.8821 -0.0526 -0.4680
     2 O(17)  Bbb     0.0068    -0.492    -0.176    -0.164  0.3933 -0.4646  0.7934
              Bcc     0.0215    -1.556    -0.555    -0.519  0.2592  0.8839  0.3892
 
              Baa    -0.0118    -6.312    -2.252    -2.105  0.9998  0.0145 -0.0156
     3 H(1)   Bbb    -0.0110    -5.887    -2.101    -1.964  0.0018  0.6727  0.7399
              Bcc     0.0229    12.199     4.353     4.069 -0.0212  0.7398 -0.6725
 
              Baa    -0.0284     2.052     0.732     0.684  0.4891  0.7383  0.4643
     4 O(17)  Bbb     0.0068    -0.491    -0.175    -0.164 -0.5958 -0.1060  0.7961
              Bcc     0.0216    -1.561    -0.557    -0.521 -0.6371  0.6660 -0.3880
 
              Baa    -0.0120    -6.401    -2.284    -2.135  0.0476  0.9618  0.2694
     5 H(1)   Bbb    -0.0112    -5.980    -2.134    -1.995  0.4426 -0.2621  0.8576
              Bcc     0.0232    12.381     4.418     4.130  0.8955  0.0784 -0.4382
 
              Baa    -0.0283     2.048     0.731     0.683 -0.3973  0.7927 -0.4623
     6 O(17)  Bbb     0.0068    -0.493    -0.176    -0.164  0.2076  0.5683  0.7962
              Bcc     0.0215    -1.555    -0.555    -0.519  0.8939  0.2204 -0.3904
 
              Baa    -0.0120    -6.400    -2.284    -2.135  0.8112 -0.5222  0.2631
     7 H(1)   Bbb    -0.0112    -5.978    -2.133    -1.994 -0.4421 -0.2534  0.8604
              Bcc     0.0232    12.379     4.417     4.129  0.3826  0.8143  0.4365
 
              Baa    -0.0283     2.046     0.730     0.683  0.8825 -0.0519 -0.4674
     8 O(17)  Bbb     0.0068    -0.493    -0.176    -0.164  0.3935 -0.4628  0.7943
              Bcc     0.0215    -1.553    -0.554    -0.518  0.2575  0.8849  0.3881
 
              Baa    -0.0120    -6.401    -2.284    -2.135  0.8562  0.4413 -0.2688
     9 H(1)   Bbb    -0.0112    -5.979    -2.133    -1.994  0.0072  0.5100  0.8601
              Bcc     0.0232    12.380     4.417     4.129 -0.5166  0.7384 -0.4335
 
              Baa    -0.0283     2.051     0.732     0.684  0.4888  0.7389  0.4638
    10 O(17)  Bbb     0.0068    -0.492    -0.175    -0.164 -0.5954 -0.1060  0.7964
              Bcc     0.0215    -1.559    -0.556    -0.520 -0.6376  0.6654 -0.3881
 
              Baa    -0.0120    -6.402    -2.284    -2.135  0.0472  0.9620  0.2688
    11 H(1)   Bbb    -0.0112    -5.981    -2.134    -1.995  0.4427 -0.2614  0.8577
              Bcc     0.0232    12.382     4.418     4.130  0.8954  0.0785 -0.4382
 
              Baa    -0.0283     2.049     0.731     0.684 -0.3971  0.7927 -0.4625
    12 O(17)  Bbb     0.0068    -0.492    -0.176    -0.164  0.2090  0.5688  0.7955
              Bcc     0.0215    -1.557    -0.556    -0.519  0.8937  0.2192 -0.3915
 
              Baa    -0.0120    -6.401    -2.284    -2.135  0.8110 -0.5222  0.2638
    13 H(1)   Bbb    -0.0112    -5.979    -2.133    -1.994 -0.4426 -0.2527  0.8604
              Bcc     0.0232    12.380     4.417     4.129  0.3827  0.8145  0.4361
 
              Baa    -0.0118    -6.312    -2.252    -2.106 -0.5115  0.8592 -0.0106
    14 H(1)   Bbb    -0.0110    -5.888    -2.101    -1.964 -0.5819 -0.3373  0.7400
              Bcc     0.0229    12.201     4.354     4.070  0.6322  0.3846  0.6726
 
              Baa    -0.0118    -6.312    -2.252    -2.106  0.4888  0.8723  0.0143
    15 H(1)   Bbb    -0.0110    -5.889    -2.101    -1.964  0.5848 -0.3398  0.7366
              Bcc     0.0229    12.201     4.354     4.070 -0.6474  0.3517  0.6762
 
              Baa    -0.0120    -6.401    -2.284    -2.135  0.8561  0.4406 -0.2700
    16 H(1)   Bbb    -0.0112    -5.979    -2.133    -1.994  0.0086  0.5102  0.8600
              Bcc     0.0232    12.380     4.417     4.129 -0.5167  0.7386 -0.4330
 
              Baa    -0.0118    -6.312    -2.252    -2.105  0.4880  0.8727  0.0133
    17 H(1)   Bbb    -0.0110    -5.889    -2.101    -1.964  0.5853 -0.3385  0.7368
              Bcc     0.0229    12.201     4.354     4.070 -0.6476  0.3518  0.6759
 
              Baa    -0.0118    -6.313    -2.253    -2.106 -0.5119  0.8590 -0.0096
    18 H(1)   Bbb    -0.0110    -5.890    -2.102    -1.965 -0.5814 -0.3382  0.7400
              Bcc     0.0229    12.203     4.354     4.070  0.6324  0.3844  0.6726
 
              Baa    -0.0118    -6.313    -2.253    -2.106  0.9998  0.0159 -0.0137
    19 H(1)   Bbb    -0.0110    -5.888    -2.101    -1.964 -0.0006  0.6725  0.7401
              Bcc     0.0229    12.201     4.354     4.070 -0.0210  0.7399 -0.6724
 

 ---------------------------------------------------------------------------------

 No NMR shielding tensors so no spin-rotation constants.
 Leave Link  601 at Thu May 30 11:22:59 2024, MaxMem= 26843545600 cpu:              29.1 elap:               0.3
 (Enter /gpfs/fs1/soft/improv/software/custom-built/gaussian/g16/l9999.exe)
 Unable to Open any file for archive entry.
 1\1\GINC-I738\SP\UPBEPBE\Gen\H12O6Ti1(2+,3)\HHARB\30-May-2024\0\\#p PB
 EPBE empiricaldispersion=gd3 scf=(maxcycles=500,xqc,maxconventional=50
 ) scrf=(cpcm,solvent=water) geom=allcheck guess=read chkbasis\\Title\\
 2,3\Ti,-0.7848583088,0.7128204293,0.0318853291\O,-1.2772900621,2.83517
 8346,-0.2743365901\H,-2.124739081,3.2051313025,-0.5838666062\O,1.33021
 91656,1.2989614113,0.1854358517\H,1.8824572713,1.2718621291,0.98917517
 96\O,-0.9281238205,0.9233484957,2.2172207864\H,-1.0475213084,0.2018185
 042,2.8628362111\O,-0.2919931379,-1.409408142,0.3377002459\H,-0.854155
 4356,-2.1737863657,0.1110258456\O,-2.8999516154,0.1269597831,-0.121759
 6417\H,-3.4521255697,0.1543083248,-0.9255193613\O,-0.6417548107,0.5027
 291756,-2.1535379667\H,-0.5231002051,1.224612671,-2.7988988317\H,-0.60
 0749269,-0.3267311773,-2.6645917334\H,1.9250343378,1.5561004221,-0.543
 2305973\H,-0.7145798064,3.59936906,-0.0483922774\H,-3.4946629471,-0.13
 11443208,0.6066239601\H,-0.9687884126,1.7530450866,2.7279344013\H,0.55
 51654456,-1.7790953655,0.6483412049\\Version=ES64L-G16RevC.02\State=3-
 A\HF=-1307.1944241\S2=2.002252\S2-1=0.\S2A=2.000003\RMSD=2.841e-09\Dip
 ole=-0.0000394,-0.0002923,0.0001857\Quadrupole=-0.7935283,0.3865423,0.
 406986,1.2496003,1.2402882,-0.7877409\PG=C01 [X(H12O6Ti1)]\\@
 The archive entry for this job was punched.


 KNIGHT- SIRE, I'VE JUST RETURNED FROM THE FRONT
 KING-   HOW GOES THE BATTLE                    
 KNIGHT- THE SITUATION IS QUITE FLUID           
 KING-   WHAT DOES *THAT* MEAN                  
 KNIGHT- WE'RE UP THE CREEK                     
                THE WIZARD OF ID                
 Job cpu time:       0 days  1 hours 32 minutes  1.4 seconds.
 Elapsed time:       0 days  0 hours  0 minutes 46.9 seconds.
 File lengths (MBytes):  RWF=    124 Int=      0 D2E=      0 Chk=     32 Scr=      1
 Normal termination of Gaussian 16 at Thu May 30 11:22:59 2024.
