 Entering Gaussian System, Link 0=g16
 Input=Ti_3_PBE.com
 Output=Ti_3_PBE.log
 Initial command:
 /gpfs/fs1/soft/improv/software/custom-built/gaussian/g16/l1.exe "/scratch/Gau-614017.inp" -scrdir="/scratch/"
 Default CPUs for threads: 0-127
 Default linda workers: i661.lcrc.anl.gov
 Default is to use 128 SMP processors on each worker.
 Entering Link 1 = /gpfs/fs1/soft/improv/software/custom-built/gaussian/g16/l1.exe PID=    614018.
  
 Copyright (c) 1988-2021, Gaussian, Inc.  All Rights Reserved.
  
 This is part of the Gaussian(R) 16 program.  It is based on
 the Gaussian(R) 09 system (copyright 2009, Gaussian, Inc.),
 the Gaussian(R) 03 system (copyright 2003, Gaussian, Inc.),
 the Gaussian(R) 98 system (copyright 1998, Gaussian, Inc.),
 the Gaussian(R) 94 system (copyright 1995, Gaussian, Inc.),
 the Gaussian 92(TM) system (copyright 1992, Gaussian, Inc.),
 the Gaussian 90(TM) system (copyright 1990, Gaussian, Inc.),
 the Gaussian 88(TM) system (copyright 1988, Gaussian, Inc.),
 the Gaussian 86(TM) system (copyright 1986, Carnegie Mellon
 University), and the Gaussian 82(TM) system (copyright 1983,
 Carnegie Mellon University). Gaussian is a federally registered
 trademark of Gaussian, Inc.
  
 This software contains proprietary and confidential information,
 including trade secrets, belonging to Gaussian, Inc.
  
 This software is provided under written license and may be
 used, copied, transmitted, or stored only in accord with that
 written license.
  
 The following legend is applicable only to US Government
 contracts under FAR:
  
                    RESTRICTED RIGHTS LEGEND
  
 Use, reproduction and disclosure by the US Government is
 subject to restrictions as set forth in subparagraphs (a)
 and (c) of the Commercial Computer Software - Restricted
 Rights clause in FAR 52.227-19.
  
 Gaussian, Inc.
 340 Quinnipiac St., Bldg. 40, Wallingford CT 06492
  
  
 ---------------------------------------------------------------
 Warning -- This program may not be used in any manner that
 competes with the business of Gaussian, Inc. or will provide
 assistance to any competitor of Gaussian, Inc.  The licensee
 of this program is prohibited from giving any competitor of
 Gaussian, Inc. access to this program.  By using this program,
 the user acknowledges that Gaussian, Inc. is engaged in the
 business of creating and licensing software in the field of
 computational chemistry and represents and warrants to the
 licensee that it is not a competitor of Gaussian, Inc. and that
 it will not use this program in any manner prohibited above.
 ---------------------------------------------------------------
  

 Cite this work as:
 Gaussian 16, Revision C.02,
 M. J. Frisch, G. W. Trucks, H. B. Schlegel, G. E. Scuseria, 
 M. A. Robb, J. R. Cheeseman, G. Scalmani, V. Barone, 
 G. A. Petersson, H. Nakatsuji, X. Li, M. Caricato, A. V. Marenich, 
 J. Bloino, B. G. Janesko, R. Gomperts, B. Mennucci, H. P. Hratchian, 
 J. V. Ortiz, A. F. Izmaylov, J. L. Sonnenberg, D. Williams-Young, 
 F. Ding, F. Lipparini, F. Egidi, J. Goings, B. Peng, A. Petrone, 
 T. Henderson, D. Ranasinghe, V. G. Zakrzewski, J. Gao, N. Rega, 
 G. Zheng, W. Liang, M. Hada, M. Ehara, K. Toyota, R. Fukuda, 
 J. Hasegawa, M. Ishida, T. Nakajima, Y. Honda, O. Kitao, H. Nakai, 
 T. Vreven, K. Throssell, J. A. Montgomery, Jr., J. E. Peralta, 
 F. Ogliaro, M. J. Bearpark, J. J. Heyd, E. N. Brothers, K. N. Kudin, 
 V. N. Staroverov, T. A. Keith, R. Kobayashi, J. Normand, 
 K. Raghavachari, A. P. Rendell, J. C. Burant, S. S. Iyengar, 
 J. Tomasi, M. Cossi, J. M. Millam, M. Klene, C. Adamo, R. Cammi, 
 J. W. Ochterski, R. L. Martin, K. Morokuma, O. Farkas, 
 J. B. Foresman, and D. J. Fox, Gaussian, Inc., Wallingford CT, 2019.
 
 ******************************************
 Gaussian 16:  ES64L-G16RevC.02  7-Dec-2021
                30-May-2024 
 ******************************************
 %chk=Ti_3_PBE.chk
 SetSPE:  set environment variable "OMP_PROC_BIND" = "true"
 SetSPE:  set environment variable "OMP_PLACES" = "{0},{1},{2},{3},{4},{5},{6},{7},{8},{9},{10},{11},{12},{13},{14},{15},{16},{17},{18},{19},{20},{21},{22},{23},{24},{25},{26},{27},{28},{29},{30},{31},{32},{33},{34},{35},{36},{37},{38},{39},{40},{41},{42},{43},{44},{45},{46},{47},{48},{49},{50},{51},{52},{53},{54},{55},{56},{57},{58},{59},{60},{61},{62},{63},{64},{65},{66},{67},{68},{69},{70},{71},{72},{73},{74},{75},{76},{77},{78},{79},{80},{81},{82},{83},{84},{85},{86},{87},{88},{89},{90},{91},{92},{93},{94},{95},{96},{97},{98},{99},{100},{101},{102},{103},{104},{105},{106},{107},{108},{109},{110},{111},{112},{113},{114},{115},{116},{117},{118},{119},{120},{121},{122},{123},{124},{125},{126},{127}"
 SetLPE:    new flags="-opt 'Tsnet.Node.lindarsharg: ssh'  -nodelist 'i661.lcrc.anl.gov' -env GAUSS_MDEF=26843545600 -env GAUSS_EXEDIR="/gpfs/fs1/soft/improv/software/custom-built/gaussian/g16/bsd:/gpfs/fs1/soft/improv/software/custom-built/gaussian/g16" -env "OMP_PROC_BIND=true" -env "OMP_PLACES={0},{1},{2},{3},{4},{5},{6},{7},{8},{9},{10},{11},{12},{13},{14},{15},{16},{17},{18},{19},{20},{21},{22},{23},{24},{25},{26},{27},{28},{29},{30},{31},{32},{33},{34},{35},{36},{37},{38},{39},{40},{41},{42},{43},{44},{45},{46},{47},{48},{49},{50},{51},{52},{53},{54},{55},{56},{57},{58},{59},{60},{61},{62},{63},{64},{65},{66},{67},{68},{69},{70},{71},{72},{73},{74},{75},{76},{77},{78},{79},{80},{81},{82},{83},{84},{85},{86},{87},{88},{89},{90},{91},{92},{93},{94},{95},{96},{97},{98},{99},{100},{101},{102},{103},{104},{105},{106},{107},{108},{109},{110},{111},{112},{113},{114},{115},{116},{117},{118},{119},{120},{121},{122},{123},{124},{125},{126},{127}" -env GAUSS_ADEF="0,1,2,3,4,5,6,7,8,9,10,11,12,13,14,15,16,17,18,19,20,21,22,23,24,25,26,27,28,29,30,31,32,33,34,35,36,37,38,39,40,41,42,43,44,45,46,47,48,49,50,51,52,53,54,55,56,57,58,59,60,61,62,63,64,65,66,67,68,69,70,71,72,73,74,75,76,77,78,79,80,81,82,83,84,85,86,87,88,89,90,91,92,93,94,95,96,97,98,99,100,101,102,103,104,105,106,107,108,109,110,111,112,113,114,115,116,117,118,119,120,121,122,123,124,125,126,127""
 Will use up to    1 processors via Linda.
 ----------------------------------------------------------------------
 #p PBEPBE empiricaldispersion=gd3 6-31+G(2df,p) opt=(cartesian,calcall
 ,maxcycles=500) freq scf=(maxcycles=500,xqc,maxconventional=50)
 ----------------------------------------------------------------------
 1/6=500,10=4,18=10,26=3,38=1/1,3;
 2/12=2,17=6,18=5,29=2,40=1/2;
 3/5=1,6=6,7=114,11=2,25=1,30=1,71=2,74=1009,124=31,140=1/1,2,3;
 4//1;
 5/5=2,7=500,8=3,13=1,38=5,85=50/2,8;
 8/6=4,10=90,11=11/1;
 11/6=1,8=1,9=11,15=111,16=1/1,2,10;
 10/6=1/2;
 6/7=2,8=2,9=2,10=2,18=1,28=1/1;
 7/7=1,10=1,25=1/1,2,3,16;
 1/6=500,10=4,18=10,26=3/3(3);
 2/29=1/2;
 7/7=1,8=1,9=1,25=1,44=-1/16;
 99/12=1/99;
 2/29=1/2;
 3/5=1,6=6,7=114,11=2,25=1,30=1,71=2,74=1009,124=31,140=1/1,2,3;
 4/5=5,16=3,69=1/1;
 5/5=2,7=500,8=3,13=1,38=5,85=50/2,8;
 8/6=4,10=90,11=11/1;
 11/6=1,8=1,9=11,15=111,16=1/1,2,10;
 10/6=1/2;
 7/7=1,10=1,25=1/1,2,3,16;
 1/6=500,10=4,18=10,26=3/3(-8);
 2/29=1/2;
 6/7=2,8=2,9=2,10=2,18=1,19=2,28=1/1;
 7/7=1,8=1,9=1,25=1,44=-1/16;
 99/12=1/99;
 Leave Link    1 at Thu May 30 09:20:55 2024, MaxMem=           0 cpu:               6.0 elap:               0.1
 (Enter /gpfs/fs1/soft/improv/software/custom-built/gaussian/g16/l101.exe)
 -----
 Title
 -----
 Symbolic Z-matrix:
 Charge =  3 Multiplicity = 2
 Ti                   -0.79304   0.81881  -0.09491 
 O                    -1.20497   2.57394  -0.35687 
 H                    -2.12106   2.64974  -0.63312 
 O                     0.99012   1.19063  -0.05794 
 H                     1.42696   0.5998    0.55971 
 O                    -0.81752   1.03069   1.71365 
 H                    -1.02108   0.1906    2.13133 
 O                    -0.38507  -0.93351   0.17118 
 H                    -1.15682  -1.47369  -0.01433 
 O                    -2.57341   0.45178  -0.12186 
 H                    -2.77756  -0.08744  -0.88929 
 O                    -0.76966   0.60461  -1.90111 
 H                     0.09872   0.83457  -2.23949 
 H                    -0.96534  -0.30999  -2.11742 
 H                     1.12208   2.09943   0.22124 
 H                    -1.07671   3.0584    0.46184 
 H                    -2.81407  -0.02398   0.6765 
 H                     0.0422    1.33615   2.01181 
 H                    -0.11532  -1.06446   1.08312 
 
 ITRead=  0  0  0  0  0  0  0  0  0  0  0  0  0  0  0  0  0  0  0
 MicOpt= -1 -1 -1 -1 -1 -1 -1 -1 -1 -1 -1 -1 -1 -1 -1 -1 -1 -1 -1
 NAtoms=     19 NQM=       19 NQMF=       0 NMMI=      0 NMMIF=      0
                NMic=       0 NMicF=      0.
                    Isotopes and Nuclear Properties:
 (Nuclear quadrupole moments (NQMom) in fm**2, nuclear magnetic moments (NMagM)
  in nuclear magnetons)

  Atom         1           2           3           4           5           6           7           8           9          10
 IAtWgt=          48          16           1          16           1          16           1          16           1          16
 AtmWgt=  47.9479467  15.9949146   1.0078250  15.9949146   1.0078250  15.9949146   1.0078250  15.9949146   1.0078250  15.9949146
 NucSpn=           0           0           1           0           1           0           1           0           1           0
 AtZEff=  -0.0000000  -0.0000000  -0.0000000  -0.0000000  -0.0000000  -0.0000000  -0.0000000  -0.0000000  -0.0000000  -0.0000000
 NQMom=    0.0000000   0.0000000   0.0000000   0.0000000   0.0000000   0.0000000   0.0000000   0.0000000   0.0000000   0.0000000
 NMagM=    0.0000000   0.0000000   2.7928460   0.0000000   2.7928460   0.0000000   2.7928460   0.0000000   2.7928460   0.0000000
 AtZNuc=  22.0000000   8.0000000   1.0000000   8.0000000   1.0000000   8.0000000   1.0000000   8.0000000   1.0000000   8.0000000

  Atom        11          12          13          14          15          16          17          18          19
 IAtWgt=           1          16           1           1           1           1           1           1           1
 AtmWgt=   1.0078250  15.9949146   1.0078250   1.0078250   1.0078250   1.0078250   1.0078250   1.0078250   1.0078250
 NucSpn=           1           0           1           1           1           1           1           1           1
 AtZEff=  -0.0000000  -0.0000000  -0.0000000  -0.0000000  -0.0000000  -0.0000000  -0.0000000  -0.0000000  -0.0000000
 NQMom=    0.0000000   0.0000000   0.0000000   0.0000000   0.0000000   0.0000000   0.0000000   0.0000000   0.0000000
 NMagM=    2.7928460   0.0000000   2.7928460   2.7928460   2.7928460   2.7928460   2.7928460   2.7928460   2.7928460
 AtZNuc=   1.0000000   8.0000000   1.0000000   1.0000000   1.0000000   1.0000000   1.0000000   1.0000000   1.0000000
 Leave Link  101 at Thu May 30 09:20:55 2024, MaxMem= 26843545600 cpu:               0.4 elap:               0.0
 (Enter /gpfs/fs1/soft/improv/software/custom-built/gaussian/g16/l103.exe)

 GradGradGradGradGradGradGradGradGradGradGradGradGradGradGradGradGradGrad
 Berny optimization.
 Initialization pass.
 No Z-matrix variables, so optimization will use Cartesian coordinates.
 Trust Radius=3.00D-01 FncErr=1.00D-07 GrdErr=1.00D-06 EigMax=2.50D+02 EigMin=1.00D-04
 Number of steps in this run=    114 maximum allowed number of steps=    114.
 GradGradGradGradGradGradGradGradGradGradGradGradGradGradGradGradGradGrad

 Leave Link  103 at Thu May 30 09:20:56 2024, MaxMem= 26843545600 cpu:               0.4 elap:               0.1
 (Enter /gpfs/fs1/soft/improv/software/custom-built/gaussian/g16/l202.exe)
 ---------------------------------------------------------------------------------------------------
                            Z-MATRIX (ANGSTROMS AND DEGREES)
   CD    Cent   Atom    N1       Length/X        N2       Alpha/Y        N3        Beta/Z          J
 ---------------------------------------------------------------------------------------------------
      1      1  Ti       0  -0.793037          0.818805         -0.094905
      2      2  O        0  -1.204971          2.573941         -0.356874
      3      3  H        0  -2.121063          2.649743         -0.633122
      4      4  O        0   0.990122          1.190635         -0.057941
      5      5  H        0   1.426962          0.599798          0.559707
      6      6  O        0  -0.817519          1.030691          1.713650
      7      7  H        0  -1.021079          0.190602          2.131326
      8      8  O        0  -0.385068         -0.933506          0.171177
      9      9  H        0  -1.156817         -1.473692         -0.014327
     10     10  O        0  -2.573405          0.451778         -0.121857
     11     11  H        0  -2.777557         -0.087440         -0.889285
     12     12  O        0  -0.769659          0.604612         -1.901109
     13     13  H        0   0.098725          0.834573         -2.239490
     14     14  H        0  -0.965336         -0.309994         -2.117418
     15     15  H        0   1.122081          2.099426          0.221242
     16     16  H        0  -1.076711          3.058396          0.461841
     17     17  H        0  -2.814074         -0.023981          0.676500
     18     18  H        0   0.042204          1.336153          2.011809
     19     19  H        0  -0.115315         -1.064459          1.083123
 ---------------------------------------------------------------------------------------------------
                         Z-Matrix orientation:                         
 ---------------------------------------------------------------------
 Center     Atomic      Atomic             Coordinates (Angstroms)
 Number     Number       Type             X           Y           Z
 ---------------------------------------------------------------------
      1         22           0       -0.793037    0.818805   -0.094905
      2          8           0       -1.204971    2.573941   -0.356874
      3          1           0       -2.121063    2.649743   -0.633122
      4          8           0        0.990122    1.190635   -0.057941
      5          1           0        1.426962    0.599798    0.559707
      6          8           0       -0.817519    1.030691    1.713650
      7          1           0       -1.021079    0.190602    2.131326
      8          8           0       -0.385068   -0.933506    0.171177
      9          1           0       -1.156817   -1.473692   -0.014327
     10          8           0       -2.573405    0.451778   -0.121857
     11          1           0       -2.777557   -0.087440   -0.889285
     12          8           0       -0.769659    0.604612   -1.901109
     13          1           0        0.098725    0.834573   -2.239490
     14          1           0       -0.965336   -0.309994   -2.117418
     15          1           0        1.122081    2.099426    0.221242
     16          1           0       -1.076711    3.058396    0.461841
     17          1           0       -2.814074   -0.023981    0.676500
     18          1           0        0.042204    1.336153    2.011809
     19          1           0       -0.115315   -1.064459    1.083123
 ---------------------------------------------------------------------
                    Distance matrix (angstroms):
                    1          2          3          4          5
     1  Ti   0.000000
     2  O    1.821762   0.000000
     3  H    2.325008   0.959835   0.000000
     4  O    1.821889   2.611767   3.484150   0.000000
     5  H    2.324839   3.415322   4.267739   0.959899   0.000000
     6  O    1.821090   2.611285   3.134947   2.536076   2.560263
     7  H    2.324381   3.450400   3.859988   3.136540   2.937743
     8  O    1.818745   3.640503   4.062050   2.540791   2.405292
     9  H    2.322579   4.062387   4.279649   3.421971   3.362259
    10  O    1.818006   2.536025   2.301533   3.639880   4.060711
    11  H    2.321775   3.136788   2.826442   4.064482   4.499984
    12  O    1.819010   2.540161   2.759827   2.614866   3.298603
    13  H    2.322657   2.875634   3.286750   2.383386   3.107223
    14  H    2.322591   3.387332   3.506977   3.212032   3.703756
    15  H    2.325429   2.444290   3.398642   0.959822   1.567289
    16  H    2.325125   0.959918   1.567358   2.833814   3.510364
    17  H    2.321626   3.225876   3.056824   4.060370   4.288255
    18  H    2.324547   2.949275   3.660724   2.281137   2.137375
    19  H    2.322443   4.061883   4.556733   2.758526   2.328591
                    6          7          8          9         10
     6  O    0.000000
     7  H    0.960021   0.000000
     8  O    2.534622   2.347406   0.000000
     9  H    3.061530   2.718847   0.960108   0.000000
    10  O    2.605257   2.748593   2.606473   2.392848   0.000000
    11  H    3.444886   3.505227   2.750347   2.305222   0.959885
    12  O    3.640099   4.061422   2.609231   2.833582   2.538227
    13  H    4.062670   4.557707   3.028445   3.443229   3.430916
    14  H    4.061572   4.278496   2.441955   2.411193   2.673658
    15  H    2.670492   3.447487   3.387136   4.244531   4.060675
    16  H    2.397039   3.318813   4.061790   4.557738   3.061904
    17  H    2.484803   2.318921   2.642472   2.307685   0.960023
    18  H    0.959858   1.567527   2.953276   3.665802   3.489421
    19  H    2.297892   1.869309   0.959980   1.567353   3.129403
                   11         12         13         14         15
    11  H    0.000000
    12  O    2.352526   0.000000
    13  H    3.308498   0.959935   0.000000
    14  H    2.200452   0.959991   1.567533   0.000000
    15  H    4.606825   3.212091   2.949969   3.953725   0.000000
    16  H    3.822919   3.420362   3.691102   4.243941   2.410850
    17  H    1.567497   3.349453   4.210050   3.362383   4.495491
    18  H    4.288824   4.062660   4.281159   4.558009   2.225950
    19  H    3.454344   3.481323   3.833001   3.396353   3.504877
                   16         17         18         19
    16  H    0.000000
    17  H    3.544793   0.000000
    18  H    2.573032   3.433851   0.000000
    19  H    4.278809   2.920828   2.578800   0.000000
 Stoichiometry    H12O6Ti(3+,2)
 Framework group  C1[X(H12O6Ti)]
 Deg. of freedom    51
 Full point group                 C1      NOp   1
 Largest Abelian subgroup         C1      NOp   1
 Largest concise Abelian subgroup C1      NOp   1
                         Standard orientation:                         
 ---------------------------------------------------------------------
 Center     Atomic      Atomic             Coordinates (Angstroms)
 Number     Number       Type             X           Y           Z
 ---------------------------------------------------------------------
      1         22           0       -0.021180   -0.031230    0.010242
      2          8           0       -0.320919   -1.688924   -0.683318
      3          1           0       -1.137185   -1.681640   -1.188234
      4          8           0        1.254245   -0.678703    1.138670
      5          1           0        1.942694   -0.019880    1.254406
      6          8           0        1.297272    0.293478   -1.203273
      7          1           0        1.380717    1.240156   -1.339207
      8          8           0        0.279127    1.625671    0.697504
      9          1           0       -0.432969    2.214440    0.436587
     10          8           0       -1.286964    0.614116   -1.123984
     11          1           0       -2.036002    0.936648   -0.617728
     12          8           0       -1.338898   -0.352897    1.222244
     13          1           0       -0.972045   -0.816749    1.978376
     14          1           0       -1.718130    0.480302    1.511284
     15          1           0        1.635288   -1.477345    0.766869
     16          1           0        0.408469   -1.932016   -1.258072
     17          1           0       -0.916621    1.333448   -1.640754
     18          1           0        2.128227   -0.056953   -0.874579
     19          1           0        1.112611    1.964725    0.362979
 ---------------------------------------------------------------------
 Rotational constants (GHZ):           2.0397079           1.9739543           1.9252950
 Leave Link  202 at Thu May 30 09:20:56 2024, MaxMem= 26843545600 cpu:               0.5 elap:               0.1
 (Enter /gpfs/fs1/soft/improv/software/custom-built/gaussian/g16/l301.exe)
 Standard basis: 6-31+G(2df,p) (6D, 7F)
 Ernie: Thresh=  0.10000D-02 Tol=  0.10000D-05 Strict=F.
 There are   347 symmetry adapted cartesian basis functions of A   symmetry.
 There are   317 symmetry adapted basis functions of A   symmetry.
   317 basis functions,   514 primitive gaussians,   347 cartesian basis functions
    40 alpha electrons       39 beta electrons
       nuclear repulsion energy       701.0339313636 Hartrees.
 IExCor= 1009 DFT=T Ex=PBE Corr=PBE ExCW=0 ScaHFX=  0.000000
 ScaDFX=  1.000000  1.000000  1.000000  1.000000 ScalE2=  1.000000  1.000000
 IRadAn=      5 IRanWt=     -1 IRanGd=            0 ICorTp=0 IEmpDi=131
 NAtoms=   19 NActive=   19 NUniq=   19 SFac= 1.00D+00 NAtFMM=   60 NAOKFM=F Big=F
 Integral buffers will be    131072 words long.
 Raffenetti 2 integral format.
 Two-electron integral symmetry is turned on.
 R6Disp:  Grimme-D3 Dispersion energy=       -0.0121816038 Hartrees.
 Nuclear repulsion after empirical dispersion term =      701.0217497598 Hartrees.
 Leave Link  301 at Thu May 30 09:20:56 2024, MaxMem= 26843545600 cpu:               0.4 elap:               0.0
 (Enter /gpfs/fs1/soft/improv/software/custom-built/gaussian/g16/l302.exe)
 NPDir=0 NMtPBC=     1 NCelOv=     1 NCel=       1 NClECP=     1 NCelD=      1
         NCelK=      1 NCelE2=     1 NClLst=     1 CellRange=     0.0.
 One-electron integrals computed using PRISM.
 One-electron integral symmetry used in STVInt
 NBasis=   317 RedAO= T EigKep=  4.19D-05  NBF=   317
 NBsUse=   317 1.00D-06 EigRej= -1.00D+00 NBFU=   317
 Precomputing XC quadrature grid using
 IXCGrd= 4 IRadAn=           5 IRanWt=          -1 IRanGd=           0 AccXCQ= 0.00D+00.
 Generated NRdTot=       0 NPtTot=           0 NUsed=           0 NTot=          32
 NSgBfM=   347   347   347   347   347 MxSgAt=    19 MxSgA2=    19.
 Leave Link  302 at Thu May 30 09:20:57 2024, MaxMem= 26843545600 cpu:              21.8 elap:               0.3
 (Enter /gpfs/fs1/soft/improv/software/custom-built/gaussian/g16/l303.exe)
 DipDrv:  MaxL=1.
 Leave Link  303 at Thu May 30 09:20:57 2024, MaxMem= 26843545600 cpu:               1.0 elap:               0.0
 (Enter /gpfs/fs1/soft/improv/software/custom-built/gaussian/g16/l401.exe)
 ExpMin= 9.99D-03 ExpMax= 4.32D+04 ExpMxC= 6.48D+03 IAcc=3 IRadAn=         5 AccDes= 0.00D+00
 Harris functional with IExCor= 1009 and IRadAn=       5 diagonalized for initial guess.
 HarFok:  IExCor= 1009 AccDes= 0.00D+00 IRadAn=         5 IDoV= 1 UseB2=F ITyADJ=14
 ICtDFT=  3500011 ScaDFX=  1.000000  1.000000  1.000000  1.000000
 FoFCou: FMM=F IPFlag=           0 FMFlag=      100000 FMFlg1=           0
         NFxFlg=           0 DoJE=T BraDBF=F KetDBF=T FulRan=T
         wScrn=  0.000000 ICntrl=       500 IOpCl=  0 I1Cent=   200000004 NGrid=           0
         NMat0=    1 NMatS0=      1 NMatT0=    0 NMatD0=    1 NMtDS0=    0 NMtDT0=    0
 Petite list used in FoFCou.
 Harris En= -1306.76475826887    
 JPrj=0 DoOrth=F DoCkMO=F.
 Initial guess <Sx>= 0.0000 <Sy>= 0.0000 <Sz>= 0.5000 <S**2>= 0.7500 S= 0.5000
 Leave Link  401 at Thu May 30 09:20:58 2024, MaxMem= 26843545600 cpu:              39.8 elap:               0.5
 (Enter /gpfs/fs1/soft/improv/software/custom-built/gaussian/g16/l502.exe)
 Integral symmetry usage will be decided dynamically.
 UHF open shell SCF:
 Using DIIS extrapolation, IDIIS=  1040.
 NGot= 26843545600 LenX= 26843256607 LenY= 26843135757
 Requested convergence on RMS density matrix=1.00D-08 within  50 cycles.
 Requested convergence on MAX density matrix=1.00D-06.
 Requested convergence on             energy=1.00D-06.
 No special actions if energy rises.
 Fock matrices will be formed incrementally for  20 cycles.

 Cycle   1  Pass 1  IDiag  1:
 FoFJK:  IHMeth= 1 ICntrl=     500 DoSepK=F KAlg= 0 I1Cent=           0 FoldK=F
 IRaf= 990000000 NMat=       1 IRICut=       1 DoRegI=T DoRafI=F ISym2E= 0 IDoP0=0 IntGTp=1.
 FoFCou: FMM=F IPFlag=           0 FMFlag=      100000 FMFlg1=           0
         NFxFlg=           0 DoJE=T BraDBF=F KetDBF=F FulRan=T
         wScrn=  0.000000 ICntrl=       500 IOpCl=  0 I1Cent=           0 NGrid=           0
         NMat0=    1 NMatS0=      1 NMatT0=    0 NMatD0=    1 NMtDS0=    0 NMtDT0=    0
 Symmetry not used in FoFCou.
 E= -1305.72138092602    
 DIIS: error= 3.34D-02 at cycle   1 NSaved=   1.
 NSaved= 1 IEnMin= 1 EnMin= -1305.72138092602     IErMin= 1 ErrMin= 3.34D-02
 ErrMax= 3.34D-02  0.00D+00 EMaxC= 1.00D-01 BMatC= 2.28D+00 BMatP= 2.28D+00
 IDIUse=3 WtCom= 6.66D-01 WtEn= 3.34D-01
 Coeff-Com:  0.100D+01
 Coeff-En:   0.100D+01
 Coeff:      0.100D+01
 Gap=     0.017 Goal=   None    Shift=    0.000
 Gap=     0.080 Goal=   None    Shift=    0.000
 GapD=    0.017 DampG=0.250 DampE=0.250 DampFc=0.1250 IDamp=-1.
 Damping current iteration by 1.25D-01
 RMSDP=9.22D-03 MaxDP=3.68D-01              OVMax= 4.05D-01

 Cycle   2  Pass 1  IDiag  1:
 RMSU=  1.13D-03    CP:  9.89D-01
 E= -1305.81339405142     Delta-E=       -0.092013125394 Rises=F Damp=T
 DIIS: error= 2.10D-02 at cycle   2 NSaved=   2.
 NSaved= 2 IEnMin= 2 EnMin= -1305.81339405142     IErMin= 2 ErrMin= 2.10D-02
 ErrMax= 2.10D-02  0.00D+00 EMaxC= 1.00D-01 BMatC= 8.94D-01 BMatP= 2.28D+00
 IDIUse=3 WtCom= 7.90D-01 WtEn= 2.10D-01
 Coeff-Com: -0.143D+01 0.243D+01
 Coeff-En:   0.000D+00 0.100D+01
 Coeff:     -0.113D+01 0.213D+01
 Gap=    -0.020 Goal=   None    Shift=    0.000
 Gap=     0.232 Goal=   None    Shift=    0.000
 RMSDP=1.30D-02 MaxDP=1.68D+00 DE=-9.20D-02 OVMax= 9.81D-01

 Cycle   3  Pass 1  IDiag  1:
 RMSU=  1.28D-02    CP:  9.55D-01  2.98D+00
 E= -1305.67289737265     Delta-E=        0.140496678770 Rises=F Damp=F
 DIIS: error= 2.83D-02 at cycle   3 NSaved=   3.
 NSaved= 3 IEnMin= 2 EnMin= -1305.81339405142     IErMin= 2 ErrMin= 2.10D-02
 ErrMax= 2.83D-02  0.00D+00 EMaxC= 1.00D-01 BMatC= 1.42D+00 BMatP= 8.94D-01
 IDIUse=2 WtCom= 0.00D+00 WtEn= 1.00D+00
 Coeff-En:   0.000D+00 0.644D+00 0.356D+00
 Coeff:      0.000D+00 0.644D+00 0.356D+00
 Gap=    -0.170 Goal=   None    Shift=    0.000
 Gap=     0.265 Goal=   None    Shift=    0.000
 RMSDP=1.37D-02 MaxDP=1.69D+00 DE= 1.40D-01 OVMax= 9.52D-01

 Cycle   4  Pass 1  IDiag  1:
 RMSU=  4.31D-03    CP:  9.30D-01  3.00D+00 -1.62D-02
 E= -1305.11673422134     Delta-E=        0.556163151308 Rises=F Damp=F
 DIIS: error= 5.11D-02 at cycle   4 NSaved=   4.
 NSaved= 4 IEnMin= 2 EnMin= -1305.81339405142     IErMin= 2 ErrMin= 2.10D-02
 ErrMax= 5.11D-02  0.00D+00 EMaxC= 1.00D-01 BMatC= 6.06D+00 BMatP= 8.94D-01
 IDIUse=2 WtCom= 0.00D+00 WtEn= 1.00D+00
 EnCoef did   100 forward-backward iterations
 Coeff-En:   0.325D+00 0.176D-01 0.396D+00 0.262D+00
 Coeff:      0.325D+00 0.176D-01 0.396D+00 0.262D+00
 Gap=     0.008 Goal=   None    Shift=    0.000
 Gap=     0.180 Goal=   None    Shift=    0.000
 RMSDP=3.20D-03 MaxDP=1.94D-01 DE= 5.56D-01 OVMax= 2.21D-01

 Cycle   5  Pass 1  IDiag  1:
 RMSU=  1.55D-03    CP:  9.52D-01  3.00D+00  4.20D-03  3.60D-01
 E= -1306.07699323147     Delta-E=       -0.960259010135 Rises=F Damp=F
 DIIS: error= 7.48D-03 at cycle   5 NSaved=   5.
 NSaved= 5 IEnMin= 5 EnMin= -1306.07699323147     IErMin= 5 ErrMin= 7.48D-03
 ErrMax= 7.48D-03  0.00D+00 EMaxC= 1.00D-01 BMatC= 1.14D-01 BMatP= 8.94D-01
 IDIUse=3 WtCom= 9.25D-01 WtEn= 7.48D-02
 Coeff-Com: -0.433D-01 0.139D+00 0.142D+00-0.495D-01 0.812D+00
 Coeff-En:   0.000D+00 0.000D+00 0.693D-01 0.000D+00 0.931D+00
 Coeff:     -0.401D-01 0.128D+00 0.137D+00-0.458D-01 0.821D+00
 Gap=     0.013 Goal=   None    Shift=    0.000
 Gap=     0.228 Goal=   None    Shift=    0.000
 RMSDP=8.42D-04 MaxDP=4.70D-02 DE=-9.60D-01 OVMax= 4.92D-02

 Cycle   6  Pass 1  IDiag  1:
 RMSU=  5.57D-04    CP:  9.54D-01  2.93D+00  5.50D-03  2.20D-01  9.79D-01
 E= -1306.09898796982     Delta-E=       -0.021994738347 Rises=F Damp=F
 DIIS: error= 1.10D-03 at cycle   6 NSaved=   6.
 NSaved= 6 IEnMin= 6 EnMin= -1306.09898796982     IErMin= 6 ErrMin= 1.10D-03
 ErrMax= 1.10D-03  0.00D+00 EMaxC= 1.00D-01 BMatC= 4.49D-03 BMatP= 1.14D-01
 IDIUse=3 WtCom= 9.89D-01 WtEn= 1.10D-02
 Coeff-Com:  0.889D-01-0.122D+00 0.522D-01-0.126D-01 0.209D+00 0.784D+00
 Coeff-En:   0.000D+00 0.000D+00 0.000D+00 0.000D+00 0.000D+00 0.100D+01
 Coeff:      0.879D-01-0.121D+00 0.516D-01-0.125D-01 0.207D+00 0.787D+00
 Gap=     0.016 Goal=   None    Shift=    0.000
 Gap=     0.227 Goal=   None    Shift=    0.000
 RMSDP=1.64D-04 MaxDP=6.11D-03 DE=-2.20D-02 OVMax= 1.12D-02

 Cycle   7  Pass 1  IDiag  1:
 RMSU=  1.47D-04    CP:  9.53D-01  2.96D+00  5.64D-03  2.23D-01  9.94D-01
                    CP:  9.01D-01
 E= -1306.09896238569     Delta-E=        0.000025584129 Rises=F Damp=F
 DIIS: error= 1.35D-03 at cycle   7 NSaved=   7.
 NSaved= 7 IEnMin= 6 EnMin= -1306.09898796982     IErMin= 6 ErrMin= 1.10D-03
 ErrMax= 1.35D-03  0.00D+00 EMaxC= 1.00D-01 BMatC= 4.77D-03 BMatP= 4.49D-03
 IDIUse=3 WtCom= 9.89D-01 WtEn= 1.10D-02
 Coeff-Com:  0.305D-01-0.462D-01 0.154D-01-0.413D-02-0.646D-01 0.517D+00
 Coeff-Com:  0.552D+00
 Coeff-En:   0.000D+00 0.000D+00 0.000D+00 0.000D+00 0.000D+00 0.514D+00
 Coeff-En:   0.486D+00
 Coeff:      0.302D-01-0.457D-01 0.152D-01-0.408D-02-0.639D-01 0.517D+00
 Coeff:      0.552D+00
 Gap=     0.017 Goal=   None    Shift=    0.000
 Gap=     0.232 Goal=   None    Shift=    0.000
 RMSDP=1.48D-04 MaxDP=7.98D-03 DE= 2.56D-05 OVMax= 1.01D-02

 Cycle   8  Pass 1  IDiag  1:
 RMSU=  7.86D-05    CP:  9.54D-01  2.90D+00  6.01D-03  2.07D-01  9.86D-01
                    CP:  1.03D+00  8.10D-01
 E= -1306.09982636807     Delta-E=       -0.000863982378 Rises=F Damp=F
 DIIS: error= 3.12D-04 at cycle   8 NSaved=   8.
 NSaved= 8 IEnMin= 8 EnMin= -1306.09982636807     IErMin= 8 ErrMin= 3.12D-04
 ErrMax= 3.12D-04  0.00D+00 EMaxC= 1.00D-01 BMatC= 3.17D-04 BMatP= 4.49D-03
 IDIUse=3 WtCom= 9.97D-01 WtEn= 3.12D-03
 Coeff-Com: -0.536D-03 0.409D-03 0.247D-02-0.837D-03-0.788D-01 0.162D+00
 Coeff-Com:  0.248D+00 0.667D+00
 Coeff-En:   0.000D+00 0.000D+00 0.000D+00 0.000D+00 0.000D+00 0.000D+00
 Coeff-En:   0.000D+00 0.100D+01
 Coeff:     -0.534D-03 0.408D-03 0.246D-02-0.835D-03-0.786D-01 0.162D+00
 Coeff:      0.248D+00 0.668D+00
 Gap=     0.017 Goal=   None    Shift=    0.000
 Gap=     0.233 Goal=   None    Shift=    0.000
 RMSDP=5.93D-05 MaxDP=2.38D-03 DE=-8.64D-04 OVMax= 7.80D-03

 Cycle   9  Pass 1  IDiag  1:
 RMSU=  3.48D-05    CP:  9.54D-01  2.88D+00  6.19D-03  2.00D-01  9.81D-01
                    CP:  1.09D+00  8.73D-01  9.00D-01
 E= -1306.09988823253     Delta-E=       -0.000061864465 Rises=F Damp=F
 DIIS: error= 9.38D-05 at cycle   9 NSaved=   9.
 NSaved= 9 IEnMin= 9 EnMin= -1306.09988823253     IErMin= 9 ErrMin= 9.38D-05
 ErrMax= 9.38D-05  0.00D+00 EMaxC= 1.00D-01 BMatC= 3.26D-05 BMatP= 3.17D-04
 IDIUse=1 WtCom= 1.00D+00 WtEn= 0.00D+00
 Coeff-Com:  0.294D-02-0.436D-02 0.318D-03 0.577D-03-0.351D-01 0.405D-01
 Coeff-Com:  0.690D-01 0.379D+00 0.547D+00
 Coeff:      0.294D-02-0.436D-02 0.318D-03 0.577D-03-0.351D-01 0.405D-01
 Coeff:      0.690D-01 0.379D+00 0.547D+00
 Gap=     0.017 Goal=   None    Shift=    0.000
 Gap=     0.233 Goal=   None    Shift=    0.000
 RMSDP=1.52D-05 MaxDP=9.49D-04 DE=-6.19D-05 OVMax= 3.10D-03

 Cycle  10  Pass 1  IDiag  1:
 RMSU=  1.36D-05    CP:  9.54D-01  2.89D+00  6.17D-03  2.00D-01  9.81D-01
                    CP:  1.09D+00  8.67D-01  9.33D-01  1.05D+00
 E= -1306.09989374760     Delta-E=       -0.000005515064 Rises=F Damp=F
 DIIS: error= 2.71D-05 at cycle  10 NSaved=  10.
 NSaved=10 IEnMin=10 EnMin= -1306.09989374760     IErMin=10 ErrMin= 2.71D-05
 ErrMax= 2.71D-05  0.00D+00 EMaxC= 1.00D-01 BMatC= 3.17D-06 BMatP= 3.26D-05
 IDIUse=1 WtCom= 1.00D+00 WtEn= 0.00D+00
 Coeff-Com: -0.568D-03 0.859D-03-0.309D-03 0.162D-03-0.507D-02-0.950D-02
 Coeff-Com: -0.956D-02 0.924D-01 0.240D+00 0.691D+00
 Coeff:     -0.568D-03 0.859D-03-0.309D-03 0.162D-03-0.507D-02-0.950D-02
 Coeff:     -0.956D-02 0.924D-01 0.240D+00 0.691D+00
 Gap=     0.017 Goal=   None    Shift=    0.000
 Gap=     0.233 Goal=   None    Shift=    0.000
 RMSDP=1.08D-05 MaxDP=9.08D-04 DE=-5.52D-06 OVMax= 2.62D-03

 Cycle  11  Pass 1  IDiag  1:
 RMSU=  6.24D-06    CP:  9.54D-01  2.89D+00  6.16D-03  2.00D-01  9.81D-01
                    CP:  1.10D+00  8.77D-01  9.85D-01  1.19D+00  1.34D+00
 E= -1306.09989458916     Delta-E=       -0.000000841563 Rises=F Damp=F
 DIIS: error= 1.70D-05 at cycle  11 NSaved=  11.
 NSaved=11 IEnMin=11 EnMin= -1306.09989458916     IErMin=11 ErrMin= 1.70D-05
 ErrMax= 1.70D-05  0.00D+00 EMaxC= 1.00D-01 BMatC= 7.68D-07 BMatP= 3.17D-06
 IDIUse=1 WtCom= 1.00D+00 WtEn= 0.00D+00
 Coeff-Com: -0.583D-03 0.978D-03-0.971D-04-0.102D-03 0.729D-02-0.123D-01
 Coeff-Com: -0.120D-01-0.480D-01-0.111D+00 0.257D-01 0.115D+01
 Coeff:     -0.583D-03 0.978D-03-0.971D-04-0.102D-03 0.729D-02-0.123D-01
 Coeff:     -0.120D-01-0.480D-01-0.111D+00 0.257D-01 0.115D+01
 Gap=     0.017 Goal=   None    Shift=    0.000
 Gap=     0.233 Goal=   None    Shift=    0.000
 RMSDP=1.29D-05 MaxDP=1.04D-03 DE=-8.42D-07 OVMax= 3.55D-03

 Cycle  12  Pass 1  IDiag  1:
 RMSU=  3.18D-06    CP:  9.54D-01  2.89D+00  6.17D-03  2.00D-01  9.81D-01
                    CP:  1.10D+00  8.90D-01  1.02D+00  1.37D+00  1.98D+00
                    CP:  1.79D+00
 E= -1306.09989500895     Delta-E=       -0.000000419793 Rises=F Damp=F
 DIIS: error= 1.02D-05 at cycle  12 NSaved=  12.
 NSaved=12 IEnMin=12 EnMin= -1306.09989500895     IErMin=12 ErrMin= 1.02D-05
 ErrMax= 1.02D-05  0.00D+00 EMaxC= 1.00D-01 BMatC= 4.35D-07 BMatP= 7.68D-07
 IDIUse=1 WtCom= 1.00D+00 WtEn= 0.00D+00
 Coeff-Com: -0.199D-03 0.384D-03 0.462D-04-0.136D-03 0.693D-02-0.445D-02
 Coeff-Com: -0.195D-02-0.666D-01-0.185D+00-0.332D+00 0.740D+00 0.843D+00
 Coeff:     -0.199D-03 0.384D-03 0.462D-04-0.136D-03 0.693D-02-0.445D-02
 Coeff:     -0.195D-02-0.666D-01-0.185D+00-0.332D+00 0.740D+00 0.843D+00
 Gap=     0.017 Goal=   None    Shift=    0.000
 Gap=     0.233 Goal=   None    Shift=    0.000
 RMSDP=1.02D-05 MaxDP=8.28D-04 DE=-4.20D-07 OVMax= 2.77D-03

 Cycle  13  Pass 1  IDiag  1:
 RMSU=  1.55D-06    CP:  9.54D-01  2.89D+00  6.16D-03  2.00D-01  9.81D-01
                    CP:  1.10D+00  9.00D-01  1.06D+00  1.52D+00  2.47D+00
                    CP:  2.54D+00  1.35D+00
 E= -1306.09989518943     Delta-E=       -0.000000180482 Rises=F Damp=F
 DIIS: error= 5.38D-06 at cycle  13 NSaved=  13.
 NSaved=13 IEnMin=13 EnMin= -1306.09989518943     IErMin=13 ErrMin= 5.38D-06
 ErrMax= 5.38D-06  0.00D+00 EMaxC= 1.00D-01 BMatC= 1.42D-07 BMatP= 4.35D-07
 IDIUse=1 WtCom= 1.00D+00 WtEn= 0.00D+00
 Coeff-Com: -0.165D-03 0.273D-03 0.361D-04-0.767D-04 0.297D-02-0.350D-03
 Coeff-Com:  0.130D-02-0.361D-01-0.102D+00-0.256D+00 0.202D+00 0.581D+00
 Coeff-Com:  0.606D+00
 Coeff:     -0.165D-03 0.273D-03 0.361D-04-0.767D-04 0.297D-02-0.350D-03
 Coeff:      0.130D-02-0.361D-01-0.102D+00-0.256D+00 0.202D+00 0.581D+00
 Coeff:      0.606D+00
 Gap=     0.017 Goal=   None    Shift=    0.000
 Gap=     0.233 Goal=   None    Shift=    0.000
 RMSDP=4.46D-06 MaxDP=3.79D-04 DE=-1.80D-07 OVMax= 1.20D-03

 Cycle  14  Pass 1  IDiag  1:
 RMSU=  7.33D-07    CP:  9.54D-01  2.89D+00  6.16D-03  2.00D-01  9.81D-01
                    CP:  1.10D+00  9.04D-01  1.07D+00  1.58D+00  2.69D+00
                    CP:  2.85D+00  1.60D+00  8.78D-01
 E= -1306.09989522999     Delta-E=       -0.000000040557 Rises=F Damp=F
 DIIS: error= 1.15D-06 at cycle  14 NSaved=  14.
 NSaved=14 IEnMin=14 EnMin= -1306.09989522999     IErMin=14 ErrMin= 1.15D-06
 ErrMax= 1.15D-06  0.00D+00 EMaxC= 1.00D-01 BMatC= 9.65D-09 BMatP= 1.42D-07
 IDIUse=1 WtCom= 1.00D+00 WtEn= 0.00D+00
 Coeff-Com: -0.313D-04 0.363D-04 0.447D-05 0.420D-05-0.374D-03 0.774D-03
 Coeff-Com:  0.741D-03 0.150D-03 0.283D-02-0.227D-01-0.638D-01 0.387D-01
 Coeff-Com:  0.231D+00 0.813D+00
 Coeff:     -0.313D-04 0.363D-04 0.447D-05 0.420D-05-0.374D-03 0.774D-03
 Coeff:      0.741D-03 0.150D-03 0.283D-02-0.227D-01-0.638D-01 0.387D-01
 Coeff:      0.231D+00 0.813D+00
 Gap=     0.017 Goal=   None    Shift=    0.000
 Gap=     0.233 Goal=   None    Shift=    0.000
 RMSDP=9.70D-07 MaxDP=8.72D-05 DE=-4.06D-08 OVMax= 2.58D-04

 Cycle  15  Pass 1  IDiag  1:
 RMSU=  3.28D-07    CP:  9.54D-01  2.89D+00  6.16D-03  2.00D-01  9.81D-01
                    CP:  1.10D+00  9.04D-01  1.07D+00  1.59D+00  2.73D+00
                    CP:  2.92D+00  1.65D+00  9.96D-01  1.20D+00
 E= -1306.09989523262     Delta-E=       -0.000000002629 Rises=F Damp=F
 DIIS: error= 6.01D-07 at cycle  15 NSaved=  15.
 NSaved=15 IEnMin=15 EnMin= -1306.09989523262     IErMin=15 ErrMin= 6.01D-07
 ErrMax= 6.01D-07  0.00D+00 EMaxC= 1.00D-01 BMatC= 1.32D-09 BMatP= 9.65D-09
 IDIUse=1 WtCom= 1.00D+00 WtEn= 0.00D+00
 Coeff-Com:  0.119D-04-0.253D-04-0.216D-05 0.106D-04-0.478D-03 0.294D-03
 Coeff-Com:  0.138D-03 0.404D-02 0.131D-01 0.233D-01-0.490D-01-0.524D-01
 Coeff-Com:  0.225D-01 0.307D+00 0.731D+00
 Coeff:      0.119D-04-0.253D-04-0.216D-05 0.106D-04-0.478D-03 0.294D-03
 Coeff:      0.138D-03 0.404D-02 0.131D-01 0.233D-01-0.490D-01-0.524D-01
 Coeff:      0.225D-01 0.307D+00 0.731D+00
 Gap=     0.017 Goal=   None    Shift=    0.000
 Gap=     0.233 Goal=   None    Shift=    0.000
 RMSDP=1.99D-07 MaxDP=1.29D-05 DE=-2.63D-09 OVMax= 4.64D-05

 Cycle  16  Pass 1  IDiag  1:
 RMSU=  1.06D-07    CP:  9.54D-01  2.89D+00  6.16D-03  2.00D-01  9.81D-01
                    CP:  1.10D+00  9.04D-01  1.07D+00  1.59D+00  2.73D+00
                    CP:  2.93D+00  1.67D+00  1.03D+00  1.32D+00  1.19D+00
 E= -1306.09989523288     Delta-E=       -0.000000000257 Rises=F Damp=F
 DIIS: error= 3.34D-07 at cycle  16 NSaved=  16.
 NSaved=16 IEnMin=16 EnMin= -1306.09989523288     IErMin=16 ErrMin= 3.34D-07
 ErrMax= 3.34D-07  0.00D+00 EMaxC= 1.00D-01 BMatC= 4.24D-10 BMatP= 1.32D-09
 IDIUse=1 WtCom= 1.00D+00 WtEn= 0.00D+00
 Coeff-Com:  0.138D-04-0.229D-04-0.234D-05 0.543D-05-0.217D-03-0.143D-04
 Coeff-Com: -0.817D-04 0.244D-02 0.795D-02 0.203D-01-0.216D-01-0.416D-01
 Coeff-Com: -0.289D-01 0.350D-01 0.367D+00 0.660D+00
 Coeff:      0.138D-04-0.229D-04-0.234D-05 0.543D-05-0.217D-03-0.143D-04
 Coeff:     -0.817D-04 0.244D-02 0.795D-02 0.203D-01-0.216D-01-0.416D-01
 Coeff:     -0.289D-01 0.350D-01 0.367D+00 0.660D+00
 Gap=     0.017 Goal=   None    Shift=    0.000
 Gap=     0.233 Goal=   None    Shift=    0.000
 RMSDP=1.20D-07 MaxDP=8.60D-06 DE=-2.57D-10 OVMax= 2.93D-05

 Cycle  17  Pass 1  IDiag  1:
 RMSU=  4.87D-08    CP:  9.54D-01  2.89D+00  6.16D-03  2.00D-01  9.81D-01
                    CP:  1.10D+00  9.04D-01  1.07D+00  1.59D+00  2.73D+00
                    CP:  2.94D+00  1.68D+00  1.05D+00  1.39D+00  1.36D+00
                    CP:  1.04D+00
 E= -1306.09989523296     Delta-E=       -0.000000000078 Rises=F Damp=F
 DIIS: error= 2.23D-07 at cycle  17 NSaved=  17.
 NSaved=17 IEnMin=17 EnMin= -1306.09989523296     IErMin=17 ErrMin= 2.23D-07
 ErrMax= 2.23D-07  0.00D+00 EMaxC= 1.00D-01 BMatC= 1.72D-10 BMatP= 4.24D-10
 IDIUse=1 WtCom= 1.00D+00 WtEn= 0.00D+00
 Coeff-Com:  0.507D-05-0.582D-05-0.715D-06-0.355D-06 0.285D-04-0.136D-03
 Coeff-Com: -0.109D-03 0.145D-03 0.808D-03 0.606D-02 0.717D-03-0.942D-02
 Coeff-Com: -0.247D-01-0.798D-01-0.525D-01 0.456D+00 0.703D+00
 Coeff:      0.507D-05-0.582D-05-0.715D-06-0.355D-06 0.285D-04-0.136D-03
 Coeff:     -0.109D-03 0.145D-03 0.808D-03 0.606D-02 0.717D-03-0.942D-02
 Coeff:     -0.247D-01-0.798D-01-0.525D-01 0.456D+00 0.703D+00
 Gap=     0.017 Goal=   None    Shift=    0.000
 Gap=     0.233 Goal=   None    Shift=    0.000
 RMSDP=7.68D-08 MaxDP=5.36D-06 DE=-7.80D-11 OVMax= 1.89D-05

 Cycle  18  Pass 1  IDiag  1:
 RMSU=  1.78D-08    CP:  9.54D-01  2.89D+00  6.16D-03  2.00D-01  9.81D-01
                    CP:  1.10D+00  9.04D-01  1.08D+00  1.59D+00  2.74D+00
                    CP:  2.94D+00  1.68D+00  1.06D+00  1.44D+00  1.46D+00
                    CP:  1.26D+00  8.44D-01
 E= -1306.09989523300     Delta-E=       -0.000000000041 Rises=F Damp=F
 DIIS: error= 4.48D-08 at cycle  18 NSaved=  18.
 NSaved=18 IEnMin=18 EnMin= -1306.09989523300     IErMin=18 ErrMin= 4.48D-08
 ErrMax= 4.48D-08  0.00D+00 EMaxC= 1.00D-01 BMatC= 7.69D-12 BMatP= 1.72D-10
 IDIUse=1 WtCom= 1.00D+00 WtEn= 0.00D+00
 Coeff-Com:  0.977D-06-0.518D-06 0.653D-09-0.599D-06 0.280D-04-0.366D-04
 Coeff-Com: -0.187D-04-0.203D-03-0.443D-03 0.105D-03 0.215D-02 0.187D-02
 Coeff-Com: -0.251D-02-0.210D-01-0.518D-01 0.696D-01 0.222D+00 0.780D+00
 Coeff:      0.977D-06-0.518D-06 0.653D-09-0.599D-06 0.280D-04-0.366D-04
 Coeff:     -0.187D-04-0.203D-03-0.443D-03 0.105D-03 0.215D-02 0.187D-02
 Coeff:     -0.251D-02-0.210D-01-0.518D-01 0.696D-01 0.222D+00 0.780D+00
 Gap=     0.017 Goal=   None    Shift=    0.000
 Gap=     0.233 Goal=   None    Shift=    0.000
 RMSDP=2.55D-08 MaxDP=1.61D-06 DE=-4.12D-11 OVMax= 6.54D-06

 Cycle  19  Pass 1  IDiag  1:
 RMSU=  5.60D-09    CP:  9.54D-01  2.89D+00  6.16D-03  2.00D-01  9.81D-01
                    CP:  1.10D+00  9.04D-01  1.08D+00  1.59D+00  2.74D+00
                    CP:  2.94D+00  1.68D+00  1.06D+00  1.44D+00  1.48D+00
                    CP:  1.30D+00  9.21D-01  9.53D-01
 E= -1306.09989523300     Delta-E=       -0.000000000002 Rises=F Damp=F
 DIIS: error= 2.52D-08 at cycle  19 NSaved=  19.
 NSaved=19 IEnMin=19 EnMin= -1306.09989523300     IErMin=19 ErrMin= 2.52D-08
 ErrMax= 2.52D-08  0.00D+00 EMaxC= 1.00D-01 BMatC= 2.03D-12 BMatP= 7.69D-12
 IDIUse=1 WtCom= 1.00D+00 WtEn= 0.00D+00
 Coeff-Com:  0.340D-06-0.921D-07 0.252D-07-0.287D-06 0.127D-04-0.890D-05
 Coeff-Com: -0.190D-05-0.126D-03-0.296D-03-0.426D-03 0.967D-03 0.171D-02
 Coeff-Com:  0.642D-03-0.499D-02-0.259D-01-0.244D-02 0.629D-01 0.442D+00
 Coeff-Com:  0.526D+00
 Coeff:      0.340D-06-0.921D-07 0.252D-07-0.287D-06 0.127D-04-0.890D-05
 Coeff:     -0.190D-05-0.126D-03-0.296D-03-0.426D-03 0.967D-03 0.171D-02
 Coeff:      0.642D-03-0.499D-02-0.259D-01-0.244D-02 0.629D-01 0.442D+00
 Coeff:      0.526D+00
 Gap=     0.017 Goal=   None    Shift=    0.000
 Gap=     0.233 Goal=   None    Shift=    0.000
 RMSDP=4.81D-09 MaxDP=3.51D-07 DE=-2.27D-12 OVMax= 1.06D-06

 SCF Done:  E(UPBE-PBE) =  -1306.09989523     A.U. after   19 cycles
            NFock= 19  Conv=0.48D-08     -V/T= 2.0004
 <Sx>= 0.0000 <Sy>= 0.0000 <Sz>= 0.5000 <S**2>= 0.7512 S= 0.5006
 <L.S>=  0.00000000000    
 KE= 1.305580295361D+03 PE=-4.449673580308D+03 EE= 1.136971639955D+03
 Annihilation of the first spin contaminant:
 S**2 before annihilation     0.7512,   after     0.7500
 Leave Link  502 at Thu May 30 09:22:04 2024, MaxMem= 26843545600 cpu:            7868.1 elap:              65.4
 (Enter /gpfs/fs1/soft/improv/software/custom-built/gaussian/g16/l508.exe)
 QCSCF skips out because SCF is already converged.
 Leave Link  508 at Thu May 30 09:22:04 2024, MaxMem= 26843545600 cpu:               0.2 elap:               0.0
 (Enter /gpfs/fs1/soft/improv/software/custom-built/gaussian/g16/l801.exe)
 DoSCS=F DFT=T ScalE2(SS,OS)=  1.000000  1.000000
 Range of M.O.s used for correlation:     1   317
 NBasis=   317 NAE=    40 NBE=    39 NFC=     0 NFV=     0
 NROrb=    317 NOA=    40 NOB=    39 NVA=   277 NVB=   278

 **** Warning!!: The largest alpha MO coefficient is  0.78991211D+02


 **** Warning!!: The smallest alpha delta epsilon is  0.16791466D-01


 **** Warning!!: The largest beta MO coefficient is  0.78986230D+02

 Leave Link  801 at Thu May 30 09:22:04 2024, MaxMem= 26843545600 cpu:               0.4 elap:               0.0
 (Enter /gpfs/fs1/soft/improv/software/custom-built/gaussian/g16/l1101.exe)
 Using compressed storage, NAtomX=    19.
 Will process     20 centers per pass.
 R6Disp: Adding Grimme-D3 dispersion energy 1st derivatives to the gradient.
 Leave Link 1101 at Thu May 30 09:22:04 2024, MaxMem= 26843545600 cpu:              50.8 elap:               0.5
 (Enter /gpfs/fs1/soft/improv/software/custom-built/gaussian/g16/l1102.exe)
 Symmetrizing basis deriv contribution to polar:
 IMax=3 JMax=2 DiffMx= 0.00D+00
 Leave Link 1102 at Thu May 30 09:22:05 2024, MaxMem= 26843545600 cpu:               0.9 elap:               0.0
 (Enter /gpfs/fs1/soft/improv/software/custom-built/gaussian/g16/l1110.exe)
 Forming Gx(P) for the SCF density, NAtomX=    19.
 Integral derivatives from FoFJK, PRISM(SPDF).
 Do as many integral derivatives as possible in FoFJK.
 G2DrvN: MDV=   26843543431.
 G2DrvN: will do    20 centers at a time, making    1 passes.
 Calling FoFCou, ICntrl=  3507 FMM=F I1Cent=   0 AccDes= 0.00D+00.
 FoFJK:  IHMeth= 1 ICntrl=    3507 DoSepK=F KAlg= 0 I1Cent=           0 FoldK=F
 IRaf=         0 NMat=       1 IRICut=       1 DoRegI=T DoRafI=F ISym2E= 0 IDoP0=0 IntGTp=1.
 FoFCou: FMM=F IPFlag=           0 FMFlag=      100000 FMFlg1=           0
         NFxFlg=           0 DoJE=F BraDBF=F KetDBF=F FulRan=T
         wScrn=  0.000000 ICntrl=      3507 IOpCl=  0 I1Cent=           0 NGrid=           0
         NMat0=    1 NMatS0=      1 NMatT0=    0 NMatD0=    1 NMtDS0=    0 NMtDT0=    0
 Symmetry not used in FoFCou.
 End of G2Drv F.D. properties file   721 does not exist.
 End of G2Drv F.D. properties file   722 does not exist.
 End of G2Drv F.D. properties file   788 does not exist.
 Leave Link 1110 at Thu May 30 09:22:19 2024, MaxMem= 26843545600 cpu:            1752.1 elap:              14.0
 (Enter /gpfs/fs1/soft/improv/software/custom-built/gaussian/g16/l1002.exe)
 Minotr:  UHF open shell wavefunction.
          IDoAtm=1111111111111111111
          Direct CPHF calculation.
          Differentiating once with respect to electric field.
                with respect to dipole field.
          Differentiating once with respect to nuclear coordinates.
          Requested convergence is 1.0D-08 RMS, and 1.0D-07 maximum.
          Secondary convergence is 1.0D-12 RMS, and 1.0D-12 maximum.
          NewPWx=T KeepS1=F KeepF1=F KeepIn=T MapXYZ=F SortEE=F KeepMc=T.
         6034 words used for storage of precomputed grid.
 Two-electron integrals replicated using symmetry.
          MDV=   26843545600 using IRadAn=       1.
          Solving linear equations simultaneously, MaxMat=     384.
 FoF2E skips out because all densities are zero.
 CalDSu exits because no D1Ps are significant.
 FoFJK:  IHMeth= 1 ICntrl=     500 DoSepK=F KAlg= 0 I1Cent=           0 FoldK=F
 IRaf= 990000000 NMat=      57 IRICut=       1 DoRegI=T DoRafI=F ISym2E= 2 IDoP0=3 IntGTp=2.
 FoFCou: FMM=F IPFlag=           0 FMFlag=      100000 FMFlg1=           0
         NFxFlg=           0 DoJE=F BraDBF=F KetDBF=F FulRan=T
         wScrn=  0.000000 ICntrl=       500 IOpCl=  0 I1Cent=           0 NGrid=           0
         NMat0=   57 NMatS0=     57 NMatT0=    0 NMatD0=   57 NMtDS0=    0 NMtDT0=    0
 Integrals replicated using symmetry in FoFCou.
          There are    60 degrees of freedom in the 1st order CPHF.  IDoFFX=6 NUNeed=     3.
     57 vectors produced by pass  0 Test12= 3.65D-14 1.67D-09 XBig12= 9.58D+01 2.25D+00.
 AX will form    57 AO Fock derivatives at one time.
     57 vectors produced by pass  1 Test12= 3.65D-14 1.67D-09 XBig12= 1.18D+01 3.76D-01.
     57 vectors produced by pass  2 Test12= 3.65D-14 1.67D-09 XBig12= 7.52D-02 3.44D-02.
     57 vectors produced by pass  3 Test12= 3.65D-14 1.67D-09 XBig12= 2.37D-04 1.35D-03.
     57 vectors produced by pass  4 Test12= 3.65D-14 1.67D-09 XBig12= 6.02D-07 8.67D-05.
     55 vectors produced by pass  5 Test12= 3.65D-14 1.67D-09 XBig12= 1.81D-09 4.64D-06.
     16 vectors produced by pass  6 Test12= 3.65D-14 1.67D-09 XBig12= 2.57D-12 1.26D-07.
      3 vectors produced by pass  7 Test12= 3.65D-14 1.67D-09 XBig12= 5.26D-15 5.69D-09.
 InvSVY:  IOpt=1 It=  1 EMax= 1.60D-14
 Solved reduced A of dimension   359 with    60 vectors.
 FullF1:  Do perturbations      1 to       3.
 Isotropic polarizability for W=    0.000000       53.10 Bohr**3.
 End of Minotr F.D. properties file   721 does not exist.
 End of Minotr F.D. properties file   722 does not exist.
 End of Minotr F.D. properties file   788 does not exist.
 Leave Link 1002 at Thu May 30 09:23:02 2024, MaxMem= 26843545600 cpu:            5178.8 elap:              43.2
 (Enter /gpfs/fs1/soft/improv/software/custom-built/gaussian/g16/l601.exe)
 Copying SCF densities to generalized density rwf, IOpCl= 1 IROHF=0.

 **********************************************************************

            Population analysis using the SCF Density.

 **********************************************************************

 Orbital symmetries:
 Alpha Orbitals:
       Occupied  (A) (A) (A) (A) (A) (A) (A) (A) (A) (A) (A) (A)
                 (A) (A) (A) (A) (A) (A) (A) (A) (A) (A) (A) (A)
                 (A) (A) (A) (A) (A) (A) (A) (A) (A) (A) (A) (A)
                 (A) (A) (A) (A)
       Virtual   (A) (A) (A) (A) (A) (A) (A) (A) (A) (A) (A) (A)
                 (A) (A) (A) (A) (A) (A) (A) (A) (A) (A) (A) (A)
                 (A) (A) (A) (A) (A) (A) (A) (A) (A) (A) (A) (A)
                 (A) (A) (A) (A) (A) (A) (A) (A) (A) (A) (A) (A)
                 (A) (A) (A) (A) (A) (A) (A) (A) (A) (A) (A) (A)
                 (A) (A) (A) (A) (A) (A) (A) (A) (A) (A) (A) (A)
                 (A) (A) (A) (A) (A) (A) (A) (A) (A) (A) (A) (A)
                 (A) (A) (A) (A) (A) (A) (A) (A) (A) (A) (A) (A)
                 (A) (A) (A) (A) (A) (A) (A) (A) (A) (A) (A) (A)
                 (A) (A) (A) (A) (A) (A) (A) (A) (A) (A) (A) (A)
                 (A) (A) (A) (A) (A) (A) (A) (A) (A) (A) (A) (A)
                 (A) (A) (A) (A) (A) (A) (A) (A) (A) (A) (A) (A)
                 (A) (A) (A) (A) (A) (A) (A) (A) (A) (A) (A) (A)
                 (A) (A) (A) (A) (A) (A) (A) (A) (A) (A) (A) (A)
                 (A) (A) (A) (A) (A) (A) (A) (A) (A) (A) (A) (A)
                 (A) (A) (A) (A) (A) (A) (A) (A) (A) (A) (A) (A)
                 (A) (A) (A) (A) (A) (A) (A) (A) (A) (A) (A) (A)
                 (A) (A) (A) (A) (A) (A) (A) (A) (A) (A) (A) (A)
                 (A) (A) (A) (A) (A) (A) (A) (A) (A) (A) (A) (A)
                 (A) (A) (A) (A) (A) (A) (A) (A) (A) (A) (A) (A)
                 (A) (A) (A) (A) (A) (A) (A) (A) (A) (A) (A) (A)
                 (A) (A) (A) (A) (A) (A) (A) (A) (A) (A) (A) (A)
                 (A) (A) (A) (A) (A) (A) (A) (A) (A) (A) (A) (A)
                 (A)
 Beta  Orbitals:
       Occupied  (A) (A) (A) (A) (A) (A) (A) (A) (A) (A) (A) (A)
                 (A) (A) (A) (A) (A) (A) (A) (A) (A) (A) (A) (A)
                 (A) (A) (A) (A) (A) (A) (A) (A) (A) (A) (A) (A)
                 (A) (A) (A)
       Virtual   (A) (A) (A) (A) (A) (A) (A) (A) (A) (A) (A) (A)
                 (A) (A) (A) (A) (A) (A) (A) (A) (A) (A) (A) (A)
                 (A) (A) (A) (A) (A) (A) (A) (A) (A) (A) (A) (A)
                 (A) (A) (A) (A) (A) (A) (A) (A) (A) (A) (A) (A)
                 (A) (A) (A) (A) (A) (A) (A) (A) (A) (A) (A) (A)
                 (A) (A) (A) (A) (A) (A) (A) (A) (A) (A) (A) (A)
                 (A) (A) (A) (A) (A) (A) (A) (A) (A) (A) (A) (A)
                 (A) (A) (A) (A) (A) (A) (A) (A) (A) (A) (A) (A)
                 (A) (A) (A) (A) (A) (A) (A) (A) (A) (A) (A) (A)
                 (A) (A) (A) (A) (A) (A) (A) (A) (A) (A) (A) (A)
                 (A) (A) (A) (A) (A) (A) (A) (A) (A) (A) (A) (A)
                 (A) (A) (A) (A) (A) (A) (A) (A) (A) (A) (A) (A)
                 (A) (A) (A) (A) (A) (A) (A) (A) (A) (A) (A) (A)
                 (A) (A) (A) (A) (A) (A) (A) (A) (A) (A) (A) (A)
                 (A) (A) (A) (A) (A) (A) (A) (A) (A) (A) (A) (A)
                 (A) (A) (A) (A) (A) (A) (A) (A) (A) (A) (A) (A)
                 (A) (A) (A) (A) (A) (A) (A) (A) (A) (A) (A) (A)
                 (A) (A) (A) (A) (A) (A) (A) (A) (A) (A) (A) (A)
                 (A) (A) (A) (A) (A) (A) (A) (A) (A) (A) (A) (A)
                 (A) (A) (A) (A) (A) (A) (A) (A) (A) (A) (A) (A)
                 (A) (A) (A) (A) (A) (A) (A) (A) (A) (A) (A) (A)
                 (A) (A) (A) (A) (A) (A) (A) (A) (A) (A) (A) (A)
                 (A) (A) (A) (A) (A) (A) (A) (A) (A) (A) (A) (A)
                 (A) (A)
 The electronic state is 2-A.
 Alpha  occ. eigenvalues -- -178.17085 -19.98013 -19.39458 -19.39196 -19.38358
 Alpha  occ. eigenvalues --  -19.37868 -19.36055 -19.35639 -16.76924 -16.76480
 Alpha  occ. eigenvalues --  -16.75699  -2.76775  -1.94655  -1.94141  -1.93286
 Alpha  occ. eigenvalues --   -1.57325  -1.55479  -1.55185  -1.53651  -1.52059
 Alpha  occ. eigenvalues --   -1.51712  -1.14021  -1.12539  -1.10621  -1.10089
 Alpha  occ. eigenvalues --   -1.08283  -1.07075  -1.01039  -1.00922  -1.00362
 Alpha  occ. eigenvalues --   -0.97051  -0.96283  -0.93899  -0.92595  -0.90065
 Alpha  occ. eigenvalues --   -0.89762  -0.88053  -0.86277  -0.85178  -0.65121
 Alpha virt. eigenvalues --   -0.63442  -0.61776  -0.57983  -0.52370  -0.50430
 Alpha virt. eigenvalues --   -0.49325  -0.47693  -0.47316  -0.44931  -0.43815
 Alpha virt. eigenvalues --   -0.43076  -0.42675  -0.39942  -0.38490  -0.38154
 Alpha virt. eigenvalues --   -0.36731  -0.34173  -0.33535  -0.32283  -0.30634
 Alpha virt. eigenvalues --   -0.29889  -0.29581  -0.29069  -0.28747  -0.26845
 Alpha virt. eigenvalues --   -0.26617  -0.26175  -0.25449  -0.24222  -0.23392
 Alpha virt. eigenvalues --   -0.23138  -0.21338  -0.21089  -0.20579  -0.19210
 Alpha virt. eigenvalues --   -0.17760  -0.17041  -0.16932  -0.16775  -0.16355
 Alpha virt. eigenvalues --   -0.14498  -0.13980  -0.13631  -0.11656  -0.11179
 Alpha virt. eigenvalues --   -0.09643  -0.09586  -0.08475  -0.06956  -0.05993
 Alpha virt. eigenvalues --   -0.04754  -0.04367  -0.02612  -0.00917   0.00965
 Alpha virt. eigenvalues --    0.03576   0.06031   0.15967   0.17275   0.18136
 Alpha virt. eigenvalues --    0.19597   0.21342   0.22068   0.22520   0.22872
 Alpha virt. eigenvalues --    0.27635   0.28648   0.29590   0.30701   0.31256
 Alpha virt. eigenvalues --    0.33490   0.33637   0.34418   0.34717   0.36083
 Alpha virt. eigenvalues --    0.36578   0.40202   0.41798   0.42882   0.43541
 Alpha virt. eigenvalues --    0.44738   0.46090   0.47219   0.47790   0.48561
 Alpha virt. eigenvalues --    0.50172   0.51570   0.52507   0.53118   0.55367
 Alpha virt. eigenvalues --    0.56425   0.59182   0.59455   0.62465   0.64614
 Alpha virt. eigenvalues --    0.64817   0.67710   0.68948   0.71738   0.72895
 Alpha virt. eigenvalues --    0.73208   0.73721   0.75452   0.77936   0.79039
 Alpha virt. eigenvalues --    0.82346   0.82733   0.87058   0.88211   0.91738
 Alpha virt. eigenvalues --    0.93368   0.97410   1.01392   1.03557   1.06136
 Alpha virt. eigenvalues --    1.08522   1.13365   1.14073   1.19284   1.21121
 Alpha virt. eigenvalues --    1.25039   1.28098   1.28736   1.30717   1.32048
 Alpha virt. eigenvalues --    1.37685   1.41424   1.59843   1.60794   1.63260
 Alpha virt. eigenvalues --    1.63735   1.64687   1.67827   1.68004   1.69346
 Alpha virt. eigenvalues --    1.73506   1.76839   1.79529   1.80823   1.82753
 Alpha virt. eigenvalues --    1.85032   1.88401   1.89998   1.92409   1.96943
 Alpha virt. eigenvalues --    1.99284   2.03864   2.10890   2.12465   2.18644
 Alpha virt. eigenvalues --    2.20535   2.23169   2.24899   2.26856   2.27901
 Alpha virt. eigenvalues --    2.29754   2.31362   2.33038   2.34663   2.36563
 Alpha virt. eigenvalues --    2.37041   2.38856   2.41201   2.41422   2.42916
 Alpha virt. eigenvalues --    2.46302   2.52607   2.54602   2.55955   2.57716
 Alpha virt. eigenvalues --    2.58106   2.59354   2.62042   2.66371   2.68016
 Alpha virt. eigenvalues --    2.69793   2.74453   2.78200   2.81445   2.95411
 Alpha virt. eigenvalues --    2.96662   2.97280   2.99674   3.02692   3.39424
 Alpha virt. eigenvalues --    3.41422   3.44286   3.47201   3.49083   3.50855
 Alpha virt. eigenvalues --    3.53228   3.53922   3.55242   3.56159   3.56963
 Alpha virt. eigenvalues --    3.60204   3.63599   3.65728   3.68126   3.74586
 Alpha virt. eigenvalues --    3.75399   3.77994   3.80630   3.85896   3.86910
 Alpha virt. eigenvalues --    3.89436   3.91816   3.94534   3.96761   4.05140
 Alpha virt. eigenvalues --    4.05352   4.06163   4.09860   4.11883   4.19655
 Alpha virt. eigenvalues --    4.20858   4.23458   4.25434   4.27897   4.28268
 Alpha virt. eigenvalues --    4.30269   4.38037   4.50616   4.55777   4.57794
 Alpha virt. eigenvalues --    4.62277   4.63166   4.64825   4.73344   4.75109
 Alpha virt. eigenvalues --    4.78551   4.78659   4.79127   4.79845   4.85687
 Alpha virt. eigenvalues --    4.86497   4.88072   4.92305   4.93690   4.95665
 Alpha virt. eigenvalues --    4.97220   4.99854   5.04592   5.05584   5.09682
 Alpha virt. eigenvalues --    5.12155   5.12836   5.13963   5.15559   5.16771
 Alpha virt. eigenvalues --    5.18067   5.22837   5.23751   5.24839   5.26365
 Alpha virt. eigenvalues --    5.27351   5.29569   5.31095   5.32718   5.36464
 Alpha virt. eigenvalues --    5.41066   5.68977   5.71030   5.75719   6.78013
 Alpha virt. eigenvalues --    6.80595   6.81562   6.93040   6.98600   7.02718
 Alpha virt. eigenvalues --   12.99433  13.01673  13.02404  13.58710  13.62655
 Alpha virt. eigenvalues --   13.68484  28.26066
  Beta  occ. eigenvalues -- -178.17084 -19.97144 -19.39484 -19.39231 -19.38362
  Beta  occ. eigenvalues --  -19.37849 -19.36078 -19.35660 -16.76611 -16.75865
  Beta  occ. eigenvalues --  -16.74612  -2.73867  -1.93326  -1.91531  -1.88842
  Beta  occ. eigenvalues --   -1.57241  -1.55409  -1.55121  -1.53492  -1.51952
  Beta  occ. eigenvalues --   -1.51602  -1.13763  -1.12415  -1.10484  -1.10006
  Beta  occ. eigenvalues --   -1.08145  -1.06984  -1.00838  -1.00689  -1.00128
  Beta  occ. eigenvalues --   -0.96917  -0.96167  -0.93779  -0.92436  -0.89967
  Beta  occ. eigenvalues --   -0.89637  -0.87924  -0.86182  -0.85155
  Beta virt. eigenvalues --   -0.61820  -0.60297  -0.58669  -0.57748  -0.52231
  Beta virt. eigenvalues --   -0.50157  -0.49170  -0.47062  -0.46784  -0.44170
  Beta virt. eigenvalues --   -0.43239  -0.42836  -0.42423  -0.39703  -0.38363
  Beta virt. eigenvalues --   -0.37987  -0.36411  -0.34088  -0.33405  -0.32109
  Beta virt. eigenvalues --   -0.30475  -0.29749  -0.29473  -0.28886  -0.28581
  Beta virt. eigenvalues --   -0.26710  -0.26486  -0.26054  -0.25166  -0.24001
  Beta virt. eigenvalues --   -0.23187  -0.22996  -0.21230  -0.20813  -0.20253
  Beta virt. eigenvalues --   -0.19026  -0.17576  -0.16880  -0.16796  -0.16614
  Beta virt. eigenvalues --   -0.16180  -0.14216  -0.13795  -0.13438  -0.11519
  Beta virt. eigenvalues --   -0.10729  -0.09439  -0.09379  -0.08169  -0.06741
  Beta virt. eigenvalues --   -0.05823  -0.04567  -0.04046  -0.01922  -0.00504
  Beta virt. eigenvalues --    0.01268   0.03923   0.06390   0.16849   0.17705
  Beta virt. eigenvalues --    0.18768   0.20142   0.21914   0.22798   0.23052
  Beta virt. eigenvalues --    0.23368   0.27820   0.28831   0.29794   0.30940
  Beta virt. eigenvalues --    0.31407   0.33736   0.33888   0.34632   0.34934
  Beta virt. eigenvalues --    0.36326   0.36925   0.40431   0.41961   0.43225
  Beta virt. eigenvalues --    0.43687   0.44906   0.46327   0.47396   0.48036
  Beta virt. eigenvalues --    0.48726   0.50327   0.51759   0.52736   0.53319
  Beta virt. eigenvalues --    0.55604   0.56651   0.59423   0.59611   0.62810
  Beta virt. eigenvalues --    0.64734   0.65181   0.67886   0.69728   0.72110
  Beta virt. eigenvalues --    0.73092   0.73345   0.73961   0.76292   0.78205
  Beta virt. eigenvalues --    0.79180   0.82787   0.83004   0.87738   0.88811
  Beta virt. eigenvalues --    0.92496   0.93779   0.97810   1.04106   1.04648
  Beta virt. eigenvalues --    1.06894   1.10245   1.14814   1.15717   1.19890
  Beta virt. eigenvalues --    1.21581   1.25424   1.28320   1.29572   1.31216
  Beta virt. eigenvalues --    1.33291   1.38274   1.41883   1.60217   1.61135
  Beta virt. eigenvalues --    1.63640   1.64157   1.65111   1.68120   1.68323
  Beta virt. eigenvalues --    1.69611   1.73846   1.77104   1.79836   1.81444
  Beta virt. eigenvalues --    1.83137   1.85619   1.88927   1.90598   1.93026
  Beta virt. eigenvalues --    1.97799   2.00262   2.05336   2.11584   2.12983
  Beta virt. eigenvalues --    2.19099   2.21027   2.23803   2.25683   2.27400
  Beta virt. eigenvalues --    2.28578   2.30327   2.31695   2.33437   2.35559
  Beta virt. eigenvalues --    2.36971   2.38001   2.39315   2.41596   2.41790
  Beta virt. eigenvalues --    2.43586   2.46884   2.52977   2.54891   2.56296
  Beta virt. eigenvalues --    2.58319   2.58784   2.60218   2.63142   2.67241
  Beta virt. eigenvalues --    2.68549   2.71645   2.75376   2.79097   2.82511
  Beta virt. eigenvalues --    2.97180   2.97571   2.98612   3.00987   3.04221
  Beta virt. eigenvalues --    3.39573   3.41620   3.44364   3.47606   3.49286
  Beta virt. eigenvalues --    3.51134   3.53399   3.54256   3.55416   3.56330
  Beta virt. eigenvalues --    3.57026   3.60436   3.63765   3.65840   3.68161
  Beta virt. eigenvalues --    3.74822   3.75603   3.78103   3.80892   3.86706
  Beta virt. eigenvalues --    3.87312   3.90279   3.93994   3.95737   3.97506
  Beta virt. eigenvalues --    4.05767   4.06286   4.07259   4.11035   4.11999
  Beta virt. eigenvalues --    4.20004   4.21333   4.24127   4.26153   4.28249
  Beta virt. eigenvalues --    4.28742   4.30735   4.39587   4.50669   4.56042
  Beta virt. eigenvalues --    4.57993   4.62536   4.63321   4.65092   4.73386
  Beta virt. eigenvalues --    4.75147   4.78655   4.78758   4.79179   4.79980
  Beta virt. eigenvalues --    4.85899   4.86667   4.88326   4.92586   4.94522
  Beta virt. eigenvalues --    4.95929   4.97498   5.00129   5.04798   5.05828
  Beta virt. eigenvalues --    5.09967   5.12319   5.12948   5.14130   5.15797
  Beta virt. eigenvalues --    5.17100   5.18423   5.23107   5.23906   5.25255
  Beta virt. eigenvalues --    5.26745   5.27505   5.29762   5.31568   5.32992
  Beta virt. eigenvalues --    5.36819   5.41558   5.69037   5.71107   5.75868
  Beta virt. eigenvalues --    6.78178   6.80778   6.81771   6.93138   6.98675
  Beta virt. eigenvalues --    7.02824  12.99583  13.01788  13.02498  13.58747
  Beta virt. eigenvalues --   13.62708  13.68517  28.27152
          Condensed to atoms (all electrons):
               1          2          3          4          5          6
     1  Ti  21.080969   0.065472  -0.005987   0.123326  -0.006330   0.059813
     2  O    0.065472   7.827087   0.300691  -0.026341  -0.000542  -0.027281
     3  H   -0.005987   0.300691   0.262817   0.001550  -0.000023  -0.000181
     4  O    0.123326  -0.026341   0.001550   7.914529   0.299338  -0.091373
     5  H   -0.006330  -0.000542  -0.000023   0.299338   0.281287   0.000500
     6  O    0.059813  -0.027281  -0.000181  -0.091373   0.000500   7.953166
     7  H   -0.023198   0.000201   0.000065  -0.004432   0.000103   0.309937
     8  O    0.030276   0.046184  -0.000699  -0.058962   0.000365  -0.116785
     9  H   -0.008587  -0.000951  -0.000023   0.003020  -0.000012  -0.001358
    10  O    0.133046   0.029632   0.007918   0.030039  -0.001086  -0.054709
    11  H   -0.008819   0.002620  -0.000652  -0.001635   0.000006   0.000443
    12  O    0.088841   0.000003  -0.002922   0.035998   0.000668   0.045073
    13  H   -0.014069  -0.005247   0.000206   0.009318   0.000064  -0.000377
    14  H   -0.011113   0.001667  -0.000111  -0.001740   0.000010  -0.000699
    15  H   -0.007757   0.005171  -0.000055   0.295393  -0.020077  -0.004832
    16  H   -0.017568   0.315670  -0.015022  -0.006613   0.000042   0.002283
    17  H   -0.011780  -0.000373   0.000276  -0.001550  -0.000004   0.002929
    18  H   -0.015438   0.000967  -0.000035   0.018147  -0.001531   0.297916
    19  H   -0.016238  -0.002403   0.000014  -0.008106   0.000786   0.015053
               7          8          9         10         11         12
     1  Ti  -0.023198   0.030276  -0.008587   0.133046  -0.008819   0.088841
     2  O    0.000201   0.046184  -0.000951   0.029632   0.002620   0.000003
     3  H    0.000065  -0.000699  -0.000023   0.007918  -0.000652  -0.002922
     4  O   -0.004432  -0.058962   0.003020   0.030039  -0.001635   0.035998
     5  H    0.000103   0.000365  -0.000012  -0.001086   0.000006   0.000668
     6  O    0.309937  -0.116785  -0.001358  -0.054709   0.000443   0.045073
     7  H    0.311158   0.008564  -0.000914  -0.003494  -0.000143  -0.002205
     8  O    0.008564   7.971022   0.300092  -0.056486  -0.004531  -0.034738
     9  H   -0.000914   0.300092   0.277979   0.007751   0.001152  -0.002394
    10  O   -0.003494  -0.056486   0.007751   7.891553   0.290035  -0.050747
    11  H   -0.000143  -0.004531   0.001152   0.290035   0.285537   0.006437
    12  O   -0.002205  -0.034738  -0.002394  -0.050747   0.006437   7.812374
    13  H    0.000018  -0.002646  -0.000019   0.003408  -0.000236   0.306825
    14  H   -0.000054   0.002394   0.001063  -0.009441   0.003705   0.305165
    15  H    0.000078   0.001563  -0.000030  -0.001732   0.000001   0.001487
    16  H   -0.000238  -0.000247   0.000010  -0.001833   0.000043   0.000302
    17  H    0.001997   0.000381  -0.001615   0.299775  -0.021697   0.000407
    18  H   -0.021557  -0.003509   0.000144   0.001644  -0.000009  -0.001066
    19  H    0.007299   0.300492  -0.018815  -0.003379   0.000010   0.002114
              13         14         15         16         17         18
     1  Ti  -0.014069  -0.011113  -0.007757  -0.017568  -0.011780  -0.015438
     2  O   -0.005247   0.001667   0.005171   0.315670  -0.000373   0.000967
     3  H    0.000206  -0.000111  -0.000055  -0.015022   0.000276  -0.000035
     4  O    0.009318  -0.001740   0.295393  -0.006613  -0.001550   0.018147
     5  H    0.000064   0.000010  -0.020077   0.000042  -0.000004  -0.001531
     6  O   -0.000377  -0.000699  -0.004832   0.002283   0.002929   0.297916
     7  H    0.000018  -0.000054   0.000078  -0.000238   0.001997  -0.021557
     8  O   -0.002646   0.002394   0.001563  -0.000247   0.000381  -0.003509
     9  H   -0.000019   0.001063  -0.000030   0.000010  -0.001615   0.000144
    10  O    0.003408  -0.009441  -0.001732  -0.001833   0.299775   0.001644
    11  H   -0.000236   0.003705   0.000001   0.000043  -0.021697  -0.000009
    12  O    0.306825   0.305165   0.001487   0.000302   0.000407  -0.001066
    13  H    0.262944  -0.017152  -0.000386  -0.000048  -0.000023  -0.000035
    14  H   -0.017152   0.301745   0.000017  -0.000018  -0.000109   0.000017
    15  H   -0.000386   0.000017   0.271937   0.001087   0.000006   0.000686
    16  H   -0.000048  -0.000018   0.001087   0.283308  -0.000032   0.000413
    17  H   -0.000023  -0.000109   0.000006  -0.000032   0.283947  -0.000159
    18  H   -0.000035   0.000017   0.000686   0.000413  -0.000159   0.284264
    19  H    0.000075  -0.000260  -0.000029  -0.000040   0.000386  -0.001479
              19
     1  Ti  -0.016238
     2  O   -0.002403
     3  H    0.000014
     4  O   -0.008106
     5  H    0.000786
     6  O    0.015053
     7  H    0.007299
     8  O    0.300492
     9  H   -0.018815
    10  O   -0.003379
    11  H    0.000010
    12  O    0.002114
    13  H    0.000075
    14  H   -0.000260
    15  H   -0.000029
    16  H   -0.000040
    17  H    0.000386
    18  H   -0.001479
    19  H    0.304552
          Atomic-Atomic Spin Densities.
               1          2          3          4          5          6
     1  Ti   1.235852  -0.021275  -0.001625  -0.034769  -0.001519  -0.022856
     2  O   -0.021275  -0.002083  -0.002107   0.004169  -0.000439   0.001581
     3  H   -0.001625  -0.002107   0.006838  -0.000199   0.000005  -0.000048
     4  O   -0.034769   0.004169  -0.000199   0.023999   0.001672   0.002372
     5  H   -0.001519  -0.000439   0.000005   0.001672  -0.000181   0.000228
     6  O   -0.022856   0.001581  -0.000048   0.002372   0.000228  -0.016765
     7  H   -0.020695  -0.002476   0.000066  -0.002561   0.000179   0.010787
     8  O   -0.018338  -0.001004   0.000000  -0.001640   0.000078   0.001510
     9  H   -0.007347   0.000300  -0.000014  -0.000385  -0.000046  -0.002098
    10  O   -0.020919  -0.007022   0.003997  -0.000689  -0.000012   0.004564
    11  H   -0.011156   0.000629  -0.000421  -0.000155  -0.000004  -0.001440
    12  O   -0.019667   0.004532  -0.000050   0.000552  -0.000147  -0.001480
    13  H   -0.006544  -0.000728   0.000153   0.005121   0.000087   0.000130
    14  H   -0.020652   0.000185  -0.000121  -0.002276  -0.000034  -0.000543
    15  H   -0.007319   0.002909  -0.000078   0.001870  -0.000688   0.000751
    16  H   -0.014409   0.010966  -0.002232   0.001631  -0.000034   0.001378
    17  H   -0.008353  -0.001072   0.000194  -0.000193   0.000006   0.002309
    18  H   -0.011120   0.004136  -0.000085   0.006288  -0.000473   0.002927
    19  H   -0.013624  -0.000802   0.000010  -0.000659   0.000445   0.005506
               7          8          9         10         11         12
     1  Ti  -0.020695  -0.018338  -0.007347  -0.020919  -0.011156  -0.019667
     2  O   -0.002476  -0.001004   0.000300  -0.007022   0.000629   0.004532
     3  H    0.000066   0.000000  -0.000014   0.003997  -0.000421  -0.000050
     4  O   -0.002561  -0.001640  -0.000385  -0.000689  -0.000155   0.000552
     5  H    0.000179   0.000078  -0.000046  -0.000012  -0.000004  -0.000147
     6  O    0.010787   0.001510  -0.002098   0.004564  -0.001440  -0.001480
     7  H    0.023891   0.004118  -0.000729   0.002143  -0.000208  -0.000594
     8  O    0.004118  -0.011138   0.004623   0.002395   0.001376   0.005465
     9  H   -0.000729   0.004623   0.007253   0.001223   0.001147   0.002421
    10  O    0.002143   0.002395   0.001223   0.002341  -0.000066   0.001690
    11  H   -0.000208   0.001376   0.001147  -0.000066   0.015155   0.004245
    12  O   -0.000594   0.005465   0.002421   0.001690   0.004245  -0.018714
    13  H    0.000014  -0.000926  -0.000117   0.000029  -0.000204   0.002939
    14  H   -0.000039   0.003195   0.001074   0.001024   0.001990   0.011012
    15  H   -0.000134  -0.000543   0.000013  -0.000233   0.000006  -0.000338
    16  H   -0.000231  -0.000224   0.000007  -0.002171   0.000059  -0.000299
    17  H    0.001305   0.000176  -0.000736   0.006144  -0.002835  -0.001014
    18  H   -0.005897  -0.002505   0.000095  -0.001116   0.000028   0.000096
    19  H    0.004345   0.003694  -0.003648  -0.000153  -0.000206  -0.001365
              13         14         15         16         17         18
     1  Ti  -0.006544  -0.020652  -0.007319  -0.014409  -0.008353  -0.011120
     2  O   -0.000728   0.000185   0.002909   0.010966  -0.001072   0.004136
     3  H    0.000153  -0.000121  -0.000078  -0.002232   0.000194  -0.000085
     4  O    0.005121  -0.002276   0.001870   0.001631  -0.000193   0.006288
     5  H    0.000087  -0.000034  -0.000688  -0.000034   0.000006  -0.000473
     6  O    0.000130  -0.000543   0.000751   0.001378   0.002309   0.002927
     7  H    0.000014  -0.000039  -0.000134  -0.000231   0.001305  -0.005897
     8  O   -0.000926   0.003195  -0.000543  -0.000224   0.000176  -0.002505
     9  H   -0.000117   0.001074   0.000013   0.000007  -0.000736   0.000095
    10  O    0.000029   0.001024  -0.000233  -0.002171   0.006144  -0.001116
    11  H   -0.000204   0.001990   0.000006   0.000059  -0.002835   0.000028
    12  O    0.002939   0.011012  -0.000338  -0.000299  -0.001014   0.000096
    13  H    0.010793  -0.004019  -0.000238  -0.000066   0.000019  -0.000024
    14  H   -0.004019   0.016766   0.000038   0.000024  -0.000170   0.000016
    15  H   -0.000238   0.000038   0.006465   0.000560  -0.000006   0.001104
    16  H   -0.000066   0.000024   0.000560   0.008177  -0.000076   0.000776
    17  H    0.000019  -0.000170  -0.000006  -0.000076   0.004231  -0.000141
    18  H   -0.000024   0.000016   0.001104   0.000776  -0.000141   0.016323
    19  H    0.000076  -0.000261  -0.000104  -0.000023   0.000410  -0.001169
              19
     1  Ti  -0.013624
     2  O   -0.000802
     3  H    0.000010
     4  O   -0.000659
     5  H    0.000445
     6  O    0.005506
     7  H    0.004345
     8  O    0.003694
     9  H   -0.003648
    10  O   -0.000153
    11  H   -0.000206
    12  O   -0.001365
    13  H    0.000076
    14  H   -0.000261
    15  H   -0.000104
    16  H   -0.000023
    17  H    0.000410
    18  H   -0.001169
    19  H    0.019058
 Mulliken charges and spin densities:
               1          2
     1  Ti   0.565139   0.973665
     2  O   -0.532226  -0.009600
     3  H    0.452174   0.004282
     4  O   -0.529905   0.004149
     5  H    0.446436  -0.000878
     6  O   -0.389519  -0.011188
     7  H    0.416814   0.013284
     8  O   -0.382727  -0.009688
     9  H    0.443507   0.003037
    10  O   -0.511893  -0.006831
    11  H    0.447731   0.007940
    12  O   -0.511623  -0.010716
    13  H    0.457379   0.006495
    14  H    0.424913   0.007209
    15  H    0.457471   0.004033
    16  H    0.438501   0.003816
    17  H    0.447241   0.000199
    18  H    0.440619   0.009260
    19  H    0.419968   0.011530
 Sum of Mulliken charges =   3.00000   1.00000
 Mulliken charges and spin densities with hydrogens summed into heavy atoms:
               1          2
     1  Ti   0.565139   0.973665
     2  O    0.358449  -0.001501
     4  O    0.374002   0.007304
     6  O    0.467914   0.011356
     8  O    0.480748   0.004880
    10  O    0.383079   0.001308
    12  O    0.370669   0.002988
 APT charges:
               1
     1  Ti   2.238855
     2  O   -0.633043
     3  H    0.396301
     4  O   -0.606745
     5  H    0.359000
     6  O   -0.499886
     7  H    0.296868
     8  O   -0.553802
     9  H    0.359251
    10  O   -0.593629
    11  H    0.351218
    12  O   -0.587019
    13  H    0.393910
    14  H    0.349327
    15  H    0.363448
    16  H    0.368379
    17  H    0.357499
    18  H    0.331849
    19  H    0.308218
 Sum of APT charges =   3.00000
 APT charges with hydrogens summed into heavy atoms:
               1
     1  Ti   2.238855
     2  O    0.131637
     4  O    0.115703
     6  O    0.128832
     8  O    0.113668
    10  O    0.115087
    12  O    0.156219
 Electronic spatial extent (au):  <R**2>=            839.8952
 Charge=              3.0000 electrons
 Dipole moment (field-independent basis, Debye):
    X=              2.1595    Y=              3.5255    Z=             -0.9784  Tot=              4.2486
 Quadrupole moment (field-independent basis, Debye-Ang):
   XX=            -12.6766   YY=            -15.9917   ZZ=            -26.6719
   XY=             -4.1561   XZ=             -1.3486   YZ=             -0.8008
 Traceless Quadrupole moment (field-independent basis, Debye-Ang):
   XX=              5.7702   YY=              2.4551   ZZ=             -8.2252
   XY=             -4.1561   XZ=             -1.3486   YZ=             -0.8008
 Octapole moment (field-independent basis, Debye-Ang**2):
  XXX=             17.6979  YYY=             16.7411  ZZZ=              4.7877  XYY=              3.8187
  XXY=              8.7273  XXZ=              3.2817  XZZ=             -8.0414  YZZ=             -3.2928
  YYZ=            -14.3628  XYZ=             -3.0246
 Hexadecapole moment (field-independent basis, Debye-Ang**3):
 XXXX=           -172.2504 YYYY=           -177.9128 ZZZZ=           -216.1556 XXXY=            -21.3940
 XXXZ=              2.8959 YYYX=             -9.7184 YYYZ=             11.4258 ZZZX=            -15.9344
 ZZZY=            -14.7264 XXYY=            -49.0704 XXZZ=            -55.1784 YYZZ=            -52.1871
 XXYZ=             -0.2350 YYXZ=              3.6575 ZZXY=              1.7723
 N-N= 7.010217497598D+02 E-N=-4.449673580138D+03  KE= 1.305580295361D+03
  Exact polarizability:      55.162      -0.104      54.094      -1.447      -0.187      50.055
 Approx polarizability:      87.833       0.118      86.681      -3.539      -0.105      78.538
                          Isotropic Fermi Contact Couplings
        Atom                 a.u.       MegaHertz       Gauss      10(-4) cm-1
     1  Ti(47)            -0.04072      10.27790       3.66741       3.42834
     2  O(17)             -0.01172       7.10382       2.53482       2.36958
     3  H(1)               0.00268      11.98625       4.27699       3.99818
     4  O(17)              0.00295      -1.78983      -0.63866      -0.59702
     5  H(1)              -0.00022      -0.99936      -0.35660      -0.33335
     6  O(17)             -0.01758      10.65976       3.80367       3.55571
     7  H(1)               0.00789      35.27304      12.58630      11.76582
     8  O(17)             -0.00993       6.01676       2.14693       2.00697
     9  H(1)               0.00213       9.50985       3.39335       3.17214
    10  O(17)             -0.00408       2.47059       0.88157       0.82410
    11  H(1)               0.00574      25.67643       9.16199       8.56474
    12  O(17)             -0.01489       9.02362       3.21985       3.00996
    13  H(1)               0.00441      19.70765       7.03218       6.57377
    14  H(1)               0.00553      24.70827       8.81652       8.24179
    15  H(1)               0.00327      14.59979       5.20957       4.86997
    16  H(1)               0.00319      14.24343       5.08241       4.75110
    17  H(1)               0.00060       2.68860       0.95936       0.89682
    18  H(1)               0.00544      24.32187       8.67865       8.11290
    19  H(1)               0.00628      28.07101      10.01644       9.36348
 --------------------------------------------------------
       Center         ----  Spin Dipole Couplings  ----
                      3XX-RR        3YY-RR        3ZZ-RR
 --------------------------------------------------------
     1   Atom        0.200018      0.097592     -0.297610
     2   Atom        0.007935      0.000923     -0.008858
     3   Atom       -0.003243      0.004342     -0.001099
     4   Atom       -0.019203     -0.040148      0.059351
     5   Atom        0.009865     -0.009580     -0.000285
     6   Atom        0.006452     -0.005810     -0.000642
     7   Atom        0.001643     -0.001879      0.000235
     8   Atom       -0.004033      0.015813     -0.011780
     9   Atom       -0.010574      0.020490     -0.009916
    10   Atom       -0.014662     -0.016233      0.030895
    11   Atom        0.014838     -0.007707     -0.007131
    12   Atom       -0.012540      0.016338     -0.003798
    13   Atom       -0.004164     -0.007718      0.011882
    14   Atom        0.005626     -0.010015      0.004388
    15   Atom        0.003897      0.003002     -0.006899
    16   Atom       -0.009864      0.011149     -0.001285
    17   Atom       -0.005204      0.000398      0.004806
    18   Atom        0.016246     -0.010513     -0.005733
    19   Atom       -0.003301      0.011031     -0.007729
 --------------------------------------------------------
                        XY            XZ            YZ
 --------------------------------------------------------
     1   Atom       -0.650421     -0.486753      0.003068
     2   Atom        0.013133     -0.008317      0.013863
     3   Atom        0.009104      0.007047      0.009276
     4   Atom       -0.008552     -0.011709      0.008093
     5   Atom        0.002346      0.011856      0.000511
     6   Atom        0.000025     -0.018823     -0.007862
     7   Atom        0.010009     -0.010578     -0.009121
     8   Atom        0.002375      0.000273      0.012640
     9   Atom       -0.002071     -0.000768      0.006016
    10   Atom       -0.012960     -0.000905      0.009610
    11   Atom       -0.010905      0.009003     -0.004367
    12   Atom       -0.004580     -0.019409     -0.013867
    13   Atom        0.004048     -0.009401     -0.008468
    14   Atom       -0.004624     -0.017311      0.003311
    15   Atom       -0.014273      0.008710     -0.007483
    16   Atom       -0.002646     -0.001427      0.015863
    17   Atom       -0.005814      0.009000     -0.012150
    18   Atom        0.002413     -0.011795     -0.001125
[...]
    16  H    0.000004   0.000001  -0.000050   0.289654   0.000004  -0.000029
    17  H    0.000004  -0.000022  -0.000000   0.000004   0.289742  -0.000006
    18  H   -0.000000   0.000000  -0.000022  -0.000029  -0.000006   0.285198
    19  H   -0.000006   0.000004   0.000001  -0.000000  -0.000029   0.000015
              19
     1  Ti  -0.004377
     2  O   -0.000349
     3  H    0.000000
     4  O    0.001259
     5  H    0.000014
     6  O    0.000636
     7  H   -0.000022
     8  O    0.288803
     9  H   -0.013686
    10  O    0.001199
    11  H    0.000004
    12  O    0.000595
    13  H   -0.000006
    14  H    0.000004
    15  H    0.000001
    16  H   -0.000000
    17  H   -0.000029
    18  H    0.000015
    19  H    0.285081
          Atomic-Atomic Spin Densities.
               1          2          3          4          5          6
     1  Ti   1.104442  -0.002618  -0.002017  -0.002670  -0.002017  -0.002611
     2  O   -0.002618  -0.017155   0.001250   0.000908  -0.000139   0.000919
     3  H   -0.002017   0.001250   0.002827  -0.000196   0.000002  -0.000140
     4  O   -0.002670   0.000908  -0.000196  -0.017109   0.001255   0.000441
     5  H   -0.002017  -0.000139   0.000002   0.001255   0.002815   0.000107
     6  O   -0.002611   0.000919  -0.000140   0.000441   0.000107  -0.017192
     7  H   -0.002630  -0.000012  -0.000005  -0.000038  -0.000003   0.002194
     8  O   -0.002626  -0.000207  -0.000014   0.000439   0.000367   0.000439
     9  H   -0.002632  -0.000015  -0.000000   0.000040  -0.000017  -0.000038
    10  O   -0.002566   0.000433   0.000106  -0.000205  -0.000014   0.000926
    11  H   -0.002020   0.000366   0.000047  -0.000014   0.000000  -0.000198
    12  O   -0.002625   0.000440   0.000366   0.000920  -0.000197  -0.000204
    13  H   -0.002637   0.000041  -0.000017   0.000396  -0.000026  -0.000015
    14  H   -0.002007   0.000106   0.000048  -0.000139   0.000002  -0.000014
    15  H   -0.002642   0.000398  -0.000026   0.002196  -0.000845   0.000040
    16  H   -0.002643   0.002200  -0.000846  -0.000012  -0.000005   0.000399
    17  H   -0.002644  -0.000038  -0.000003  -0.000015  -0.000000  -0.000010
    18  H   -0.002014  -0.000196   0.000002   0.000369   0.000047   0.001246
    19  H   -0.002013  -0.000014   0.000000   0.000109   0.000048   0.000363
               7          8          9         10         11         12
     1  Ti  -0.002630  -0.002626  -0.002632  -0.002566  -0.002020  -0.002625
     2  O   -0.000012  -0.000207  -0.000015   0.000433   0.000366   0.000440
     3  H   -0.000005  -0.000014  -0.000000   0.000106   0.000047   0.000366
     4  O   -0.000038   0.000439   0.000040  -0.000205  -0.000014   0.000920
     5  H   -0.000003   0.000367  -0.000017  -0.000014   0.000000  -0.000197
     6  O    0.002194   0.000439  -0.000038   0.000926  -0.000198  -0.000204
     7  H    0.002687   0.000040   0.000002   0.000394  -0.000026  -0.000015
     8  O    0.000040  -0.017130   0.002193   0.000925  -0.000140   0.000916
     9  H    0.000002   0.002193   0.002687  -0.000008  -0.000005   0.000394
    10  O    0.000394   0.000925  -0.000008  -0.017285   0.001252   0.000437
    11  H   -0.000026  -0.000140  -0.000005   0.001252   0.002841   0.000106
    12  O   -0.000015   0.000916   0.000394   0.000437   0.000106  -0.017156
    13  H    0.000000  -0.000010   0.000039  -0.000037  -0.000003   0.002198
    14  H   -0.000000  -0.000196  -0.000026   0.000364   0.000048   0.001241
    15  H    0.000002  -0.000038   0.000002  -0.000015  -0.000000  -0.000009
    16  H    0.000040  -0.000015   0.000000   0.000039  -0.000017  -0.000037
    17  H    0.000040   0.000400   0.000040   0.002202  -0.000849   0.000041
    18  H   -0.000843   0.000107  -0.000003  -0.000139   0.000002  -0.000014
    19  H   -0.000017   0.001251  -0.000844  -0.000197   0.000002  -0.000139
              13         14         15         16         17         18
     1  Ti  -0.002637  -0.002007  -0.002642  -0.002643  -0.002644  -0.002014
     2  O    0.000041   0.000106   0.000398   0.002200  -0.000038  -0.000196
     3  H   -0.000017   0.000048  -0.000026  -0.000846  -0.000003   0.000002
     4  O    0.000396  -0.000139   0.002196  -0.000012  -0.000015   0.000369
     5  H   -0.000026   0.000002  -0.000845  -0.000005  -0.000000   0.000047
     6  O   -0.000015  -0.000014   0.000040   0.000399  -0.000010   0.001246
     7  H    0.000000  -0.000000   0.000002   0.000040   0.000040  -0.000843
     8  O   -0.000010  -0.000196  -0.000038  -0.000015   0.000400   0.000107
     9  H    0.000039  -0.000026   0.000002   0.000000   0.000040  -0.000003
    10  O   -0.000037   0.000364  -0.000015   0.000039   0.002202  -0.000139
    11  H   -0.000003   0.000048  -0.000000  -0.000017  -0.000849   0.000002
    12  O    0.002198   0.001241  -0.000009  -0.000037   0.000041  -0.000014
    13  H    0.002688  -0.000844   0.000040   0.000002   0.000002  -0.000000
    14  H   -0.000844   0.002821  -0.000005  -0.000003  -0.000017   0.000000
    15  H    0.000040  -0.000005   0.002704   0.000040   0.000000  -0.000017
    16  H    0.000002  -0.000003   0.000040   0.002700   0.000002  -0.000026
    17  H    0.000002  -0.000017   0.000000   0.000002   0.002708  -0.000005
    18  H   -0.000000   0.000000  -0.000017  -0.000026  -0.000005   0.002822
    19  H   -0.000005   0.000002  -0.000003  -0.000000  -0.000026   0.000047
              19
     1  Ti  -0.002013
     2  O   -0.000014
     3  H    0.000000
     4  O    0.000109
     5  H    0.000048
     6  O    0.000363
     7  H   -0.000017
     8  O    0.001251
     9  H   -0.000844
    10  O   -0.000197
    11  H    0.000002
    12  O   -0.000139
    13  H   -0.000005
    14  H    0.000002
    15  H   -0.000003
    16  H   -0.000000
    17  H   -0.000026
    18  H    0.000047
    19  H    0.002817
 Mulliken charges and spin densities:
               1          2
     1  Ti   1.463185   1.060813
     2  O   -0.618654  -0.013332
     3  H    0.440776   0.001386
     4  O   -0.619228  -0.013324
     5  H    0.440789   0.001382
     6  O   -0.618937  -0.013348
     7  H    0.434442   0.001810
     8  O   -0.619530  -0.013300
     9  H    0.434448   0.001811
    10  O   -0.618849  -0.013388
    11  H    0.440847   0.001395
    12  O   -0.619231  -0.013337
    13  H    0.434415   0.001813
    14  H    0.440774   0.001382
    15  H    0.434438   0.001822
    16  H    0.434442   0.001818
    17  H    0.434308   0.001829
    18  H    0.440706   0.001387
    19  H    0.440861   0.001382
 Sum of Mulliken charges =   3.00000   1.00000
 Mulliken charges and spin densities with hydrogens summed into heavy atoms:
               1          2
     1  Ti   1.463185   1.060813
     2  O    0.256563  -0.010128
     4  O    0.255998  -0.010119
     6  O    0.256211  -0.010151
     8  O    0.255779  -0.010108
    10  O    0.256306  -0.010164
    12  O    0.255958  -0.010142
 Electronic spatial extent (au):  <R**2>=           1098.9105
 Charge=              3.0000 electrons
 Dipole moment (field-independent basis, Debye):
    X=              0.0019    Y=              0.0020    Z=             -0.0012  Tot=              0.0029
 Quadrupole moment (field-independent basis, Debye-Ang):
   XX=             -7.5559   YY=             -7.5817   ZZ=             -5.3856
   XY=              0.0006   XZ=             -0.0057   YZ=             -0.0044
 Traceless Quadrupole moment (field-independent basis, Debye-Ang):
   XX=             -0.7148   YY=             -0.7406   ZZ=              1.4554
   XY=              0.0006   XZ=             -0.0057   YZ=             -0.0044
 Octapole moment (field-independent basis, Debye-Ang**2):
  XXX=              0.0410  YYY=              0.1320  ZZZ=              0.0336  XYY=              0.0187
  XXY=             -0.0510  XXZ=              0.0261  XZZ=             -0.0429  YZZ=             -0.0488
  YYZ=             -0.0402  XYZ=             -0.0020
 Hexadecapole moment (field-independent basis, Debye-Ang**3):
 XXXX=           -166.6339 YYYY=           -166.5942 ZZZZ=           -144.1135 XXXY=             -0.0244
 XXXZ=             64.0233 YYYX=              0.3238 YYYZ=             13.0921 ZZZX=              0.0714
 ZZZY=              0.1273 XXYY=            -55.3031 XXZZ=            -30.5407 YYZZ=            -30.7252
 XXYZ=            -13.2393 YYXZ=            -64.0998 ZZXY=             -0.2552
 N-N= 6.101429313497D+02 E-N=-4.268504213292D+03  KE= 1.302119459292D+03
                          Isotropic Fermi Contact Couplings
        Atom                 a.u.       MegaHertz       Gauss      10(-4) cm-1
     1  Ti(47)            -0.03648       9.20827       3.28574       3.07155
     2  O(17)             -0.01263       7.65925       2.73301       2.55485
     3  H(1)               0.00114       5.11135       1.82386       1.70496
     4  O(17)             -0.01263       7.65330       2.73089       2.55287
     5  H(1)               0.00114       5.09603       1.81839       1.69985
     6  O(17)             -0.01264       7.66151       2.73382       2.55561
     7  H(1)               0.00130       5.82342       2.07794       1.94248
     8  O(17)             -0.01262       7.64959       2.72956       2.55163
     9  H(1)               0.00130       5.82565       2.07874       1.94323
    10  O(17)             -0.01267       7.67780       2.73963       2.56104
    11  H(1)               0.00115       5.13402       1.83195       1.71253
    12  O(17)             -0.01263       7.65734       2.73233       2.55421
    13  H(1)               0.00130       5.82863       2.07980       1.94422
    14  H(1)               0.00114       5.09906       1.81947       1.70086
    15  H(1)               0.00131       5.85882       2.09057       1.95429
    16  H(1)               0.00131       5.84383       2.08522       1.94929
    17  H(1)               0.00132       5.88132       2.09860       1.96180
    18  H(1)               0.00114       5.10701       1.82231       1.70352
    19  H(1)               0.00114       5.09626       1.81847       1.69993
 --------------------------------------------------------
       Center         ----  Spin Dipole Couplings  ----
                      3XX-RR        3YY-RR        3ZZ-RR
 --------------------------------------------------------
     1   Atom       -0.549622     -0.552381      1.102003
     2   Atom       -0.009675      0.002507      0.007168
     3   Atom       -0.002460      0.000100      0.002361
     4   Atom        0.010124     -0.017210      0.007086
     5   Atom        0.003750     -0.006121      0.002371
     6   Atom       -0.011068      0.003897      0.007171
     7   Atom        0.002285      0.002456     -0.004742
     8   Atom       -0.009656      0.002497      0.007159
     9   Atom       -0.004688      0.009395     -0.004707
    10   Atom        0.010111     -0.017330      0.007219
    11   Atom        0.003794     -0.006122      0.002327
    12   Atom       -0.011058      0.003902      0.007156
    13   Atom        0.002319      0.002420     -0.004739
    14   Atom       -0.004803      0.002513      0.002289
    15   Atom        0.009450     -0.004745     -0.004705
    16   Atom       -0.004684      0.009390     -0.004705
    17   Atom        0.009485     -0.004751     -0.004734
    18   Atom       -0.004811      0.002528      0.002283
    19   Atom       -0.002455      0.000102      0.002353
 --------------------------------------------------------
                        XY            XZ            YZ
 --------------------------------------------------------
     1   Atom       -0.001219     -0.001146     -0.002933
     2   Atom       -0.012247      0.004676      0.002073
     3   Atom       -0.004962     -0.006368      0.008310
     4   Atom        0.000913     -0.000584     -0.005115
     5   Atom        0.001356      0.010381      0.001344
     6   Atom        0.011494     -0.004069      0.002905
     7   Atom        0.008182     -0.004225     -0.004378
     8   Atom       -0.012230      0.004682      0.002069
     9   Atom       -0.004142     -0.001688      0.005904
    10   Atom        0.000682     -0.000407     -0.004992
    11   Atom        0.001310      0.010361      0.001296
    12   Atom        0.011496     -0.004063      0.002967
    13   Atom        0.008181     -0.004241     -0.004375
    14   Atom        0.003634     -0.004037     -0.009645
    15   Atom       -0.004038      0.005955     -0.001490
    16   Atom       -0.004146     -0.001691      0.005904
    17   Atom       -0.004052      0.005931     -0.001481
    18   Atom        0.003629     -0.004026     -0.009649
    19   Atom       -0.004962     -0.006361      0.008304
 --------------------------------------------------------


 ---------------------------------------------------------------------------------
              Anisotropic Spin Dipole Couplings in Principal Axis System
 ---------------------------------------------------------------------------------

       Atom             a.u.   MegaHertz   Gauss  10(-4) cm-1        Axes

              Baa    -0.5528    16.655     5.943     5.556  0.3540  0.9352  0.0019
     1 Ti(47) Bbb    -0.5492    16.544     5.903     5.519  0.9352 -0.3540  0.0000
              Bcc     1.1020   -33.200   -11.847   -11.074 -0.0007 -0.0018  1.0000
 
              Baa    -0.0183     1.322     0.472     0.441  0.8362  0.5124 -0.1955
     2 O(17)  Bbb     0.0080    -0.576    -0.205    -0.192 -0.0016  0.3588  0.9334
              Bcc     0.0103    -0.746    -0.266    -0.249 -0.5484  0.7802 -0.3009
 
              Baa    -0.0073    -3.921    -1.399    -1.308  0.3849 -0.5612  0.7328
     3 H(1)   Bbb    -0.0063    -3.363    -1.200    -1.122  0.8072  0.5897  0.0276
              Bcc     0.0137     7.284     2.599     2.430 -0.4476  0.5808  0.6799
 
              Baa    -0.0183     1.322     0.472     0.441 -0.0274  0.9800  0.1971
     4 O(17)  Bbb     0.0079    -0.569    -0.203    -0.190  0.3141 -0.1788  0.9324
              Bcc     0.0104    -0.752    -0.268    -0.251  0.9490  0.0875 -0.3029
 
              Baa    -0.0073    -3.920    -1.399    -1.307 -0.6789 -0.0522  0.7324
     5 H(1)   Bbb    -0.0063    -3.363    -1.200    -1.122 -0.1058  0.9940 -0.0273
              Bcc     0.0136     7.282     2.598     2.429  0.7266  0.0961  0.6803
 
              Baa    -0.0183     1.322     0.472     0.441  0.8608 -0.4715  0.1915
     6 O(17)  Bbb     0.0080    -0.577    -0.206    -0.192 -0.2913 -0.1480  0.9451
              Bcc     0.0103    -0.745    -0.266    -0.249  0.4173  0.8694  0.2647
 
              Baa    -0.0069    -3.666    -1.308    -1.223  0.1831  0.2815  0.9419
     7 H(1)   Bbb    -0.0058    -3.098    -1.106    -1.033  0.7258 -0.6850  0.0636
              Bcc     0.0127     6.765     2.414     2.256  0.6631  0.6720 -0.3297
 
              Baa    -0.0182     1.320     0.471     0.440  0.8361  0.5124 -0.1958
     8 O(17)  Bbb     0.0079    -0.575    -0.205    -0.192 -0.0036  0.3620  0.9322
              Bcc     0.0103    -0.746    -0.266    -0.249 -0.5486  0.7787 -0.3045
 
              Baa    -0.0069    -3.670    -1.310    -1.224  0.1533 -0.3023  0.9408
     9 H(1)   Bbb    -0.0058    -3.100    -1.106    -1.034  0.9563  0.2854 -0.0642
              Bcc     0.0127     6.771     2.416     2.258 -0.2491  0.9095  0.3328
 
              Baa    -0.0183     1.326     0.473     0.442 -0.0208  0.9813  0.1915
    10 O(17)  Bbb     0.0081    -0.583    -0.208    -0.195  0.2487 -0.1804  0.9516
              Bcc     0.0103    -0.742    -0.265    -0.248  0.9684  0.0674 -0.2402
 
              Baa    -0.0073    -3.910    -1.395    -1.304 -0.6773 -0.0525  0.7338
    11 H(1)   Bbb    -0.0063    -3.356    -1.198    -1.120 -0.1038  0.9943 -0.0247
              Bcc     0.0136     7.267     2.593     2.424  0.7283  0.0929  0.6789
 
              Baa    -0.0183     1.322     0.472     0.441  0.8604 -0.4718  0.1925
    12 O(17)  Bbb     0.0079    -0.574    -0.205    -0.192 -0.2999 -0.1634  0.9399
              Bcc     0.0103    -0.748    -0.267    -0.249  0.4120  0.8664  0.2821
 
              Baa    -0.0069    -3.668    -1.309    -1.223  0.1845  0.2809  0.9418
    13 H(1)   Bbb    -0.0058    -3.098    -1.106    -1.034  0.7242 -0.6867  0.0629
              Bcc     0.0127     6.766     2.414     2.257  0.6644  0.6705 -0.3301
 
              Baa    -0.0073    -3.917    -1.398    -1.307  0.2941  0.6109  0.7350
    14 H(1)   Bbb    -0.0063    -3.361    -1.199    -1.121  0.9132 -0.4066 -0.0274
              Bcc     0.0136     7.279     2.597     2.428  0.2821  0.6793 -0.6775
 
              Baa    -0.0069    -3.670    -1.309    -1.224 -0.3395  0.0144  0.9405
    15 H(1)   Bbb    -0.0058    -3.098    -1.106    -1.034  0.2303  0.9707  0.0682
              Bcc     0.0127     6.768     2.415     2.258  0.9120 -0.2398  0.3329
 
              Baa    -0.0069    -3.670    -1.310    -1.224  0.1539 -0.3022  0.9407
    16 H(1)   Bbb    -0.0058    -3.100    -1.106    -1.034  0.9561  0.2859 -0.0646
              Bcc     0.0127     6.770     2.416     2.258 -0.2494  0.9094  0.3329
 
              Baa    -0.0069    -3.673    -1.310    -1.225 -0.3382  0.0110  0.9410
    17 H(1)   Bbb    -0.0058    -3.104    -1.108    -1.035  0.2295  0.9707  0.0711
              Bcc     0.0127     6.777     2.418     2.260  0.9127 -0.2400  0.3309
 
              Baa    -0.0073    -3.917    -1.398    -1.307  0.2935  0.6109  0.7353
    18 H(1)   Bbb    -0.0063    -3.362    -1.200    -1.121  0.9136 -0.4057 -0.0276
              Bcc     0.0136     7.279     2.597     2.428  0.2814  0.6798 -0.6772
 
              Baa    -0.0073    -3.918    -1.398    -1.307  0.3830 -0.5623  0.7329
    19 H(1)   Bbb    -0.0063    -3.361    -1.199    -1.121  0.8080  0.5885  0.0292
              Bcc     0.0136     7.278     2.597     2.428 -0.4477  0.5810  0.6797
 

 ---------------------------------------------------------------------------------

 No NMR shielding tensors so no spin-rotation constants.
 Leave Link  601 at Thu May 30 11:21:55 2024, MaxMem= 26843545600 cpu:              28.9 elap:               0.3
 (Enter /gpfs/fs1/soft/improv/software/custom-built/gaussian/g16/l9999.exe)
 Unable to Open any file for archive entry.
 1\1\GINC-I661\SP\UPBEPBE\Gen\H12O6Ti1(3+,2)\HHARB\30-May-2024\0\\#p PB
 EPBE empiricaldispersion=gd3 scf=(maxcycles=500,xqc,maxconventional=50
 ) scrf=(cpcm,solvent=water) geom=allcheck guess=read chkbasis\\Title\\
 3,2\Ti,-0.7852359824,0.7133034467,0.0316922473\O,-1.3413727864,2.70703
 67935,-0.2566371377\H,-1.671043093,3.1269680319,-1.0829482446\O,1.2110
 318368,1.3329584495,0.0470706422\H,1.9922734681,0.8392212094,0.3845412
 789\O,-0.959767951,1.0256956032,2.0910880094\H,-1.7976989695,1.1524446
 952,2.5918560695\O,-0.2288957508,-1.2807699627,0.3197766993\H,-0.28587
 1014,-2.0025954476,-0.346778131\O,-2.7800472797,0.0898288705,0.0170823
 753\H,-3.5637983441,0.5788292084,-0.3214402854\O,-0.6101539902,0.40332
 86972,-2.0280742841\H,0.2280504475,0.279811176,-2.5287803613\H,-1.3348
 100396,0.3103620875,-2.6871059814\H,1.5630020407,2.1725926696,-0.32705
 22699\H,-1.2837637858,3.4295460049,0.4094953214\H,-3.1286884981,-0.749
 7939637,0.3946671332\H,-0.234810451,1.1187149342,2.7495701354\H,0.1000
 825723,-1.7014027338,1.1460221934\\Version=ES64L-G16RevC.02\State=2-A\
 HF=-1307.0353236\S2=0.752515\S2-1=0.\S2A=0.750005\RMSD=5.450e-09\Dipol
 e=-0.0003522,0.0001326,0.0010967\Quadrupole=0.203354,-0.3969388,0.1935
 848,-0.3270845,0.7345164,-0.337067\PG=C01 [X(H12O6Ti1)]\\@
 The archive entry for this job was punched.


 IF YOU PERCEIVE THAT THERE ARE FOUR POSSIBLE WAYS IN
 WHICH A PROCEDURE CAN GO WRONG AND CIRCUMVENT THESE, 
 THEN A FIFTH WAY WILL DEVELOP.

                              -- MURPHY'S TWELFTH LAW
 Job cpu time:       0 days  1 hours 24 minutes 18.4 seconds.
 Elapsed time:       0 days  0 hours  0 minutes 42.9 seconds.
 File lengths (MBytes):  RWF=    121 Int=      0 D2E=      0 Chk=     32 Scr=      1
 Normal termination of Gaussian 16 at Thu May 30 11:21:55 2024.
