 Entering Gaussian System, Link 0=g16
 Input=V_2_PBE.com
 Output=V_2_PBE.log
 Initial command:
 /gpfs/fs1/soft/improv/software/custom-built/gaussian/g16/l1.exe "/scratch/Gau-297109.inp" -scrdir="/scratch/"
 Default CPUs for threads: 0-127
 Default linda workers: i662.lcrc.anl.gov
 Default is to use 128 SMP processors on each worker.
 Entering Link 1 = /gpfs/fs1/soft/improv/software/custom-built/gaussian/g16/l1.exe PID=    297110.
  
 Copyright (c) 1988-2021, Gaussian, Inc.  All Rights Reserved.
  
 This is part of the Gaussian(R) 16 program.  It is based on
 the Gaussian(R) 09 system (copyright 2009, Gaussian, Inc.),
 the Gaussian(R) 03 system (copyright 2003, Gaussian, Inc.),
 the Gaussian(R) 98 system (copyright 1998, Gaussian, Inc.),
 the Gaussian(R) 94 system (copyright 1995, Gaussian, Inc.),
 the Gaussian 92(TM) system (copyright 1992, Gaussian, Inc.),
 the Gaussian 90(TM) system (copyright 1990, Gaussian, Inc.),
 the Gaussian 88(TM) system (copyright 1988, Gaussian, Inc.),
 the Gaussian 86(TM) system (copyright 1986, Carnegie Mellon
 University), and the Gaussian 82(TM) system (copyright 1983,
 Carnegie Mellon University). Gaussian is a federally registered
 trademark of Gaussian, Inc.
  
 This software contains proprietary and confidential information,
 including trade secrets, belonging to Gaussian, Inc.
  
 This software is provided under written license and may be
 used, copied, transmitted, or stored only in accord with that
 written license.
  
 The following legend is applicable only to US Government
 contracts under FAR:
  
                    RESTRICTED RIGHTS LEGEND
  
 Use, reproduction and disclosure by the US Government is
 subject to restrictions as set forth in subparagraphs (a)
 and (c) of the Commercial Computer Software - Restricted
 Rights clause in FAR 52.227-19.
  
 Gaussian, Inc.
 340 Quinnipiac St., Bldg. 40, Wallingford CT 06492
  
  
 ---------------------------------------------------------------
 Warning -- This program may not be used in any manner that
 competes with the business of Gaussian, Inc. or will provide
 assistance to any competitor of Gaussian, Inc.  The licensee
 of this program is prohibited from giving any competitor of
 Gaussian, Inc. access to this program.  By using this program,
 the user acknowledges that Gaussian, Inc. is engaged in the
 business of creating and licensing software in the field of
 computational chemistry and represents and warrants to the
 licensee that it is not a competitor of Gaussian, Inc. and that
 it will not use this program in any manner prohibited above.
 ---------------------------------------------------------------
  

 Cite this work as:
 Gaussian 16, Revision C.02,
 M. J. Frisch, G. W. Trucks, H. B. Schlegel, G. E. Scuseria, 
 M. A. Robb, J. R. Cheeseman, G. Scalmani, V. Barone, 
 G. A. Petersson, H. Nakatsuji, X. Li, M. Caricato, A. V. Marenich, 
 J. Bloino, B. G. Janesko, R. Gomperts, B. Mennucci, H. P. Hratchian, 
 J. V. Ortiz, A. F. Izmaylov, J. L. Sonnenberg, D. Williams-Young, 
 F. Ding, F. Lipparini, F. Egidi, J. Goings, B. Peng, A. Petrone, 
 T. Henderson, D. Ranasinghe, V. G. Zakrzewski, J. Gao, N. Rega, 
 G. Zheng, W. Liang, M. Hada, M. Ehara, K. Toyota, R. Fukuda, 
 J. Hasegawa, M. Ishida, T. Nakajima, Y. Honda, O. Kitao, H. Nakai, 
 T. Vreven, K. Throssell, J. A. Montgomery, Jr., J. E. Peralta, 
 F. Ogliaro, M. J. Bearpark, J. J. Heyd, E. N. Brothers, K. N. Kudin, 
 V. N. Staroverov, T. A. Keith, R. Kobayashi, J. Normand, 
 K. Raghavachari, A. P. Rendell, J. C. Burant, S. S. Iyengar, 
 J. Tomasi, M. Cossi, J. M. Millam, M. Klene, C. Adamo, R. Cammi, 
 J. W. Ochterski, R. L. Martin, K. Morokuma, O. Farkas, 
 J. B. Foresman, and D. J. Fox, Gaussian, Inc., Wallingford CT, 2019.
 
 ******************************************
 Gaussian 16:  ES64L-G16RevC.02  7-Dec-2021
                30-May-2024 
 ******************************************
 %chk=V_2_PBE.chk
 SetSPE:  set environment variable "OMP_PROC_BIND" = "true"
 SetSPE:  set environment variable "OMP_PLACES" = "{0},{1},{2},{3},{4},{5},{6},{7},{8},{9},{10},{11},{12},{13},{14},{15},{16},{17},{18},{19},{20},{21},{22},{23},{24},{25},{26},{27},{28},{29},{30},{31},{32},{33},{34},{35},{36},{37},{38},{39},{40},{41},{42},{43},{44},{45},{46},{47},{48},{49},{50},{51},{52},{53},{54},{55},{56},{57},{58},{59},{60},{61},{62},{63},{64},{65},{66},{67},{68},{69},{70},{71},{72},{73},{74},{75},{76},{77},{78},{79},{80},{81},{82},{83},{84},{85},{86},{87},{88},{89},{90},{91},{92},{93},{94},{95},{96},{97},{98},{99},{100},{101},{102},{103},{104},{105},{106},{107},{108},{109},{110},{111},{112},{113},{114},{115},{116},{117},{118},{119},{120},{121},{122},{123},{124},{125},{126},{127}"
 SetLPE:    new flags="-opt 'Tsnet.Node.lindarsharg: ssh'  -nodelist 'i662.lcrc.anl.gov' -env GAUSS_MDEF=26843545600 -env GAUSS_EXEDIR="/gpfs/fs1/soft/improv/software/custom-built/gaussian/g16/bsd:/gpfs/fs1/soft/improv/software/custom-built/gaussian/g16" -env "OMP_PROC_BIND=true" -env "OMP_PLACES={0},{1},{2},{3},{4},{5},{6},{7},{8},{9},{10},{11},{12},{13},{14},{15},{16},{17},{18},{19},{20},{21},{22},{23},{24},{25},{26},{27},{28},{29},{30},{31},{32},{33},{34},{35},{36},{37},{38},{39},{40},{41},{42},{43},{44},{45},{46},{47},{48},{49},{50},{51},{52},{53},{54},{55},{56},{57},{58},{59},{60},{61},{62},{63},{64},{65},{66},{67},{68},{69},{70},{71},{72},{73},{74},{75},{76},{77},{78},{79},{80},{81},{82},{83},{84},{85},{86},{87},{88},{89},{90},{91},{92},{93},{94},{95},{96},{97},{98},{99},{100},{101},{102},{103},{104},{105},{106},{107},{108},{109},{110},{111},{112},{113},{114},{115},{116},{117},{118},{119},{120},{121},{122},{123},{124},{125},{126},{127}" -env GAUSS_ADEF="0,1,2,3,4,5,6,7,8,9,10,11,12,13,14,15,16,17,18,19,20,21,22,23,24,25,26,27,28,29,30,31,32,33,34,35,36,37,38,39,40,41,42,43,44,45,46,47,48,49,50,51,52,53,54,55,56,57,58,59,60,61,62,63,64,65,66,67,68,69,70,71,72,73,74,75,76,77,78,79,80,81,82,83,84,85,86,87,88,89,90,91,92,93,94,95,96,97,98,99,100,101,102,103,104,105,106,107,108,109,110,111,112,113,114,115,116,117,118,119,120,121,122,123,124,125,126,127""
 Will use up to    1 processors via Linda.
 ----------------------------------------------------------------------
 #p PBEPBE empiricaldispersion=gd3 6-31+G(2df,p) opt=(cartesian,calcall
 ,maxcycles=500) freq scf=(maxcycles=500,xqc,maxconventional=50)
 ----------------------------------------------------------------------
 1/6=500,10=4,18=10,26=3,38=1/1,3;
 2/12=2,17=6,18=5,29=2,40=1/2;
 3/5=1,6=6,7=114,11=2,25=1,30=1,71=2,74=1009,124=31,140=1/1,2,3;
 4//1;
 5/5=2,7=500,8=3,13=1,38=5,85=50/2,8;
 8/6=4,10=90,11=11/1;
 11/6=1,8=1,9=11,15=111,16=1/1,2,10;
 10/6=1/2;
 6/7=2,8=2,9=2,10=2,18=1,28=1/1;
 7/7=1,10=1,25=1/1,2,3,16;
 1/6=500,10=4,18=10,26=3/3(3);
 2/29=1/2;
 7/7=1,8=1,9=1,25=1,44=-1/16;
 99/12=1/99;
 2/29=1/2;
 3/5=1,6=6,7=114,11=2,25=1,30=1,71=2,74=1009,124=31,140=1/1,2,3;
 4/5=5,16=3,69=1/1;
 5/5=2,7=500,8=3,13=1,38=5,85=50/2,8;
 8/6=4,10=90,11=11/1;
 11/6=1,8=1,9=11,15=111,16=1/1,2,10;
 10/6=1/2;
 7/7=1,10=1,25=1/1,2,3,16;
 1/6=500,10=4,18=10,26=3/3(-8);
 2/29=1/2;
 6/7=2,8=2,9=2,10=2,18=1,19=2,28=1/1;
 7/7=1,8=1,9=1,25=1,44=-1/16;
 99/12=1/99;
 Leave Link    1 at Thu May 30 09:21:41 2024, MaxMem=           0 cpu:               2.0 elap:               0.1
 (Enter /gpfs/fs1/soft/improv/software/custom-built/gaussian/g16/l101.exe)
 -----
 Title
 -----
 Symbolic Z-matrix:
 Charge =  2 Multiplicity = 4
 V                    -0.79304   0.81881  -0.09491 
 O                    -1.20497   2.57394  -0.35687 
 H                    -2.12106   2.64974  -0.63312 
 O                     0.99012   1.19063  -0.05794 
 H                     1.42696   0.5998    0.55971 
 O                    -0.81752   1.03069   1.71365 
 H                    -1.02108   0.1906    2.13133 
 O                    -0.38507  -0.93351   0.17118 
 H                    -1.15682  -1.47369  -0.01433 
 O                    -2.57341   0.45178  -0.12186 
 H                    -2.77756  -0.08744  -0.88929 
 O                    -0.76966   0.60461  -1.90111 
 H                     0.09872   0.83457  -2.23949 
 H                    -0.96534  -0.30999  -2.11742 
 H                     1.12208   2.09943   0.22124 
 H                    -1.07671   3.0584    0.46184 
 H                    -2.81407  -0.02398   0.6765 
 H                     0.0422    1.33615   2.01181 
 H                    -0.11532  -1.06446   1.08312 
 
 ITRead=  0  0  0  0  0  0  0  0  0  0  0  0  0  0  0  0  0  0  0
 MicOpt= -1 -1 -1 -1 -1 -1 -1 -1 -1 -1 -1 -1 -1 -1 -1 -1 -1 -1 -1
 NAtoms=     19 NQM=       19 NQMF=       0 NMMI=      0 NMMIF=      0
                NMic=       0 NMicF=      0.
                    Isotopes and Nuclear Properties:
 (Nuclear quadrupole moments (NQMom) in fm**2, nuclear magnetic moments (NMagM)
  in nuclear magnetons)

  Atom         1           2           3           4           5           6           7           8           9          10
 IAtWgt=          51          16           1          16           1          16           1          16           1          16
 AtmWgt=  50.9439625  15.9949146   1.0078250  15.9949146   1.0078250  15.9949146   1.0078250  15.9949146   1.0078250  15.9949146
 NucSpn=           7           0           1           0           1           0           1           0           1           0
 AtZEff=  -0.0000000  -0.0000000  -0.0000000  -0.0000000  -0.0000000  -0.0000000  -0.0000000  -0.0000000  -0.0000000  -0.0000000
 NQMom=   -5.2000000   0.0000000   0.0000000   0.0000000   0.0000000   0.0000000   0.0000000   0.0000000   0.0000000   0.0000000
 NMagM=    5.1514000   0.0000000   2.7928460   0.0000000   2.7928460   0.0000000   2.7928460   0.0000000   2.7928460   0.0000000
 AtZNuc=  23.0000000   8.0000000   1.0000000   8.0000000   1.0000000   8.0000000   1.0000000   8.0000000   1.0000000   8.0000000

  Atom        11          12          13          14          15          16          17          18          19
 IAtWgt=           1          16           1           1           1           1           1           1           1
 AtmWgt=   1.0078250  15.9949146   1.0078250   1.0078250   1.0078250   1.0078250   1.0078250   1.0078250   1.0078250
 NucSpn=           1           0           1           1           1           1           1           1           1
 AtZEff=  -0.0000000  -0.0000000  -0.0000000  -0.0000000  -0.0000000  -0.0000000  -0.0000000  -0.0000000  -0.0000000
 NQMom=    0.0000000   0.0000000   0.0000000   0.0000000   0.0000000   0.0000000   0.0000000   0.0000000   0.0000000
 NMagM=    2.7928460   0.0000000   2.7928460   2.7928460   2.7928460   2.7928460   2.7928460   2.7928460   2.7928460
 AtZNuc=   1.0000000   8.0000000   1.0000000   1.0000000   1.0000000   1.0000000   1.0000000   1.0000000   1.0000000
 Leave Link  101 at Thu May 30 09:21:41 2024, MaxMem= 26843545600 cpu:               0.4 elap:               0.0
 (Enter /gpfs/fs1/soft/improv/software/custom-built/gaussian/g16/l103.exe)

 GradGradGradGradGradGradGradGradGradGradGradGradGradGradGradGradGradGrad
 Berny optimization.
 Initialization pass.
 No Z-matrix variables, so optimization will use Cartesian coordinates.
 Trust Radius=3.00D-01 FncErr=1.00D-07 GrdErr=1.00D-06 EigMax=2.50D+02 EigMin=1.00D-04
 Number of steps in this run=    114 maximum allowed number of steps=    114.
 GradGradGradGradGradGradGradGradGradGradGradGradGradGradGradGradGradGrad

 Leave Link  103 at Thu May 30 09:21:41 2024, MaxMem= 26843545600 cpu:               0.4 elap:               0.0
 (Enter /gpfs/fs1/soft/improv/software/custom-built/gaussian/g16/l202.exe)
 ---------------------------------------------------------------------------------------------------
                            Z-MATRIX (ANGSTROMS AND DEGREES)
   CD    Cent   Atom    N1       Length/X        N2       Alpha/Y        N3        Beta/Z          J
 ---------------------------------------------------------------------------------------------------
      1      1  V        0  -0.793037          0.818805         -0.094905
      2      2  O        0  -1.204971          2.573941         -0.356874
      3      3  H        0  -2.121063          2.649743         -0.633122
      4      4  O        0   0.990122          1.190635         -0.057941
      5      5  H        0   1.426962          0.599798          0.559707
      6      6  O        0  -0.817519          1.030691          1.713650
      7      7  H        0  -1.021079          0.190602          2.131326
      8      8  O        0  -0.385068         -0.933506          0.171177
      9      9  H        0  -1.156817         -1.473692         -0.014327
     10     10  O        0  -2.573405          0.451778         -0.121857
     11     11  H        0  -2.777557         -0.087440         -0.889285
     12     12  O        0  -0.769659          0.604612         -1.901109
     13     13  H        0   0.098725          0.834573         -2.239490
     14     14  H        0  -0.965336         -0.309994         -2.117418
     15     15  H        0   1.122081          2.099426          0.221242
     16     16  H        0  -1.076711          3.058396          0.461841
     17     17  H        0  -2.814074         -0.023981          0.676500
     18     18  H        0   0.042204          1.336153          2.011809
     19     19  H        0  -0.115315         -1.064459          1.083123
 ---------------------------------------------------------------------------------------------------
                         Z-Matrix orientation:                         
 ---------------------------------------------------------------------
 Center     Atomic      Atomic             Coordinates (Angstroms)
 Number     Number       Type             X           Y           Z
 ---------------------------------------------------------------------
      1         23           0       -0.793037    0.818805   -0.094905
      2          8           0       -1.204971    2.573941   -0.356874
      3          1           0       -2.121063    2.649743   -0.633122
      4          8           0        0.990122    1.190635   -0.057941
      5          1           0        1.426962    0.599798    0.559707
      6          8           0       -0.817519    1.030691    1.713650
      7          1           0       -1.021079    0.190602    2.131326
      8          8           0       -0.385068   -0.933506    0.171177
      9          1           0       -1.156817   -1.473692   -0.014327
     10          8           0       -2.573405    0.451778   -0.121857
     11          1           0       -2.777557   -0.087440   -0.889285
     12          8           0       -0.769659    0.604612   -1.901109
     13          1           0        0.098725    0.834573   -2.239490
     14          1           0       -0.965336   -0.309994   -2.117418
     15          1           0        1.122081    2.099426    0.221242
     16          1           0       -1.076711    3.058396    0.461841
     17          1           0       -2.814074   -0.023981    0.676500
     18          1           0        0.042204    1.336153    2.011809
     19          1           0       -0.115315   -1.064459    1.083123
 ---------------------------------------------------------------------
                    Distance matrix (angstroms):
                    1          2          3          4          5
     1  V    0.000000
     2  O    1.821762   0.000000
     3  H    2.325008   0.959835   0.000000
     4  O    1.821889   2.611767   3.484150   0.000000
     5  H    2.324839   3.415322   4.267739   0.959899   0.000000
     6  O    1.821090   2.611285   3.134947   2.536076   2.560263
     7  H    2.324381   3.450400   3.859988   3.136540   2.937743
     8  O    1.818745   3.640503   4.062050   2.540791   2.405292
     9  H    2.322579   4.062387   4.279649   3.421971   3.362259
    10  O    1.818006   2.536025   2.301533   3.639880   4.060711
    11  H    2.321775   3.136788   2.826442   4.064482   4.499984
    12  O    1.819010   2.540161   2.759827   2.614866   3.298603
    13  H    2.322657   2.875634   3.286750   2.383386   3.107223
    14  H    2.322591   3.387332   3.506977   3.212032   3.703756
    15  H    2.325429   2.444290   3.398642   0.959822   1.567289
    16  H    2.325125   0.959918   1.567358   2.833814   3.510364
    17  H    2.321626   3.225876   3.056824   4.060370   4.288255
    18  H    2.324547   2.949275   3.660724   2.281137   2.137375
    19  H    2.322443   4.061883   4.556733   2.758526   2.328591
                    6          7          8          9         10
     6  O    0.000000
     7  H    0.960021   0.000000
     8  O    2.534622   2.347406   0.000000
     9  H    3.061530   2.718847   0.960108   0.000000
    10  O    2.605257   2.748593   2.606473   2.392848   0.000000
    11  H    3.444886   3.505227   2.750347   2.305222   0.959885
    12  O    3.640099   4.061422   2.609231   2.833582   2.538227
    13  H    4.062670   4.557707   3.028445   3.443229   3.430916
    14  H    4.061572   4.278496   2.441955   2.411193   2.673658
    15  H    2.670492   3.447487   3.387136   4.244531   4.060675
    16  H    2.397039   3.318813   4.061790   4.557738   3.061904
    17  H    2.484803   2.318921   2.642472   2.307685   0.960023
    18  H    0.959858   1.567527   2.953276   3.665802   3.489421
    19  H    2.297892   1.869309   0.959980   1.567353   3.129403
                   11         12         13         14         15
    11  H    0.000000
    12  O    2.352526   0.000000
    13  H    3.308498   0.959935   0.000000
    14  H    2.200452   0.959991   1.567533   0.000000
    15  H    4.606825   3.212091   2.949969   3.953725   0.000000
    16  H    3.822919   3.420362   3.691102   4.243941   2.410850
    17  H    1.567497   3.349453   4.210050   3.362383   4.495491
    18  H    4.288824   4.062660   4.281159   4.558009   2.225950
    19  H    3.454344   3.481323   3.833001   3.396353   3.504877
                   16         17         18         19
    16  H    0.000000
    17  H    3.544793   0.000000
    18  H    2.573032   3.433851   0.000000
    19  H    4.278809   2.920828   2.578800   0.000000
 Stoichiometry    H12O6V(2+,4)
 Framework group  C1[X(H12O6V)]
 Deg. of freedom    51
 Full point group                 C1      NOp   1
 Largest Abelian subgroup         C1      NOp   1
 Largest concise Abelian subgroup C1      NOp   1
                         Standard orientation:                         
 ---------------------------------------------------------------------
 Center     Atomic      Atomic             Coordinates (Angstroms)
 Number     Number       Type             X           Y           Z
 ---------------------------------------------------------------------
      1         23           0       -0.020930   -0.030851    0.010117
      2          8           0       -0.320881   -1.688468   -0.683537
      3          1           0       -1.137136   -1.681045   -1.188468
      4          8           0        1.254385   -0.678558    1.138536
      5          1           0        1.942922   -0.019835    1.254320
      6          8           0        1.297591    0.293740   -1.203355
      7          1           0        1.381168    1.240413   -1.339237
      8          8           0        0.279591    1.625972    0.697472
      9          1           0       -0.432419    2.214852    0.436571
     10          8           0       -1.286602    0.614727   -1.124100
     11          1           0       -2.035606    0.937335   -0.617843
     12          8           0       -1.338715   -0.352402    1.222076
     13          1           0       -0.971940   -0.816344    1.978190
     14          1           0       -1.717839    0.480834    1.511152
     15          1           0        1.635326   -1.477232    0.766701
     16          1           0        0.408485   -1.931629   -1.258289
     17          1           0       -0.916150    1.334035   -1.640826
     18          1           0        2.128491   -0.056823   -0.874663
     19          1           0        1.113128    1.964930    0.362980
 ---------------------------------------------------------------------
 Rotational constants (GHZ):           2.0397021           1.9739483           1.9252864
 Leave Link  202 at Thu May 30 09:21:41 2024, MaxMem= 26843545600 cpu:               0.5 elap:               0.0
 (Enter /gpfs/fs1/soft/improv/software/custom-built/gaussian/g16/l301.exe)
 Standard basis: 6-31+G(2df,p) (6D, 7F)
 Ernie: Thresh=  0.10000D-02 Tol=  0.10000D-05 Strict=F.
 There are   347 symmetry adapted cartesian basis functions of A   symmetry.
 There are   317 symmetry adapted basis functions of A   symmetry.
   317 basis functions,   514 primitive gaussians,   347 cartesian basis functions
    42 alpha electrons       39 beta electrons
       nuclear repulsion energy       717.7225235776 Hartrees.
 IExCor= 1009 DFT=T Ex=PBE Corr=PBE ExCW=0 ScaHFX=  0.000000
 ScaDFX=  1.000000  1.000000  1.000000  1.000000 ScalE2=  1.000000  1.000000
 IRadAn=      5 IRanWt=     -1 IRanGd=            0 ICorTp=0 IEmpDi=131
 NAtoms=   19 NActive=   19 NUniq=   19 SFac= 1.00D+00 NAtFMM=   60 NAOKFM=F Big=F
 Integral buffers will be    131072 words long.
 Raffenetti 2 integral format.
 Two-electron integral symmetry is turned on.
 R6Disp:  Grimme-D3 Dispersion energy=       -0.0123819572 Hartrees.
 Nuclear repulsion after empirical dispersion term =      717.7101416204 Hartrees.
 Leave Link  301 at Thu May 30 09:21:42 2024, MaxMem= 26843545600 cpu:               0.4 elap:               0.0
 (Enter /gpfs/fs1/soft/improv/software/custom-built/gaussian/g16/l302.exe)
 NPDir=0 NMtPBC=     1 NCelOv=     1 NCel=       1 NClECP=     1 NCelD=      1
         NCelK=      1 NCelE2=     1 NClLst=     1 CellRange=     0.0.
 One-electron integrals computed using PRISM.
 One-electron integral symmetry used in STVInt
 NBasis=   317 RedAO= T EigKep=  3.17D-05  NBF=   317
 NBsUse=   317 1.00D-06 EigRej= -1.00D+00 NBFU=   317
 Precomputing XC quadrature grid using
 IXCGrd= 4 IRadAn=           5 IRanWt=          -1 IRanGd=           0 AccXCQ= 0.00D+00.
 Generated NRdTot=       0 NPtTot=           0 NUsed=           0 NTot=          32
 NSgBfM=   347   347   347   347   347 MxSgAt=    19 MxSgA2=    19.
 Leave Link  302 at Thu May 30 09:21:42 2024, MaxMem= 26843545600 cpu:              21.7 elap:               0.3
 (Enter /gpfs/fs1/soft/improv/software/custom-built/gaussian/g16/l303.exe)
 DipDrv:  MaxL=1.
 Leave Link  303 at Thu May 30 09:21:42 2024, MaxMem= 26843545600 cpu:               1.0 elap:               0.0
 (Enter /gpfs/fs1/soft/improv/software/custom-built/gaussian/g16/l401.exe)
 ExpMin= 1.07D-02 ExpMax= 4.74D+04 ExpMxC= 7.11D+03 IAcc=3 IRadAn=         5 AccDes= 0.00D+00
 Harris functional with IExCor= 1009 and IRadAn=       5 diagonalized for initial guess.
 HarFok:  IExCor= 1009 AccDes= 0.00D+00 IRadAn=         5 IDoV= 1 UseB2=F ITyADJ=14
 ICtDFT=  3500011 ScaDFX=  1.000000  1.000000  1.000000  1.000000
 FoFCou: FMM=F IPFlag=           0 FMFlag=      100000 FMFlg1=           0
         NFxFlg=           0 DoJE=T BraDBF=F KetDBF=T FulRan=T
         wScrn=  0.000000 ICntrl=       500 IOpCl=  0 I1Cent=   200000004 NGrid=           0
         NMat0=    1 NMatS0=      1 NMatT0=    0 NMatD0=    1 NMtDS0=    0 NMtDT0=    0
 Petite list used in FoFCou.
 Harris En= -1401.42909133747    
 JPrj=0 DoOrth=F DoCkMO=F.
 Initial guess <Sx>= 0.0000 <Sy>= 0.0000 <Sz>= 1.5000 <S**2>= 3.7500 S= 1.5000
 Leave Link  401 at Thu May 30 09:21:43 2024, MaxMem= 26843545600 cpu:              37.7 elap:               0.4
 (Enter /gpfs/fs1/soft/improv/software/custom-built/gaussian/g16/l502.exe)
 Integral symmetry usage will be decided dynamically.
 UHF open shell SCF:
 Using DIIS extrapolation, IDIIS=  1040.
 NGot= 26843545600 LenX= 26843256607 LenY= 26843135757
 Requested convergence on RMS density matrix=1.00D-08 within  50 cycles.
 Requested convergence on MAX density matrix=1.00D-06.
 Requested convergence on             energy=1.00D-06.
 No special actions if energy rises.
 Fock matrices will be formed incrementally for  20 cycles.

 Cycle   1  Pass 1  IDiag  1:
 FoFJK:  IHMeth= 1 ICntrl=     500 DoSepK=F KAlg= 0 I1Cent=           0 FoldK=F
 IRaf= 990000000 NMat=       1 IRICut=       1 DoRegI=T DoRafI=F ISym2E= 0 IDoP0=0 IntGTp=1.
 FoFCou: FMM=F IPFlag=           0 FMFlag=      100000 FMFlg1=           0
         NFxFlg=           0 DoJE=T BraDBF=F KetDBF=F FulRan=T
         wScrn=  0.000000 ICntrl=       500 IOpCl=  0 I1Cent=           0 NGrid=           0
         NMat0=    1 NMatS0=      1 NMatT0=    0 NMatD0=    1 NMtDS0=    0 NMtDT0=    0
 Symmetry not used in FoFCou.
 E= -1400.76142086115    
 DIIS: error= 3.81D-02 at cycle   1 NSaved=   1.
 NSaved= 1 IEnMin= 1 EnMin= -1400.76142086115     IErMin= 1 ErrMin= 3.81D-02
 ErrMax= 3.81D-02  0.00D+00 EMaxC= 1.00D-01 BMatC= 2.34D+00 BMatP= 2.34D+00
 IDIUse=3 WtCom= 6.19D-01 WtEn= 3.81D-01
 Coeff-Com:  0.100D+01
 Coeff-En:   0.100D+01
 Coeff:      0.100D+01
 Gap=    -0.120 Goal=   None    Shift=    0.000
 Gap=     0.265 Goal=   None    Shift=    0.000
 GapD=   -0.120 DampG=0.250 DampE=0.250 DampFc=0.1250 IDamp=-1.
 Damping current iteration by 1.25D-01
 RMSDP=3.84D-02 MaxDP=5.37D+00              OVMax= 9.40D-01

 Cycle   2  Pass 1  IDiag  1:
 RMSU=  4.80D-03    CP:  9.99D-01
 E= -1400.86984818285     Delta-E=       -0.108427321704 Rises=F Damp=T
 DIIS: error= 3.44D-02 at cycle   2 NSaved=   2.
 NSaved= 2 IEnMin= 2 EnMin= -1400.86984818285     IErMin= 2 ErrMin= 3.44D-02
 ErrMax= 3.44D-02  0.00D+00 EMaxC= 1.00D-01 BMatC= 1.00D+00 BMatP= 2.34D+00
 IDIUse=3 WtCom= 6.56D-01 WtEn= 3.44D-01
 Coeff-Com: -0.130D+01 0.230D+01
 Coeff-En:   0.000D+00 0.100D+01
 Coeff:     -0.851D+00 0.185D+01
 Gap=     0.087 Goal=   None    Shift=    0.000
 Gap=     0.230 Goal=   None    Shift=    0.000
 RMSDP=7.48D-03 MaxDP=5.89D-01 DE=-1.08D-01 OVMax= 9.56D-01

 Cycle   3  Pass 1  IDiag  1:
 RMSU=  6.49D-03    CP:  9.41D-01  2.61D-01
 E= -1400.63378720002     Delta-E=        0.236060982833 Rises=F Damp=F
 DIIS: error= 4.37D-02 at cycle   3 NSaved=   3.
 NSaved= 3 IEnMin= 2 EnMin= -1400.86984818285     IErMin= 2 ErrMin= 3.44D-02
 ErrMax= 4.37D-02  0.00D+00 EMaxC= 1.00D-01 BMatC= 3.46D+00 BMatP= 1.00D+00
 IDIUse=2 WtCom= 0.00D+00 WtEn= 1.00D+00
 Coeff-En:   0.000D+00 0.660D+00 0.340D+00
 Coeff:      0.000D+00 0.660D+00 0.340D+00
 Gap=    -0.119 Goal=   None    Shift=    0.000
 Gap=     0.412 Goal=   None    Shift=    0.000
 RMSDP=4.43D-02 MaxDP=8.14D+00 DE= 2.36D-01 OVMax= 9.90D-01

 Cycle   4  Pass 1  IDiag  1:
 RMSU=  3.25D-02    CP:  1.01D+00  3.00D+00 -2.65D-01
 E= -1399.23786597681     Delta-E=        1.395921223211 Rises=F Damp=F
 DIIS: error= 5.72D-02 at cycle   4 NSaved=   4.
 NSaved= 4 IEnMin= 2 EnMin= -1400.86984818285     IErMin= 2 ErrMin= 3.44D-02
 ErrMax= 5.72D-02  0.00D+00 EMaxC= 1.00D-01 BMatC= 6.26D+00 BMatP= 1.00D+00
 IDIUse=2 WtCom= 0.00D+00 WtEn= 1.00D+00
 EnCoef did   100 forward-backward iterations
 Coeff-En:   0.346D+00 0.210D-01 0.428D+00 0.205D+00
 Coeff:      0.346D+00 0.210D-01 0.428D+00 0.205D+00
 Gap=     0.035 Goal=   None    Shift=    0.000
 Gap=     0.255 Goal=   None    Shift=    0.000
 RMSDP=3.93D-02 MaxDP=7.83D+00 DE= 1.40D+00 OVMax= 8.46D-01

 Cycle   5  Pass 1  IDiag  1:
 RMSU=  9.62D-03    CP:  9.72D-01  2.17D+00  9.57D-02 -8.13D-02
 E= -1401.08713864799     Delta-E=       -1.849272671187 Rises=F Damp=F
 DIIS: error= 1.63D-02 at cycle   5 NSaved=   5.
 NSaved= 5 IEnMin= 5 EnMin= -1401.08713864799     IErMin= 5 ErrMin= 1.63D-02
 ErrMax= 1.63D-02  0.00D+00 EMaxC= 1.00D-01 BMatC= 4.18D-01 BMatP= 1.00D+00
 IDIUse=3 WtCom= 8.37D-01 WtEn= 1.63D-01
 EnCoef did     1 forward-backward iterations
 Coeff-Com: -0.233D+00 0.573D+00 0.216D+00-0.235D-01 0.468D+00
 Coeff-En:   0.359D-01 0.000D+00 0.223D+00 0.000D+00 0.741D+00
 Coeff:     -0.189D+00 0.479D+00 0.217D+00-0.196D-01 0.513D+00
 Gap=    -0.005 Goal=   None    Shift=    0.000
 Gap=     0.266 Goal=   None    Shift=    0.000
 RMSDP=1.36D-02 MaxDP=1.83D+00 DE=-1.85D+00 OVMax= 8.12D-01

 Cycle   6  Pass 1  IDiag  1:
 RMSU=  1.67D-03    CP:  9.54D-01  2.25D-01  5.45D-01 -3.96D-03  6.79D-02
 E= -1401.14608399836     Delta-E=       -0.058945350361 Rises=F Damp=F
 DIIS: error= 8.88D-03 at cycle   6 NSaved=   6.
 NSaved= 6 IEnMin= 6 EnMin= -1401.14608399836     IErMin= 6 ErrMin= 8.88D-03
 ErrMax= 8.88D-03  0.00D+00 EMaxC= 1.00D-01 BMatC= 2.01D-01 BMatP= 4.18D-01
 IDIUse=3 WtCom= 9.11D-01 WtEn= 8.88D-02
 Coeff-Com: -0.431D+00 0.556D+00-0.543D-01-0.164D-01 0.210D+00 0.735D+00
 Coeff-En:   0.000D+00 0.000D+00 0.000D+00 0.000D+00 0.379D+00 0.621D+00
 Coeff:     -0.392D+00 0.506D+00-0.494D-01-0.149D-01 0.225D+00 0.725D+00
 Gap=     0.022 Goal=   None    Shift=    0.000
 Gap=     0.259 Goal=   None    Shift=    0.000
 RMSDP=2.82D-03 MaxDP=2.61D-01 DE=-5.89D-02 OVMax= 2.07D-01

 Cycle   7  Pass 1  IDiag  1:
 RMSU=  1.28D-03    CP:  9.62D-01  5.36D-01  4.28D-01 -1.77D-02  2.40D-01
                    CP:  1.44D+00
 E= -1401.18508988793     Delta-E=       -0.039005889570 Rises=F Damp=F
 DIIS: error= 2.94D-03 at cycle   7 NSaved=   7.
 NSaved= 7 IEnMin= 7 EnMin= -1401.18508988793     IErMin= 7 ErrMin= 2.94D-03
 ErrMax= 2.94D-03  0.00D+00 EMaxC= 1.00D-01 BMatC= 1.92D-02 BMatP= 2.01D-01
 IDIUse=3 WtCom= 9.71D-01 WtEn= 2.94D-02
 Coeff-Com: -0.202D+00 0.248D+00-0.425D-01-0.576D-02 0.117D+00 0.244D+00
 Coeff-Com:  0.641D+00
 Coeff-En:   0.000D+00 0.000D+00 0.000D+00 0.000D+00 0.129D+00 0.000D+00
 Coeff-En:   0.871D+00
 Coeff:     -0.196D+00 0.241D+00-0.412D-01-0.559D-02 0.118D+00 0.237D+00
 Coeff:      0.647D+00
 Gap=     0.021 Goal=   None    Shift=    0.000
 Gap=     0.249 Goal=   None    Shift=    0.000
 RMSDP=1.03D-03 MaxDP=1.18D-01 DE=-3.90D-02 OVMax= 6.59D-02

 Cycle   8  Pass 1  IDiag  1:
 RMSU=  2.44D-04    CP:  9.63D-01  6.65D-01  3.93D-01 -2.30D-02  3.11D-01
                    CP:  1.51D+00  1.15D+00
 E= -1401.18874420361     Delta-E=       -0.003654315689 Rises=F Damp=F
 DIIS: error= 9.83D-04 at cycle   8 NSaved=   8.
 NSaved= 8 IEnMin= 8 EnMin= -1401.18874420361     IErMin= 8 ErrMin= 9.83D-04
 ErrMax= 9.83D-04  0.00D+00 EMaxC= 1.00D-01 BMatC= 2.72D-03 BMatP= 1.92D-02
 IDIUse=3 WtCom= 9.90D-01 WtEn= 9.83D-03
 Coeff-Com: -0.667D-01 0.828D-01-0.145D-01-0.216D-02 0.582D-01 0.538D-02
 Coeff-Com:  0.361D+00 0.576D+00
 Coeff-En:   0.000D+00 0.000D+00 0.000D+00 0.000D+00 0.172D-01 0.000D+00
 Coeff-En:   0.000D+00 0.983D+00
 Coeff:     -0.660D-01 0.820D-01-0.143D-01-0.214D-02 0.578D-01 0.533D-02
 Coeff:      0.357D+00 0.580D+00
 Gap=     0.020 Goal=   None    Shift=    0.000
 Gap=     0.248 Goal=   None    Shift=    0.000
 RMSDP=3.77D-04 MaxDP=4.04D-02 DE=-3.65D-03 OVMax= 2.65D-02

 Cycle   9  Pass 1  IDiag  1:
 RMSU=  9.60D-05    CP:  9.64D-01  7.14D-01  3.83D-01 -2.50D-02  3.37D-01
                    CP:  1.51D+00  1.20D+00  1.10D+00
 E= -1401.18928376605     Delta-E=       -0.000539562436 Rises=F Damp=F
 DIIS: error= 2.56D-04 at cycle   9 NSaved=   9.
 NSaved= 9 IEnMin= 9 EnMin= -1401.18928376605     IErMin= 9 ErrMin= 2.56D-04
 ErrMax= 2.56D-04  0.00D+00 EMaxC= 1.00D-01 BMatC= 2.13D-04 BMatP= 2.72D-03
 IDIUse=3 WtCom= 9.97D-01 WtEn= 2.56D-03
 Coeff-Com: -0.170D-03 0.122D-02 0.148D-02-0.540D-03 0.116D-01-0.343D-01
 Coeff-Com: -0.628D-02 0.282D+00 0.745D+00
 Coeff-En:   0.000D+00 0.000D+00 0.000D+00 0.000D+00 0.000D+00 0.000D+00
 Coeff-En:   0.000D+00 0.000D+00 0.100D+01
 Coeff:     -0.169D-03 0.122D-02 0.147D-02-0.538D-03 0.116D-01-0.342D-01
 Coeff:     -0.626D-02 0.281D+00 0.746D+00
 Gap=     0.020 Goal=   None    Shift=    0.000
 Gap=     0.248 Goal=   None    Shift=    0.000
 RMSDP=2.16D-04 MaxDP=2.47D-02 DE=-5.40D-04 OVMax= 1.52D-02

 Cycle  10  Pass 1  IDiag  1:
 RMSU=  4.53D-05    CP:  9.64D-01  7.43D-01  3.77D-01 -2.61D-02  3.52D-01
                    CP:  1.51D+00  1.23D+00  1.14D+00  1.16D+00
 E= -1401.18931970137     Delta-E=       -0.000035935316 Rises=F Damp=F
 DIIS: error= 1.23D-04 at cycle  10 NSaved=  10.
 NSaved=10 IEnMin=10 EnMin= -1401.18931970137     IErMin=10 ErrMin= 1.23D-04
 ErrMax= 1.23D-04  0.00D+00 EMaxC= 1.00D-01 BMatC= 4.07D-05 BMatP= 2.13D-04
 IDIUse=3 WtCom= 9.99D-01 WtEn= 1.23D-03
 Coeff-Com:  0.686D-03-0.618D-03 0.833D-03-0.106D-03-0.274D-03-0.524D-02
 Coeff-Com: -0.215D-01 0.725D-01 0.333D+00 0.621D+00
 Coeff-En:   0.000D+00 0.000D+00 0.000D+00 0.000D+00 0.000D+00 0.000D+00
 Coeff-En:   0.000D+00 0.000D+00 0.241D+00 0.759D+00
 Coeff:      0.686D-03-0.618D-03 0.832D-03-0.106D-03-0.274D-03-0.524D-02
 Coeff:     -0.214D-01 0.724D-01 0.333D+00 0.621D+00
 Gap=     0.020 Goal=   None    Shift=    0.000
 Gap=     0.248 Goal=   None    Shift=    0.000
 RMSDP=7.43D-05 MaxDP=1.00D-02 DE=-3.59D-05 OVMax= 4.34D-03

 Cycle  11  Pass 1  IDiag  1:
 RMSU=  1.17D-05    CP:  9.64D-01  7.32D-01  3.79D-01 -2.57D-02  3.47D-01
                    CP:  1.51D+00  1.22D+00  1.13D+00  1.18D+00  9.33D-01
 E= -1401.18932843189     Delta-E=       -0.000008730525 Rises=F Damp=F
 DIIS: error= 1.95D-05 at cycle  11 NSaved=  11.
 NSaved=11 IEnMin=11 EnMin= -1401.18932843189     IErMin=11 ErrMin= 1.95D-05
 ErrMax= 1.95D-05  0.00D+00 EMaxC= 1.00D-01 BMatC= 1.58D-06 BMatP= 4.07D-05
 IDIUse=1 WtCom= 1.00D+00 WtEn= 0.00D+00
 Coeff-Com: -0.137D-03 0.594D-04 0.624D-04 0.194D-04-0.105D-02 0.135D-02
 Coeff-Com: -0.570D-02 0.108D-01 0.820D-01 0.244D+00 0.669D+00
 Coeff:     -0.137D-03 0.594D-04 0.624D-04 0.194D-04-0.105D-02 0.135D-02
 Coeff:     -0.570D-02 0.108D-01 0.820D-01 0.244D+00 0.669D+00
 Gap=     0.020 Goal=   None    Shift=    0.000
 Gap=     0.248 Goal=   None    Shift=    0.000
 RMSDP=9.07D-06 MaxDP=8.41D-04 DE=-8.73D-06 OVMax= 5.58D-04

 Cycle  12  Pass 1  IDiag  1:
 RMSU=  4.28D-06    CP:  9.64D-01  7.31D-01  3.79D-01 -2.57D-02  3.47D-01
                    CP:  1.51D+00  1.22D+00  1.13D+00  1.18D+00  9.64D-01
                    CP:  9.00D-01
 E= -1401.18932865149     Delta-E=       -0.000000219595 Rises=F Damp=F
 DIIS: error= 1.37D-05 at cycle  12 NSaved=  12.
 NSaved=12 IEnMin=12 EnMin= -1401.18932865149     IErMin=12 ErrMin= 1.37D-05
 ErrMax= 1.37D-05  0.00D+00 EMaxC= 1.00D-01 BMatC= 5.05D-07 BMatP= 1.58D-06
 IDIUse=1 WtCom= 1.00D+00 WtEn= 0.00D+00
 Coeff-Com: -0.387D-03 0.378D-03-0.125D-03 0.298D-04-0.672D-03 0.200D-02
 Coeff-Com:  0.501D-03-0.676D-02-0.112D-01 0.325D-01 0.439D+00 0.544D+00
 Coeff:     -0.387D-03 0.378D-03-0.125D-03 0.298D-04-0.672D-03 0.200D-02
 Coeff:      0.501D-03-0.676D-02-0.112D-01 0.325D-01 0.439D+00 0.544D+00
 Gap=     0.020 Goal=   None    Shift=    0.000
 Gap=     0.248 Goal=   None    Shift=    0.000
 RMSDP=2.66D-06 MaxDP=1.85D-04 DE=-2.20D-07 OVMax= 1.37D-04

 Cycle  13  Pass 1  IDiag  1:
 RMSU=  2.07D-06    CP:  9.64D-01  7.31D-01  3.79D-01 -2.57D-02  3.47D-01
                    CP:  1.51D+00  1.22D+00  1.13D+00  1.19D+00  9.68D-01
                    CP:  9.22D-01  8.53D-01
 E= -1401.18932873881     Delta-E=       -0.000000087328 Rises=F Damp=F
 DIIS: error= 2.24D-06 at cycle  13 NSaved=  13.
 NSaved=13 IEnMin=13 EnMin= -1401.18932873881     IErMin=13 ErrMin= 2.24D-06
 ErrMax= 2.24D-06  0.00D+00 EMaxC= 1.00D-01 BMatC= 3.18D-08 BMatP= 5.05D-07
 IDIUse=1 WtCom= 1.00D+00 WtEn= 0.00D+00
 Coeff-Com: -0.212D-03 0.253D-03-0.554D-04 0.378D-05-0.148D-03 0.669D-03
 Coeff-Com:  0.814D-03-0.496D-02-0.184D-01-0.268D-01 0.875D-01 0.245D+00
 Coeff-Com:  0.716D+00
 Coeff:     -0.212D-03 0.253D-03-0.554D-04 0.378D-05-0.148D-03 0.669D-03
 Coeff:      0.814D-03-0.496D-02-0.184D-01-0.268D-01 0.875D-01 0.245D+00
 Coeff:      0.716D+00
 Gap=     0.020 Goal=   None    Shift=    0.000
 Gap=     0.248 Goal=   None    Shift=    0.000
 RMSDP=8.46D-07 MaxDP=8.05D-05 DE=-8.73D-08 OVMax= 2.96D-05

 Cycle  14  Pass 1  IDiag  1:
 RMSU=  5.25D-07    CP:  9.64D-01  7.31D-01  3.79D-01 -2.57D-02  3.47D-01
                    CP:  1.51D+00  1.22D+00  1.13D+00  1.19D+00  9.73D-01
                    CP:  9.33D-01  9.19D-01  8.78D-01
 E= -1401.18932874429     Delta-E=       -0.000000005473 Rises=F Damp=F
 DIIS: error= 1.07D-06 at cycle  14 NSaved=  14.
 NSaved=14 IEnMin=14 EnMin= -1401.18932874429     IErMin=14 ErrMin= 1.07D-06
 ErrMax= 1.07D-06  0.00D+00 EMaxC= 1.00D-01 BMatC= 4.36D-09 BMatP= 3.18D-08
 IDIUse=1 WtCom= 1.00D+00 WtEn= 0.00D+00
 Coeff-Com: -0.764D-04 0.937D-04-0.194D-04 0.289D-06-0.326D-04 0.220D-03
 Coeff-Com:  0.277D-03-0.219D-02-0.838D-02-0.152D-01 0.171D-01 0.895D-01
 Coeff-Com:  0.362D+00 0.557D+00
 Coeff:     -0.764D-04 0.937D-04-0.194D-04 0.289D-06-0.326D-04 0.220D-03
 Coeff:      0.277D-03-0.219D-02-0.838D-02-0.152D-01 0.171D-01 0.895D-01
 Coeff:      0.362D+00 0.557D+00
 Gap=     0.020 Goal=   None    Shift=    0.000
 Gap=     0.248 Goal=   None    Shift=    0.000
 RMSDP=4.52D-07 MaxDP=3.90D-05 DE=-5.47D-09 OVMax= 2.47D-05

 Cycle  15  Pass 1  IDiag  1:
 RMSU=  1.62D-07    CP:  9.64D-01  7.31D-01  3.79D-01 -2.57D-02  3.47D-01
                    CP:  1.51D+00  1.22D+00  1.13D+00  1.19D+00  9.72D-01
                    CP:  9.35D-01  9.03D-01  9.28D-01  8.55D-01
 E= -1401.18932874495     Delta-E=       -0.000000000661 Rises=F Damp=F
 DIIS: error= 5.66D-07 at cycle  15 NSaved=  15.
 NSaved=15 IEnMin=15 EnMin= -1401.18932874495     IErMin=15 ErrMin= 5.66D-07
 ErrMax= 5.66D-07  0.00D+00 EMaxC= 1.00D-01 BMatC= 1.17D-09 BMatP= 4.36D-09
 IDIUse=1 WtCom= 1.00D+00 WtEn= 0.00D+00
 Coeff-Com:  0.399D-05-0.309D-05 0.228D-05-0.613D-06 0.150D-04-0.221D-04
 Coeff-Com: -0.613D-04-0.197D-03-0.601D-03-0.280D-02-0.120D-01-0.616D-02
 Coeff-Com:  0.480D-01 0.373D+00 0.601D+00
 Coeff:      0.399D-05-0.309D-05 0.228D-05-0.613D-06 0.150D-04-0.221D-04
 Coeff:     -0.613D-04-0.197D-03-0.601D-03-0.280D-02-0.120D-01-0.616D-02
 Coeff:      0.480D-01 0.373D+00 0.601D+00
 Gap=     0.020 Goal=   None    Shift=    0.000
 Gap=     0.248 Goal=   None    Shift=    0.000
 RMSDP=1.58D-07 MaxDP=1.99D-05 DE=-6.61D-10 OVMax= 7.99D-06

 Cycle  16  Pass 1  IDiag  1:
 RMSU=  5.82D-08    CP:  9.64D-01  7.31D-01  3.79D-01 -2.57D-02  3.47D-01
                    CP:  1.51D+00  1.22D+00  1.13D+00  1.19D+00  9.72D-01
                    CP:  9.33D-01  9.07D-01  9.19D-01  9.11D-01  7.19D-01
 E= -1401.18932874516     Delta-E=       -0.000000000211 Rises=F Damp=F
 DIIS: error= 9.63D-08 at cycle  16 NSaved=  16.
 NSaved=16 IEnMin=16 EnMin= -1401.18932874516     IErMin=16 ErrMin= 9.63D-08
 ErrMax= 9.63D-08  0.00D+00 EMaxC= 1.00D-01 BMatC= 2.40D-11 BMatP= 1.17D-09
 IDIUse=1 WtCom= 1.00D+00 WtEn= 0.00D+00
 Coeff-Com:  0.417D-05-0.502D-05 0.985D-06-0.191D-07 0.314D-05-0.135D-04
 Coeff-Com: -0.819D-05 0.975D-04 0.396D-03 0.475D-03-0.308D-02-0.610D-02
 Coeff-Com: -0.127D-01 0.343D-01 0.108D+00 0.879D+00
 Coeff:      0.417D-05-0.502D-05 0.985D-06-0.191D-07 0.314D-05-0.135D-04
 Coeff:     -0.819D-05 0.975D-04 0.396D-03 0.475D-03-0.308D-02-0.610D-02
 Coeff:     -0.127D-01 0.343D-01 0.108D+00 0.879D+00
 Gap=     0.020 Goal=   None    Shift=    0.000
 Gap=     0.248 Goal=   None    Shift=    0.000
 RMSDP=3.69D-08 MaxDP=3.32D-06 DE=-2.11D-10 OVMax= 1.93D-06

 Cycle  17  Pass 1  IDiag  1:
 RMSU=  1.47D-08    CP:  9.64D-01  7.31D-01  3.79D-01 -2.57D-02  3.47D-01
                    CP:  1.51D+00  1.22D+00  1.13D+00  1.19D+00  9.72D-01
                    CP:  9.33D-01  9.06D-01  9.18D-01  9.13D-01  7.42D-01
                    CP:  9.34D-01
 E= -1401.18932874515     Delta-E=        0.000000000004 Rises=F Damp=F
 DIIS: error= 2.75D-08 at cycle  17 NSaved=  17.
 NSaved=17 IEnMin=16 EnMin= -1401.18932874516     IErMin=17 ErrMin= 2.75D-08
 ErrMax= 2.75D-08  0.00D+00 EMaxC= 1.00D-01 BMatC= 3.59D-12 BMatP= 2.40D-11
 IDIUse=1 WtCom= 1.00D+00 WtEn= 0.00D+00
 Coeff-Com:  0.776D-06-0.914D-06 0.169D-06-0.119D-07 0.510D-06-0.360D-05
 Coeff-Com:  0.300D-05 0.548D-04 0.196D-03 0.341D-03-0.779D-03-0.241D-02
 Coeff-Com: -0.820D-02-0.412D-02 0.172D-01 0.404D+00 0.594D+00
 Coeff:      0.776D-06-0.914D-06 0.169D-06-0.119D-07 0.510D-06-0.360D-05
 Coeff:      0.300D-05 0.548D-04 0.196D-03 0.341D-03-0.779D-03-0.241D-02
 Coeff:     -0.820D-02-0.412D-02 0.172D-01 0.404D+00 0.594D+00
 Gap=     0.020 Goal=   None    Shift=    0.000
 Gap=     0.248 Goal=   None    Shift=    0.000
 RMSDP=2.11D-08 MaxDP=3.06D-06 DE= 4.09D-12 OVMax= 1.20D-06

 Cycle  18  Pass 1  IDiag  1:
 RMSU=  6.12D-09    CP:  9.64D-01  7.31D-01  3.79D-01 -2.57D-02  3.47D-01
                    CP:  1.51D+00  1.22D+00  1.13D+00  1.19D+00  9.72D-01
                    CP:  9.33D-01  9.06D-01  9.18D-01  9.10D-01  7.37D-01
                    CP:  9.48D-01  7.14D-01
 E= -1401.18932874517     Delta-E=       -0.000000000020 Rises=F Damp=F
 DIIS: error= 1.53D-08 at cycle  18 NSaved=  18.
 NSaved=18 IEnMin=18 EnMin= -1401.18932874517     IErMin=18 ErrMin= 1.53D-08
 ErrMax= 1.53D-08  0.00D+00 EMaxC= 1.00D-01 BMatC= 6.30D-13 BMatP= 3.59D-12
 IDIUse=1 WtCom= 1.00D+00 WtEn= 0.00D+00
 Coeff-Com:  0.921D-08 0.486D-09-0.139D-07-0.437D-08-0.919D-07-0.564D-06
 Coeff-Com:  0.273D-05 0.196D-04 0.606D-04 0.132D-03-0.855D-04-0.652D-03
 Coeff-Com: -0.313D-02-0.652D-02-0.318D-02 0.125D+00 0.361D+00 0.528D+00
 Coeff:      0.921D-08 0.486D-09-0.139D-07-0.437D-08-0.919D-07-0.564D-06
 Coeff:      0.273D-05 0.196D-04 0.606D-04 0.132D-03-0.855D-04-0.652D-03
 Coeff:     -0.313D-02-0.652D-02-0.318D-02 0.125D+00 0.361D+00 0.528D+00
 Gap=     0.020 Goal=   None    Shift=    0.000
 Gap=     0.248 Goal=   None    Shift=    0.000
 RMSDP=2.45D-09 MaxDP=1.75D-07 DE=-2.05D-11 OVMax= 1.26D-07

 SCF Done:  E(UPBE-PBE) =  -1401.18932875     A.U. after   18 cycles
            NFock= 18  Conv=0.24D-08     -V/T= 2.0010
 <Sx>= 0.0000 <Sy>= 0.0000 <Sz>= 1.5000 <S**2>= 3.7548 S= 1.5012
 <L.S>=  0.00000000000    
 KE= 1.399803928639D+03 PE=-4.726911985100D+03 EE= 1.208208586096D+03
 Annihilation of the first spin contaminant:
 S**2 before annihilation     3.7548,   after     3.7500
 Leave Link  502 at Thu May 30 09:22:45 2024, MaxMem= 26843545600 cpu:            7489.6 elap:              62.2
 (Enter /gpfs/fs1/soft/improv/software/custom-built/gaussian/g16/l508.exe)
 QCSCF skips out because SCF is already converged.
 Leave Link  508 at Thu May 30 09:22:45 2024, MaxMem= 26843545600 cpu:               0.2 elap:               0.0
 (Enter /gpfs/fs1/soft/improv/software/custom-built/gaussian/g16/l801.exe)
 DoSCS=F DFT=T ScalE2(SS,OS)=  1.000000  1.000000
 Range of M.O.s used for correlation:     1   317
 NBasis=   317 NAE=    42 NBE=    39 NFC=     0 NFV=     0
 NROrb=    317 NOA=    42 NOB=    39 NVA=   275 NVB=   278

 **** Warning!!: The largest alpha MO coefficient is  0.64834784D+02


 **** Warning!!: The smallest alpha delta epsilon is  0.19767010D-01


 **** Warning!!: The largest beta MO coefficient is  0.64823212D+02

 Leave Link  801 at Thu May 30 09:22:45 2024, MaxMem= 26843545600 cpu:               0.4 elap:               0.0
 (Enter /gpfs/fs1/soft/improv/software/custom-built/gaussian/g16/l1101.exe)
 Using compressed storage, NAtomX=    19.
 Will process     20 centers per pass.
 R6Disp: Adding Grimme-D3 dispersion energy 1st derivatives to the gradient.
 Leave Link 1101 at Thu May 30 09:22:46 2024, MaxMem= 26843545600 cpu:              51.2 elap:               0.5
 (Enter /gpfs/fs1/soft/improv/software/custom-built/gaussian/g16/l1102.exe)
 Symmetrizing basis deriv contribution to polar:
 IMax=3 JMax=2 DiffMx= 0.00D+00
 Leave Link 1102 at Thu May 30 09:22:46 2024, MaxMem= 26843545600 cpu:               0.9 elap:               0.0
 (Enter /gpfs/fs1/soft/improv/software/custom-built/gaussian/g16/l1110.exe)
 Forming Gx(P) for the SCF density, NAtomX=    19.
 Integral derivatives from FoFJK, PRISM(SPDF).
 Do as many integral derivatives as possible in FoFJK.
 G2DrvN: MDV=   26843543431.
 G2DrvN: will do    20 centers at a time, making    1 passes.
 Calling FoFCou, ICntrl=  3507 FMM=F I1Cent=   0 AccDes= 0.00D+00.
 FoFJK:  IHMeth= 1 ICntrl=    3507 DoSepK=F KAlg= 0 I1Cent=           0 FoldK=F
 IRaf=         0 NMat=       1 IRICut=       1 DoRegI=T DoRafI=F ISym2E= 0 IDoP0=0 IntGTp=1.
 FoFCou: FMM=F IPFlag=           0 FMFlag=      100000 FMFlg1=           0
         NFxFlg=           0 DoJE=F BraDBF=F KetDBF=F FulRan=T
         wScrn=  0.000000 ICntrl=      3507 IOpCl=  0 I1Cent=           0 NGrid=           0
         NMat0=    1 NMatS0=      1 NMatT0=    0 NMatD0=    1 NMtDS0=    0 NMtDT0=    0
 Symmetry not used in FoFCou.
 End of G2Drv F.D. properties file   721 does not exist.
 End of G2Drv F.D. properties file   722 does not exist.
 End of G2Drv F.D. properties file   788 does not exist.
 Leave Link 1110 at Thu May 30 09:23:00 2024, MaxMem= 26843545600 cpu:            1736.8 elap:              14.0
 (Enter /gpfs/fs1/soft/improv/software/custom-built/gaussian/g16/l1002.exe)
 Minotr:  UHF open shell wavefunction.
          IDoAtm=1111111111111111111
          Direct CPHF calculation.
          Differentiating once with respect to electric field.
                with respect to dipole field.
          Differentiating once with respect to nuclear coordinates.
          Requested convergence is 1.0D-08 RMS, and 1.0D-07 maximum.
          Secondary convergence is 1.0D-12 RMS, and 1.0D-12 maximum.
          NewPWx=T KeepS1=F KeepF1=F KeepIn=T MapXYZ=F SortEE=F KeepMc=T.
         6034 words used for storage of precomputed grid.
 Two-electron integrals replicated using symmetry.
          MDV=   26843545600 using IRadAn=       1.
          Solving linear equations simultaneously, MaxMat=     384.
 FoF2E skips out because all densities are zero.
 CalDSu exits because no D1Ps are significant.
 FoFJK:  IHMeth= 1 ICntrl=     500 DoSepK=F KAlg= 0 I1Cent=           0 FoldK=F
 IRaf= 990000000 NMat=      57 IRICut=       1 DoRegI=T DoRafI=F ISym2E= 2 IDoP0=3 IntGTp=2.
 FoFCou: FMM=F IPFlag=           0 FMFlag=      100000 FMFlg1=           0
         NFxFlg=           0 DoJE=F BraDBF=F KetDBF=F FulRan=T
         wScrn=  0.000000 ICntrl=       500 IOpCl=  0 I1Cent=           0 NGrid=           0
         NMat0=   57 NMatS0=     57 NMatT0=    0 NMatD0=   57 NMtDS0=    0 NMtDT0=    0
 Integrals replicated using symmetry in FoFCou.
          There are    60 degrees of freedom in the 1st order CPHF.  IDoFFX=6 NUNeed=     3.
     57 vectors produced by pass  0 Test12= 3.73D-14 1.67D-09 XBig12= 1.55D+03 2.55D+01.
 AX will form    57 AO Fock derivatives at one time.
     57 vectors produced by pass  1 Test12= 3.73D-14 1.67D-09 XBig12= 9.26D+02 7.13D+00.
     57 vectors produced by pass  2 Test12= 3.73D-14 1.67D-09 XBig12= 1.78D+01 6.48D-01.
     57 vectors produced by pass  3 Test12= 3.73D-14 1.67D-09 XBig12= 9.13D-02 3.37D-02.
     57 vectors produced by pass  4 Test12= 3.73D-14 1.67D-09 XBig12= 4.24D-04 1.45D-03.
     57 vectors produced by pass  5 Test12= 3.73D-14 1.67D-09 XBig12= 1.42D-06 1.25D-04.
     24 vectors produced by pass  6 Test12= 3.73D-14 1.67D-09 XBig12= 2.18D-09 4.98D-06.
      3 vectors produced by pass  7 Test12= 3.73D-14 1.67D-09 XBig12= 3.43D-12 1.28D-07.
      1 vectors produced by pass  8 Test12= 3.73D-14 1.67D-09 XBig12= 6.36D-15 5.55D-09.
 InvSVY:  IOpt=1 It=  1 EMax= 2.84D-14
 Solved reduced A of dimension   370 with    60 vectors.
 FullF1:  Do perturbations      1 to       3.
 Isotropic polarizability for W=    0.000000       84.06 Bohr**3.
 End of Minotr F.D. properties file   721 does not exist.
 End of Minotr F.D. properties file   722 does not exist.
 End of Minotr F.D. properties file   788 does not exist.
 Leave Link 1002 at Thu May 30 09:23:48 2024, MaxMem= 26843545600 cpu:            5643.7 elap:              47.1
 (Enter /gpfs/fs1/soft/improv/software/custom-built/gaussian/g16/l601.exe)
 Copying SCF densities to generalized density rwf, IOpCl= 1 IROHF=0.

 **********************************************************************

            Population analysis using the SCF Density.

 **********************************************************************

 Orbital symmetries:
 Alpha Orbitals:
       Occupied  (A) (A) (A) (A) (A) (A) (A) (A) (A) (A) (A) (A)
                 (A) (A) (A) (A) (A) (A) (A) (A) (A) (A) (A) (A)
                 (A) (A) (A) (A) (A) (A) (A) (A) (A) (A) (A) (A)
                 (A) (A) (A) (A) (A) (A)
       Virtual   (A) (A) (A) (A) (A) (A) (A) (A) (A) (A) (A) (A)
                 (A) (A) (A) (A) (A) (A) (A) (A) (A) (A) (A) (A)
                 (A) (A) (A) (A) (A) (A) (A) (A) (A) (A) (A) (A)
                 (A) (A) (A) (A) (A) (A) (A) (A) (A) (A) (A) (A)
                 (A) (A) (A) (A) (A) (A) (A) (A) (A) (A) (A) (A)
                 (A) (A) (A) (A) (A) (A) (A) (A) (A) (A) (A) (A)
                 (A) (A) (A) (A) (A) (A) (A) (A) (A) (A) (A) (A)
                 (A) (A) (A) (A) (A) (A) (A) (A) (A) (A) (A) (A)
                 (A) (A) (A) (A) (A) (A) (A) (A) (A) (A) (A) (A)
                 (A) (A) (A) (A) (A) (A) (A) (A) (A) (A) (A) (A)
                 (A) (A) (A) (A) (A) (A) (A) (A) (A) (A) (A) (A)
                 (A) (A) (A) (A) (A) (A) (A) (A) (A) (A) (A) (A)
                 (A) (A) (A) (A) (A) (A) (A) (A) (A) (A) (A) (A)
                 (A) (A) (A) (A) (A) (A) (A) (A) (A) (A) (A) (A)
                 (A) (A) (A) (A) (A) (A) (A) (A) (A) (A) (A) (A)
                 (A) (A) (A) (A) (A) (A) (A) (A) (A) (A) (A) (A)
                 (A) (A) (A) (A) (A) (A) (A) (A) (A) (A) (A) (A)
                 (A) (A) (A) (A) (A) (A) (A) (A) (A) (A) (A) (A)
                 (A) (A) (A) (A) (A) (A) (A) (A) (A) (A) (A) (A)
                 (A) (A) (A) (A) (A) (A) (A) (A) (A) (A) (A) (A)
                 (A) (A) (A) (A) (A) (A) (A) (A) (A) (A) (A) (A)
                 (A) (A) (A) (A) (A) (A) (A) (A) (A) (A) (A) (A)
                 (A) (A) (A) (A) (A) (A) (A) (A) (A) (A) (A)
 Beta  Orbitals:
       Occupied  (A) (A) (A) (A) (A) (A) (A) (A) (A) (A) (A) (A)
                 (A) (A) (A) (A) (A) (A) (A) (A) (A) (A) (A) (A)
                 (A) (A) (A) (A) (A) (A) (A) (A) (A) (A) (A) (A)
                 (A) (A) (A)
       Virtual   (A) (A) (A) (A) (A) (A) (A) (A) (A) (A) (A) (A)
                 (A) (A) (A) (A) (A) (A) (A) (A) (A) (A) (A) (A)
                 (A) (A) (A) (A) (A) (A) (A) (A) (A) (A) (A) (A)
                 (A) (A) (A) (A) (A) (A) (A) (A) (A) (A) (A) (A)
                 (A) (A) (A) (A) (A) (A) (A) (A) (A) (A) (A) (A)
                 (A) (A) (A) (A) (A) (A) (A) (A) (A) (A) (A) (A)
                 (A) (A) (A) (A) (A) (A) (A) (A) (A) (A) (A) (A)
                 (A) (A) (A) (A) (A) (A) (A) (A) (A) (A) (A) (A)
                 (A) (A) (A) (A) (A) (A) (A) (A) (A) (A) (A) (A)
                 (A) (A) (A) (A) (A) (A) (A) (A) (A) (A) (A) (A)
                 (A) (A) (A) (A) (A) (A) (A) (A) (A) (A) (A) (A)
                 (A) (A) (A) (A) (A) (A) (A) (A) (A) (A) (A) (A)
                 (A) (A) (A) (A) (A) (A) (A) (A) (A) (A) (A) (A)
                 (A) (A) (A) (A) (A) (A) (A) (A) (A) (A) (A) (A)
                 (A) (A) (A) (A) (A) (A) (A) (A) (A) (A) (A) (A)
                 (A) (A) (A) (A) (A) (A) (A) (A) (A) (A) (A) (A)
                 (A) (A) (A) (A) (A) (A) (A) (A) (A) (A) (A) (A)
                 (A) (A) (A) (A) (A) (A) (A) (A) (A) (A) (A) (A)
                 (A) (A) (A) (A) (A) (A) (A) (A) (A) (A) (A) (A)
                 (A) (A) (A) (A) (A) (A) (A) (A) (A) (A) (A) (A)
                 (A) (A) (A) (A) (A) (A) (A) (A) (A) (A) (A) (A)
                 (A) (A) (A) (A) (A) (A) (A) (A) (A) (A) (A) (A)
                 (A) (A) (A) (A) (A) (A) (A) (A) (A) (A) (A) (A)
                 (A) (A)
 The electronic state is 4-A.
 Alpha  occ. eigenvalues -- -195.86433 -22.05260 -19.18079 -19.18065 -19.17843
 Alpha  occ. eigenvalues --  -19.17500 -19.15923 -19.15158 -18.62801 -18.62717
 Alpha  occ. eigenvalues --  -18.62620  -2.76817  -1.85617  -1.85401  -1.85347
 Alpha  occ. eigenvalues --   -1.36460  -1.34277  -1.34201  -1.33475  -1.32327
 Alpha  occ. eigenvalues --   -1.31584  -0.92997  -0.91672  -0.90072  -0.89469
 Alpha  occ. eigenvalues --   -0.88210  -0.86923  -0.80271  -0.79175  -0.78689
 Alpha  occ. eigenvalues --   -0.76493  -0.75676  -0.73366  -0.72149  -0.69407
 Alpha  occ. eigenvalues --   -0.68806  -0.67663  -0.66027  -0.64703  -0.44041
 Alpha  occ. eigenvalues --   -0.43311  -0.41929
 Alpha virt. eigenvalues --   -0.39952  -0.35204  -0.33030  -0.31658  -0.29259
 Alpha virt. eigenvalues --   -0.29044  -0.26554  -0.25993  -0.24656  -0.23791
 Alpha virt. eigenvalues --   -0.22473  -0.21534  -0.21193  -0.19867  -0.19067
 Alpha virt. eigenvalues --   -0.18300  -0.17573  -0.16855  -0.15484  -0.14446
 Alpha virt. eigenvalues --   -0.14355  -0.13606  -0.12188  -0.11885  -0.10155
 Alpha virt. eigenvalues --   -0.09958  -0.09604  -0.08806  -0.07629  -0.05832
 Alpha virt. eigenvalues --   -0.05474  -0.04632  -0.04240  -0.03311  -0.03147
 Alpha virt. eigenvalues --   -0.02787  -0.00920  -0.00291   0.01410   0.01904
 Alpha virt. eigenvalues --    0.02650   0.03240   0.05301   0.06027   0.06525
 Alpha virt. eigenvalues --    0.07313   0.08136   0.10395   0.12727   0.15502
 Alpha virt. eigenvalues --    0.16367   0.18712   0.19120   0.21808   0.23443
 Alpha virt. eigenvalues --    0.37091   0.37320   0.38690   0.41433   0.42297
 Alpha virt. eigenvalues --    0.42757   0.43172   0.44150   0.46237   0.47407
 Alpha virt. eigenvalues --    0.48024   0.48466   0.51147   0.52111   0.52323
 Alpha virt. eigenvalues --    0.53313   0.53863   0.55124   0.56237   0.57629
 Alpha virt. eigenvalues --    0.60520   0.63108   0.64469   0.65349   0.66588
 Alpha virt. eigenvalues --    0.66894   0.68336   0.68799   0.70190   0.71332
 Alpha virt. eigenvalues --    0.71964   0.73853   0.75960   0.76809   0.81747
 Alpha virt. eigenvalues --    0.81959   0.82331   0.84924   0.86994   0.89312
 Alpha virt. eigenvalues --    0.90826   0.92049   0.94299   0.96021   0.96704
 Alpha virt. eigenvalues --    0.97540   1.00537   1.01487   1.02327   1.08123
 Alpha virt. eigenvalues --    1.08411   1.09883   1.17252   1.18741   1.21796
 Alpha virt. eigenvalues --    1.29500   1.29648   1.31240   1.32646   1.35912
 Alpha virt. eigenvalues --    1.36561   1.39762   1.42620   1.44685   1.47853
 Alpha virt. eigenvalues --    1.50802   1.53087   1.55178   1.60926   1.64163
 Alpha virt. eigenvalues --    1.81030   1.82142   1.83248   1.84653   1.87156
 Alpha virt. eigenvalues --    1.87409   1.88665   1.90356   1.94208   1.97179
 Alpha virt. eigenvalues --    2.00201   2.02507   2.06044   2.10855   2.11701
 Alpha virt. eigenvalues --    2.15323   2.17278   2.21687   2.27262   2.31892
 Alpha virt. eigenvalues --    2.33322   2.34323   2.40123   2.41576   2.44850
 Alpha virt. eigenvalues --    2.44887   2.46964   2.48913   2.51044   2.52919
 Alpha virt. eigenvalues --    2.54365   2.57089   2.57438   2.59254   2.61844
 Alpha virt. eigenvalues --    2.62502   2.63665   2.67524   2.71764   2.72979
 Alpha virt. eigenvalues --    2.73990   2.74474   2.78513   2.80661   2.81460
 Alpha virt. eigenvalues --    2.93012   2.99338   3.01157   3.02773   3.05854
 Alpha virt. eigenvalues --    3.06621   3.09275   3.10132   3.11147   3.17309
 Alpha virt. eigenvalues --    3.32631   3.38863   3.60389   3.63311   3.64726
 Alpha virt. eigenvalues --    3.70655   3.71682   3.74539   3.75682   3.77744
 Alpha virt. eigenvalues --    3.78220   3.78695   3.82211   3.84252   3.89117
 Alpha virt. eigenvalues --    3.91199   3.96806   3.97215   3.99875   4.01944
 Alpha virt. eigenvalues --    4.06583   4.09214   4.13008   4.15735   4.19418
 Alpha virt. eigenvalues --    4.19910   4.24625   4.28221   4.29316   4.30727
 Alpha virt. eigenvalues --    4.33228   4.34092   4.43262   4.45346   4.46850
 Alpha virt. eigenvalues --    4.49410   4.50501   4.51544   4.61075   4.66745
 Alpha virt. eigenvalues --    4.71042   4.76768   4.78482   4.82287   4.83999
 Alpha virt. eigenvalues --    4.89356   4.94785   4.96396   4.98685   4.99105
 Alpha virt. eigenvalues --    4.99787   5.00595   5.02918   5.06155   5.07281
 Alpha virt. eigenvalues --    5.12636   5.15470   5.15833   5.18275   5.19640
 Alpha virt. eigenvalues --    5.22384   5.25145   5.28016   5.31287   5.33764
 Alpha virt. eigenvalues --    5.35349   5.36512   5.37112   5.38925   5.39744
 Alpha virt. eigenvalues --    5.42874   5.42954   5.43256   5.45867   5.48561
 Alpha virt. eigenvalues --    5.49057   5.49594   5.50839   5.51360   5.84288
 Alpha virt. eigenvalues --    5.86346   6.33469   6.98248   7.01218   7.02259
 Alpha virt. eigenvalues --    7.10933   7.16101   7.24233  13.23921  13.25201
 Alpha virt. eigenvalues --   13.26231  13.70357  13.75639  13.83324  36.50544
  Beta  occ. eigenvalues -- -195.86428 -22.02537 -19.18095 -19.18079 -19.17858
  Beta  occ. eigenvalues --  -19.17514 -19.15914 -19.15150 -18.60757 -18.60661
  Beta  occ. eigenvalues --  -18.60465  -2.68401  -1.77515  -1.77393  -1.76983
  Beta  occ. eigenvalues --   -1.36212  -1.34101  -1.34020  -1.33216  -1.32064
  Beta  occ. eigenvalues --   -1.31339  -0.92505  -0.91248  -0.89762  -0.89175
  Beta  occ. eigenvalues --   -0.87969  -0.86723  -0.79584  -0.78569  -0.78094
  Beta  occ. eigenvalues --   -0.75943  -0.75302  -0.73002  -0.71598  -0.69018
  Beta  occ. eigenvalues --   -0.68464  -0.67289  -0.65647  -0.64465
  Beta virt. eigenvalues --   -0.39648  -0.35407  -0.35250  -0.33608  -0.33538
  Beta virt. eigenvalues --   -0.31719  -0.31086  -0.28012  -0.27723  -0.25528
  Beta virt. eigenvalues --   -0.25122  -0.22935  -0.21338  -0.20905  -0.20714
  Beta virt. eigenvalues --   -0.20051  -0.18946  -0.18244  -0.17460  -0.17066
  Beta virt. eigenvalues --   -0.16028  -0.14694  -0.13859  -0.13784  -0.12846
  Beta virt. eigenvalues --   -0.11703  -0.11451  -0.09408  -0.09238  -0.09143
  Beta virt. eigenvalues --   -0.08130  -0.06989  -0.05290  -0.04533  -0.03880
  Beta virt. eigenvalues --   -0.03308  -0.02528  -0.02411  -0.02214  -0.00203
  Beta virt. eigenvalues --    0.00437   0.02303   0.02689   0.03385   0.03971
  Beta virt. eigenvalues --    0.06196   0.07018   0.07512   0.08131   0.08906
  Beta virt. eigenvalues --    0.11636   0.13476   0.17674   0.18438   0.19772
  Beta virt. eigenvalues --    0.19840   0.23563   0.25143   0.38106   0.38584
  Beta virt. eigenvalues --    0.39906   0.42885   0.43625   0.44092   0.44306
  Beta virt. eigenvalues --    0.45610   0.46971   0.48069   0.49262   0.49330
  Beta virt. eigenvalues --    0.51785   0.52971   0.53070   0.53858   0.54428
  Beta virt. eigenvalues --    0.55818   0.56996   0.58187   0.60984   0.64094
  Beta virt. eigenvalues --    0.65237   0.65850   0.67068   0.67581   0.68979
  Beta virt. eigenvalues --    0.69259   0.71088   0.72059   0.72657   0.74620
  Beta virt. eigenvalues --    0.76778   0.77694   0.82183   0.82392   0.83684
  Beta virt. eigenvalues --    0.85443   0.87501   0.90084   0.92138   0.92675
  Beta virt. eigenvalues --    0.94780   0.97160   0.98132   0.99850   1.01605
  Beta virt. eigenvalues --    1.02449   1.03352   1.08699   1.10042   1.11621
  Beta virt. eigenvalues --    1.19060   1.20490   1.23850   1.33090   1.33638
  Beta virt. eigenvalues --    1.35007   1.36160   1.39104   1.40266   1.41884
  Beta virt. eigenvalues --    1.45351   1.46236   1.49685   1.53026   1.54824
  Beta virt. eigenvalues --    1.56759   1.63168   1.66078   1.82050   1.83116
  Beta virt. eigenvalues --    1.83973   1.85594   1.87851   1.88479   1.89637
  Beta virt. eigenvalues --    1.91517   1.95254   1.97901   2.00937   2.03573
  Beta virt. eigenvalues --    2.07130   2.11860   2.13117   2.16843   2.18742
  Beta virt. eigenvalues --    2.23101   2.28803   2.34284   2.35304   2.35916
  Beta virt. eigenvalues --    2.41599   2.43147   2.45690   2.46340   2.48219
  Beta virt. eigenvalues --    2.50288   2.52497   2.54656   2.55762   2.58152
  Beta virt. eigenvalues --    2.59492   2.60629   2.62897   2.63882   2.65195
  Beta virt. eigenvalues --    2.69204   2.72896   2.73859   2.75287   2.75590
  Beta virt. eigenvalues --    2.79805   2.81591   2.82361   2.95033   3.03483
  Beta virt. eigenvalues --    3.04270   3.07103   3.10778   3.11108   3.14281
  Beta virt. eigenvalues --    3.15433   3.17169   3.21838   3.37168   3.43041
  Beta virt. eigenvalues --    3.60516   3.63465   3.64884   3.71034   3.71862
  Beta virt. eigenvalues --    3.74780   3.76298   3.78109   3.78688   3.79282
  Beta virt. eigenvalues --    3.83045   3.84722   3.89489   3.91466   3.97509
  Beta virt. eigenvalues --    3.97790   4.00235   4.02492   4.07245   4.10084
  Beta virt. eigenvalues --    4.14485   4.21104   4.22541   4.24854   4.26051
  Beta virt. eigenvalues --    4.31112   4.31594   4.33696   4.34712   4.37332
  Beta virt. eigenvalues --    4.44950   4.46471   4.47742   4.50742   4.51890
  Beta virt. eigenvalues --    4.53258   4.63799   4.69468   4.71501   4.77611
  Beta virt. eigenvalues --    4.79315   4.83009   4.85057   4.91401   4.95059
  Beta virt. eigenvalues --    4.96583   4.98906   4.99378   5.00165   5.01046
  Beta virt. eigenvalues --    5.03779   5.06906   5.08062   5.14174   5.16627
  Beta virt. eigenvalues --    5.16912   5.19540   5.20547   5.23408   5.25963
  Beta virt. eigenvalues --    5.29388   5.32104   5.34396   5.35866   5.37735
  Beta virt. eigenvalues --    5.37917   5.39958   5.40564   5.43420   5.44039
  Beta virt. eigenvalues --    5.44195   5.46795   5.49566   5.49840   5.50364
  Beta virt. eigenvalues --    5.51266   5.51945   5.84607   5.86662   6.35743
  Beta virt. eigenvalues --    6.98779   7.01764   7.02843   7.11251   7.16445
  Beta virt. eigenvalues --    7.24719  13.24275  13.25535  13.26578  13.70560
  Beta virt. eigenvalues --   13.75818  13.83508  36.54047
          Condensed to atoms (all electrons):
               1          2          3          4          5          6
     1  V   23.568927  -0.192720  -0.038394  -0.122382  -0.042825  -0.244859
     2  O   -0.192720   8.334277   0.330916  -0.097861  -0.003660  -0.003226
     3  H   -0.038394   0.330916   0.296701  -0.000757   0.000033  -0.000810
     4  O   -0.122382  -0.097861  -0.000757   8.526053   0.326141  -0.161479
     5  H   -0.042825  -0.003660   0.000033   0.326141   0.329529   0.001471
     6  O   -0.244859  -0.003226  -0.000810  -0.161479   0.001471   8.516842
     7  H    0.007677  -0.012597   0.000074   0.002923   0.000308   0.263810
     8  O   -0.216000   0.048127  -0.000274  -0.085671   0.001039  -0.105645
     9  H   -0.011441  -0.001236  -0.000067  -0.007034  -0.000364   0.001029
    10  O   -0.144686  -0.069073   0.004406   0.062206  -0.001123  -0.085657
    11  H   -0.014688   0.000676  -0.000116   0.000163   0.000028  -0.007501
    12  O   -0.269887   0.061540   0.003009  -0.096376  -0.005201   0.065019
    13  H   -0.043340  -0.003226  -0.000035   0.003827  -0.000257   0.000524
    14  H   -0.022543  -0.002088  -0.000110   0.001718  -0.000004  -0.001009
    15  H   -0.027881   0.002441  -0.000211   0.321919  -0.027883  -0.009595
    16  H   -0.044136   0.337360  -0.019442  -0.000120  -0.000150  -0.004627
    17  H   -0.043045  -0.005921  -0.000102  -0.000969  -0.000049  -0.000789
    18  H   -0.006054   0.003396   0.000108   0.004366   0.003488   0.276372
    19  H    0.014282  -0.003361   0.000039   0.004901   0.004621  -0.016061
               7          8          9         10         11         12
     1  V    0.007677  -0.216000  -0.011441  -0.144686  -0.014688  -0.269887
     2  O   -0.012597   0.048127  -0.001236  -0.069073   0.000676   0.061540
     3  H    0.000074  -0.000274  -0.000067   0.004406  -0.000116   0.003009
     4  O    0.002923  -0.085671  -0.007034   0.062206   0.000163  -0.096376
     5  H    0.000308   0.001039  -0.000364  -0.001123   0.000028  -0.005201
     6  O    0.263810  -0.105645   0.001029  -0.085657  -0.007501   0.065019
     7  H    0.371890  -0.015148   0.001172   0.004311   0.000252  -0.004037
     8  O   -0.015148   8.432618   0.293135  -0.090209  -0.007431   0.040308
     9  H    0.001172   0.293135   0.335800  -0.002212   0.004192  -0.003542
    10  O    0.004311  -0.090209  -0.002212   8.493961   0.309524  -0.142976
    11  H    0.000252  -0.007431   0.004192   0.309524   0.337786  -0.009955
    12  O   -0.004037   0.040308  -0.003542  -0.142976  -0.009955   8.412669
    13  H    0.000034  -0.003889   0.000072   0.000484  -0.000305   0.343637
    14  H   -0.000076  -0.006761   0.002323   0.001293   0.005631   0.309053
    15  H    0.000462  -0.004602   0.000065  -0.000133   0.000023  -0.002071
    16  H   -0.000513   0.000217   0.000021   0.003000   0.000036  -0.003638
    17  H    0.005029   0.001690   0.001479   0.329373  -0.026913  -0.003447
    18  H   -0.015949   0.002432   0.000200  -0.007132   0.000083  -0.002863
    19  H    0.021807   0.255233  -0.015255   0.002012   0.000595  -0.014527
              13         14         15         16         17         18
     1  V   -0.043340  -0.022543  -0.027881  -0.044136  -0.043045  -0.006054
     2  O   -0.003226  -0.002088   0.002441   0.337360  -0.005921   0.003396
     3  H   -0.000035  -0.000110  -0.000211  -0.019442  -0.000102   0.000108
     4  O    0.003827   0.001718   0.321919  -0.000120  -0.000969   0.004366
     5  H   -0.000257  -0.000004  -0.027883  -0.000150  -0.000049   0.003488
     6  O    0.000524  -0.001009  -0.009595  -0.004627  -0.000789   0.276372
     7  H    0.000034  -0.000076   0.000462  -0.000513   0.005029  -0.015949
     8  O   -0.003889  -0.006761  -0.004602   0.000217   0.001690   0.002432
     9  H    0.000072   0.002323   0.000065   0.000021   0.001479   0.000200
    10  O    0.000484   0.001293  -0.000133   0.003000   0.329373  -0.007132
    11  H   -0.000305   0.005631   0.000023   0.000036  -0.026913   0.000083
    12  O    0.343637   0.309053  -0.002071  -0.003638  -0.003447  -0.002863
    13  H    0.287314  -0.020856  -0.000064  -0.000061   0.000013  -0.000062
    14  H   -0.020856   0.335083   0.000061  -0.000001  -0.000306   0.000036
    15  H   -0.000064   0.000061   0.318769   0.001584   0.000024   0.003054
    16  H   -0.000061  -0.000001   0.001584   0.315104  -0.000090   0.000420
    17  H    0.000013  -0.000306   0.000024  -0.000090   0.324639  -0.000340
    18  H   -0.000062   0.000036   0.003054   0.000420  -0.000340   0.335604
    19  H    0.000074  -0.000305   0.000235  -0.000096   0.000582   0.002437
              19
     1  V    0.014282
     2  O   -0.003361
     3  H    0.000039
     4  O    0.004901
     5  H    0.004621
     6  O   -0.016061
     7  H    0.021807
     8  O    0.255233
     9  H   -0.015255
    10  O    0.002012
    11  H    0.000595
    12  O   -0.014527
    13  H    0.000074
    14  H   -0.000305
    15  H    0.000235
    16  H   -0.000096
    17  H    0.000582
    18  H    0.002437
    19  H    0.375906
          Atomic-Atomic Spin Densities.
               1          2          3          4          5          6
     1  V    3.883568  -0.138020  -0.020824  -0.091329  -0.022295  -0.231898
     2  O   -0.138020   0.044081   0.007936   0.002973  -0.002371   0.041710
     3  H   -0.020824   0.007936   0.023859   0.000286   0.000064  -0.003366
     4  O   -0.091329   0.002973   0.000286   0.048316   0.009461  -0.018693
     5  H   -0.022295  -0.002371   0.000064   0.009461   0.036496   0.001885
     6  O   -0.231898   0.041710  -0.003366  -0.018693   0.001885   0.216230
     7  H    0.019520  -0.009628   0.000087  -0.002087   0.000538  -0.051353
     8  O   -0.183803   0.000765  -0.000233   0.013384   0.003009  -0.002477
     9  H    0.000930  -0.001151  -0.000055  -0.004074  -0.000447  -0.005745
    10  O   -0.108186   0.012043   0.010697  -0.001899  -0.001009   0.022377
    11  H   -0.000354  -0.001925  -0.000001   0.000099   0.000019  -0.005875
    12  O   -0.210680   0.014642   0.001965   0.018271  -0.005869   0.010479
    13  H   -0.020300   0.000017  -0.000025   0.007878  -0.000275   0.000144
    14  H   -0.023139  -0.000111  -0.000135  -0.003982  -0.000026  -0.000877
    15  H   -0.010337   0.006648  -0.000271   0.000948  -0.005427  -0.002715
    16  H   -0.031464   0.021062  -0.005319   0.000044  -0.000194   0.007172
    17  H   -0.020849  -0.005785  -0.000268  -0.001022  -0.000036   0.002274
    18  H    0.008570  -0.000917   0.000087   0.018922   0.004303  -0.041713
    19  H    0.025733  -0.002780   0.000035   0.001049   0.004467  -0.001749
               7          8          9         10         11         12
     1  V    0.019520  -0.183803   0.000930  -0.108186  -0.000354  -0.210680
     2  O   -0.009628   0.000765  -0.001151   0.012043  -0.001925   0.014642
     3  H    0.000087  -0.000233  -0.000055   0.010697  -0.000001   0.001965
     4  O   -0.002087   0.013384  -0.004074  -0.001899   0.000099   0.018271
     5  H    0.000538   0.003009  -0.000447  -0.001009   0.000019  -0.005869
     6  O   -0.051353  -0.002477  -0.005745   0.022377  -0.005875   0.010479
     7  H    0.080250   0.000244   0.001181  -0.000203   0.000157  -0.003495
     8  O    0.000244   0.156199  -0.021880  -0.007445  -0.000666   0.056109
     9  H    0.001181  -0.021880   0.054268   0.013564   0.003777  -0.007494
    10  O   -0.000203  -0.007445   0.013564   0.052592  -0.008296   0.003154
    11  H    0.000157  -0.000666   0.003777  -0.008296   0.049790  -0.004812
    12  O   -0.003495   0.056109  -0.007494   0.003154  -0.004812   0.101873
    13  H    0.000030  -0.003501   0.000033  -0.000025  -0.000318   0.014665
    14  H   -0.000059   0.004882   0.002015   0.001402   0.003985   0.006615
    15  H    0.000279  -0.003294   0.000109  -0.000082   0.000029  -0.004578
    16  H   -0.000557  -0.000189   0.000019  -0.003422   0.000067  -0.000780
    17  H    0.004461   0.003614   0.002162   0.009379  -0.005095  -0.002755
    18  H   -0.000430  -0.003406   0.000183  -0.003554   0.000119  -0.002877
    19  H    0.019537  -0.058252  -0.000448  -0.002588   0.000422  -0.012539
              13         14         15         16         17         18
     1  V   -0.020300  -0.023139  -0.010337  -0.031464  -0.020849   0.008570
     2  O    0.000017  -0.000111   0.006648   0.021062  -0.005785  -0.000917
     3  H   -0.000025  -0.000135  -0.000271  -0.005319  -0.000268   0.000087
     4  O    0.007878  -0.003982   0.000948   0.000044  -0.001022   0.018922
     5  H   -0.000275  -0.000026  -0.005427  -0.000194  -0.000036   0.004303
     6  O    0.000144  -0.000877  -0.002715   0.007172   0.002274  -0.041713
     7  H    0.000030  -0.000059   0.000279  -0.000557   0.004461  -0.000430
     8  O   -0.003501   0.004882  -0.003294  -0.000189   0.003614  -0.003406
     9  H    0.000033   0.002015   0.000109   0.000019   0.002162   0.000183
    10  O   -0.000025   0.001402  -0.000082  -0.003422   0.009379  -0.003554
    11  H   -0.000318   0.003985   0.000029   0.000067  -0.005095   0.000119
    12  O    0.014665   0.006615  -0.004578  -0.000780  -0.002755  -0.002877
    13  H    0.017574  -0.006147  -0.000009  -0.000082   0.000057  -0.000048
    14  H   -0.006147   0.025438   0.000091   0.000047  -0.000327   0.000035
    15  H   -0.000009   0.000091   0.036338   0.001190   0.000015   0.002887
    16  H   -0.000082   0.000047   0.001190   0.017088  -0.000105   0.000526
    17  H    0.000057  -0.000327   0.000015  -0.000105   0.030400  -0.000372
    18  H   -0.000048   0.000035   0.002887   0.000526  -0.000372   0.061243
    19  H    0.000087  -0.000323   0.000139  -0.000072   0.000779   0.002403
              19
     1  V    0.025733
     2  O   -0.002780
     3  H    0.000035
     4  O    0.001049
     5  H    0.004467
     6  O   -0.001749
     7  H    0.019537
     8  O   -0.058252
     9  H   -0.000448
    10  O   -0.002588
    11  H    0.000422
    12  O   -0.012539
    13  H    0.000087
    14  H   -0.000323
    15  H    0.000139
    16  H   -0.000072
    17  H    0.000779
    18  H    0.002403
    19  H    0.090294
 Mulliken charges and spin densities:
               1          2
     1  V    0.893996   2.824841
     2  O   -0.723761  -0.010810
     3  H    0.425031   0.014519
     4  O   -0.681567  -0.001457
     5  H    0.414857   0.022292
     6  O   -0.483807  -0.064191
     7  H    0.368570   0.058472
     8  O   -0.539168  -0.046938
     9  H    0.401665   0.036947
    10  O   -0.667366  -0.011502
    11  H    0.407921   0.031124
    12  O   -0.676715  -0.028105
    13  H    0.436115   0.009752
    14  H    0.398863   0.009383
    15  H    0.423806   0.021960
    16  H    0.415132   0.005032
    17  H    0.419143   0.016526
    18  H    0.400405   0.045963
    19  H    0.366879   0.066194
 Sum of Mulliken charges =   2.00000   3.00000
 Mulliken charges and spin densities with hydrogens summed into heavy atoms:
               1          2
     1  V    0.893996   2.824841
     2  O    0.116403   0.008740
     4  O    0.157096   0.042795
     6  O    0.285168   0.040243
     8  O    0.229377   0.056203
    10  O    0.159698   0.036148
    12  O    0.158263  -0.008970
 APT charges:
               1
     1  V    0.763328
     2  O   -0.501261
     3  H    0.327398
     4  O   -0.162789
     5  H    0.201520
     6  O    0.081714
     7  H    0.055130
     8  O    0.084274
     9  H    0.097670
    10  O   -0.123221
    11  H    0.166274
    12  O   -0.490945
    13  H    0.341913
    14  H    0.284781
    15  H    0.228107
    16  H    0.313148
    17  H    0.185714
    18  H    0.096455
    19  H    0.050789
 Sum of APT charges =   2.00000
 APT charges with hydrogens summed into heavy atoms:
               1
     1  V    0.763328
     2  O    0.139285
     4  O    0.266838
     6  O    0.233298
     8  O    0.232733
    10  O    0.228767
    12  O    0.135749
 Electronic spatial extent (au):  <R**2>=            862.9886
 Charge=              2.0000 electrons
 Dipole moment (field-independent basis, Debye):
    X=              1.3583    Y=              2.4322    Z=             -0.6383  Tot=              2.8580
 Quadrupole moment (field-independent basis, Debye-Ang):
   XX=            -24.2716   YY=            -27.4851   ZZ=            -34.6376
   XY=             -4.6263   XZ=             -1.3222   YZ=             -0.2184
 Traceless Quadrupole moment (field-independent basis, Debye-Ang):
   XX=              4.5265   YY=              1.3131   ZZ=             -5.8395
   XY=             -4.6263   XZ=             -1.3222   YZ=             -0.2184
 Octapole moment (field-independent basis, Debye-Ang**2):
  XXX=             10.8903  YYY=              8.4571  ZZZ=              5.5897  XYY=              1.8454
  XXY=              5.5709  XXZ=              3.8822  XZZ=             -8.3111  YZZ=             -4.3194
  YYZ=            -11.9916  XYZ=             -2.4166
 Hexadecapole moment (field-independent basis, Debye-Ang**3):
 XXXX=           -241.0719 YYYY=           -247.8370 ZZZZ=           -249.2326 XXXY=            -21.4443
 XXXZ=              4.0795 YYYX=            -13.3962 YYYZ=             10.7743 ZZZX=            -14.4270
 ZZZY=            -11.0565 XXYY=            -71.3251 XXZZ=            -75.1249 YYZZ=            -68.5762
 XXYZ=              4.0735 YYXZ=              2.3940 ZZXY=              1.1130
 N-N= 7.177101416204D+02 E-N=-4.726911986489D+03  KE= 1.399803928639D+03
  Exact polarizability:      96.349      -1.188      92.980      -1.686      -7.067      62.861
 Approx polarizability:     183.833      34.676     210.138     -14.185     -27.715     103.720
                          Isotropic Fermi Contact Couplings
        Atom                 a.u.       MegaHertz       Gauss      10(-4) cm-1
     1  V(51)             -0.20381     -80.01514     -28.55139     -26.69018
     2  O(17)             -0.02182       4.40821       1.57296       1.47042
     3  H(1)               0.00800      11.92040       4.25350       3.97622
     4  O(17)              0.03187      -6.43974      -2.29786      -2.14807
     5  H(1)               0.00874      13.02429       4.64739       4.34443
     6  O(17)              0.10555     -21.32843      -7.61051      -7.11440
     7  H(1)               0.01312      19.54318       6.97349       6.51890
     8  O(17)              0.09601     -19.39982      -6.92234      -6.47108
     9  H(1)               0.01193      17.77906       6.34401       5.93046
    10  O(17)              0.02992      -6.04606      -2.15738      -2.01675
    11  H(1)               0.01162      17.31163       6.17722       5.77454
    12  O(17)             -0.02901       5.86226       2.09180       1.95544
    13  H(1)               0.00645       9.61586       3.43118       3.20750
    14  H(1)               0.00619       9.22067       3.29016       3.07568
    15  H(1)               0.00992      14.78656       5.27621       4.93226
    16  H(1)               0.00539       8.03681       2.86773       2.68079
    17  H(1)               0.00766      11.41693       4.07384       3.80828
    18  H(1)               0.01392      20.74241       7.40141       6.91892
    19  H(1)               0.01420      21.15170       7.54745       7.05545
 --------------------------------------------------------
       Center         ----  Spin Dipole Couplings  ----
                      3XX-RR        3YY-RR        3ZZ-RR
 --------------------------------------------------------
     1   Atom        0.015619      0.076035     -0.091653
     2   Atom       -0.061451      0.050770      0.010681
     3   Atom       -0.006925      0.013458     -0.006534
     4   Atom       -0.014061     -0.029931      0.043993
     5   Atom        0.031074     -0.028113     -0.002961
     6   Atom        0.003222     -0.055594      0.052373
     7   Atom        0.003182     -0.003457      0.000275
     8   Atom       -0.049016      0.053364     -0.004347
     9   Atom       -0.024088      0.048349     -0.024260
    10   Atom        0.001525     -0.022091      0.020566
    11   Atom        0.034045     -0.012271     -0.021774
    12   Atom        0.019253      0.000811     -0.020064
    13   Atom       -0.014505     -0.017503      0.032008
    14   Atom        0.017348     -0.022996      0.005648
    15   Atom        0.014808      0.002530     -0.017338
    16   Atom       -0.023151      0.027448     -0.004297
    17   Atom       -0.013893      0.000750      0.013143
    18   Atom        0.039238     -0.025564     -0.013673
    19   Atom       -0.011637      0.032162     -0.020525
 --------------------------------------------------------
                        XY            XZ            YZ
 --------------------------------------------------------
     1   Atom       -0.098878      0.044376     -0.072717
     2   Atom        0.025734     -0.018554     -0.044641
     3   Atom        0.029245      0.021175      0.030079
     4   Atom       -0.020902      0.037236     -0.027365
     5   Atom        0.000174      0.035773     -0.001508
     6   Atom        0.007996     -0.082817     -0.025356
     7   Atom        0.027135     -0.028106     -0.019982
     8   Atom        0.022248      0.025569      0.075017
     9   Atom       -0.011254     -0.002379      0.014817
    10   Atom       -0.000554      0.056387     -0.002943
    11   Atom       -0.028711      0.021885     -0.008904
    12   Atom        0.073645      0.003465      0.030643
    13   Atom        0.011049     -0.028536     -0.026082
    14   Atom       -0.016546     -0.040651      0.010979
    15   Atom       -0.035933      0.019111     -0.018385
    16   Atom       -0.013656     -0.009450      0.038972
    17   Atom       -0.018078      0.023540     -0.034675
    18   Atom        0.001640     -0.028721     -0.000073
    19   Atom        0.032047      0.003773      0.010029
 --------------------------------------------------------


 ---------------------------------------------------------------------------------
              Anisotropic Spin Dipole Couplings in Principal Axis System
 ---------------------------------------------------------------------------------

       Atom             a.u.   MegaHertz   Gauss  10(-4) cm-1        Axes

              Baa    -0.1194   -16.785    -5.989    -5.599 -0.0845  0.3096  0.9471
     1 V(51)  Bbb    -0.0567    -7.977    -2.846    -2.661  0.8247  0.5551 -0.1079
              Bcc     0.1761    24.762     8.836     8.260 -0.5591  0.7720 -0.3023
 
              Baa    -0.0683     4.941     1.763     1.648  0.9774 -0.1588  0.1399
     2 O(17)  Bbb    -0.0182     1.314     0.469     0.438 -0.0298  0.5511  0.8339
              Bcc     0.0864    -6.255    -2.232    -2.087  0.2095  0.8192 -0.5339
 
[...]
    15  H   -0.000048   0.000000   0.315003  -0.000048   0.000000  -0.000049
    16  H    0.000000   0.000000  -0.000048   0.315031   0.000000  -0.000048
    17  H    0.000000  -0.000048   0.000000   0.000000   0.315003   0.000000
    18  H    0.000000   0.000000  -0.000049  -0.000048   0.000000   0.315092
    19  H    0.000000   0.000000   0.000000   0.000000  -0.000048  -0.000048
              19
     1  V   -0.008388
     2  O   -0.000359
     3  H    0.000000
     4  O    0.001582
     5  H   -0.000048
     6  O    0.004861
     7  H   -0.000048
     8  O    0.289904
     9  H   -0.016511
    10  O    0.001575
    11  H    0.000000
    12  O    0.000743
    13  H    0.000000
    14  H    0.000000
    15  H    0.000000
    16  H    0.000000
    17  H   -0.000048
    18  H   -0.000048
    19  H    0.315076
          Atomic-Atomic Spin Densities.
               1          2          3          4          5          6
     1  V    3.295533  -0.018319  -0.006402  -0.018221  -0.006396  -0.018252
     2  O   -0.018319  -0.027224   0.004822   0.003525  -0.000317   0.003568
     3  H   -0.006402   0.004822   0.004537  -0.000022   0.000000  -0.000317
     4  O   -0.018221   0.003525  -0.000022  -0.027388   0.004818   0.003591
     5  H   -0.006396  -0.000317   0.000000   0.004818   0.004529  -0.000021
     6  O   -0.018252   0.003568  -0.000317   0.003591  -0.000021  -0.027417
     7  H   -0.006378  -0.000026   0.000000  -0.000320   0.000000   0.004820
     8  O   -0.018319  -0.002494  -0.000013   0.003531   0.001365   0.003602
     9  H   -0.006372  -0.000013  -0.000000  -0.000025  -0.000002  -0.000320
    10  O   -0.018221   0.003531  -0.000018  -0.002502  -0.000013   0.003566
    11  H   -0.006396   0.001365  -0.000002  -0.000013   0.000000  -0.000025
    12  O   -0.018250   0.003604   0.001369   0.003567  -0.000025  -0.002511
    13  H   -0.006378  -0.000026  -0.000002   0.001352  -0.000002  -0.000013
    14  H   -0.006409  -0.000020  -0.000002  -0.000317   0.000000  -0.000013
    15  H   -0.006391   0.001361  -0.000002   0.004816  -0.001920  -0.000024
    16  H   -0.006371   0.004805  -0.001921  -0.000020   0.000000   0.001354
    17  H   -0.006391  -0.000318   0.000000  -0.000013  -0.000000  -0.000020
    18  H   -0.006409  -0.000020   0.000000   0.001373  -0.000002   0.004825
    19  H   -0.006402  -0.000013   0.000000  -0.000018  -0.000002   0.001369
               7          8          9         10         11         12
     1  V   -0.006378  -0.018319  -0.006372  -0.018221  -0.006396  -0.018250
     2  O   -0.000026  -0.002494  -0.000013   0.003531   0.001365   0.003604
     3  H    0.000000  -0.000013  -0.000000  -0.000018  -0.000002   0.001369
     4  O   -0.000320   0.003531  -0.000025  -0.002502  -0.000013   0.003567
     5  H    0.000000   0.001365  -0.000002  -0.000013   0.000000  -0.000025
     6  O    0.004820   0.003602  -0.000320   0.003566  -0.000025  -0.002511
     7  H    0.004516  -0.000026   0.000000   0.001352  -0.000002  -0.000013
     8  O   -0.000026  -0.027225   0.004806   0.003525  -0.000317   0.003570
     9  H    0.000000   0.004806   0.004524  -0.000020   0.000000   0.001354
    10  O    0.001352   0.003525  -0.000020  -0.027387   0.004818   0.003591
    11  H   -0.000002  -0.000317   0.000000   0.004818   0.004529  -0.000021
    12  O   -0.000013   0.003570   0.001354   0.003591  -0.000021  -0.027423
    13  H    0.000000  -0.000025  -0.000002  -0.000320   0.000000   0.004820
    14  H   -0.000000  -0.000020  -0.000002   0.001373  -0.000002   0.004825
    15  H    0.000000  -0.000318   0.000000  -0.000013  -0.000000  -0.000020
    16  H   -0.000002  -0.000013   0.000000  -0.000025  -0.000002  -0.000320
    17  H   -0.000002   0.001361  -0.000002   0.004816  -0.001920  -0.000024
    18  H   -0.001921  -0.000020   0.000000  -0.000317   0.000000  -0.000013
    19  H   -0.000002   0.004821  -0.001921  -0.000022   0.000000  -0.000318
              13         14         15         16         17         18
     1  V   -0.006378  -0.006409  -0.006391  -0.006371  -0.006391  -0.006409
     2  O   -0.000026  -0.000020   0.001361   0.004805  -0.000318  -0.000020
     3  H   -0.000002  -0.000002  -0.000002  -0.001921   0.000000   0.000000
     4  O    0.001352  -0.000317   0.004816  -0.000020  -0.000013   0.001373
     5  H   -0.000002   0.000000  -0.001920   0.000000  -0.000000  -0.000002
     6  O   -0.000013  -0.000013  -0.000024   0.001354  -0.000020   0.004825
     7  H    0.000000  -0.000000   0.000000  -0.000002  -0.000002  -0.001921
     8  O   -0.000025  -0.000020  -0.000318  -0.000013   0.001361  -0.000020
     9  H   -0.000002  -0.000002   0.000000   0.000000  -0.000002   0.000000
    10  O   -0.000320   0.001373  -0.000013  -0.000025   0.004816  -0.000317
    11  H    0.000000  -0.000002  -0.000000  -0.000002  -0.001920   0.000000
    12  O    0.004820   0.004825  -0.000020  -0.000320  -0.000024  -0.000013
    13  H    0.004516  -0.001921  -0.000002   0.000000   0.000000  -0.000000
    14  H   -0.001921   0.004545   0.000000   0.000000  -0.000002   0.000000
    15  H   -0.000002   0.000000   0.004532  -0.000002   0.000000  -0.000002
    16  H    0.000000   0.000000  -0.000002   0.004525   0.000000  -0.000002
    17  H    0.000000  -0.000002   0.000000   0.000000   0.004532   0.000000
    18  H   -0.000000   0.000000  -0.000002  -0.000002   0.000000   0.004545
    19  H    0.000000   0.000000   0.000000  -0.000000  -0.000002  -0.000002
              19
     1  V   -0.006402
     2  O   -0.000013
     3  H    0.000000
     4  O   -0.000018
     5  H   -0.000002
     6  O    0.001369
     7  H   -0.000002
     8  O    0.004821
     9  H   -0.001921
    10  O   -0.000022
    11  H    0.000000
    12  O   -0.000318
    13  H    0.000000
    14  H    0.000000
    15  H    0.000000
    16  H   -0.000000
    17  H   -0.000002
    18  H   -0.000002
    19  H    0.004538
 Mulliken charges and spin densities:
               1          2
     1  V    1.229102   3.109257
     2  O   -0.695045  -0.022209
     3  H    0.411705   0.002028
     4  O   -0.695023  -0.022286
     5  H    0.411738   0.002014
     6  O   -0.694947  -0.022237
     7  H    0.411797   0.001999
     8  O   -0.695047  -0.022209
     9  H    0.411769   0.002007
    10  O   -0.695016  -0.022286
    11  H    0.411737   0.002014
    12  O   -0.694974  -0.022237
    13  H    0.411799   0.001999
    14  H    0.411680   0.002037
    15  H    0.411785   0.002018
    16  H    0.411772   0.002007
    17  H    0.411784   0.002018
    18  H    0.411676   0.002037
    19  H    0.411709   0.002029
 Sum of Mulliken charges =   2.00000   3.00000
 Mulliken charges and spin densities with hydrogens summed into heavy atoms:
               1          2
     1  V    1.229102   3.109257
     2  O    0.128432  -0.018173
     4  O    0.128500  -0.018254
     6  O    0.128526  -0.018201
     8  O    0.128430  -0.018173
    10  O    0.128505  -0.018254
    12  O    0.128505  -0.018201
 Electronic spatial extent (au):  <R**2>=           1169.1539
 Charge=              2.0000 electrons
 Dipole moment (field-independent basis, Debye):
    X=              0.0001    Y=              0.0000    Z=             -0.0001  Tot=              0.0001
 Quadrupole moment (field-independent basis, Debye-Ang):
   XX=            -16.3334   YY=            -16.3065   ZZ=            -16.3156
   XY=              0.0057   XZ=             -0.0052   YZ=              0.0022
 Traceless Quadrupole moment (field-independent basis, Debye-Ang):
   XX=             -0.0149   YY=              0.0120   ZZ=              0.0029
   XY=              0.0057   XZ=             -0.0052   YZ=              0.0022
 Octapole moment (field-independent basis, Debye-Ang**2):
  XXX=             -0.0028  YYY=              0.0020  ZZZ=              0.0022  XYY=              0.0002
  XXY=             -0.0044  XXZ=             -0.0013  XZZ=              0.0021  YZZ=              0.0028
  YYZ=             -0.0001  XYZ=             -0.0002
 Hexadecapole moment (field-independent basis, Debye-Ang**3):
 XXXX=           -252.8345 YYYY=           -214.2180 ZZZZ=           -251.1548 XXXY=             13.7152
 XXXZ=            -20.6690 YYYX=            -25.2749 YYYZ=            -27.3931 ZZZX=            -23.1986
 ZZZY=             12.6867 XXYY=            -67.4821 XXZZ=            -29.6390 YYZZ=            -67.1482
 XXYZ=             14.7312 YYXZ=             43.8399 ZZXY=             11.6065
 N-N= 6.116695114638D+02 E-N=-4.516846276917D+03  KE= 1.397094665516D+03
                          Isotropic Fermi Contact Couplings
        Atom                 a.u.       MegaHertz       Gauss      10(-4) cm-1
     1  V(51)             -0.07921     -31.09821     -11.09661     -10.37324
     2  O(17)             -0.02607       5.26703       1.87941       1.75689
     3  H(1)               0.00151       2.25717       0.80541       0.75291
     4  O(17)             -0.02610       5.27440       1.88204       1.75935
     5  H(1)               0.00151       2.24964       0.80273       0.75040
     6  O(17)             -0.02615       5.28359       1.88532       1.76242
     7  H(1)               0.00151       2.24341       0.80051       0.74832
     8  O(17)             -0.02607       5.26704       1.87941       1.75689
     9  H(1)               0.00151       2.24734       0.80191       0.74963
    10  O(17)             -0.02610       5.27439       1.88204       1.75935
    11  H(1)               0.00151       2.24960       0.80271       0.75039
    12  O(17)             -0.02615       5.28363       1.88533       1.76243
    13  H(1)               0.00151       2.24353       0.80055       0.74836
    14  H(1)               0.00152       2.26115       0.80684       0.75424
    15  H(1)               0.00151       2.25210       0.80361       0.75122
    16  H(1)               0.00151       2.24772       0.80204       0.74976
    17  H(1)               0.00151       2.25201       0.80357       0.75119
    18  H(1)               0.00152       2.26081       0.80671       0.75413
    19  H(1)               0.00152       2.25760       0.80557       0.75305
 --------------------------------------------------------
       Center         ----  Spin Dipole Couplings  ----
                      3XX-RR        3YY-RR        3ZZ-RR
 --------------------------------------------------------
     1   Atom       -0.001515     -0.000063      0.001578
     2   Atom       -0.008672      0.018978     -0.010306
     3   Atom       -0.000042      0.017298     -0.017257
     4   Atom        0.018069     -0.036187      0.018118
     5   Atom        0.008027     -0.014964      0.006937
     6   Atom       -0.009535      0.017224     -0.007689
     7   Atom       -0.005362     -0.016438      0.021799
     8   Atom       -0.008710      0.018975     -0.010264
     9   Atom       -0.017364      0.016549      0.000815
    10   Atom        0.018076     -0.036189      0.018114
    11   Atom        0.008025     -0.014964      0.006938
    12   Atom       -0.009549      0.017249     -0.007701
    13   Atom       -0.005365     -0.016439      0.021804
    14   Atom        0.021629     -0.016966     -0.004663
    15   Atom       -0.006741      0.014537     -0.007796
    16   Atom       -0.017358      0.016543      0.000815
    17   Atom       -0.006745      0.014538     -0.007793
    18   Atom        0.021628     -0.016965     -0.004662
    19   Atom       -0.000043      0.017294     -0.017251
 --------------------------------------------------------
                        XY            XZ            YZ
 --------------------------------------------------------
     1   Atom       -0.000078      0.000033      0.000015
     2   Atom        0.014754      0.045185      0.013065
     3   Atom       -0.025503      0.005982     -0.007004
     4   Atom        0.018980     -0.030611      0.020491
     5   Atom        0.010793      0.025209      0.010607
     6   Atom       -0.033729     -0.014544     -0.033584
     7   Atom       -0.005469     -0.023474      0.007989
     8   Atom        0.014734      0.045187      0.013082
     9   Atom       -0.006530      0.005829     -0.025836
    10   Atom        0.018992     -0.030614      0.020479
    11   Atom        0.010793      0.025209      0.010607
    12   Atom       -0.033711     -0.014563     -0.033568
    13   Atom       -0.005466     -0.023473      0.007987
    14   Atom        0.006704     -0.024022     -0.004842
    15   Atom        0.020008      0.010453      0.019092
    16   Atom       -0.006537      0.005836     -0.025834
    17   Atom        0.020005      0.010452      0.019095
    18   Atom        0.006710     -0.024023     -0.004846
    19   Atom       -0.025501      0.005988     -0.007011
 --------------------------------------------------------


 ---------------------------------------------------------------------------------
              Anisotropic Spin Dipole Couplings in Principal Axis System
 ---------------------------------------------------------------------------------

       Atom             a.u.   MegaHertz   Gauss  10(-4) cm-1        Axes

              Baa    -0.0015    -0.214    -0.076    -0.071  0.9985  0.0537 -0.0108
     1 V(51)  Bbb    -0.0001    -0.008    -0.003    -0.003 -0.0538  0.9985 -0.0080
              Bcc     0.0016     0.222     0.079     0.074  0.0104  0.0086  0.9999
 
              Baa    -0.0547     3.958     1.412     1.320 -0.7029  0.0147  0.7112
     2 O(17)  Bbb     0.0060    -0.432    -0.154    -0.144 -0.3840  0.8338 -0.3967
              Bcc     0.0487    -3.526    -1.258    -1.176  0.5988  0.5519  0.5804
 
              Baa    -0.0194   -10.335    -3.688    -3.447 -0.5565 -0.2348  0.7970
     3 H(1)   Bbb    -0.0177    -9.468    -3.378    -3.158  0.5987  0.5518  0.5806
              Bcc     0.0371    19.803     7.066     6.605 -0.5761  0.8003 -0.1665
 
              Baa    -0.0547     3.956     1.412     1.320 -0.3843  0.8338 -0.3963
     4 O(17)  Bbb     0.0060    -0.431    -0.154    -0.144  0.5997  0.5519  0.5795
              Bcc     0.0487    -3.525    -1.258    -1.176 -0.7019  0.0150  0.7121
 
              Baa    -0.0194   -10.331    -3.686    -3.446 -0.1863  0.9601 -0.2086
     5 H(1)   Bbb    -0.0177    -9.461    -3.376    -3.156 -0.7032  0.0180  0.7108
              Bcc     0.0371    19.792     7.062     6.602  0.6862  0.2791  0.6717
 
              Baa    -0.0547     3.957     1.412     1.320  0.5992  0.5519  0.5799
     6 O(17)  Bbb     0.0059    -0.430    -0.153    -0.143 -0.7028  0.0158  0.7112
              Bcc     0.0487    -3.527    -1.258    -1.176 -0.3834  0.8337 -0.3974
 
              Baa    -0.0194   -10.328    -3.685    -3.445  0.7813  0.5204  0.3446
     7 H(1)   Bbb    -0.0177    -9.456    -3.374    -3.154 -0.3819  0.8353 -0.3957
              Bcc     0.0371    19.784     7.059     6.599 -0.4937  0.1775  0.8513
 
              Baa    -0.0547     3.958     1.412     1.320 -0.7032  0.0144  0.7109
     8 O(17)  Bbb     0.0060    -0.432    -0.154    -0.144 -0.3839  0.8339 -0.3966
              Bcc     0.0487    -3.526    -1.258    -1.176  0.5985  0.5518  0.5808
 
              Baa    -0.0194   -10.329    -3.686    -3.445  0.7858 -0.2607 -0.5609
     9 H(1)   Bbb    -0.0177    -9.458    -3.375    -3.155  0.5980  0.5520  0.5811
              Bcc     0.0371    19.787     7.060     6.600 -0.1581  0.7921 -0.5896
 
              Baa    -0.0547     3.956     1.412     1.320 -0.3844  0.8338 -0.3962
    10 O(17)  Bbb     0.0060    -0.431    -0.154    -0.144  0.5995  0.5519  0.5797
              Bcc     0.0487    -3.526    -1.258    -1.176 -0.7021  0.0147  0.7120
 
              Baa    -0.0194   -10.331    -3.686    -3.446 -0.1864  0.9601 -0.2085
    11 H(1)   Bbb    -0.0177    -9.461    -3.376    -3.156 -0.7031  0.0178  0.7108
              Bcc     0.0371    19.792     7.062     6.602  0.6862  0.2791  0.6718
 
              Baa    -0.0547     3.956     1.412     1.320  0.5993  0.5517  0.5801
    12 O(17)  Bbb     0.0059    -0.430    -0.154    -0.144 -0.7028  0.0158  0.7112
              Bcc     0.0487    -3.526    -1.258    -1.176 -0.3831  0.8339 -0.3972
 
              Baa    -0.0194   -10.328    -3.685    -3.445  0.7815  0.5201  0.3447
    13 H(1)   Bbb    -0.0177    -9.456    -3.374    -3.154 -0.3816  0.8355 -0.3954
              Bcc     0.0371    19.784     7.059     6.599 -0.4937  0.1775  0.8514
 
              Baa    -0.0194   -10.337    -3.689    -3.448  0.3610  0.5333  0.7650
    14 H(1)   Bbb    -0.0177    -9.469    -3.379    -3.159 -0.3849  0.8324 -0.3986
              Bcc     0.0371    19.806     7.067     6.607  0.8494  0.1506 -0.5058
 
              Baa    -0.0194   -10.332    -3.687    -3.446 -0.5483  0.6320 -0.5476
    15 H(1)   Bbb    -0.0177    -9.462    -3.376    -3.156 -0.6999  0.0115  0.7141
              Bcc     0.0371    19.794     7.063     6.602  0.4576  0.7749  0.4361
 
              Baa    -0.0194   -10.328    -3.685    -3.445  0.7854 -0.2609 -0.5613
    16 H(1)   Bbb    -0.0177    -9.457    -3.375    -3.155  0.5984  0.5520  0.5808
              Bcc     0.0371    19.785     7.060     6.600 -0.1583  0.7920 -0.5896
 
              Baa    -0.0194   -10.332    -3.687    -3.446 -0.5484  0.6320 -0.5476
    17 H(1)   Bbb    -0.0177    -9.462    -3.376    -3.156 -0.6999  0.0114  0.7141
              Bcc     0.0371    19.794     7.063     6.603  0.4575  0.7749  0.4361
 
              Baa    -0.0194   -10.338    -3.689    -3.448  0.3608  0.5336  0.7649
    18 H(1)   Bbb    -0.0177    -9.469    -3.379    -3.159 -0.3851  0.8322 -0.3988
              Bcc     0.0371    19.807     7.068     6.607  0.8494  0.1507 -0.5058
 
              Baa    -0.0194   -10.334    -3.688    -3.447 -0.5569 -0.2350  0.7966
    19 H(1)   Bbb    -0.0177    -9.467    -3.378    -3.158  0.5983  0.5517  0.5811
              Bcc     0.0371    19.801     7.066     6.605 -0.5761  0.8002 -0.1667
 

 ---------------------------------------------------------------------------------

 No NMR shielding tensors so no spin-rotation constants.
 Leave Link  601 at Thu May 30 11:12:35 2024, MaxMem= 26843545600 cpu:              29.1 elap:               0.3
 (Enter /gpfs/fs1/soft/improv/software/custom-built/gaussian/g16/l9999.exe)
 Unable to Open any file for archive entry.
 1\1\GINC-I662\SP\UPBEPBE\Gen\H12O6V1(2+,4)\HHARB\30-May-2024\0\\#p PBE
 PBE empiricaldispersion=gd3 scf=(maxcycles=500,xqc,maxconventional=50)
  scrf=(cpcm,solvent=water) geom=allcheck guess=read chkbasis\\Title\\2
 ,4\V,-0.7848228428,0.7129549187,0.0318168136\O,-1.3525906762,2.7522375
 447,-0.312056457\H,-1.4660910134,3.1836709132,-1.1788155503\O,1.280262
 4808,1.2912432864,0.051327104\H,2.0464006102,0.7021691587,0.1790171896
 \O,-0.8911228547,1.0372709001,2.1489719809\H,-1.6743219213,0.916309586
 4,2.7166237582\O,-0.217074142,-1.3263716389,0.3754671213\H,-0.02443021
 16,-1.9978516589,-0.3044347753\O,-2.8499075447,0.1346701122,0.01241070
 27\H,-3.6160519155,0.7237331095,-0.1152926159\O,-0.6784715129,0.388666
 486,-2.0853479811\H,0.1048325582,0.509368428,-2.6529103112\H,-1.404504
 8295,0.0881317988,-2.6622815409\H,1.6313477713,2.1922494725,-0.0719528
 832\H,-1.5456776654,3.4237519254,0.3676845084\H,-3.2009905874,-0.76631
 154,0.1358736655\H,-0.1651343619,1.3380817729,2.7258169412\H,-0.103168
 9114,-1.7578948057,1.2421277394\\Version=ES64L-G16RevC.02\State=4-A\HF
 =-1401.7211488\S2=3.754155\S2-1=0.\S2A=3.750008\RMSD=5.493e-09\Dipole=
 0.0000066,-0.0000166,-0.0000425\Quadrupole=-0.0037431,0.0059527,-0.002
 2095,0.007263,-0.0071388,0.0029688\PG=C01 [X(H12O6V1)]\\@
 The archive entry for this job was punched.


 THERE'S NOTHING WRONG WITH FOLLOWING A TRAIN OF THOUGHT...
 AS LONG AS IT ULTIMATELY PULLS INTO THE STATION.
 Job cpu time:       0 days  1 hours  2 minutes 20.7 seconds.
 Elapsed time:       0 days  0 hours  0 minutes 32.0 seconds.
 File lengths (MBytes):  RWF=    122 Int=      0 D2E=      0 Chk=     32 Scr=      1
 Normal termination of Gaussian 16 at Thu May 30 11:12:35 2024.
