 Entering Gaussian System, Link 0=g16
 Input=V_3_PBE.com
 Output=V_3_PBE.log
 Initial command:
 /gpfs/fs1/soft/improv/software/custom-built/gaussian/g16/l1.exe "/scratch/Gau-315001.inp" -scrdir="/scratch/"
 Default CPUs for threads: 0-127
 Default linda workers: i663.lcrc.anl.gov
 Default is to use 128 SMP processors on each worker.
 Entering Link 1 = /gpfs/fs1/soft/improv/software/custom-built/gaussian/g16/l1.exe PID=    315002.
  
 Copyright (c) 1988-2021, Gaussian, Inc.  All Rights Reserved.
  
 This is part of the Gaussian(R) 16 program.  It is based on
 the Gaussian(R) 09 system (copyright 2009, Gaussian, Inc.),
 the Gaussian(R) 03 system (copyright 2003, Gaussian, Inc.),
 the Gaussian(R) 98 system (copyright 1998, Gaussian, Inc.),
 the Gaussian(R) 94 system (copyright 1995, Gaussian, Inc.),
 the Gaussian 92(TM) system (copyright 1992, Gaussian, Inc.),
 the Gaussian 90(TM) system (copyright 1990, Gaussian, Inc.),
 the Gaussian 88(TM) system (copyright 1988, Gaussian, Inc.),
 the Gaussian 86(TM) system (copyright 1986, Carnegie Mellon
 University), and the Gaussian 82(TM) system (copyright 1983,
 Carnegie Mellon University). Gaussian is a federally registered
 trademark of Gaussian, Inc.
  
 This software contains proprietary and confidential information,
 including trade secrets, belonging to Gaussian, Inc.
  
 This software is provided under written license and may be
 used, copied, transmitted, or stored only in accord with that
 written license.
  
 The following legend is applicable only to US Government
 contracts under FAR:
  
                    RESTRICTED RIGHTS LEGEND
  
 Use, reproduction and disclosure by the US Government is
 subject to restrictions as set forth in subparagraphs (a)
 and (c) of the Commercial Computer Software - Restricted
 Rights clause in FAR 52.227-19.
  
 Gaussian, Inc.
 340 Quinnipiac St., Bldg. 40, Wallingford CT 06492
  
  
 ---------------------------------------------------------------
 Warning -- This program may not be used in any manner that
 competes with the business of Gaussian, Inc. or will provide
 assistance to any competitor of Gaussian, Inc.  The licensee
 of this program is prohibited from giving any competitor of
 Gaussian, Inc. access to this program.  By using this program,
 the user acknowledges that Gaussian, Inc. is engaged in the
 business of creating and licensing software in the field of
 computational chemistry and represents and warrants to the
 licensee that it is not a competitor of Gaussian, Inc. and that
 it will not use this program in any manner prohibited above.
 ---------------------------------------------------------------
  

 Cite this work as:
 Gaussian 16, Revision C.02,
 M. J. Frisch, G. W. Trucks, H. B. Schlegel, G. E. Scuseria, 
 M. A. Robb, J. R. Cheeseman, G. Scalmani, V. Barone, 
 G. A. Petersson, H. Nakatsuji, X. Li, M. Caricato, A. V. Marenich, 
 J. Bloino, B. G. Janesko, R. Gomperts, B. Mennucci, H. P. Hratchian, 
 J. V. Ortiz, A. F. Izmaylov, J. L. Sonnenberg, D. Williams-Young, 
 F. Ding, F. Lipparini, F. Egidi, J. Goings, B. Peng, A. Petrone, 
 T. Henderson, D. Ranasinghe, V. G. Zakrzewski, J. Gao, N. Rega, 
 G. Zheng, W. Liang, M. Hada, M. Ehara, K. Toyota, R. Fukuda, 
 J. Hasegawa, M. Ishida, T. Nakajima, Y. Honda, O. Kitao, H. Nakai, 
 T. Vreven, K. Throssell, J. A. Montgomery, Jr., J. E. Peralta, 
 F. Ogliaro, M. J. Bearpark, J. J. Heyd, E. N. Brothers, K. N. Kudin, 
 V. N. Staroverov, T. A. Keith, R. Kobayashi, J. Normand, 
 K. Raghavachari, A. P. Rendell, J. C. Burant, S. S. Iyengar, 
 J. Tomasi, M. Cossi, J. M. Millam, M. Klene, C. Adamo, R. Cammi, 
 J. W. Ochterski, R. L. Martin, K. Morokuma, O. Farkas, 
 J. B. Foresman, and D. J. Fox, Gaussian, Inc., Wallingford CT, 2019.
 
 ******************************************
 Gaussian 16:  ES64L-G16RevC.02  7-Dec-2021
                30-May-2024 
 ******************************************
 %chk=V_3_PBE.chk
 SetSPE:  set environment variable "OMP_PROC_BIND" = "true"
 SetSPE:  set environment variable "OMP_PLACES" = "{0},{1},{2},{3},{4},{5},{6},{7},{8},{9},{10},{11},{12},{13},{14},{15},{16},{17},{18},{19},{20},{21},{22},{23},{24},{25},{26},{27},{28},{29},{30},{31},{32},{33},{34},{35},{36},{37},{38},{39},{40},{41},{42},{43},{44},{45},{46},{47},{48},{49},{50},{51},{52},{53},{54},{55},{56},{57},{58},{59},{60},{61},{62},{63},{64},{65},{66},{67},{68},{69},{70},{71},{72},{73},{74},{75},{76},{77},{78},{79},{80},{81},{82},{83},{84},{85},{86},{87},{88},{89},{90},{91},{92},{93},{94},{95},{96},{97},{98},{99},{100},{101},{102},{103},{104},{105},{106},{107},{108},{109},{110},{111},{112},{113},{114},{115},{116},{117},{118},{119},{120},{121},{122},{123},{124},{125},{126},{127}"
 SetLPE:    new flags="-opt 'Tsnet.Node.lindarsharg: ssh'  -nodelist 'i663.lcrc.anl.gov' -env GAUSS_MDEF=26843545600 -env GAUSS_EXEDIR="/gpfs/fs1/soft/improv/software/custom-built/gaussian/g16/bsd:/gpfs/fs1/soft/improv/software/custom-built/gaussian/g16" -env "OMP_PROC_BIND=true" -env "OMP_PLACES={0},{1},{2},{3},{4},{5},{6},{7},{8},{9},{10},{11},{12},{13},{14},{15},{16},{17},{18},{19},{20},{21},{22},{23},{24},{25},{26},{27},{28},{29},{30},{31},{32},{33},{34},{35},{36},{37},{38},{39},{40},{41},{42},{43},{44},{45},{46},{47},{48},{49},{50},{51},{52},{53},{54},{55},{56},{57},{58},{59},{60},{61},{62},{63},{64},{65},{66},{67},{68},{69},{70},{71},{72},{73},{74},{75},{76},{77},{78},{79},{80},{81},{82},{83},{84},{85},{86},{87},{88},{89},{90},{91},{92},{93},{94},{95},{96},{97},{98},{99},{100},{101},{102},{103},{104},{105},{106},{107},{108},{109},{110},{111},{112},{113},{114},{115},{116},{117},{118},{119},{120},{121},{122},{123},{124},{125},{126},{127}" -env GAUSS_ADEF="0,1,2,3,4,5,6,7,8,9,10,11,12,13,14,15,16,17,18,19,20,21,22,23,24,25,26,27,28,29,30,31,32,33,34,35,36,37,38,39,40,41,42,43,44,45,46,47,48,49,50,51,52,53,54,55,56,57,58,59,60,61,62,63,64,65,66,67,68,69,70,71,72,73,74,75,76,77,78,79,80,81,82,83,84,85,86,87,88,89,90,91,92,93,94,95,96,97,98,99,100,101,102,103,104,105,106,107,108,109,110,111,112,113,114,115,116,117,118,119,120,121,122,123,124,125,126,127""
 Will use up to    1 processors via Linda.
 ----------------------------------------------------------------------
 #p PBEPBE empiricaldispersion=gd3 6-31+G(2df,p) opt=(cartesian,calcall
 ,maxcycles=500) freq scf=(maxcycles=500,xqc,maxconventional=50)
 ----------------------------------------------------------------------
 1/6=500,10=4,18=10,26=3,38=1/1,3;
 2/12=2,17=6,18=5,29=2,40=1/2;
 3/5=1,6=6,7=114,11=2,25=1,30=1,71=2,74=1009,124=31,140=1/1,2,3;
 4//1;
 5/5=2,7=500,8=3,13=1,38=5,85=50/2,8;
 8/6=4,10=90,11=11/1;
 11/6=1,8=1,9=11,15=111,16=1/1,2,10;
 10/6=1/2;
 6/7=2,8=2,9=2,10=2,18=1,28=1/1;
 7/7=1,10=1,25=1/1,2,3,16;
 1/6=500,10=4,18=10,26=3/3(3);
 2/29=1/2;
 7/7=1,8=1,9=1,25=1,44=-1/16;
 99/12=1/99;
 2/29=1/2;
 3/5=1,6=6,7=114,11=2,25=1,30=1,71=2,74=1009,124=31,140=1/1,2,3;
 4/5=5,16=3,69=1/1;
 5/5=2,7=500,8=3,13=1,38=5,85=50/2,8;
 8/6=4,10=90,11=11/1;
 11/6=1,8=1,9=11,15=111,16=1/1,2,10;
 10/6=1/2;
 7/7=1,10=1,25=1/1,2,3,16;
 1/6=500,10=4,18=10,26=3/3(-8);
 2/29=1/2;
 6/7=2,8=2,9=2,10=2,18=1,19=2,28=1/1;
 7/7=1,8=1,9=1,25=1,44=-1/16;
 99/12=1/99;
 Leave Link    1 at Thu May 30 09:22:09 2024, MaxMem=           0 cpu:               4.3 elap:               0.1
 (Enter /gpfs/fs1/soft/improv/software/custom-built/gaussian/g16/l101.exe)
 -----
 Title
 -----
 Symbolic Z-matrix:
 Charge =  3 Multiplicity = 3
 V                    -0.79304   0.81881  -0.09491 
 O                    -1.20497   2.57394  -0.35687 
 H                    -2.12106   2.64974  -0.63312 
 O                     0.99012   1.19063  -0.05794 
 H                     1.42696   0.5998    0.55971 
 O                    -0.81752   1.03069   1.71365 
 H                    -1.02108   0.1906    2.13133 
 O                    -0.38507  -0.93351   0.17118 
 H                    -1.15682  -1.47369  -0.01433 
 O                    -2.57341   0.45178  -0.12186 
 H                    -2.77756  -0.08744  -0.88929 
 O                    -0.76966   0.60461  -1.90111 
 H                     0.09872   0.83457  -2.23949 
 H                    -0.96534  -0.30999  -2.11742 
 H                     1.12208   2.09943   0.22124 
 H                    -1.07671   3.0584    0.46184 
 H                    -2.81407  -0.02398   0.6765 
 H                     0.0422    1.33615   2.01181 
 H                    -0.11532  -1.06446   1.08312 
 
 ITRead=  0  0  0  0  0  0  0  0  0  0  0  0  0  0  0  0  0  0  0
 MicOpt= -1 -1 -1 -1 -1 -1 -1 -1 -1 -1 -1 -1 -1 -1 -1 -1 -1 -1 -1
 NAtoms=     19 NQM=       19 NQMF=       0 NMMI=      0 NMMIF=      0
                NMic=       0 NMicF=      0.
                    Isotopes and Nuclear Properties:
 (Nuclear quadrupole moments (NQMom) in fm**2, nuclear magnetic moments (NMagM)
  in nuclear magnetons)

  Atom         1           2           3           4           5           6           7           8           9          10
 IAtWgt=          51          16           1          16           1          16           1          16           1          16
 AtmWgt=  50.9439625  15.9949146   1.0078250  15.9949146   1.0078250  15.9949146   1.0078250  15.9949146   1.0078250  15.9949146
 NucSpn=           7           0           1           0           1           0           1           0           1           0
 AtZEff=  -0.0000000  -0.0000000  -0.0000000  -0.0000000  -0.0000000  -0.0000000  -0.0000000  -0.0000000  -0.0000000  -0.0000000
 NQMom=   -5.2000000   0.0000000   0.0000000   0.0000000   0.0000000   0.0000000   0.0000000   0.0000000   0.0000000   0.0000000
 NMagM=    5.1514000   0.0000000   2.7928460   0.0000000   2.7928460   0.0000000   2.7928460   0.0000000   2.7928460   0.0000000
 AtZNuc=  23.0000000   8.0000000   1.0000000   8.0000000   1.0000000   8.0000000   1.0000000   8.0000000   1.0000000   8.0000000

  Atom        11          12          13          14          15          16          17          18          19
 IAtWgt=           1          16           1           1           1           1           1           1           1
 AtmWgt=   1.0078250  15.9949146   1.0078250   1.0078250   1.0078250   1.0078250   1.0078250   1.0078250   1.0078250
 NucSpn=           1           0           1           1           1           1           1           1           1
 AtZEff=  -0.0000000  -0.0000000  -0.0000000  -0.0000000  -0.0000000  -0.0000000  -0.0000000  -0.0000000  -0.0000000
 NQMom=    0.0000000   0.0000000   0.0000000   0.0000000   0.0000000   0.0000000   0.0000000   0.0000000   0.0000000
 NMagM=    2.7928460   0.0000000   2.7928460   2.7928460   2.7928460   2.7928460   2.7928460   2.7928460   2.7928460
 AtZNuc=   1.0000000   8.0000000   1.0000000   1.0000000   1.0000000   1.0000000   1.0000000   1.0000000   1.0000000
 Leave Link  101 at Thu May 30 09:22:10 2024, MaxMem= 26843545600 cpu:               0.4 elap:               0.0
 (Enter /gpfs/fs1/soft/improv/software/custom-built/gaussian/g16/l103.exe)

 GradGradGradGradGradGradGradGradGradGradGradGradGradGradGradGradGradGrad
 Berny optimization.
 Initialization pass.
 No Z-matrix variables, so optimization will use Cartesian coordinates.
 Trust Radius=3.00D-01 FncErr=1.00D-07 GrdErr=1.00D-06 EigMax=2.50D+02 EigMin=1.00D-04
 Number of steps in this run=    114 maximum allowed number of steps=    114.
 GradGradGradGradGradGradGradGradGradGradGradGradGradGradGradGradGradGrad

 Leave Link  103 at Thu May 30 09:22:10 2024, MaxMem= 26843545600 cpu:               0.4 elap:               0.0
 (Enter /gpfs/fs1/soft/improv/software/custom-built/gaussian/g16/l202.exe)
 ---------------------------------------------------------------------------------------------------
                            Z-MATRIX (ANGSTROMS AND DEGREES)
   CD    Cent   Atom    N1       Length/X        N2       Alpha/Y        N3        Beta/Z          J
 ---------------------------------------------------------------------------------------------------
      1      1  V        0  -0.793037          0.818805         -0.094905
      2      2  O        0  -1.204971          2.573941         -0.356874
      3      3  H        0  -2.121063          2.649743         -0.633122
      4      4  O        0   0.990122          1.190635         -0.057941
      5      5  H        0   1.426962          0.599798          0.559707
      6      6  O        0  -0.817519          1.030691          1.713650
      7      7  H        0  -1.021079          0.190602          2.131326
      8      8  O        0  -0.385068         -0.933506          0.171177
      9      9  H        0  -1.156817         -1.473692         -0.014327
     10     10  O        0  -2.573405          0.451778         -0.121857
     11     11  H        0  -2.777557         -0.087440         -0.889285
     12     12  O        0  -0.769659          0.604612         -1.901109
     13     13  H        0   0.098725          0.834573         -2.239490
     14     14  H        0  -0.965336         -0.309994         -2.117418
     15     15  H        0   1.122081          2.099426          0.221242
     16     16  H        0  -1.076711          3.058396          0.461841
     17     17  H        0  -2.814074         -0.023981          0.676500
     18     18  H        0   0.042204          1.336153          2.011809
     19     19  H        0  -0.115315         -1.064459          1.083123
 ---------------------------------------------------------------------------------------------------
                         Z-Matrix orientation:                         
 ---------------------------------------------------------------------
 Center     Atomic      Atomic             Coordinates (Angstroms)
 Number     Number       Type             X           Y           Z
 ---------------------------------------------------------------------
      1         23           0       -0.793037    0.818805   -0.094905
      2          8           0       -1.204971    2.573941   -0.356874
      3          1           0       -2.121063    2.649743   -0.633122
      4          8           0        0.990122    1.190635   -0.057941
      5          1           0        1.426962    0.599798    0.559707
      6          8           0       -0.817519    1.030691    1.713650
      7          1           0       -1.021079    0.190602    2.131326
      8          8           0       -0.385068   -0.933506    0.171177
      9          1           0       -1.156817   -1.473692   -0.014327
     10          8           0       -2.573405    0.451778   -0.121857
     11          1           0       -2.777557   -0.087440   -0.889285
     12          8           0       -0.769659    0.604612   -1.901109
     13          1           0        0.098725    0.834573   -2.239490
     14          1           0       -0.965336   -0.309994   -2.117418
     15          1           0        1.122081    2.099426    0.221242
     16          1           0       -1.076711    3.058396    0.461841
     17          1           0       -2.814074   -0.023981    0.676500
     18          1           0        0.042204    1.336153    2.011809
     19          1           0       -0.115315   -1.064459    1.083123
 ---------------------------------------------------------------------
                    Distance matrix (angstroms):
                    1          2          3          4          5
     1  V    0.000000
     2  O    1.821762   0.000000
     3  H    2.325008   0.959835   0.000000
     4  O    1.821889   2.611767   3.484150   0.000000
     5  H    2.324839   3.415322   4.267739   0.959899   0.000000
     6  O    1.821090   2.611285   3.134947   2.536076   2.560263
     7  H    2.324381   3.450400   3.859988   3.136540   2.937743
     8  O    1.818745   3.640503   4.062050   2.540791   2.405292
     9  H    2.322579   4.062387   4.279649   3.421971   3.362259
    10  O    1.818006   2.536025   2.301533   3.639880   4.060711
    11  H    2.321775   3.136788   2.826442   4.064482   4.499984
    12  O    1.819010   2.540161   2.759827   2.614866   3.298603
    13  H    2.322657   2.875634   3.286750   2.383386   3.107223
    14  H    2.322591   3.387332   3.506977   3.212032   3.703756
    15  H    2.325429   2.444290   3.398642   0.959822   1.567289
    16  H    2.325125   0.959918   1.567358   2.833814   3.510364
    17  H    2.321626   3.225876   3.056824   4.060370   4.288255
    18  H    2.324547   2.949275   3.660724   2.281137   2.137375
    19  H    2.322443   4.061883   4.556733   2.758526   2.328591
                    6          7          8          9         10
     6  O    0.000000
     7  H    0.960021   0.000000
     8  O    2.534622   2.347406   0.000000
     9  H    3.061530   2.718847   0.960108   0.000000
    10  O    2.605257   2.748593   2.606473   2.392848   0.000000
    11  H    3.444886   3.505227   2.750347   2.305222   0.959885
    12  O    3.640099   4.061422   2.609231   2.833582   2.538227
    13  H    4.062670   4.557707   3.028445   3.443229   3.430916
    14  H    4.061572   4.278496   2.441955   2.411193   2.673658
    15  H    2.670492   3.447487   3.387136   4.244531   4.060675
    16  H    2.397039   3.318813   4.061790   4.557738   3.061904
    17  H    2.484803   2.318921   2.642472   2.307685   0.960023
    18  H    0.959858   1.567527   2.953276   3.665802   3.489421
    19  H    2.297892   1.869309   0.959980   1.567353   3.129403
                   11         12         13         14         15
    11  H    0.000000
    12  O    2.352526   0.000000
    13  H    3.308498   0.959935   0.000000
    14  H    2.200452   0.959991   1.567533   0.000000
    15  H    4.606825   3.212091   2.949969   3.953725   0.000000
    16  H    3.822919   3.420362   3.691102   4.243941   2.410850
    17  H    1.567497   3.349453   4.210050   3.362383   4.495491
    18  H    4.288824   4.062660   4.281159   4.558009   2.225950
    19  H    3.454344   3.481323   3.833001   3.396353   3.504877
                   16         17         18         19
    16  H    0.000000
    17  H    3.544793   0.000000
    18  H    2.573032   3.433851   0.000000
    19  H    4.278809   2.920828   2.578800   0.000000
 Stoichiometry    H12O6V(3+,3)
 Framework group  C1[X(H12O6V)]
 Deg. of freedom    51
 Full point group                 C1      NOp   1
 Largest Abelian subgroup         C1      NOp   1
 Largest concise Abelian subgroup C1      NOp   1
                         Standard orientation:                         
 ---------------------------------------------------------------------
 Center     Atomic      Atomic             Coordinates (Angstroms)
 Number     Number       Type             X           Y           Z
 ---------------------------------------------------------------------
      1         23           0       -0.020930   -0.030851    0.010117
      2          8           0       -0.320881   -1.688468   -0.683537
      3          1           0       -1.137136   -1.681045   -1.188468
      4          8           0        1.254385   -0.678558    1.138536
      5          1           0        1.942922   -0.019835    1.254320
      6          8           0        1.297591    0.293740   -1.203355
      7          1           0        1.381168    1.240413   -1.339237
      8          8           0        0.279591    1.625972    0.697472
      9          1           0       -0.432419    2.214852    0.436571
     10          8           0       -1.286602    0.614727   -1.124100
     11          1           0       -2.035606    0.937335   -0.617843
     12          8           0       -1.338715   -0.352402    1.222076
     13          1           0       -0.971940   -0.816344    1.978190
     14          1           0       -1.717839    0.480834    1.511152
     15          1           0        1.635326   -1.477232    0.766701
     16          1           0        0.408485   -1.931629   -1.258289
     17          1           0       -0.916150    1.334035   -1.640826
     18          1           0        2.128491   -0.056823   -0.874663
     19          1           0        1.113128    1.964930    0.362980
 ---------------------------------------------------------------------
 Rotational constants (GHZ):           2.0397021           1.9739483           1.9252864
 Leave Link  202 at Thu May 30 09:22:10 2024, MaxMem= 26843545600 cpu:               0.5 elap:               0.0
 (Enter /gpfs/fs1/soft/improv/software/custom-built/gaussian/g16/l301.exe)
 Standard basis: 6-31+G(2df,p) (6D, 7F)
 Ernie: Thresh=  0.10000D-02 Tol=  0.10000D-05 Strict=F.
 There are   347 symmetry adapted cartesian basis functions of A   symmetry.
 There are   317 symmetry adapted basis functions of A   symmetry.
   317 basis functions,   514 primitive gaussians,   347 cartesian basis functions
    41 alpha electrons       39 beta electrons
       nuclear repulsion energy       717.7225235776 Hartrees.
 IExCor= 1009 DFT=T Ex=PBE Corr=PBE ExCW=0 ScaHFX=  0.000000
 ScaDFX=  1.000000  1.000000  1.000000  1.000000 ScalE2=  1.000000  1.000000
 IRadAn=      5 IRanWt=     -1 IRanGd=            0 ICorTp=0 IEmpDi=131
 NAtoms=   19 NActive=   19 NUniq=   19 SFac= 1.00D+00 NAtFMM=   60 NAOKFM=F Big=F
 Integral buffers will be    131072 words long.
 Raffenetti 2 integral format.
 Two-electron integral symmetry is turned on.
 R6Disp:  Grimme-D3 Dispersion energy=       -0.0123819572 Hartrees.
 Nuclear repulsion after empirical dispersion term =      717.7101416204 Hartrees.
 Leave Link  301 at Thu May 30 09:22:10 2024, MaxMem= 26843545600 cpu:               0.4 elap:               0.0
 (Enter /gpfs/fs1/soft/improv/software/custom-built/gaussian/g16/l302.exe)
 NPDir=0 NMtPBC=     1 NCelOv=     1 NCel=       1 NClECP=     1 NCelD=      1
         NCelK=      1 NCelE2=     1 NClLst=     1 CellRange=     0.0.
 One-electron integrals computed using PRISM.
 One-electron integral symmetry used in STVInt
 NBasis=   317 RedAO= T EigKep=  3.17D-05  NBF=   317
 NBsUse=   317 1.00D-06 EigRej= -1.00D+00 NBFU=   317
 Precomputing XC quadrature grid using
 IXCGrd= 4 IRadAn=           5 IRanWt=          -1 IRanGd=           0 AccXCQ= 0.00D+00.
 Generated NRdTot=       0 NPtTot=           0 NUsed=           0 NTot=          32
 NSgBfM=   347   347   347   347   347 MxSgAt=    19 MxSgA2=    19.
 Leave Link  302 at Thu May 30 09:22:10 2024, MaxMem= 26843545600 cpu:              21.8 elap:               0.3
 (Enter /gpfs/fs1/soft/improv/software/custom-built/gaussian/g16/l303.exe)
 DipDrv:  MaxL=1.
 Leave Link  303 at Thu May 30 09:22:10 2024, MaxMem= 26843545600 cpu:               1.0 elap:               0.0
 (Enter /gpfs/fs1/soft/improv/software/custom-built/gaussian/g16/l401.exe)
 ExpMin= 1.07D-02 ExpMax= 4.74D+04 ExpMxC= 7.11D+03 IAcc=3 IRadAn=         5 AccDes= 0.00D+00
 Harris functional with IExCor= 1009 and IRadAn=       5 diagonalized for initial guess.
 HarFok:  IExCor= 1009 AccDes= 0.00D+00 IRadAn=         5 IDoV= 1 UseB2=F ITyADJ=14
 ICtDFT=  3500011 ScaDFX=  1.000000  1.000000  1.000000  1.000000
 FoFCou: FMM=F IPFlag=           0 FMFlag=      100000 FMFlg1=           0
         NFxFlg=           0 DoJE=T BraDBF=F KetDBF=T FulRan=T
         wScrn=  0.000000 ICntrl=       500 IOpCl=  0 I1Cent=   200000004 NGrid=           0
         NMat0=    1 NMatS0=      1 NMatT0=    0 NMatD0=    1 NMtDS0=    0 NMtDT0=    0
 Petite list used in FoFCou.
 Harris En= -1401.24457905853    
 JPrj=0 DoOrth=F DoCkMO=F.
 Initial guess <Sx>= 0.0000 <Sy>= 0.0000 <Sz>= 1.0000 <S**2>= 2.0000 S= 1.0000
 Leave Link  401 at Thu May 30 09:22:11 2024, MaxMem= 26843545600 cpu:              37.9 elap:               0.4
 (Enter /gpfs/fs1/soft/improv/software/custom-built/gaussian/g16/l502.exe)
 Integral symmetry usage will be decided dynamically.
 UHF open shell SCF:
 Using DIIS extrapolation, IDIIS=  1040.
 NGot= 26843545600 LenX= 26843256607 LenY= 26843135757
 Requested convergence on RMS density matrix=1.00D-08 within  50 cycles.
 Requested convergence on MAX density matrix=1.00D-06.
 Requested convergence on             energy=1.00D-06.
 No special actions if energy rises.
 Fock matrices will be formed incrementally for  20 cycles.

 Cycle   1  Pass 1  IDiag  1:
 FoFJK:  IHMeth= 1 ICntrl=     500 DoSepK=F KAlg= 0 I1Cent=           0 FoldK=F
 IRaf= 990000000 NMat=       1 IRICut=       1 DoRegI=T DoRafI=F ISym2E= 0 IDoP0=0 IntGTp=1.
 FoFCou: FMM=F IPFlag=           0 FMFlag=      100000 FMFlg1=           0
         NFxFlg=           0 DoJE=T BraDBF=F KetDBF=F FulRan=T
         wScrn=  0.000000 ICntrl=       500 IOpCl=  0 I1Cent=           0 NGrid=           0
         NMat0=    1 NMatS0=      1 NMatT0=    0 NMatD0=    1 NMtDS0=    0 NMtDT0=    0
 Symmetry not used in FoFCou.
 E= -1400.25359791508    
 DIIS: error= 4.32D-02 at cycle   1 NSaved=   1.
 NSaved= 1 IEnMin= 1 EnMin= -1400.25359791508     IErMin= 1 ErrMin= 4.32D-02
 ErrMax= 4.32D-02  0.00D+00 EMaxC= 1.00D-01 BMatC= 2.45D+00 BMatP= 2.45D+00
 IDIUse=3 WtCom= 5.68D-01 WtEn= 4.32D-01
 Coeff-Com:  0.100D+01
 Coeff-En:   0.100D+01
 Coeff:      0.100D+01
 Gap=     0.022 Goal=   None    Shift=    0.000
 Gap=    -0.022 Goal=   None    Shift=    0.000
 GapD=   -0.022 DampG=0.250 DampE=0.250 DampFc=0.1250 IDamp=-1.
 Damping current iteration by 1.25D-01
 RMSDP=1.21D-02 MaxDP=5.36D-01              OVMax= 7.84D-01

 Cycle   2  Pass 1  IDiag  1:
 RMSU=  1.50D-03    CP:  9.89D-01
 E= -1400.30035606244     Delta-E=       -0.046758147367 Rises=F Damp=T
 DIIS: error= 3.14D-02 at cycle   2 NSaved=   2.
 NSaved= 2 IEnMin= 2 EnMin= -1400.30035606244     IErMin= 2 ErrMin= 3.14D-02
 ErrMax= 3.14D-02  0.00D+00 EMaxC= 1.00D-01 BMatC= 7.34D-01 BMatP= 2.45D+00
 IDIUse=3 WtCom= 6.86D-01 WtEn= 3.14D-01
 Coeff-Com: -0.584D+00 0.158D+01
 Coeff-En:   0.326D+00 0.674D+00
 Coeff:     -0.298D+00 0.130D+01
 Gap=     0.006 Goal=   None    Shift=    0.000
 Gap=    -0.090 Goal=   None    Shift=    0.000
 RMSDP=1.61D-02 MaxDP=1.71D+00 DE=-4.68D-02 OVMax= 9.53D-01

 Cycle   3  Pass 1  IDiag  1:
 RMSU=  1.61D-02    CP:  9.61D-01  1.94D+00
 E= -1399.78098834998     Delta-E=        0.519367712468 Rises=F Damp=F
 DIIS: error= 4.00D-02 at cycle   3 NSaved=   3.
 NSaved= 3 IEnMin= 2 EnMin= -1400.30035606244     IErMin= 2 ErrMin= 3.14D-02
 ErrMax= 4.00D-02  0.00D+00 EMaxC= 1.00D-01 BMatC= 3.45D+00 BMatP= 7.34D-01
 IDIUse=2 WtCom= 0.00D+00 WtEn= 1.00D+00
 EnCoef did     2 forward-backward iterations
 Coeff-En:   0.125D+00 0.652D+00 0.223D+00
 Coeff:      0.125D+00 0.652D+00 0.223D+00
 Gap=     0.020 Goal=   None    Shift=    0.000
 Gap=     0.255 Goal=   None    Shift=    0.000
 RMSDP=1.66D-02 MaxDP=1.63D+00 DE= 5.19D-01 OVMax= 8.95D-01

 Cycle   4  Pass 1  IDiag  1:
 RMSU=  3.86D-03    CP:  9.46D-01  3.00D+00  8.38D-03
 E= -1400.03529285004     Delta-E=       -0.254304500063 Rises=F Damp=F
 DIIS: error= 4.48D-02 at cycle   4 NSaved=   4.
 NSaved= 4 IEnMin= 2 EnMin= -1400.30035606244     IErMin= 2 ErrMin= 3.14D-02
 ErrMax= 4.48D-02  0.00D+00 EMaxC= 1.00D-01 BMatC= 3.92D+00 BMatP= 7.34D-01
 IDIUse=2 WtCom= 0.00D+00 WtEn= 1.00D+00
 EnCoef did   100 forward-backward iterations
 Coeff-En:   0.463D+00 0.962D-02 0.140D+00 0.388D+00
 Coeff:      0.463D+00 0.962D-02 0.140D+00 0.388D+00
 Gap=     0.027 Goal=   None    Shift=    0.000
 Gap=     0.222 Goal=   None    Shift=    0.000
 RMSDP=3.83D-03 MaxDP=1.69D-01 DE=-2.54D-01 OVMax= 1.78D-01

 Cycle   5  Pass 1  IDiag  1:
 RMSU=  2.07D-03    CP:  9.56D-01  2.28D+00  2.89D-02  4.29D-01
 E= -1400.63560743369     Delta-E=       -0.600314583655 Rises=F Damp=F
 DIIS: error= 4.58D-03 at cycle   5 NSaved=   5.
 NSaved= 5 IEnMin= 5 EnMin= -1400.63560743369     IErMin= 5 ErrMin= 4.58D-03
 ErrMax= 4.58D-03  0.00D+00 EMaxC= 1.00D-01 BMatC= 6.95D-02 BMatP= 7.34D-01
 IDIUse=3 WtCom= 9.54D-01 WtEn= 4.58D-02
 Coeff-Com:  0.839D-01 0.856D-01-0.152D-01 0.909D-01 0.755D+00
 Coeff-En:   0.000D+00 0.000D+00 0.000D+00 0.000D+00 0.100D+01
 Coeff:      0.800D-01 0.817D-01-0.145D-01 0.867D-01 0.766D+00
 Gap=     0.024 Goal=   None    Shift=    0.000
 Gap=     0.225 Goal=   None    Shift=    0.000
 RMSDP=8.79D-04 MaxDP=2.55D-02 DE=-6.00D-01 OVMax= 5.75D-02

 Cycle   6  Pass 1  IDiag  1:
 RMSU=  6.87D-04    CP:  9.57D-01  2.41D+00  1.92D-02  4.87D-01  7.89D-01
 E= -1400.64296147681     Delta-E=       -0.007354043117 Rises=F Damp=F
 DIIS: error= 3.22D-03 at cycle   6 NSaved=   6.
 NSaved= 6 IEnMin= 6 EnMin= -1400.64296147681     IErMin= 6 ErrMin= 3.22D-03
 ErrMax= 3.22D-03  0.00D+00 EMaxC= 1.00D-01 BMatC= 3.37D-02 BMatP= 6.95D-02
 IDIUse=3 WtCom= 9.68D-01 WtEn= 3.22D-02
 Coeff-Com: -0.841D-01 0.176D+00-0.265D-01-0.612D-02 0.493D+00 0.448D+00
 Coeff-En:   0.000D+00 0.000D+00 0.000D+00 0.000D+00 0.301D+00 0.699D+00
 Coeff:     -0.814D-01 0.170D+00-0.257D-01-0.592D-02 0.487D+00 0.456D+00
 Gap=     0.025 Goal=   None    Shift=    0.000
 Gap=     0.226 Goal=   None    Shift=    0.000
 RMSDP=4.33D-04 MaxDP=1.49D-02 DE=-7.35D-03 OVMax= 3.09D-02

 Cycle   7  Pass 1  IDiag  1:
 RMSU=  1.54D-04    CP:  9.56D-01  2.27D+00  2.15D-02  4.54D-01  8.66D-01
                    CP:  5.82D-01
 E= -1400.64728014785     Delta-E=       -0.004318671041 Rises=F Damp=F
 DIIS: error= 2.01D-03 at cycle   7 NSaved=   7.
 NSaved= 7 IEnMin= 7 EnMin= -1400.64728014785     IErMin= 7 ErrMin= 2.01D-03
 ErrMax= 2.01D-03  0.00D+00 EMaxC= 1.00D-01 BMatC= 9.04D-03 BMatP= 3.37D-02
 IDIUse=3 WtCom= 9.80D-01 WtEn= 2.01D-02
 Coeff-Com: -0.894D-01 0.118D+00-0.665D-02 0.517D-02 0.818D-02 0.107D+00
 Coeff-Com:  0.858D+00
 Coeff-En:   0.000D+00 0.000D+00 0.000D+00 0.000D+00 0.000D+00 0.772D-01
 Coeff-En:   0.923D+00
 Coeff:     -0.876D-01 0.115D+00-0.651D-02 0.507D-02 0.801D-02 0.107D+00
 Coeff:      0.859D+00
 Gap=     0.026 Goal=   None    Shift=    0.000
 Gap=     0.219 Goal=   None    Shift=    0.000
 RMSDP=1.41D-04 MaxDP=6.97D-03 DE=-4.32D-03 OVMax= 8.85D-03

 Cycle   8  Pass 1  IDiag  1:
 RMSU=  6.73D-05    CP:  9.56D-01  2.34D+00  2.06D-02  4.67D-01  8.48D-01
                    CP:  6.50D-01  9.13D-01
 E= -1400.64846080428     Delta-E=       -0.001180656429 Rises=F Damp=F
 DIIS: error= 1.03D-03 at cycle   8 NSaved=   8.
 NSaved= 8 IEnMin= 8 EnMin= -1400.64846080428     IErMin= 8 ErrMin= 1.03D-03
 ErrMax= 1.03D-03  0.00D+00 EMaxC= 1.00D-01 BMatC= 2.67D-03 BMatP= 9.04D-03
 IDIUse=3 WtCom= 9.90D-01 WtEn= 1.03D-02
 Coeff-Com: -0.597D-01 0.690D-01-0.228D-02 0.751D-02-0.753D-01-0.195D-01
 Coeff-Com:  0.412D+00 0.668D+00
 Coeff-En:   0.000D+00 0.000D+00 0.000D+00 0.000D+00 0.000D+00 0.000D+00
 Coeff-En:   0.000D+00 0.100D+01
 Coeff:     -0.590D-01 0.682D-01-0.226D-02 0.743D-02-0.745D-01-0.193D-01
 Coeff:      0.408D+00 0.672D+00
 Gap=     0.026 Goal=   None    Shift=    0.000
 Gap=     0.217 Goal=   None    Shift=    0.000
 RMSDP=6.60D-05 MaxDP=3.18D-03 DE=-1.18D-03 OVMax= 2.53D-03

 Cycle   9  Pass 1  IDiag  1:
 RMSU=  3.20D-05    CP:  9.56D-01  2.37D+00  2.02D-02  4.72D-01  8.41D-01
                    CP:  6.71D-01  9.92D-01  1.18D+00
 E= -1400.64878560425     Delta-E=       -0.000324799970 Rises=F Damp=F
 DIIS: error= 5.82D-04 at cycle   9 NSaved=   9.
 NSaved= 9 IEnMin= 9 EnMin= -1400.64878560425     IErMin= 9 ErrMin= 5.82D-04
 ErrMax= 5.82D-04  0.00D+00 EMaxC= 1.00D-01 BMatC= 9.33D-04 BMatP= 2.67D-03
 IDIUse=3 WtCom= 9.94D-01 WtEn= 5.82D-03
 Coeff-Com: -0.294D-01 0.318D-01-0.721D-04 0.402D-02-0.659D-01-0.615D-01
 Coeff-Com: -0.403D-01 0.453D+00 0.708D+00
 Coeff-En:   0.000D+00 0.000D+00 0.000D+00 0.000D+00 0.000D+00 0.000D+00
 Coeff-En:   0.000D+00 0.000D+00 0.100D+01
 Coeff:     -0.292D-01 0.317D-01-0.717D-04 0.400D-02-0.655D-01-0.612D-01
 Coeff:     -0.401D-01 0.450D+00 0.710D+00
 Gap=     0.026 Goal=   None    Shift=    0.000
 Gap=     0.216 Goal=   None    Shift=    0.000
 RMSDP=4.64D-05 MaxDP=2.17D-03 DE=-3.25D-04 OVMax= 2.50D-03

 Cycle  10  Pass 1  IDiag  1:
 RMSU=  1.74D-05    CP:  9.56D-01  2.39D+00  1.99D-02  4.76D-01  8.36D-01
                    CP:  6.85D-01  1.04D+00  1.46D+00  1.01D+00
 E= -1400.64892886861     Delta-E=       -0.000143264361 Rises=F Damp=F
 DIIS: error= 2.71D-04 at cycle  10 NSaved=  10.
 NSaved=10 IEnMin=10 EnMin= -1400.64892886861     IErMin=10 ErrMin= 2.71D-04
 ErrMax= 2.71D-04  0.00D+00 EMaxC= 1.00D-01 BMatC= 1.73D-04 BMatP= 9.33D-04
 IDIUse=3 WtCom= 9.97D-01 WtEn= 2.71D-03
 Coeff-Com: -0.434D-02 0.411D-02 0.990D-04 0.961D-03-0.199D-01-0.330D-01
 Coeff-Com: -0.135D+00 0.737D-02 0.325D+00 0.855D+00
 Coeff-En:   0.000D+00 0.000D+00 0.000D+00 0.000D+00 0.000D+00 0.000D+00
 Coeff-En:   0.000D+00 0.000D+00 0.000D+00 0.100D+01
 Coeff:     -0.433D-02 0.410D-02 0.987D-04 0.959D-03-0.198D-01-0.329D-01
 Coeff:     -0.134D+00 0.735D-02 0.324D+00 0.855D+00
 Gap=     0.026 Goal=   None    Shift=    0.000
 Gap=     0.214 Goal=   None    Shift=    0.000
 RMSDP=3.56D-05 MaxDP=1.72D-03 DE=-1.43D-04 OVMax= 1.50D-03

 Cycle  11  Pass 1  IDiag  1:
 RMSU=  6.60D-06    CP:  9.56D-01  2.41D+00  1.97D-02  4.79D-01  8.32D-01
                    CP:  6.94D-01  1.06D+00  1.67D+00  1.25D+00  1.07D+00
 E= -1400.64896048989     Delta-E=       -0.000031621279 Rises=F Damp=F
 DIIS: error= 3.76D-05 at cycle  11 NSaved=  11.
 NSaved=11 IEnMin=11 EnMin= -1400.64896048989     IErMin=11 ErrMin= 3.76D-05
 ErrMax= 3.76D-05  0.00D+00 EMaxC= 1.00D-01 BMatC= 3.66D-06 BMatP= 1.73D-04
 IDIUse=1 WtCom= 1.00D+00 WtEn= 0.00D+00
 Coeff-Com: -0.372D-04-0.645D-04 0.497D-05 0.169D-03-0.326D-02-0.835D-02
 Coeff-Com: -0.480D-01-0.460D-01 0.645D-01 0.370D+00 0.671D+00
 Coeff:     -0.372D-04-0.645D-04 0.497D-05 0.169D-03-0.326D-02-0.835D-02
 Coeff:     -0.480D-01-0.460D-01 0.645D-01 0.370D+00 0.671D+00
 Gap=     0.026 Goal=   None    Shift=    0.000
 Gap=     0.214 Goal=   None    Shift=    0.000
 RMSDP=5.53D-06 MaxDP=2.75D-04 DE=-3.16D-05 OVMax= 3.95D-04

 Cycle  12  Pass 1  IDiag  1:
 RMSU=  2.57D-06    CP:  9.56D-01  2.41D+00  1.96D-02  4.79D-01  8.32D-01
                    CP:  6.96D-01  1.06D+00  1.69D+00  1.28D+00  1.12D+00
                    CP:  8.86D-01
 E= -1400.64896111690     Delta-E=       -0.000000627005 Rises=F Damp=F
 DIIS: error= 9.51D-06 at cycle  12 NSaved=  12.
 NSaved=12 IEnMin=12 EnMin= -1400.64896111690     IErMin=12 ErrMin= 9.51D-06
 ErrMax= 9.51D-06  0.00D+00 EMaxC= 1.00D-01 BMatC= 3.19D-07 BMatP= 3.66D-06
 IDIUse=1 WtCom= 1.00D+00 WtEn= 0.00D+00
 Coeff-Com:  0.187D-03-0.184D-03-0.185D-04 0.222D-04-0.132D-03-0.152D-02
 Coeff-Com: -0.122D-01-0.268D-01 0.550D-02 0.127D+00 0.401D+00 0.507D+00
 Coeff:      0.187D-03-0.184D-03-0.185D-04 0.222D-04-0.132D-03-0.152D-02
 Coeff:     -0.122D-01-0.268D-01 0.550D-02 0.127D+00 0.401D+00 0.507D+00
 Gap=     0.026 Goal=   None    Shift=    0.000
 Gap=     0.214 Goal=   None    Shift=    0.000
 RMSDP=1.40D-06 MaxDP=8.57D-05 DE=-6.27D-07 OVMax= 2.90D-04

 Cycle  13  Pass 1  IDiag  1:
 RMSU=  1.30D-06    CP:  9.56D-01  2.41D+00  1.96D-02  4.79D-01  8.32D-01
                    CP:  6.96D-01  1.06D+00  1.69D+00  1.28D+00  1.13D+00
                    CP:  9.31D-01  9.15D-01
 E= -1400.64896117154     Delta-E=       -0.000000054644 Rises=F Damp=F
 DIIS: error= 3.72D-06 at cycle  13 NSaved=  13.
 NSaved=13 IEnMin=13 EnMin= -1400.64896117154     IErMin=13 ErrMin= 3.72D-06
 ErrMax= 3.72D-06  0.00D+00 EMaxC= 1.00D-01 BMatC= 4.02D-08 BMatP= 3.19D-07
 IDIUse=1 WtCom= 1.00D+00 WtEn= 0.00D+00
 Coeff-Com: -0.102D-03 0.176D-03-0.521D-05-0.198D-04 0.616D-03 0.153D-02
 Coeff-Com:  0.903D-02 0.126D-02-0.132D-01-0.429D-01 0.540D-02 0.240D+00
 Coeff-Com:  0.798D+00
 Coeff:     -0.102D-03 0.176D-03-0.521D-05-0.198D-04 0.616D-03 0.153D-02
 Coeff:      0.903D-02 0.126D-02-0.132D-01-0.429D-01 0.540D-02 0.240D+00
 Coeff:      0.798D+00
 Gap=     0.026 Goal=   None    Shift=    0.000
 Gap=     0.214 Goal=   None    Shift=    0.000
 RMSDP=8.95D-07 MaxDP=5.87D-05 DE=-5.46D-08 OVMax= 1.71D-04

 Cycle  14  Pass 1  IDiag  1:
 RMSU=  5.71D-07    CP:  9.56D-01  2.41D+00  1.96D-02  4.79D-01  8.32D-01
                    CP:  6.96D-01  1.06D+00  1.69D+00  1.27D+00  1.14D+00
                    CP:  9.67D-01  1.04D+00  1.17D+00
 E= -1400.64896117946     Delta-E=       -0.000000007920 Rises=F Damp=F
 DIIS: error= 1.50D-06 at cycle  14 NSaved=  14.
 NSaved=14 IEnMin=14 EnMin= -1400.64896117946     IErMin=14 ErrMin= 1.50D-06
 ErrMax= 1.50D-06  0.00D+00 EMaxC= 1.00D-01 BMatC= 6.89D-09 BMatP= 4.02D-08
 IDIUse=1 WtCom= 1.00D+00 WtEn= 0.00D+00
 Coeff-Com: -0.555D-04 0.695D-04 0.123D-05-0.167D-04 0.261D-03 0.799D-03
 Coeff-Com:  0.573D-02 0.483D-02-0.682D-02-0.418D-01-0.756D-01-0.186D-01
 Coeff-Com:  0.214D+00 0.917D+00
 Coeff:     -0.555D-04 0.695D-04 0.123D-05-0.167D-04 0.261D-03 0.799D-03
 Coeff:      0.573D-02 0.483D-02-0.682D-02-0.418D-01-0.756D-01-0.186D-01
 Coeff:      0.214D+00 0.917D+00
 Gap=     0.026 Goal=   None    Shift=    0.000
 Gap=     0.214 Goal=   None    Shift=    0.000
 RMSDP=4.78D-07 MaxDP=4.12D-05 DE=-7.92D-09 OVMax= 1.17D-04

 Cycle  15  Pass 1  IDiag  1:
 RMSU=  1.41D-07    CP:  9.56D-01  2.41D+00  1.96D-02  4.79D-01  8.32D-01
                    CP:  6.96D-01  1.06D+00  1.69D+00  1.27D+00  1.15D+00
                    CP:  9.92D-01  1.14D+00  1.34D+00  1.07D+00
 E= -1400.64896118100     Delta-E=       -0.000000001538 Rises=F Damp=F
 DIIS: error= 5.48D-07 at cycle  15 NSaved=  15.
 NSaved=15 IEnMin=15 EnMin= -1400.64896118100     IErMin=15 ErrMin= 5.48D-07
 ErrMax= 5.48D-07  0.00D+00 EMaxC= 1.00D-01 BMatC= 9.18D-10 BMatP= 6.89D-09
 IDIUse=1 WtCom= 1.00D+00 WtEn= 0.00D+00
 Coeff-Com: -0.177D-04 0.175D-04 0.736D-06-0.978D-06 0.218D-05 0.845D-04
 Coeff-Com:  0.849D-03 0.927D-03-0.861D-03-0.761D-02-0.177D-01-0.191D-01
 Coeff-Com: -0.837D-02 0.196D+00 0.856D+00
 Coeff:     -0.177D-04 0.175D-04 0.736D-06-0.978D-06 0.218D-05 0.845D-04
 Coeff:      0.849D-03 0.927D-03-0.861D-03-0.761D-02-0.177D-01-0.191D-01
 Coeff:     -0.837D-02 0.196D+00 0.856D+00
 Gap=     0.026 Goal=   None    Shift=    0.000
 Gap=     0.214 Goal=   None    Shift=    0.000
 RMSDP=1.00D-07 MaxDP=7.56D-06 DE=-1.54D-09 OVMax= 2.15D-05

 Cycle  16  Pass 1  IDiag  1:
 RMSU=  4.11D-08    CP:  9.56D-01  2.41D+00  1.96D-02  4.79D-01  8.32D-01
                    CP:  6.96D-01  1.06D+00  1.69D+00  1.27D+00  1.15D+00
                    CP:  9.96D-01  1.16D+00  1.37D+00  1.12D+00  1.00D+00
 E= -1400.64896118115     Delta-E=       -0.000000000149 Rises=F Damp=F
 DIIS: error= 2.20D-07 at cycle  16 NSaved=  16.
 NSaved=16 IEnMin=16 EnMin= -1400.64896118115     IErMin=16 ErrMin= 2.20D-07
 ErrMax= 2.20D-07  0.00D+00 EMaxC= 1.00D-01 BMatC= 2.11D-10 BMatP= 9.18D-10
 IDIUse=1 WtCom= 1.00D+00 WtEn= 0.00D+00
 Coeff-Com: -0.511D-05 0.332D-05 0.409D-06 0.152D-05-0.320D-04-0.408D-04
 Coeff-Com: -0.121D-03 0.212D-04 0.199D-03-0.110D-03-0.248D-02-0.988D-02
 Coeff-Com: -0.308D-01 0.166D-01 0.558D+00 0.468D+00
 Coeff:     -0.511D-05 0.332D-05 0.409D-06 0.152D-05-0.320D-04-0.408D-04
 Coeff:     -0.121D-03 0.212D-04 0.199D-03-0.110D-03-0.248D-02-0.988D-02
 Coeff:     -0.308D-01 0.166D-01 0.558D+00 0.468D+00
 Gap=     0.026 Goal=   None    Shift=    0.000
 Gap=     0.214 Goal=   None    Shift=    0.000
 RMSDP=3.24D-08 MaxDP=1.31D-06 DE=-1.49D-10 OVMax= 3.79D-06

 Cycle  17  Pass 1  IDiag  1:
 RMSU=  1.58D-08    CP:  9.56D-01  2.41D+00  1.96D-02  4.79D-01  8.32D-01
                    CP:  6.96D-01  1.06D+00  1.69D+00  1.27D+00  1.15D+00
                    CP:  9.97D-01  1.16D+00  1.38D+00  1.13D+00  1.06D+00
                    CP:  5.66D-01
 E= -1400.64896118119     Delta-E=       -0.000000000042 Rises=F Damp=F
 DIIS: error= 5.64D-08 at cycle  17 NSaved=  17.
 NSaved=17 IEnMin=17 EnMin= -1400.64896118119     IErMin=17 ErrMin= 5.64D-08
 ErrMax= 5.64D-08  0.00D+00 EMaxC= 1.00D-01 BMatC= 1.37D-11 BMatP= 2.11D-10
 IDIUse=1 WtCom= 1.00D+00 WtEn= 0.00D+00
 Coeff-Com:  0.614D-06-0.155D-05 0.894D-07 0.836D-06-0.168D-04-0.347D-04
 Coeff-Com: -0.196D-03-0.134D-03 0.211D-03 0.108D-02 0.153D-02-0.178D-02
 Coeff-Com: -0.137D-01-0.211D-01 0.152D+00 0.253D+00 0.630D+00
 Coeff:      0.614D-06-0.155D-05 0.894D-07 0.836D-06-0.168D-04-0.347D-04
 Coeff:     -0.196D-03-0.134D-03 0.211D-03 0.108D-02 0.153D-02-0.178D-02
 Coeff:     -0.137D-01-0.211D-01 0.152D+00 0.253D+00 0.630D+00
 Gap=     0.026 Goal=   None    Shift=    0.000
 Gap=     0.214 Goal=   None    Shift=    0.000
 RMSDP=1.03D-08 MaxDP=3.52D-07 DE=-4.23D-11 OVMax= 8.56D-07

 Cycle  18  Pass 1  IDiag  1:
 RMSU=  4.88D-09    CP:  9.56D-01  2.41D+00  1.96D-02  4.79D-01  8.32D-01
                    CP:  6.96D-01  1.06D+00  1.69D+00  1.27D+00  1.15D+00
                    CP:  9.97D-01  1.16D+00  1.38D+00  1.13D+00  1.07D+00
                    CP:  6.20D-01  7.28D-01
 E= -1400.64896118118     Delta-E=        0.000000000012 Rises=F Damp=F
 DIIS: error= 1.54D-08 at cycle  18 NSaved=  18.
 NSaved=18 IEnMin=17 EnMin= -1400.64896118119     IErMin=18 ErrMin= 1.54D-08
 ErrMax= 1.54D-08  0.00D+00 EMaxC= 1.00D-01 BMatC= 1.05D-12 BMatP= 1.37D-11
 IDIUse=1 WtCom= 1.00D+00 WtEn= 0.00D+00
 Coeff-Com:  0.779D-06-0.109D-05-0.127D-07 0.214D-06-0.405D-05-0.102D-04
 Coeff-Com: -0.622D-04-0.485D-04 0.667D-04 0.406D-03 0.733D-03 0.666D-04
 Coeff-Com: -0.277D-02-0.838D-02 0.164D-01 0.636D-01 0.255D+00 0.675D+00
 Coeff:      0.779D-06-0.109D-05-0.127D-07 0.214D-06-0.405D-05-0.102D-04
 Coeff:     -0.622D-04-0.485D-04 0.667D-04 0.406D-03 0.733D-03 0.666D-04
 Coeff:     -0.277D-02-0.838D-02 0.164D-01 0.636D-01 0.255D+00 0.675D+00
 Gap=     0.026 Goal=   None    Shift=    0.000
 Gap=     0.214 Goal=   None    Shift=    0.000
 RMSDP=2.44D-09 MaxDP=8.38D-08 DE= 1.18D-11 OVMax= 2.41D-07

 SCF Done:  E(UPBE-PBE) =  -1400.64896118     A.U. after   18 cycles
            NFock= 18  Conv=0.24D-08     -V/T= 2.0011
 <Sx>= 0.0000 <Sy>= 0.0000 <Sz>= 1.0000 <S**2>= 2.0044 S= 1.0015
 <L.S>=  0.00000000000    
 KE= 1.399049175629D+03 PE=-4.706847823854D+03 EE= 1.189439545423D+03
 Annihilation of the first spin contaminant:
 S**2 before annihilation     2.0044,   after     2.0000
 Leave Link  502 at Thu May 30 09:23:13 2024, MaxMem= 26843545600 cpu:            7478.6 elap:              62.1
 (Enter /gpfs/fs1/soft/improv/software/custom-built/gaussian/g16/l508.exe)
 QCSCF skips out because SCF is already converged.
 Leave Link  508 at Thu May 30 09:23:13 2024, MaxMem= 26843545600 cpu:               0.2 elap:               0.0
 (Enter /gpfs/fs1/soft/improv/software/custom-built/gaussian/g16/l801.exe)
 DoSCS=F DFT=T ScalE2(SS,OS)=  1.000000  1.000000
 Range of M.O.s used for correlation:     1   317
 NBasis=   317 NAE=    41 NBE=    39 NFC=     0 NFV=     0
 NROrb=    317 NOA=    41 NOB=    39 NVA=   276 NVB=   278

 **** Warning!!: The largest alpha MO coefficient is  0.64843683D+02


 **** Warning!!: The smallest alpha delta epsilon is  0.25543593D-01


 **** Warning!!: The largest beta MO coefficient is  0.64834087D+02

 Leave Link  801 at Thu May 30 09:23:13 2024, MaxMem= 26843545600 cpu:               0.4 elap:               0.0
 (Enter /gpfs/fs1/soft/improv/software/custom-built/gaussian/g16/l1101.exe)
 Using compressed storage, NAtomX=    19.
 Will process     20 centers per pass.
 R6Disp: Adding Grimme-D3 dispersion energy 1st derivatives to the gradient.
 Leave Link 1101 at Thu May 30 09:23:14 2024, MaxMem= 26843545600 cpu:              51.0 elap:               0.5
 (Enter /gpfs/fs1/soft/improv/software/custom-built/gaussian/g16/l1102.exe)
 Symmetrizing basis deriv contribution to polar:
 IMax=3 JMax=2 DiffMx= 0.00D+00
 Leave Link 1102 at Thu May 30 09:23:14 2024, MaxMem= 26843545600 cpu:               0.9 elap:               0.0
 (Enter /gpfs/fs1/soft/improv/software/custom-built/gaussian/g16/l1110.exe)
 Forming Gx(P) for the SCF density, NAtomX=    19.
 Integral derivatives from FoFJK, PRISM(SPDF).
 Do as many integral derivatives as possible in FoFJK.
 G2DrvN: MDV=   26843543431.
 G2DrvN: will do    20 centers at a time, making    1 passes.
 Calling FoFCou, ICntrl=  3507 FMM=F I1Cent=   0 AccDes= 0.00D+00.
 FoFJK:  IHMeth= 1 ICntrl=    3507 DoSepK=F KAlg= 0 I1Cent=           0 FoldK=F
 IRaf=         0 NMat=       1 IRICut=       1 DoRegI=T DoRafI=F ISym2E= 0 IDoP0=0 IntGTp=1.
 FoFCou: FMM=F IPFlag=           0 FMFlag=      100000 FMFlg1=           0
         NFxFlg=           0 DoJE=F BraDBF=F KetDBF=F FulRan=T
         wScrn=  0.000000 ICntrl=      3507 IOpCl=  0 I1Cent=           0 NGrid=           0
         NMat0=    1 NMatS0=      1 NMatT0=    0 NMatD0=    1 NMtDS0=    0 NMtDT0=    0
 Symmetry not used in FoFCou.
 End of G2Drv F.D. properties file   721 does not exist.
 End of G2Drv F.D. properties file   722 does not exist.
 End of G2Drv F.D. properties file   788 does not exist.
 Leave Link 1110 at Thu May 30 09:23:28 2024, MaxMem= 26843545600 cpu:            1754.1 elap:              14.1
 (Enter /gpfs/fs1/soft/improv/software/custom-built/gaussian/g16/l1002.exe)
 Minotr:  UHF open shell wavefunction.
          IDoAtm=1111111111111111111
          Direct CPHF calculation.
          Differentiating once with respect to electric field.
                with respect to dipole field.
          Differentiating once with respect to nuclear coordinates.
          Requested convergence is 1.0D-08 RMS, and 1.0D-07 maximum.
          Secondary convergence is 1.0D-12 RMS, and 1.0D-12 maximum.
          NewPWx=T KeepS1=F KeepF1=F KeepIn=T MapXYZ=F SortEE=F KeepMc=T.
         6034 words used for storage of precomputed grid.
 Two-electron integrals replicated using symmetry.
          MDV=   26843545600 using IRadAn=       1.
          Solving linear equations simultaneously, MaxMat=     384.
 FoF2E skips out because all densities are zero.
 CalDSu exits because no D1Ps are significant.
 FoFJK:  IHMeth= 1 ICntrl=     500 DoSepK=F KAlg= 0 I1Cent=           0 FoldK=F
 IRaf= 990000000 NMat=      57 IRICut=       1 DoRegI=T DoRafI=F ISym2E= 2 IDoP0=3 IntGTp=2.
 FoFCou: FMM=F IPFlag=           0 FMFlag=      100000 FMFlg1=           0
         NFxFlg=           0 DoJE=F BraDBF=F KetDBF=F FulRan=T
         wScrn=  0.000000 ICntrl=       500 IOpCl=  0 I1Cent=           0 NGrid=           0
         NMat0=   57 NMatS0=     57 NMatT0=    0 NMatD0=   57 NMtDS0=    0 NMtDT0=    0
 Integrals replicated using symmetry in FoFCou.
          There are    60 degrees of freedom in the 1st order CPHF.  IDoFFX=6 NUNeed=     3.
     57 vectors produced by pass  0 Test12= 3.69D-14 1.67D-09 XBig12= 9.66D+01 2.24D+00.
 AX will form    57 AO Fock derivatives at one time.
     57 vectors produced by pass  1 Test12= 3.69D-14 1.67D-09 XBig12= 1.29D+01 3.67D-01.
     57 vectors produced by pass  2 Test12= 3.69D-14 1.67D-09 XBig12= 1.17D-01 3.83D-02.
     57 vectors produced by pass  3 Test12= 3.69D-14 1.67D-09 XBig12= 4.44D-04 1.95D-03.
     57 vectors produced by pass  4 Test12= 3.69D-14 1.67D-09 XBig12= 2.14D-06 1.64D-04.
     57 vectors produced by pass  5 Test12= 3.69D-14 1.67D-09 XBig12= 6.10D-09 8.13D-06.
     21 vectors produced by pass  6 Test12= 3.69D-14 1.67D-09 XBig12= 7.41D-12 3.49D-07.
      3 vectors produced by pass  7 Test12= 3.69D-14 1.67D-09 XBig12= 1.60D-14 1.10D-08.
 InvSVY:  IOpt=1 It=  1 EMax= 1.78D-15
 Solved reduced A of dimension   366 with    60 vectors.
 FullF1:  Do perturbations      1 to       3.
 Isotropic polarizability for W=    0.000000       53.65 Bohr**3.
 End of Minotr F.D. properties file   721 does not exist.
 End of Minotr F.D. properties file   722 does not exist.
 End of Minotr F.D. properties file   788 does not exist.
 Leave Link 1002 at Thu May 30 09:24:12 2024, MaxMem= 26843545600 cpu:            5267.9 elap:              44.0
 (Enter /gpfs/fs1/soft/improv/software/custom-built/gaussian/g16/l601.exe)
 Copying SCF densities to generalized density rwf, IOpCl= 1 IROHF=0.

 **********************************************************************

            Population analysis using the SCF Density.

 **********************************************************************

 Orbital symmetries:
 Alpha Orbitals:
       Occupied  (A) (A) (A) (A) (A) (A) (A) (A) (A) (A) (A) (A)
                 (A) (A) (A) (A) (A) (A) (A) (A) (A) (A) (A) (A)
                 (A) (A) (A) (A) (A) (A) (A) (A) (A) (A) (A) (A)
                 (A) (A) (A) (A) (A)
       Virtual   (A) (A) (A) (A) (A) (A) (A) (A) (A) (A) (A) (A)
                 (A) (A) (A) (A) (A) (A) (A) (A) (A) (A) (A) (A)
                 (A) (A) (A) (A) (A) (A) (A) (A) (A) (A) (A) (A)
                 (A) (A) (A) (A) (A) (A) (A) (A) (A) (A) (A) (A)
                 (A) (A) (A) (A) (A) (A) (A) (A) (A) (A) (A) (A)
                 (A) (A) (A) (A) (A) (A) (A) (A) (A) (A) (A) (A)
                 (A) (A) (A) (A) (A) (A) (A) (A) (A) (A) (A) (A)
                 (A) (A) (A) (A) (A) (A) (A) (A) (A) (A) (A) (A)
                 (A) (A) (A) (A) (A) (A) (A) (A) (A) (A) (A) (A)
                 (A) (A) (A) (A) (A) (A) (A) (A) (A) (A) (A) (A)
                 (A) (A) (A) (A) (A) (A) (A) (A) (A) (A) (A) (A)
                 (A) (A) (A) (A) (A) (A) (A) (A) (A) (A) (A) (A)
                 (A) (A) (A) (A) (A) (A) (A) (A) (A) (A) (A) (A)
                 (A) (A) (A) (A) (A) (A) (A) (A) (A) (A) (A) (A)
                 (A) (A) (A) (A) (A) (A) (A) (A) (A) (A) (A) (A)
                 (A) (A) (A) (A) (A) (A) (A) (A) (A) (A) (A) (A)
                 (A) (A) (A) (A) (A) (A) (A) (A) (A) (A) (A) (A)
                 (A) (A) (A) (A) (A) (A) (A) (A) (A) (A) (A) (A)
                 (A) (A) (A) (A) (A) (A) (A) (A) (A) (A) (A) (A)
                 (A) (A) (A) (A) (A) (A) (A) (A) (A) (A) (A) (A)
                 (A) (A) (A) (A) (A) (A) (A) (A) (A) (A) (A) (A)
                 (A) (A) (A) (A) (A) (A) (A) (A) (A) (A) (A) (A)
                 (A) (A) (A) (A) (A) (A) (A) (A) (A) (A) (A) (A)
 Beta  Orbitals:
       Occupied  (A) (A) (A) (A) (A) (A) (A) (A) (A) (A) (A) (A)
                 (A) (A) (A) (A) (A) (A) (A) (A) (A) (A) (A) (A)
                 (A) (A) (A) (A) (A) (A) (A) (A) (A) (A) (A) (A)
                 (A) (A) (A)
       Virtual   (A) (A) (A) (A) (A) (A) (A) (A) (A) (A) (A) (A)
                 (A) (A) (A) (A) (A) (A) (A) (A) (A) (A) (A) (A)
                 (A) (A) (A) (A) (A) (A) (A) (A) (A) (A) (A) (A)
                 (A) (A) (A) (A) (A) (A) (A) (A) (A) (A) (A) (A)
                 (A) (A) (A) (A) (A) (A) (A) (A) (A) (A) (A) (A)
                 (A) (A) (A) (A) (A) (A) (A) (A) (A) (A) (A) (A)
                 (A) (A) (A) (A) (A) (A) (A) (A) (A) (A) (A) (A)
                 (A) (A) (A) (A) (A) (A) (A) (A) (A) (A) (A) (A)
                 (A) (A) (A) (A) (A) (A) (A) (A) (A) (A) (A) (A)
                 (A) (A) (A) (A) (A) (A) (A) (A) (A) (A) (A) (A)
                 (A) (A) (A) (A) (A) (A) (A) (A) (A) (A) (A) (A)
                 (A) (A) (A) (A) (A) (A) (A) (A) (A) (A) (A) (A)
                 (A) (A) (A) (A) (A) (A) (A) (A) (A) (A) (A) (A)
                 (A) (A) (A) (A) (A) (A) (A) (A) (A) (A) (A) (A)
                 (A) (A) (A) (A) (A) (A) (A) (A) (A) (A) (A) (A)
                 (A) (A) (A) (A) (A) (A) (A) (A) (A) (A) (A) (A)
                 (A) (A) (A) (A) (A) (A) (A) (A) (A) (A) (A) (A)
                 (A) (A) (A) (A) (A) (A) (A) (A) (A) (A) (A) (A)
                 (A) (A) (A) (A) (A) (A) (A) (A) (A) (A) (A) (A)
                 (A) (A) (A) (A) (A) (A) (A) (A) (A) (A) (A) (A)
                 (A) (A) (A) (A) (A) (A) (A) (A) (A) (A) (A) (A)
                 (A) (A) (A) (A) (A) (A) (A) (A) (A) (A) (A) (A)
                 (A) (A) (A) (A) (A) (A) (A) (A) (A) (A) (A) (A)
                 (A) (A)
 The electronic state is 3-A.
 Alpha  occ. eigenvalues -- -196.18548 -22.37792 -19.40042 -19.39856 -19.38450
 Alpha  occ. eigenvalues --  -19.38050 -19.36939 -19.36433 -18.95897 -18.95198
 Alpha  occ. eigenvalues --  -18.94701  -3.06393  -2.15031  -2.14459  -2.14001
 Alpha  occ. eigenvalues --   -1.57932  -1.55917  -1.55106  -1.54089  -1.53063
 Alpha  occ. eigenvalues --   -1.52507  -1.14120  -1.12503  -1.10765  -1.09882
 Alpha  occ. eigenvalues --   -1.08569  -1.07217  -1.01841  -1.01704  -1.00783
 Alpha  occ. eigenvalues --   -0.97781  -0.96663  -0.94914  -0.93567  -0.90627
 Alpha  occ. eigenvalues --   -0.89808  -0.88564  -0.87013  -0.85656  -0.70923
 Alpha  occ. eigenvalues --   -0.70069
 Alpha virt. eigenvalues --   -0.67514  -0.58062  -0.53431  -0.52705  -0.52363
 Alpha virt. eigenvalues --   -0.50257  -0.49083  -0.45776  -0.44733  -0.43186
 Alpha virt. eigenvalues --   -0.42807  -0.40065  -0.38586  -0.38277  -0.36853
 Alpha virt. eigenvalues --   -0.34176  -0.33455  -0.32304  -0.30546  -0.29879
 Alpha virt. eigenvalues --   -0.29566  -0.29027  -0.28815  -0.26888  -0.26637
 Alpha virt. eigenvalues --   -0.26205  -0.25493  -0.24030  -0.23454  -0.22942
 Alpha virt. eigenvalues --   -0.21235  -0.21066  -0.20511  -0.19239  -0.18055
 Alpha virt. eigenvalues --   -0.17244  -0.16893  -0.16748  -0.15782  -0.14539
 Alpha virt. eigenvalues --   -0.13968  -0.13609  -0.11670  -0.11102  -0.09610
 Alpha virt. eigenvalues --   -0.09030  -0.08342  -0.07658  -0.06064  -0.02978
 Alpha virt. eigenvalues --   -0.02224  -0.01064   0.02043   0.02929   0.04177
 Alpha virt. eigenvalues --    0.06407   0.16836   0.17747   0.19043   0.22254
 Alpha virt. eigenvalues --    0.23472   0.23896   0.24232   0.24917   0.27535
 Alpha virt. eigenvalues --    0.28696   0.29329   0.29996   0.32800   0.33718
 Alpha virt. eigenvalues --    0.34331   0.35305   0.35564   0.37616   0.37739
 Alpha virt. eigenvalues --    0.39149   0.41982   0.43843   0.45915   0.46050
 Alpha virt. eigenvalues --    0.47612   0.48001   0.48866   0.50045   0.51528
 Alpha virt. eigenvalues --    0.52702   0.53368   0.54687   0.56548   0.57806
 Alpha virt. eigenvalues --    0.62594   0.63660   0.63682   0.66903   0.67619
 Alpha virt. eigenvalues --    0.69587   0.70555   0.71810   0.73544   0.76549
 Alpha virt. eigenvalues --    0.76828   0.77775   0.80510   0.81692   0.82913
 Alpha virt. eigenvalues --    0.85984   0.87683   0.89505   0.95177   0.97125
 Alpha virt. eigenvalues --    1.00325   1.07491   1.07676   1.09398   1.10984
 Alpha virt. eigenvalues --    1.13983   1.14552   1.19028   1.21448   1.23853
 Alpha virt. eigenvalues --    1.26751   1.29895   1.31929   1.35264   1.39693
 Alpha virt. eigenvalues --    1.43331   1.60709   1.61627   1.63513   1.64895
 Alpha virt. eigenvalues --    1.67635   1.67894   1.69090   1.70534   1.74065
 Alpha virt. eigenvalues --    1.77262   1.80108   1.82453   1.85648   1.90335
 Alpha virt. eigenvalues --    1.91112   1.94684   1.96494   2.01175   2.07076
 Alpha virt. eigenvalues --    2.10482   2.12585   2.13872   2.19809   2.21293
 Alpha virt. eigenvalues --    2.24569   2.24870   2.26823   2.28951   2.30695
 Alpha virt. eigenvalues --    2.32756   2.34158   2.36326   2.37147   2.39269
 Alpha virt. eigenvalues --    2.41780   2.42375   2.43168   2.47115   2.51513
 Alpha virt. eigenvalues --    2.53033   2.53905   2.54273   2.56996   2.61094
 Alpha virt. eigenvalues --    2.61877   2.70904   2.76793   2.78876   2.80261
 Alpha virt. eigenvalues --    2.82584   2.83448   2.86451   2.87303   2.88421
 Alpha virt. eigenvalues --    2.94201   3.09371   3.15121   3.39193   3.42252
 Alpha virt. eigenvalues --    3.43631   3.49380   3.50433   3.53197   3.54324
 Alpha virt. eigenvalues --    3.56347   3.56812   3.57457   3.60222   3.63121
 Alpha virt. eigenvalues --    3.68061   3.70089   3.75039   3.76131   3.78657
 Alpha virt. eigenvalues --    3.80183   3.84989   3.86265   3.89483   3.93473
 Alpha virt. eigenvalues --    3.94714   3.96969   4.02648   4.05325   4.06167
 Alpha virt. eigenvalues --    4.07963   4.10700   4.13074   4.20442   4.22880
 Alpha virt. eigenvalues --    4.25176   4.27177   4.28918   4.29849   4.37510
 Alpha virt. eigenvalues --    4.43911   4.49612   4.55288   4.57057   4.60766
 Alpha virt. eigenvalues --    4.62700   4.67267   4.73469   4.75130   4.78274
 Alpha virt. eigenvalues --    4.78348   4.78814   4.79858   4.81492   4.84661
 Alpha virt. eigenvalues --    4.86005   4.90096   4.93310   4.94560   4.96085
 Alpha virt. eigenvalues --    4.98359   5.01120   5.03740   5.06156   5.09914
 Alpha virt. eigenvalues --    5.12736   5.14436   5.14675   5.15871   5.17501
 Alpha virt. eigenvalues --    5.18377   5.21444   5.21574   5.22004   5.24443
 Alpha virt. eigenvalues --    5.26992   5.27618   5.28452   5.29900   5.30399
 Alpha virt. eigenvalues --    5.62524   5.65045   6.11433   6.77447   6.80142
 Alpha virt. eigenvalues --    6.80933   6.90393   6.95203   7.03393  13.03293
 Alpha virt. eigenvalues --   13.04863  13.05505  13.49774  13.55470  13.62993
 Alpha virt. eigenvalues --   36.25420
  Beta  occ. eigenvalues -- -196.18541 -22.35621 -19.40078 -19.39885 -19.38443
  Beta  occ. eigenvalues --  -19.38035 -19.36957 -19.36464 -18.94665 -18.93489
  Beta  occ. eigenvalues --  -18.92654  -2.99885  -2.10392  -2.07914  -2.06163
  Beta  occ. eigenvalues --   -1.57803  -1.55847  -1.54988  -1.53881  -1.52942
  Beta  occ. eigenvalues --   -1.52424  -1.13800  -1.12192  -1.10564  -1.09707
  Beta  occ. eigenvalues --   -1.08374  -1.07086  -1.01441  -1.01223  -1.00283
  Beta  occ. eigenvalues --   -0.97467  -0.96355  -0.94689  -0.93231  -0.90382
  Beta  occ. eigenvalues --   -0.89535  -0.88250  -0.86780  -0.85576
  Beta virt. eigenvalues --   -0.64148  -0.62173  -0.61453  -0.57828  -0.52178
  Beta virt. eigenvalues --   -0.50686  -0.50520  -0.49738  -0.48855  -0.45334
  Beta virt. eigenvalues --   -0.44297  -0.42932  -0.42599  -0.39823  -0.38362
  Beta virt. eigenvalues --   -0.38057  -0.36496  -0.34010  -0.33265  -0.32060
  Beta virt. eigenvalues --   -0.30260  -0.29638  -0.29383  -0.28784  -0.28515
  Beta virt. eigenvalues --   -0.26712  -0.26315  -0.26035  -0.25129  -0.23736
  Beta virt. eigenvalues --   -0.23094  -0.22638  -0.21003  -0.20667  -0.20087
  Beta virt. eigenvalues --   -0.18861  -0.17632  -0.16973  -0.16574  -0.16374
  Beta virt. eigenvalues --   -0.15370  -0.14073  -0.13638  -0.13183  -0.10956
  Beta virt. eigenvalues --   -0.10862  -0.09237  -0.08554  -0.07716  -0.07284
  Beta virt. eigenvalues --   -0.05667  -0.02480  -0.01253  -0.00176   0.02512
  Beta virt. eigenvalues --    0.03198   0.05137   0.07279   0.17854   0.18408
  Beta virt. eigenvalues --    0.19737   0.23215   0.24133   0.24804   0.24985
  Beta virt. eigenvalues --    0.25705   0.27834   0.29142   0.29715   0.30347
  Beta virt. eigenvalues --    0.33200   0.33995   0.34633   0.35595   0.35880
  Beta virt. eigenvalues --    0.37986   0.38251   0.39506   0.42362   0.44355
  Beta virt. eigenvalues --    0.46233   0.46429   0.47939   0.48361   0.49144
  Beta virt. eigenvalues --    0.50292   0.52102   0.53082   0.53755   0.55063
  Beta virt. eigenvalues --    0.56992   0.58332   0.63412   0.63849   0.64012
  Beta virt. eigenvalues --    0.67244   0.68021   0.70014   0.71588   0.72280
  Beta virt. eigenvalues --    0.73750   0.77288   0.77631   0.78657   0.81249
  Beta virt. eigenvalues --    0.82079   0.83374   0.87098   0.88919   0.89805
  Beta virt. eigenvalues --    0.96657   0.98475   1.01708   1.09830   1.10847
  Beta virt. eigenvalues --    1.12068   1.13595   1.16491   1.17183   1.20096
  Beta virt. eigenvalues --    1.22564   1.24873   1.27887   1.31130   1.33654
  Beta virt. eigenvalues --    1.35955   1.41136   1.44379   1.61165   1.62118
  Beta virt. eigenvalues --    1.63923   1.65312   1.68196   1.68398   1.69572
  Beta virt. eigenvalues --    1.71250   1.74600   1.77629   1.80437   1.83195
  Beta virt. eigenvalues --    1.86302   1.91017   1.91851   1.95693   1.97604
  Beta virt. eigenvalues --    2.01977   2.08141   2.12428   2.13888   2.14763
  Beta virt. eigenvalues --    2.20791   2.22336   2.25384   2.25601   2.27560
  Beta virt. eigenvalues --    2.29725   2.32038   2.33714   2.34911   2.37542
  Beta virt. eigenvalues --    2.37952   2.39962   2.42421   2.43296   2.44003
  Beta virt. eigenvalues --    2.48057   2.52171   2.53628   2.54652   2.55045
  Beta virt. eigenvalues --    2.58086   2.61580   2.62329   2.72115   2.79689
  Beta virt. eigenvalues --    2.80630   2.83849   2.86339   2.86500   2.89369
  Beta virt. eigenvalues --    2.90687   2.92046   2.97363   3.12837   3.18951
  Beta virt. eigenvalues --    3.39238   3.42330   3.43711   3.49711   3.50584
  Beta virt. eigenvalues --    3.53622   3.54643   3.56852   3.57309   3.57606
  Beta virt. eigenvalues --    3.60662   3.63472   3.68334   3.70258   3.75624
  Beta virt. eigenvalues --    3.76449   3.78927   3.80409   3.85423   3.88066
  Beta virt. eigenvalues --    3.92944   3.96689   3.98017   3.98589   4.03839
  Beta virt. eigenvalues --    4.07061   4.07812   4.09953   4.12953   4.13315
  Beta virt. eigenvalues --    4.21383   4.24247   4.25885   4.28445   4.29639
  Beta virt. eigenvalues --    4.30741   4.39693   4.46091   4.49859   4.55901
  Beta virt. eigenvalues --    4.57595   4.61193   4.63389   4.68431   4.73593
  Beta virt. eigenvalues --    4.75212   4.78454   4.78533   4.78977   4.80139
  Beta virt. eigenvalues --    4.81953   4.85122   4.86489   4.90765   4.94312
  Beta virt. eigenvalues --    4.95087   4.97130   4.98929   5.01541   5.04329
  Beta virt. eigenvalues --    5.07082   5.10466   5.13135   5.14805   5.15495
  Beta virt. eigenvalues --    5.16252   5.18088   5.18855   5.21840   5.22381
  Beta virt. eigenvalues --    5.22608   5.25125   5.27699   5.28356   5.28702
  Beta virt. eigenvalues --    5.30127   5.30656   5.62674   5.65251   6.12982
  Beta virt. eigenvalues --    6.77763   6.80443   6.81233   6.90590   6.95371
  Beta virt. eigenvalues --    7.03669  13.03490  13.05069  13.05666  13.49850
  Beta virt. eigenvalues --   13.55558  13.63069  36.27924
          Condensed to atoms (all electrons):
               1          2          3          4          5          6
     1  V   22.393982  -0.047507  -0.023611  -0.059799  -0.030196  -0.043446
     2  O   -0.047507   8.195775   0.321141  -0.104009  -0.001408  -0.046159
     3  H   -0.023611   0.321141   0.259701  -0.001111  -0.000004   0.000915
     4  O   -0.059799  -0.104009  -0.001111   8.447232   0.318707  -0.149767
     5  H   -0.030196  -0.001408  -0.000004   0.318707   0.290437   0.000632
     6  O   -0.043446  -0.046159   0.000915  -0.149767   0.000632   8.251963
     7  H   -0.020417  -0.004926   0.000028   0.004505  -0.000231   0.318213
     8  O   -0.054014   0.064218  -0.000422  -0.110056   0.001772  -0.099162
     9  H   -0.021888  -0.000537  -0.000035  -0.004860  -0.000126   0.005265
    10  O   -0.065154  -0.078225  -0.001000   0.084345  -0.000865  -0.123023
    11  H   -0.017870   0.003020  -0.000209  -0.000160   0.000014  -0.002829
    12  O   -0.046548   0.052104   0.001812  -0.119513  -0.001504   0.072295
    13  H   -0.028573  -0.003243   0.000007   0.000112  -0.000106   0.000147
    14  H   -0.006372  -0.002180  -0.000025   0.003583   0.000036  -0.000849
    15  H   -0.020166  -0.001695  -0.000075   0.317008  -0.023865  -0.006357
    16  H   -0.018041   0.317111  -0.015315   0.000225  -0.000037  -0.008665
    17  H   -0.031275  -0.002761   0.000032  -0.000803  -0.000028   0.000938
    18  H   -0.020984   0.006708   0.000035  -0.006731   0.000467   0.312968
    19  H   -0.018477  -0.001369   0.000016   0.006915   0.001022  -0.010648
               7          8          9         10         11         12
     1  V   -0.020417  -0.054014  -0.021888  -0.065154  -0.017870  -0.046548
     2  O   -0.004926   0.064218  -0.000537  -0.078225   0.003020   0.052104
     3  H    0.000028  -0.000422  -0.000035  -0.001000  -0.000209   0.001812
     4  O    0.004505  -0.110056  -0.004860   0.084345  -0.000160  -0.119513
     5  H   -0.000231   0.001772  -0.000126  -0.000865   0.000014  -0.001504
     6  O    0.318213  -0.099162   0.005265  -0.123023  -0.002829   0.072295
     7  H    0.297015  -0.014661  -0.000486   0.007093  -0.000055  -0.001102
     8  O   -0.014661   8.208421   0.317200  -0.087175  -0.005619  -0.012635
     9  H   -0.000486   0.317200   0.278186  -0.010214   0.000644   0.006121
    10  O    0.007093  -0.087175  -0.010214   8.402007   0.314883  -0.149977
    11  H   -0.000055  -0.005619   0.000644   0.314883   0.282599  -0.003576
    12  O   -0.001102  -0.012635   0.006121  -0.149977  -0.003576   8.224020
    13  H    0.000016  -0.002007   0.000036   0.000103  -0.000162   0.327997
    14  H   -0.000043  -0.007984   0.000850   0.000585   0.003036   0.301485
    15  H    0.000070  -0.002040  -0.000010  -0.000368  -0.000002   0.002446
    16  H   -0.000130  -0.000040   0.000015   0.003586   0.000009  -0.003376
    17  H    0.001312  -0.001012  -0.000076   0.322859  -0.023829  -0.000692
    18  H   -0.019077   0.005597  -0.000010  -0.004913  -0.000002  -0.000716
    19  H    0.005053   0.311607  -0.018743   0.004187   0.000063  -0.003708
              13         14         15         16         17         18
     1  V   -0.028573  -0.006372  -0.020166  -0.018041  -0.031275  -0.020984
     2  O   -0.003243  -0.002180  -0.001695   0.317111  -0.002761   0.006708
     3  H    0.000007  -0.000025  -0.000075  -0.015315   0.000032   0.000035
     4  O    0.000112   0.003583   0.317008   0.000225  -0.000803  -0.006731
     5  H   -0.000106   0.000036  -0.023865  -0.000037  -0.000028   0.000467
     6  O    0.000147  -0.000849  -0.006357  -0.008665   0.000938   0.312968
     7  H    0.000016  -0.000043   0.000070  -0.000130   0.001312  -0.019077
     8  O   -0.002007  -0.007984  -0.002040  -0.000040  -0.001012   0.005597
     9  H    0.000036   0.000850  -0.000010   0.000015  -0.000076  -0.000010
    10  O    0.000103   0.000585  -0.000368   0.003586   0.322859  -0.004913
    11  H   -0.000162   0.003036  -0.000002   0.000009  -0.023829  -0.000002
    12  O    0.327997   0.301485   0.002446  -0.003376  -0.000692  -0.000716
    13  H    0.254804  -0.016016  -0.000142  -0.000001  -0.000013  -0.000037
    14  H   -0.016016   0.295217   0.000005  -0.000021  -0.000098   0.000015
    15  H   -0.000142   0.000005   0.273086   0.001136   0.000013   0.000337
    16  H   -0.000001  -0.000021   0.001136   0.279460   0.000041   0.000133
    17  H   -0.000013  -0.000098   0.000013   0.000041   0.288507  -0.000166
    18  H   -0.000037   0.000015   0.000337   0.000133  -0.000166   0.276718
    19  H    0.000028  -0.000159  -0.000050  -0.000046  -0.000218  -0.000387
              19
     1  V   -0.018477
     2  O   -0.001369
     3  H    0.000016
     4  O    0.006915
     5  H    0.001022
     6  O   -0.010648
     7  H    0.005053
     8  O    0.311607
     9  H   -0.018743
    10  O    0.004187
    11  H    0.000063
    12  O   -0.003708
    13  H    0.000028
    14  H   -0.000159
    15  H   -0.000050
    16  H   -0.000046
    17  H   -0.000218
    18  H   -0.000387
    19  H    0.293161
          Atomic-Atomic Spin Densities.
               1          2          3          4          5          6
     1  V    2.247190  -0.010372  -0.010761  -0.032771  -0.015631  -0.025353
     2  O   -0.010372  -0.026977   0.006188   0.003399  -0.000150  -0.003421
     3  H   -0.010761   0.006188   0.013110   0.000222   0.000022  -0.001392
     4  O   -0.032771   0.003399   0.000222   0.005682   0.009401  -0.002087
     5  H   -0.015631  -0.000150   0.000022   0.009401   0.015290   0.000418
     6  O   -0.025353  -0.003421  -0.001392  -0.002087   0.000418  -0.006639
     7  H   -0.013742  -0.001479   0.000031  -0.001256   0.000020   0.009912
     8  O   -0.017429   0.001660  -0.000013   0.002063   0.003317   0.000388
     9  H   -0.011625  -0.000236  -0.000025  -0.001455  -0.000216  -0.000956
    10  O   -0.034337   0.002271   0.005059  -0.001468  -0.000400   0.002985
    11  H   -0.008349   0.001084  -0.000073  -0.000038   0.000005  -0.001295
    12  O   -0.009724   0.002365   0.000483   0.003640  -0.001858   0.000685
    13  H   -0.011286  -0.000781   0.000007   0.004212  -0.000134   0.000197
    14  H   -0.011904   0.000207  -0.000061  -0.001695  -0.000004  -0.000371
    15  H   -0.007390   0.002023  -0.000145   0.002033  -0.002969   0.000520
    16  H   -0.010719   0.007782  -0.003099   0.000088  -0.000087   0.001962
    17  H   -0.015214  -0.002118  -0.000136  -0.000497  -0.000018   0.003574
    18  H   -0.009259   0.002571   0.000016   0.007334   0.001370  -0.002879
    19  H   -0.011706  -0.000292   0.000011   0.001574   0.001007   0.003171
               7          8          9         10         11         12
     1  V   -0.013742  -0.017429  -0.011625  -0.034337  -0.008349  -0.009724
     2  O   -0.001479   0.001660  -0.000236   0.002271   0.001084   0.002365
     3  H    0.000031  -0.000013  -0.000025   0.005059  -0.000073   0.000483
     4  O   -0.001256   0.002063  -0.001455  -0.001468  -0.000038   0.003640
     5  H    0.000020   0.003317  -0.000216  -0.000400   0.000005  -0.001858
     6  O    0.009912   0.000388  -0.000956   0.002985  -0.001295   0.000685
     7  H    0.014877   0.000364  -0.000394   0.001147  -0.000145  -0.000082
     8  O    0.000364  -0.017369   0.003593   0.001226   0.001100  -0.000547
     9  H   -0.000394   0.003593   0.018153   0.005013   0.000275   0.002131
    10  O    0.001147   0.001226   0.005013  -0.002329   0.002196   0.004481
    11  H   -0.000145   0.001100   0.000275   0.002196   0.013631   0.001015
    12  O   -0.000082  -0.000547   0.002131   0.004481   0.001015  -0.030055
    13  H    0.000010  -0.001931  -0.000001  -0.000036  -0.000197   0.009306
    14  H   -0.000026   0.002611   0.000674   0.000336   0.001625   0.005048
    15  H   -0.000101  -0.000707   0.000027  -0.000108   0.000003   0.000288
    16  H   -0.000156  -0.000083   0.000011  -0.001861   0.000035  -0.000313
    17  H    0.000900   0.000148   0.000705   0.009961  -0.003472  -0.000095
    18  H   -0.004250   0.000202  -0.000016  -0.001207   0.000029  -0.000484
    19  H    0.002624   0.004531  -0.004625  -0.001267  -0.000099  -0.001058
              13         14         15         16         17         18
     1  V   -0.011286  -0.011904  -0.007390  -0.010719  -0.015214  -0.009259
     2  O   -0.000781   0.000207   0.002023   0.007782  -0.002118   0.002571
     3  H    0.000007  -0.000061  -0.000145  -0.003099  -0.000136   0.000016
     4  O    0.004212  -0.001695   0.002033   0.000088  -0.000497   0.007334
     5  H   -0.000134  -0.000004  -0.002969  -0.000087  -0.000018   0.001370
     6  O    0.000197  -0.000371   0.000520   0.001962   0.003574  -0.002879
     7  H    0.000010  -0.000026  -0.000101  -0.000156   0.000900  -0.004250
     8  O   -0.001931   0.002611  -0.000707  -0.000083   0.000148   0.000202
     9  H   -0.000001   0.000674   0.000027   0.000011   0.000705  -0.000016
    10  O   -0.000036   0.000336  -0.000108  -0.001861   0.009961  -0.001207
    11  H   -0.000197   0.001625   0.000003   0.000035  -0.003472   0.000029
    12  O    0.009306   0.005048   0.000288  -0.000313  -0.000095  -0.000484
    13  H    0.012001  -0.003353  -0.000080  -0.000030   0.000023  -0.000026
    14  H   -0.003353   0.012871   0.000032   0.000019  -0.000126   0.000013
    15  H   -0.000080   0.000032   0.010462   0.000899   0.000003   0.000199
    16  H   -0.000030   0.000019   0.000899   0.009486   0.000001   0.000278
    17  H    0.000023  -0.000126   0.000003   0.000001   0.014261  -0.000202
    18  H   -0.000026   0.000013   0.000199   0.000278  -0.000202   0.020835
    19  H    0.000031  -0.000167  -0.000142  -0.000024   0.000005  -0.000348
              19
     1  V   -0.011706
     2  O   -0.000292
     3  H    0.000011
     4  O    0.001574
     5  H    0.001007
     6  O    0.003171
     7  H    0.002624
     8  O    0.004531
     9  H   -0.004625
    10  O   -0.001267
    11  H   -0.000099
    12  O   -0.001058
    13  H    0.000031
    14  H   -0.000167
    15  H   -0.000142
    16  H   -0.000024
    17  H    0.000005
    18  H   -0.000348
    19  H    0.015615
 Mulliken charges and spin densities:
               1          2
     1  V    1.180356   1.979616
     2  O   -0.666057  -0.016278
     3  H    0.458119   0.009441
     4  O   -0.625823  -0.001619
     5  H    0.445280   0.009382
     6  O   -0.472432  -0.020580
     7  H    0.427823   0.008253
     8  O   -0.511989  -0.016876
     9  H    0.448670   0.011033
    10  O   -0.618735  -0.008341
    11  H    0.450047   0.007328
    12  O   -0.644932  -0.014772
    13  H    0.467049   0.007933
    14  H    0.428935   0.005727
    15  H    0.460667   0.004846
    16  H    0.443955   0.004190
    17  H    0.447269   0.007702
    18  H    0.450045   0.014177
    19  H    0.431754   0.008839
 Sum of Mulliken charges =   3.00000   2.00000
 Mulliken charges and spin densities with hydrogens summed into heavy atoms:
               1          2
     1  V    1.180356   1.979616
     2  O    0.236017  -0.002647
     4  O    0.280124   0.012609
     6  O    0.405436   0.001849
     8  O    0.368434   0.002995
    10  O    0.278581   0.006690
    12  O    0.251051  -0.001112
 APT charges:
               1
     1  V    1.981564
     2  O   -0.580120
     3  H    0.388051
     4  O   -0.524445
     5  H    0.334815
     6  O   -0.501298
     7  H    0.327741
     8  O   -0.513460
     9  H    0.341513
    10  O   -0.522951
    11  H    0.352941
    12  O   -0.563446
    13  H    0.392005
    14  H    0.351632
    15  H    0.361957
    16  H    0.366798
    17  H    0.340156
    18  H    0.336943
    19  H    0.329605
 Sum of APT charges =   3.00000
 APT charges with hydrogens summed into heavy atoms:
               1
     1  V    1.981564
     2  O    0.174729
     4  O    0.172328
     6  O    0.163386
     8  O    0.157658
    10  O    0.170145
    12  O    0.180190
 Electronic spatial extent (au):  <R**2>=            839.0743
 Charge=              3.0000 electrons
 Dipole moment (field-independent basis, Debye):
    X=              2.1595    Y=              3.5155    Z=             -0.9583  Tot=              4.2357
 Quadrupole moment (field-independent basis, Debye-Ang):
   XX=            -12.3876   YY=            -15.5385   ZZ=            -26.3026
   XY=             -3.9299   XZ=             -1.8852   YZ=             -0.6494
 Traceless Quadrupole moment (field-independent basis, Debye-Ang):
   XX=              5.6887   YY=              2.5377   ZZ=             -8.2264
   XY=             -3.9299   XZ=             -1.8852   YZ=             -0.6494
 Octapole moment (field-independent basis, Debye-Ang**2):
  XXX=             17.4844  YYY=             16.5078  ZZZ=              5.0075  XYY=              4.0931
  XXY=              8.8693  XXZ=              3.3158  XZZ=             -8.0970  YZZ=             -3.3424
  YYZ=            -14.4233  XYZ=             -3.1329
 Hexadecapole moment (field-independent basis, Debye-Ang**3):
 XXXX=           -170.8609 YYYY=           -175.1214 ZZZZ=           -214.8619 XXXY=            -20.9294
 XXXZ=              1.2105 YYYX=             -7.8985 YYYZ=             12.4004 ZZZX=            -17.1634
 ZZZY=            -14.7809 XXYY=            -48.1421 XXZZ=            -53.9766 YYZZ=            -51.5406
 XXYZ=             -0.7334 YYXZ=              3.3214 ZZXY=              2.1854
 N-N= 7.177101416204D+02 E-N=-4.706847821492D+03  KE= 1.399049175629D+03
  Exact polarizability:      55.578      -0.061      54.888      -1.091       0.200      50.479
 Approx polarizability:      89.669       0.627      89.809      -2.933       0.617      80.381
                          Isotropic Fermi Contact Couplings
        Atom                 a.u.       MegaHertz       Gauss      10(-4) cm-1
     1  V(51)             -0.12784     -75.28416     -26.86326     -25.11209
     2  O(17)             -0.01894       5.74190       2.04885       1.91529
     3  H(1)               0.00605      13.51208       4.82145       4.50715
     4  O(17)             -0.00161       0.48787       0.17408       0.16274
     5  H(1)               0.00625      13.97517       4.98669       4.66162
     6  O(17)             -0.00573       1.73751       0.61999       0.57957
     7  H(1)               0.00550      12.30244       4.38982       4.10365
     8  O(17)             -0.01205       3.65157       1.30297       1.21803
     9  H(1)               0.00679      15.18131       5.41707       5.06394
    10  O(17)             -0.00780       2.36270       0.84307       0.78811
    11  H(1)               0.00511      11.42856       4.07799       3.81216
    12  O(17)             -0.01955       5.92440       2.11397       1.97617
    13  H(1)               0.00556      12.42509       4.43358       4.14456
    14  H(1)               0.00433       9.68469       3.45574       3.23046
    15  H(1)               0.00412       9.20394       3.28420       3.07011
    16  H(1)               0.00344       7.68352       2.74167       2.56295
    17  H(1)               0.00623      13.92393       4.96841       4.64452
    18  H(1)               0.00754      16.84039       6.00907       5.61735
    19  H(1)               0.00503      11.23294       4.00819       3.74690
 --------------------------------------------------------
       Center         ----  Spin Dipole Couplings  ----
                      3XX-RR        3YY-RR        3ZZ-RR
 --------------------------------------------------------
     1   Atom        0.719868      0.169717     -0.889585
     2   Atom        0.000743      0.017424     -0.018167
     3   Atom       -0.007313      0.010870     -0.003556
     4   Atom       -0.020918     -0.026286      0.047204
     5   Atom        0.023369     -0.021233     -0.002136
     6   Atom        0.001538     -0.015860      0.014323
     7   Atom        0.003026     -0.003717      0.000691
     8   Atom       -0.011080      0.021448     -0.010368
     9   Atom       -0.019697      0.038761     -0.019064
    10   Atom       -0.007944      0.006755      0.001189
    11   Atom        0.027772     -0.011266     -0.016506
    12   Atom        0.010352     -0.004411     -0.005940
    13   Atom       -0.010475     -0.014282      0.024758
    14   Atom        0.010663     -0.017856      0.007193
    15   Atom        0.009631      0.004526     -0.014157
    16   Atom       -0.019556      0.019848     -0.000292
    17   Atom       -0.012941      0.000284      0.012658
    18   Atom        0.031850     -0.021137     -0.010714
    19   Atom       -0.008007      0.026741     -0.018734
 --------------------------------------------------------
                        XY            XZ            YZ
 --------------------------------------------------------
     1   Atom       -0.344187      0.092690     -0.387341
     2   Atom       -0.002302      0.007662      0.011841
     3   Atom        0.020454      0.015086      0.023159
     4   Atom       -0.004017     -0.021880     -0.026427
     5   Atom        0.002475      0.029366      0.001397
     6   Atom        0.006276     -0.015753     -0.002132
     7   Atom        0.020689     -0.022305     -0.019617
     8   Atom        0.004337      0.007300      0.006940
     9   Atom       -0.008769     -0.002428      0.012842
    10   Atom        0.013754      0.024339      0.029222
    11   Atom       -0.023874      0.014515     -0.006250
    12   Atom        0.011860     -0.005050     -0.004824
    13   Atom        0.007706     -0.020943     -0.017848
    14   Atom       -0.009978     -0.030373      0.009183
    15   Atom       -0.029630      0.014088     -0.012192
    16   Atom       -0.007716     -0.005636      0.028510
    17   Atom       -0.013136      0.016517     -0.028348
    18   Atom        0.000710     -0.023956     -0.000057
    19   Atom        0.025289      0.005504      0.008711
 --------------------------------------------------------


 ---------------------------------------------------------------------------------
              Anisotropic Spin Dipole Couplings in Principal Axis System
 ---------------------------------------------------------------------------------

       Atom             a.u.   MegaHertz   Gauss  10(-4) cm-1        Axes

              Baa    -1.0163  -142.886   -50.985   -47.662  0.0114  0.3134  0.9495
     1 V(51)  Bbb     0.0939    13.204     4.712     4.405  0.4941  0.8238 -0.2779
              Bcc     0.9224   129.681    46.273    43.257  0.8693 -0.4724  0.1454
 
              Baa    -0.0243     1.758     0.627     0.587 -0.3043 -0.2756  0.9119
     2 O(17)  Bbb     0.0033    -0.239    -0.085    -0.080  0.9526 -0.0887  0.2911
              Bcc     0.0210    -1.520    -0.542    -0.507  0.0007  0.9572  0.2895
 
              Baa    -0.0206   -11.011    -3.929    -3.673  0.7465  0.0045 -0.6654
[...]
    14  H   -0.013790   0.284740  -0.000001   0.000003  -0.000039   0.000000
    15  H   -0.000051  -0.000001   0.284636  -0.000030   0.000000  -0.000039
    16  H   -0.000002   0.000003  -0.000030   0.284296   0.000002  -0.000050
    17  H    0.000003  -0.000039   0.000000   0.000002   0.284629  -0.000001
    18  H    0.000000   0.000000  -0.000039  -0.000050  -0.000001   0.284749
    19  H    0.000002  -0.000001  -0.000001   0.000000  -0.000039  -0.000039
              19
     1  V   -0.009979
     2  O   -0.000515
     3  H    0.000000
     4  O    0.001788
     5  H   -0.000051
     6  O    0.002726
     7  H   -0.000029
     8  O    0.292081
     9  H   -0.013788
    10  O    0.001492
    11  H    0.000003
    12  O    0.000920
    13  H    0.000002
    14  H   -0.000001
    15  H   -0.000001
    16  H    0.000000
    17  H   -0.000039
    18  H   -0.000039
    19  H    0.284664
          Atomic-Atomic Spin Densities.
               1          2          3          4          5          6
     1  V    2.182982  -0.011431  -0.003263  -0.011475  -0.003219  -0.011455
     2  O   -0.011431  -0.021063   0.003119   0.003457  -0.000080   0.002599
     3  H   -0.003263   0.003119   0.003119  -0.000003   0.000001  -0.000240
     4  O   -0.011475   0.003457  -0.000003  -0.020852   0.002661   0.003429
     5  H   -0.003219  -0.000080   0.000001   0.002661   0.002438   0.000041
     6  O   -0.011455   0.002599  -0.000240   0.003429   0.000041  -0.020949
     7  H   -0.003209  -0.000272   0.000002  -0.000079  -0.000002   0.002653
     8  O   -0.011538  -0.002089  -0.000006   0.002607   0.000713   0.003461
     9  H   -0.003199  -0.000017  -0.000000  -0.000272  -0.000015  -0.000079
    10  O   -0.011601   0.002596   0.000072  -0.002091  -0.000017   0.002604
    11  H   -0.003201   0.000701   0.000031  -0.000017   0.000000  -0.000273
    12  O   -0.011480   0.003465   0.000450   0.002564  -0.000273  -0.002084
    13  H   -0.003211   0.000043   0.000028   0.000710  -0.000015  -0.000017
    14  H   -0.003259  -0.000002  -0.000016  -0.000238   0.000002  -0.000007
    15  H   -0.003269   0.000451  -0.000017   0.003121  -0.001092  -0.000001
    16  H   -0.003218   0.002652  -0.001095   0.000045  -0.000002   0.000713
    17  H   -0.003249  -0.000237  -0.000002  -0.000007  -0.000000   0.000071
    18  H   -0.003257   0.000069  -0.000002   0.000457   0.000029   0.003103
    19  H   -0.003239  -0.000006   0.000000   0.000070   0.000031   0.000451
               7          8          9         10         11         12
     1  V   -0.003209  -0.011538  -0.003199  -0.011601  -0.003201  -0.011480
     2  O   -0.000272  -0.002089  -0.000017   0.002596   0.000701   0.003465
     3  H    0.000002  -0.000006  -0.000000   0.000072   0.000031   0.000450
     4  O   -0.000079   0.002607  -0.000272  -0.002091  -0.000017   0.002564
     5  H   -0.000002   0.000713  -0.000015  -0.000017   0.000000  -0.000273
     6  O    0.002653   0.003461  -0.000079   0.002604  -0.000273  -0.002084
     7  H    0.002425   0.000041  -0.000002   0.000716  -0.000015  -0.000017
     8  O    0.000041  -0.020723   0.002648   0.003454  -0.000081   0.002626
     9  H   -0.000002   0.002648   0.002403   0.000044  -0.000002   0.000708
    10  O    0.000716   0.003454   0.000044  -0.020528   0.002660   0.003434
    11  H   -0.000015  -0.000081  -0.000002   0.002660   0.002399   0.000042
    12  O   -0.000017   0.002626   0.000708   0.003434   0.000042  -0.020948
    13  H    0.000000  -0.000273  -0.000015  -0.000081  -0.000002   0.002656
    14  H   -0.000000   0.000070   0.000031   0.000460   0.000028   0.003103
    15  H    0.000001  -0.000240   0.000002  -0.000006  -0.000000   0.000071
    16  H   -0.000015  -0.000017   0.000000  -0.000272  -0.000015  -0.000080
    17  H    0.000030   0.000455   0.000029   0.003095  -0.001082   0.000002
    18  H   -0.001089  -0.000002   0.000001  -0.000240   0.000002  -0.000006
    19  H    0.000029   0.003092  -0.001082   0.000000   0.000001  -0.000239
              13         14         15         16         17         18
     1  V   -0.003211  -0.003259  -0.003269  -0.003218  -0.003249  -0.003257
     2  O    0.000043  -0.000002   0.000451   0.002652  -0.000237   0.000069
     3  H    0.000028  -0.000016  -0.000017  -0.001095  -0.000002  -0.000002
     4  O    0.000710  -0.000238   0.003121   0.000045  -0.000007   0.000457
     5  H   -0.000015   0.000002  -0.001092  -0.000002  -0.000000   0.000029
     6  O   -0.000017  -0.000007  -0.000001   0.000713   0.000071   0.003103
     7  H    0.000000  -0.000000   0.000001  -0.000015   0.000030  -0.001089
     8  O   -0.000273   0.000070  -0.000240  -0.000017   0.000455  -0.000002
     9  H   -0.000015   0.000031   0.000002   0.000000   0.000029   0.000001
    10  O   -0.000081   0.000460  -0.000006  -0.000272   0.003095  -0.000240
    11  H   -0.000002   0.000028  -0.000000  -0.000015  -0.001082   0.000002
    12  O    0.002656   0.003103   0.000071  -0.000080   0.000002  -0.000006
    13  H    0.002443  -0.001091   0.000031  -0.000002   0.000001  -0.000000
    14  H   -0.001091   0.003118  -0.000002   0.000001  -0.000017   0.000000
    15  H    0.000031  -0.000002   0.003117   0.000029   0.000000  -0.000017
    16  H   -0.000002   0.000001   0.000029   0.002460   0.000002   0.000031
    17  H    0.000001  -0.000017   0.000000   0.000002   0.003086  -0.000002
    18  H   -0.000000   0.000000  -0.000017   0.000031  -0.000002   0.003126
    19  H    0.000002  -0.000002  -0.000002  -0.000000  -0.000017  -0.000017
              19
     1  V   -0.003239
     2  O   -0.000006
     3  H    0.000000
     4  O    0.000070
     5  H    0.000031
     6  O    0.000451
     7  H    0.000029
     8  O    0.003092
     9  H   -0.001082
    10  O    0.000000
    11  H    0.000001
    12  O   -0.000239
    13  H    0.000002
    14  H   -0.000002
    15  H   -0.000002
    16  H   -0.000000
    17  H   -0.000017
    18  H   -0.000017
    19  H    0.003093
 Mulliken charges and spin densities:
               1          2
     1  V    1.577549   2.075210
     2  O   -0.645880  -0.016045
     3  H    0.440681   0.002179
     4  O   -0.646321  -0.015913
     5  H    0.442722   0.001202
     6  O   -0.646424  -0.015979
     7  H    0.442811   0.001198
     8  O   -0.646713  -0.015801
     9  H    0.442777   0.001182
    10  O   -0.646987  -0.015703
    11  H    0.442820   0.001179
    12  O   -0.646221  -0.016005
    13  H    0.442827   0.001210
    14  H    0.440639   0.002181
    15  H    0.440767   0.002177
    16  H    0.442693   0.001217
    17  H    0.440775   0.002160
    18  H    0.440721   0.002186
    19  H    0.440765   0.002165
 Sum of Mulliken charges =   3.00000   2.00000
 Mulliken charges and spin densities with hydrogens summed into heavy atoms:
               1          2
     1  V    1.577549   2.075210
     2  O    0.237493  -0.012649
     4  O    0.237168  -0.012534
     6  O    0.237108  -0.012595
     8  O    0.236829  -0.012454
    10  O    0.236609  -0.012365
    12  O    0.237245  -0.012614
 Electronic spatial extent (au):  <R**2>=           1057.9350
 Charge=              3.0000 electrons
 Dipole moment (field-independent basis, Debye):
    X=              0.0057    Y=             -0.0020    Z=             -0.0001  Tot=              0.0060
 Quadrupole moment (field-independent basis, Debye-Ang):
   XX=             -5.9288   YY=             -5.9387   ZZ=             -9.7198
   XY=             -0.0036   XZ=             -0.0077   YZ=              0.0069
 Traceless Quadrupole moment (field-independent basis, Debye-Ang):
   XX=              1.2670   YY=              1.2571   ZZ=             -2.5240
   XY=             -0.0036   XZ=             -0.0077   YZ=              0.0069
 Octapole moment (field-independent basis, Debye-Ang**2):
  XXX=              0.0603  YYY=             -0.0318  ZZZ=              0.0017  XYY=              0.0168
  XXY=             -0.0136  XXZ=             -0.0093  XZZ=             -0.0041  YZZ=              0.0192
  YYZ=              0.0078  XYZ=              0.0023
 Hexadecapole moment (field-independent basis, Debye-Ang**3):
 XXXX=           -163.6857 YYYY=           -163.3792 ZZZZ=           -233.0082 XXXY=              0.2835
 XXXZ=             13.2807 YYYX=              0.0055 YYYZ=            -41.6977 ZZZX=             -0.4618
 ZZZY=              0.5003 XXYY=            -54.9935 XXZZ=             -5.3920 YYZZ=             -5.6246
 XXYZ=             41.2738 YYXZ=            -12.8704 ZZXY=             -0.2811
 N-N= 6.362410778427D+02 E-N=-4.545284492440D+03  KE= 1.396283536837D+03
                          Isotropic Fermi Contact Couplings
        Atom                 a.u.       MegaHertz       Gauss      10(-4) cm-1
     1  V(51)             -0.07093     -41.77383     -14.90594     -13.93425
     2  O(17)             -0.02145       6.50065       2.31959       2.16838
     3  H(1)               0.00149       3.32005       1.18467       1.10745
     4  O(17)             -0.02142       6.49350       2.31704       2.16600
     5  H(1)               0.00091       2.04038       0.72806       0.68060
     6  O(17)             -0.02143       6.49594       2.31791       2.16681
     7  H(1)               0.00091       2.02956       0.72420       0.67699
     8  O(17)             -0.02136       6.47504       2.31046       2.15984
     9  H(1)               0.00090       2.00793       0.71648       0.66977
    10  O(17)             -0.02135       6.47238       2.30950       2.15895
    11  H(1)               0.00090       2.01053       0.71741       0.67064
    12  O(17)             -0.02144       6.49967       2.31924       2.16806
    13  H(1)               0.00092       2.05156       0.73205       0.68433
    14  H(1)               0.00148       3.31579       1.18316       1.10603
    15  H(1)               0.00148       3.31866       1.18418       1.10699
    16  H(1)               0.00092       2.05949       0.73488       0.68697
    17  H(1)               0.00147       3.28624       1.17261       1.09617
    18  H(1)               0.00149       3.32698       1.18715       1.10976
    19  H(1)               0.00147       3.29577       1.17601       1.09935
 --------------------------------------------------------
       Center         ----  Spin Dipole Couplings  ----
                      3XX-RR        3YY-RR        3ZZ-RR
 --------------------------------------------------------
     1   Atom        0.501555      0.498281     -0.999836
     2   Atom        0.029828     -0.021498     -0.008330
     3   Atom       -0.000178      0.006404     -0.006226
     4   Atom       -0.013203      0.021519     -0.008315
     5   Atom       -0.003444     -0.003780      0.007225
     6   Atom       -0.004054      0.012421     -0.008367
     7   Atom       -0.013397      0.006232      0.007165
     8   Atom        0.030154     -0.021621     -0.008532
     9   Atom        0.005918     -0.013326      0.007408
    10   Atom       -0.013632      0.022102     -0.008470
    11   Atom       -0.003439     -0.003835      0.007274
    12   Atom       -0.004255      0.012585     -0.008329
    13   Atom       -0.013402      0.006309      0.007093
    14   Atom       -0.010178      0.016607     -0.006429
    15   Atom        0.019867     -0.013447     -0.006420
    16   Atom        0.006035     -0.013320      0.007284
    17   Atom        0.019952     -0.013442     -0.006510
    18   Atom       -0.010208      0.016604     -0.006396
    19   Atom       -0.000111      0.006397     -0.006286
 --------------------------------------------------------
                        XY            XZ            YZ
 --------------------------------------------------------
     1   Atom        0.004709     -0.001175      0.003928
     2   Atom        0.004884      0.020641      0.017184
     3   Atom       -0.017222     -0.009459      0.012488
     4   Atom        0.019713      0.004507     -0.027050
     5   Atom        0.011259      0.014459      0.014170
     6   Atom       -0.024645     -0.025465      0.009230
     7   Atom       -0.005577      0.005126     -0.019577
     8   Atom        0.005429      0.020909      0.017511
     9   Atom       -0.005658     -0.019503      0.005359
    10   Atom        0.019770      0.004484     -0.027422
    11   Atom        0.011223      0.014482      0.014123
    12   Atom       -0.024680     -0.025359      0.009398
    13   Atom       -0.005560      0.005099     -0.019569
    14   Atom        0.011473     -0.005997     -0.014294
    15   Atom        0.005748      0.015394      0.001899
    16   Atom       -0.005690     -0.019515      0.005332
    17   Atom        0.005763      0.015334      0.001884
    18   Atom        0.011419     -0.005981     -0.014313
    19   Atom       -0.017250     -0.009438      0.012442
 --------------------------------------------------------


 ---------------------------------------------------------------------------------
              Anisotropic Spin Dipole Couplings in Principal Axis System
 ---------------------------------------------------------------------------------

       Atom             a.u.   MegaHertz   Gauss  10(-4) cm-1        Axes

              Baa    -0.9998  -140.569   -50.159   -46.889  0.0008 -0.0026  1.0000
     1 V(51)  Bbb     0.4949    69.584    24.829    23.211 -0.5798  0.8148  0.0026
              Bcc     0.5049    70.985    25.329    23.678  0.8148  0.5798  0.0009
 
              Baa    -0.0344     2.490     0.888     0.831  0.1405  0.7720 -0.6199
     2 O(17)  Bbb    -0.0066     0.479     0.171     0.160 -0.4515  0.6072  0.6538
              Bcc     0.0410    -2.969    -1.059    -0.990  0.8811  0.1880  0.4339
 
              Baa    -0.0147    -7.848    -2.800    -2.618  0.5872  0.7095 -0.3896
     3 H(1)   Bbb    -0.0131    -7.006    -2.500    -2.337  0.5707 -0.0216  0.8209
              Bcc     0.0278    14.854     5.300     4.955 -0.5740  0.7044  0.4176
 
              Baa    -0.0347     2.512     0.896     0.838 -0.5957  0.5080  0.6221
     4 O(17)  Bbb    -0.0069     0.501     0.179     0.167  0.7558  0.0926  0.6482
              Bcc     0.0416    -3.013    -1.075    -1.005  0.2717  0.8563 -0.4391
 
              Baa    -0.0149    -7.936    -2.832    -2.647  0.7105 -0.7036 -0.0137
     5 H(1)   Bbb    -0.0128    -6.834    -2.439    -2.280 -0.4881 -0.5067  0.7107
              Bcc     0.0277    14.770     5.270     4.927  0.5070  0.4982  0.7034
 
              Baa    -0.0345     2.496     0.890     0.832  0.7356  0.2637  0.6240
     6 O(17)  Bbb    -0.0066     0.479     0.171     0.160  0.2985  0.7007 -0.6480
              Bcc     0.0411    -2.974    -1.061    -0.992 -0.6081  0.6630  0.4367
 
              Baa    -0.0149    -7.935    -2.831    -2.647  0.9640  0.2657  0.0118
     7 H(1)   Bbb    -0.0128    -6.831    -2.437    -2.279 -0.1948  0.6749  0.7117
              Bcc     0.0277    14.766     5.269     4.925  0.1811 -0.6884  0.7024
 
              Baa    -0.0348     2.518     0.898     0.840  0.1359  0.7710 -0.6222
     8 O(17)  Bbb    -0.0069     0.499     0.178     0.166 -0.4565  0.6061  0.6514
              Bcc     0.0417    -3.016    -1.076    -1.006  0.8793  0.1955  0.4343
 
              Baa    -0.0149    -7.932    -2.830    -2.646  0.2519  0.9677 -0.0122
     9 H(1)   Bbb    -0.0128    -6.825    -2.435    -2.277  0.6861 -0.1697  0.7074
              Bcc     0.0277    14.757     5.266     4.923 -0.6825  0.1866  0.7067
 
              Baa    -0.0350     2.535     0.905     0.846 -0.5973  0.5055  0.6226
    10 O(17)  Bbb    -0.0073     0.527     0.188     0.176  0.7560  0.0957  0.6476
              Bcc     0.0423    -3.062    -1.093    -1.022  0.2678  0.8575 -0.4393
 
              Baa    -0.0149    -7.930    -2.830    -2.645  0.7129 -0.7010 -0.0192
    11 H(1)   Bbb    -0.0128    -6.828    -2.436    -2.277 -0.4842 -0.5119  0.7096
              Bcc     0.0277    14.758     5.266     4.923  0.5072  0.4966  0.7044
 
              Baa    -0.0344     2.492     0.889     0.831  0.7376  0.2629  0.6219
    12 O(17)  Bbb    -0.0067     0.488     0.174     0.163  0.2994  0.6983 -0.6502
              Bcc     0.0412    -2.980    -1.063    -0.994 -0.6052  0.6658  0.4364
 
              Baa    -0.0149    -7.930    -2.830    -2.645  0.9648  0.2626  0.0100
    13 H(1)   Bbb    -0.0128    -6.826    -2.436    -2.277 -0.1910  0.6747  0.7129
              Bcc     0.0277    14.756     5.265     4.922  0.1805 -0.6898  0.7012
 
              Baa    -0.0147    -7.849    -2.801    -2.618  0.9069 -0.1530  0.3927
    14 H(1)   Bbb    -0.0131    -7.010    -2.501    -2.338 -0.2717  0.5000  0.8223
              Bcc     0.0278    14.858     5.302     4.956  0.3221  0.8524 -0.4118
 
              Baa    -0.0147    -7.847    -2.800    -2.617 -0.3197  0.8605  0.3966
    15 H(1)   Bbb    -0.0131    -7.008    -2.501    -2.338 -0.2975 -0.4886  0.8202
              Bcc     0.0278    14.855     5.301     4.955  0.8996  0.1442  0.4122
 
              Baa    -0.0149    -7.933    -2.831    -2.646  0.2583  0.9660 -0.0050
    16 H(1)   Bbb    -0.0128    -6.828    -2.436    -2.277  0.6815 -0.1786  0.7097
              Bcc     0.0277    14.761     5.267     4.924 -0.6847  0.1867  0.7045
 
              Baa    -0.0147    -7.849    -2.801    -2.618 -0.3204  0.8577  0.4020
    17 H(1)   Bbb    -0.0131    -7.012    -2.502    -2.339 -0.2935 -0.4934  0.8188
              Bcc     0.0279    14.861     5.303     4.957  0.9007  0.1444  0.4098
 
              Baa    -0.0147    -7.844    -2.799    -2.616  0.9074 -0.1518  0.3919
    18 H(1)   Bbb    -0.0131    -7.004    -2.499    -2.336 -0.2715  0.5001  0.8223
              Bcc     0.0278    14.848     5.298     4.953  0.3208  0.8525 -0.4126
 
              Baa    -0.0147    -7.847    -2.800    -2.617  0.5837  0.7097 -0.3944
    19 H(1)   Bbb    -0.0131    -7.004    -2.499    -2.336  0.5730 -0.0159  0.8194
              Bcc     0.0278    14.851     5.299     4.954 -0.5753  0.7043  0.4159
 

 ---------------------------------------------------------------------------------

 No NMR shielding tensors so no spin-rotation constants.
 Leave Link  601 at Thu May 30 10:50:46 2024, MaxMem= 26843545600 cpu:              28.8 elap:               0.3
 (Enter /gpfs/fs1/soft/improv/software/custom-built/gaussian/g16/l9999.exe)
 Unable to Open any file for archive entry.
 1\1\GINC-I663\SP\UPBEPBE\Gen\H12O6V1(3+,3)\HHARB\30-May-2024\0\\#p PBE
 PBE empiricaldispersion=gd3 scf=(maxcycles=500,xqc,maxconventional=50)
  scrf=(cpcm,solvent=water) geom=allcheck guess=read chkbasis\\Title\\3
 ,3\V,-0.7844678164,0.7135043667,0.0317710221\O,-1.2998867099,2.6663462
 634,-0.2980731864\H,-1.5991889707,3.059414327,-1.1487649413\O,1.186730
 7508,1.2613022613,0.0873944888\H,1.9403194989,0.7045361081,0.387024186
 9\O,-0.9052847719,1.0043346574,2.0539750461\H,-1.646086844,0.731014138
 1,2.6406403731\O,-0.2690135892,-1.2397457302,0.361400043\H,-0.22613346
 63,-1.9553532088,-0.312192428\O,-2.7555907169,0.1639143243,-0.02327295
 88\H,-3.5108749494,0.7207788219,-0.3183646627\O,-0.6657163943,0.421499
 2308,-1.9904075852\H,0.0724204457,0.69669535,-2.5795464227\H,-1.315086
 7786,-0.0566172502,-2.5538500722\H,1.5689156223,2.1141272531,-0.219803
 2203\H,-1.3354326518,3.3839627155,0.3738160328\H,-3.1353233093,-0.6914
 797114,0.2797411753\H,-0.2571912291,1.4819135636,2.6193438478\H,0.0253
 743099,-1.6340677104,1.2132146716\\Version=ES64L-G16RevC.02\State=3-A\
 HF=-1401.5255139\S2=2.008766\S2-1=0.\S2A=2.000036\RMSD=1.460e-09\Dipol
 e=0.0008722,0.0020769,-0.0007364\Quadrupole=-0.6106813,0.2845117,0.326
 1696,1.0102169,0.9686766,-0.6341416\PG=C01 [X(H12O6V1)]\\@
 The archive entry for this job was punched.


 NOTHING MAKES A PERSON MORE PRODUCTIVE THAN THE LAST MINUTE.
 Job cpu time:       0 days  1 hours 32 minutes  3.7 seconds.
 Elapsed time:       0 days  0 hours  0 minutes 46.7 seconds.
 File lengths (MBytes):  RWF=    120 Int=      0 D2E=      0 Chk=     32 Scr=      1
 Normal termination of Gaussian 16 at Thu May 30 10:50:46 2024.
