19
Fe_2_n12.log	Energy: -1080519.9140860
Fe         0.00016        0.00004       -0.00001
O          0.25926       -0.38143       -1.97803
H         -0.26420       -0.99121       -2.51488
O          1.28540       -1.50463        0.45825
H          1.54714       -1.78150        1.34644
O          1.55194        1.30983       -0.04803
H          1.49515        2.25580       -0.23766
O         -0.26073        0.37867        1.97837
H         -0.92975       -0.01801        2.55203
O         -1.28349        1.50640       -0.45767
H         -1.54404        1.78494       -1.34569
O         -1.55267       -1.30892        0.04711
H         -1.49711       -2.25495        0.23680
H         -2.48173       -1.09842       -0.11592
H          1.74615       -2.07406       -0.17223
H          0.92798        0.01318       -2.55346
H         -1.74395        2.07561        0.17322
H          2.48138        1.10035        0.11413
H          0.26128        0.98787        2.51730
