19
Fe_2_HSE06.log	Energy: -1080048.6093756
Fe         0.00001       -0.00001        0.00001
O          0.59330        1.60618       -1.09448
H          0.18979        1.92164       -1.92195
O          1.25571       -1.19042       -1.06584
H          1.38310       -2.14783       -0.94671
O          1.48385        0.36512        1.33964
H          1.42118        0.92781        2.13114
O         -0.59341       -1.60610        1.09455
H         -1.33424       -2.20265        0.88880
O         -1.25566        1.19041        1.06588
H         -1.38346        2.14778        0.94615
O         -1.48378       -0.36515       -1.33971
H         -1.42103       -0.92767       -2.13133
H         -2.38918       -0.00968       -1.30910
H          1.84109       -0.90926       -1.79064
H          1.33402        2.20283       -0.88867
H         -1.84089        0.90919        1.79091
H          2.38918        0.00948        1.30910
H         -0.18978       -1.92170        1.92191
