 Entering Gaussian System, Link 0=g16
 Input=Fe_2_O3LYP.com
 Output=Fe_2_O3LYP.log
 Initial command:
 /gpfs/fs1/soft/improv/software/custom-built/gaussian/g16/l1.exe "/scratch/Gau-117107.inp" -scrdir="/scratch/"
 Default CPUs for threads: 0-127
 Default linda workers: i375.lcrc.anl.gov
 Default is to use 128 SMP processors on each worker.
 Entering Link 1 = /gpfs/fs1/soft/improv/software/custom-built/gaussian/g16/l1.exe PID=    117108.
  
 Copyright (c) 1988-2021, Gaussian, Inc.  All Rights Reserved.
  
 This is part of the Gaussian(R) 16 program.  It is based on
 the Gaussian(R) 09 system (copyright 2009, Gaussian, Inc.),
 the Gaussian(R) 03 system (copyright 2003, Gaussian, Inc.),
 the Gaussian(R) 98 system (copyright 1998, Gaussian, Inc.),
 the Gaussian(R) 94 system (copyright 1995, Gaussian, Inc.),
 the Gaussian 92(TM) system (copyright 1992, Gaussian, Inc.),
 the Gaussian 90(TM) system (copyright 1990, Gaussian, Inc.),
 the Gaussian 88(TM) system (copyright 1988, Gaussian, Inc.),
 the Gaussian 86(TM) system (copyright 1986, Carnegie Mellon
 University), and the Gaussian 82(TM) system (copyright 1983,
 Carnegie Mellon University). Gaussian is a federally registered
 trademark of Gaussian, Inc.
  
 This software contains proprietary and confidential information,
 including trade secrets, belonging to Gaussian, Inc.
  
 This software is provided under written license and may be
 used, copied, transmitted, or stored only in accord with that
 written license.
  
 The following legend is applicable only to US Government
 contracts under FAR:
  
                    RESTRICTED RIGHTS LEGEND
  
 Use, reproduction and disclosure by the US Government is
 subject to restrictions as set forth in subparagraphs (a)
 and (c) of the Commercial Computer Software - Restricted
 Rights clause in FAR 52.227-19.
  
 Gaussian, Inc.
 340 Quinnipiac St., Bldg. 40, Wallingford CT 06492
  
  
 ---------------------------------------------------------------
 Warning -- This program may not be used in any manner that
 competes with the business of Gaussian, Inc. or will provide
 assistance to any competitor of Gaussian, Inc.  The licensee
 of this program is prohibited from giving any competitor of
 Gaussian, Inc. access to this program.  By using this program,
 the user acknowledges that Gaussian, Inc. is engaged in the
 business of creating and licensing software in the field of
 computational chemistry and represents and warrants to the
 licensee that it is not a competitor of Gaussian, Inc. and that
 it will not use this program in any manner prohibited above.
 ---------------------------------------------------------------
  

 Cite this work as:
 Gaussian 16, Revision C.02,
 M. J. Frisch, G. W. Trucks, H. B. Schlegel, G. E. Scuseria, 
 M. A. Robb, J. R. Cheeseman, G. Scalmani, V. Barone, 
 G. A. Petersson, H. Nakatsuji, X. Li, M. Caricato, A. V. Marenich, 
 J. Bloino, B. G. Janesko, R. Gomperts, B. Mennucci, H. P. Hratchian, 
 J. V. Ortiz, A. F. Izmaylov, J. L. Sonnenberg, D. Williams-Young, 
 F. Ding, F. Lipparini, F. Egidi, J. Goings, B. Peng, A. Petrone, 
 T. Henderson, D. Ranasinghe, V. G. Zakrzewski, J. Gao, N. Rega, 
 G. Zheng, W. Liang, M. Hada, M. Ehara, K. Toyota, R. Fukuda, 
 J. Hasegawa, M. Ishida, T. Nakajima, Y. Honda, O. Kitao, H. Nakai, 
 T. Vreven, K. Throssell, J. A. Montgomery, Jr., J. E. Peralta, 
 F. Ogliaro, M. J. Bearpark, J. J. Heyd, E. N. Brothers, K. N. Kudin, 
 V. N. Staroverov, T. A. Keith, R. Kobayashi, J. Normand, 
 K. Raghavachari, A. P. Rendell, J. C. Burant, S. S. Iyengar, 
 J. Tomasi, M. Cossi, J. M. Millam, M. Klene, C. Adamo, R. Cammi, 
 J. W. Ochterski, R. L. Martin, K. Morokuma, O. Farkas, 
 J. B. Foresman, and D. J. Fox, Gaussian, Inc., Wallingford CT, 2019.
 
 ******************************************
 Gaussian 16:  ES64L-G16RevC.02  7-Dec-2021
                 5-Mar-2025 
 ******************************************
 %chk=Fe_2_O3LYP.chk
 SetSPE:  set environment variable "OMP_PROC_BIND" = "true"
 SetSPE:  set environment variable "OMP_PLACES" = "{0},{1},{2},{3},{4},{5},{6},{7},{8},{9},{10},{11},{12},{13},{14},{15},{16},{17},{18},{19},{20},{21},{22},{23},{24},{25},{26},{27},{28},{29},{30},{31},{32},{33},{34},{35},{36},{37},{38},{39},{40},{41},{42},{43},{44},{45},{46},{47},{48},{49},{50},{51},{52},{53},{54},{55},{56},{57},{58},{59},{60},{61},{62},{63},{64},{65},{66},{67},{68},{69},{70},{71},{72},{73},{74},{75},{76},{77},{78},{79},{80},{81},{82},{83},{84},{85},{86},{87},{88},{89},{90},{91},{92},{93},{94},{95},{96},{97},{98},{99},{100},{101},{102},{103},{104},{105},{106},{107},{108},{109},{110},{111},{112},{113},{114},{115},{116},{117},{118},{119},{120},{121},{122},{123},{124},{125},{126},{127}"
 SetLPE:    new flags="-opt 'Tsnet.Node.lindarsharg: ssh'  -nodelist 'i375.lcrc.anl.gov' -env GAUSS_MDEF=13421772800 -env GAUSS_EXEDIR="/gpfs/fs1/soft/improv/software/custom-built/gaussian/g16/bsd:/gpfs/fs1/soft/improv/software/custom-built/gaussian/g16" -env "OMP_PROC_BIND=true" -env "OMP_PLACES={0},{1},{2},{3},{4},{5},{6},{7},{8},{9},{10},{11},{12},{13},{14},{15},{16},{17},{18},{19},{20},{21},{22},{23},{24},{25},{26},{27},{28},{29},{30},{31},{32},{33},{34},{35},{36},{37},{38},{39},{40},{41},{42},{43},{44},{45},{46},{47},{48},{49},{50},{51},{52},{53},{54},{55},{56},{57},{58},{59},{60},{61},{62},{63},{64},{65},{66},{67},{68},{69},{70},{71},{72},{73},{74},{75},{76},{77},{78},{79},{80},{81},{82},{83},{84},{85},{86},{87},{88},{89},{90},{91},{92},{93},{94},{95},{96},{97},{98},{99},{100},{101},{102},{103},{104},{105},{106},{107},{108},{109},{110},{111},{112},{113},{114},{115},{116},{117},{118},{119},{120},{121},{122},{123},{124},{125},{126},{127}" -env GAUSS_ADEF="0,1,2,3,4,5,6,7,8,9,10,11,12,13,14,15,16,17,18,19,20,21,22,23,24,25,26,27,28,29,30,31,32,33,34,35,36,37,38,39,40,41,42,43,44,45,46,47,48,49,50,51,52,53,54,55,56,57,58,59,60,61,62,63,64,65,66,67,68,69,70,71,72,73,74,75,76,77,78,79,80,81,82,83,84,85,86,87,88,89,90,91,92,93,94,95,96,97,98,99,100,101,102,103,104,105,106,107,108,109,110,111,112,113,114,115,116,117,118,119,120,121,122,123,124,125,126,127""
 Will use up to    1 processors via Linda.
 ----------------------------------------------------------------------
 #p O3LYP 6-31+G(2df,p) opt=(cartesian,calcall,maxcycles=500,loose) fre
 q scf=(maxcycles=500,xqc,maxconventional=50) IOp(3/174=1000000) IOp(3/
 175=1805800) IOp(3/176=1406000)
 ----------------------------------------------------------------------
 1/6=500,7=-1,10=4,18=10,26=3,38=1/1,3;
 2/12=2,17=6,18=5,29=2,40=1/2;
 3/5=1,6=6,7=114,11=2,25=1,30=1,71=2,74=-24,140=1,174=1000000,175=1805800,176=1406000/1,2,3;
 4//1;
 5/5=2,7=500,8=3,13=1,38=5,85=50/2,8;
 8/6=4,10=90,11=11/1;
 11/6=1,8=1,9=11,15=111,16=1/1,2,10;
 10/6=1/2;
 6/7=2,8=2,9=2,10=2,18=1,28=1/1;
 7/7=1,10=1,25=1/1,2,3,16;
 1/6=500,7=-1,10=4,18=10,26=3/3(3);
 2/29=1/2;
 7/7=1,8=1,9=1,25=1,44=-1/16;
 99/12=1/99;
 2/29=1/2;
 3/5=1,6=6,7=114,11=2,25=1,30=1,71=2,74=-24,140=1,174=1000000,175=1805800,176=1406000/1,2,3;
 4/5=5,16=3,69=1/1;
 5/5=2,7=500,8=3,13=1,38=5,85=50/2,8;
 8/6=4,10=90,11=11/1;
 11/6=1,8=1,9=11,15=111,16=1/1,2,10;
 10/6=1/2;
 7/7=1,10=1,25=1/1,2,3,16;
 1/6=500,7=-1,10=4,18=10,26=3/3(-8);
 2/29=1/2;
 6/7=2,8=2,9=2,10=2,18=1,19=2,28=1/1;
 7/7=1,8=1,9=1,25=1,44=-1/16;
 99/12=1/99;
 Leave Link    1 at Wed Mar  5 19:55:01 2025, MaxMem=           0 cpu:               3.8 elap:               0.1
 (Enter /gpfs/fs1/soft/improv/software/custom-built/gaussian/g16/l101.exe)
 -----
 Title
 -----
 Symbolic Z-matrix:
 Charge =  3 Multiplicity = 6
 Fe                   -0.79304   0.81881  -0.09491 
 O                    -1.20497   2.57394  -0.35687 
 H                    -2.12106   2.64974  -0.63312 
 O                     0.99012   1.19063  -0.05794 
 H                     1.42696   0.5998    0.55971 
 O                    -0.81752   1.03069   1.71365 
 H                    -1.02108   0.1906    2.13133 
 O                    -0.38507  -0.93351   0.17118 
 H                    -1.15682  -1.47369  -0.01433 
 O                    -2.57341   0.45178  -0.12186 
 H                    -2.77756  -0.08744  -0.88929 
 O                    -0.76966   0.60461  -1.90111 
 H                     0.09872   0.83457  -2.23949 
 H                    -0.96534  -0.30999  -2.11742 
 H                     1.12208   2.09943   0.22124 
 H                    -1.07671   3.0584    0.46184 
 H                    -2.81407  -0.02398   0.6765 
 H                     0.0422    1.33615   2.01181 
 H                    -0.11532  -1.06446   1.08312 
 
 ITRead=  0  0  0  0  0  0  0  0  0  0  0  0  0  0  0  0  0  0  0
 MicOpt= -1 -1 -1 -1 -1 -1 -1 -1 -1 -1 -1 -1 -1 -1 -1 -1 -1 -1 -1
 NAtoms=     19 NQM=       19 NQMF=       0 NMMI=      0 NMMIF=      0
                NMic=       0 NMicF=      0.
                    Isotopes and Nuclear Properties:
 (Nuclear quadrupole moments (NQMom) in fm**2, nuclear magnetic moments (NMagM)
  in nuclear magnetons)

  Atom         1           2           3           4           5           6           7           8           9          10
 IAtWgt=          56          16           1          16           1          16           1          16           1          16
 AtmWgt=  55.9349393  15.9949146   1.0078250  15.9949146   1.0078250  15.9949146   1.0078250  15.9949146   1.0078250  15.9949146
 NucSpn=           0           0           1           0           1           0           1           0           1           0
 AtZEff=  -0.0000000  -0.0000000  -0.0000000  -0.0000000  -0.0000000  -0.0000000  -0.0000000  -0.0000000  -0.0000000  -0.0000000
 NQMom=    0.0000000   0.0000000   0.0000000   0.0000000   0.0000000   0.0000000   0.0000000   0.0000000   0.0000000   0.0000000
 NMagM=    0.0000000   0.0000000   2.7928460   0.0000000   2.7928460   0.0000000   2.7928460   0.0000000   2.7928460   0.0000000
 AtZNuc=  26.0000000   8.0000000   1.0000000   8.0000000   1.0000000   8.0000000   1.0000000   8.0000000   1.0000000   8.0000000

  Atom        11          12          13          14          15          16          17          18          19
 IAtWgt=           1          16           1           1           1           1           1           1           1
 AtmWgt=   1.0078250  15.9949146   1.0078250   1.0078250   1.0078250   1.0078250   1.0078250   1.0078250   1.0078250
 NucSpn=           1           0           1           1           1           1           1           1           1
 AtZEff=  -0.0000000  -0.0000000  -0.0000000  -0.0000000  -0.0000000  -0.0000000  -0.0000000  -0.0000000  -0.0000000
 NQMom=    0.0000000   0.0000000   0.0000000   0.0000000   0.0000000   0.0000000   0.0000000   0.0000000   0.0000000
 NMagM=    2.7928460   0.0000000   2.7928460   2.7928460   2.7928460   2.7928460   2.7928460   2.7928460   2.7928460
 AtZNuc=   1.0000000   8.0000000   1.0000000   1.0000000   1.0000000   1.0000000   1.0000000   1.0000000   1.0000000
 Leave Link  101 at Wed Mar  5 19:55:01 2025, MaxMem= 13421772800 cpu:               0.4 elap:               0.1
 (Enter /gpfs/fs1/soft/improv/software/custom-built/gaussian/g16/l103.exe)

 GradGradGradGradGradGradGradGradGradGradGradGradGradGradGradGradGradGrad
 Berny optimization.
 Initialization pass.
 No Z-matrix variables, so optimization will use Cartesian coordinates.
 Trust Radius=3.00D-01 FncErr=1.00D-07 GrdErr=1.00D-06 EigMax=2.50D+02 EigMin=1.00D-04
 Number of steps in this run=    114 maximum allowed number of steps=    114.
 GradGradGradGradGradGradGradGradGradGradGradGradGradGradGradGradGradGrad

 Leave Link  103 at Wed Mar  5 19:55:02 2025, MaxMem= 13421772800 cpu:               0.4 elap:               0.2
 (Enter /gpfs/fs1/soft/improv/software/custom-built/gaussian/g16/l202.exe)
 ---------------------------------------------------------------------------------------------------
                            Z-MATRIX (ANGSTROMS AND DEGREES)
   CD    Cent   Atom    N1       Length/X        N2       Alpha/Y        N3        Beta/Z          J
 ---------------------------------------------------------------------------------------------------
      1      1  Fe       0  -0.793037          0.818805         -0.094905
      2      2  O        0  -1.204971          2.573941         -0.356874
      3      3  H        0  -2.121063          2.649743         -0.633122
      4      4  O        0   0.990122          1.190635         -0.057941
      5      5  H        0   1.426962          0.599798          0.559707
      6      6  O        0  -0.817519          1.030691          1.713650
      7      7  H        0  -1.021079          0.190602          2.131326
      8      8  O        0  -0.385068         -0.933506          0.171177
      9      9  H        0  -1.156817         -1.473692         -0.014327
     10     10  O        0  -2.573405          0.451778         -0.121857
     11     11  H        0  -2.777557         -0.087440         -0.889285
     12     12  O        0  -0.769659          0.604612         -1.901109
     13     13  H        0   0.098725          0.834573         -2.239490
     14     14  H        0  -0.965336         -0.309994         -2.117418
     15     15  H        0   1.122081          2.099426          0.221242
     16     16  H        0  -1.076711          3.058396          0.461841
     17     17  H        0  -2.814074         -0.023981          0.676500
     18     18  H        0   0.042204          1.336153          2.011809
     19     19  H        0  -0.115315         -1.064459          1.083123
 ---------------------------------------------------------------------------------------------------
                         Z-Matrix orientation:                         
 ---------------------------------------------------------------------
 Center     Atomic      Atomic             Coordinates (Angstroms)
 Number     Number       Type             X           Y           Z
 ---------------------------------------------------------------------
      1         26           0       -0.793037    0.818805   -0.094905
      2          8           0       -1.204971    2.573941   -0.356874
      3          1           0       -2.121063    2.649743   -0.633122
      4          8           0        0.990122    1.190635   -0.057941
      5          1           0        1.426962    0.599798    0.559707
      6          8           0       -0.817519    1.030691    1.713650
      7          1           0       -1.021079    0.190602    2.131326
      8          8           0       -0.385068   -0.933506    0.171177
      9          1           0       -1.156817   -1.473692   -0.014327
     10          8           0       -2.573405    0.451778   -0.121857
     11          1           0       -2.777557   -0.087440   -0.889285
     12          8           0       -0.769659    0.604612   -1.901109
     13          1           0        0.098725    0.834573   -2.239490
     14          1           0       -0.965336   -0.309994   -2.117418
     15          1           0        1.122081    2.099426    0.221242
     16          1           0       -1.076711    3.058396    0.461841
     17          1           0       -2.814074   -0.023981    0.676500
     18          1           0        0.042204    1.336153    2.011809
     19          1           0       -0.115315   -1.064459    1.083123
 ---------------------------------------------------------------------
                    Distance matrix (angstroms):
                    1          2          3          4          5
     1  Fe   0.000000
     2  O    1.821762   0.000000
     3  H    2.325008   0.959835   0.000000
     4  O    1.821889   2.611767   3.484150   0.000000
     5  H    2.324839   3.415322   4.267739   0.959899   0.000000
     6  O    1.821090   2.611285   3.134947   2.536076   2.560263
     7  H    2.324381   3.450400   3.859988   3.136540   2.937743
     8  O    1.818745   3.640503   4.062050   2.540791   2.405292
     9  H    2.322579   4.062387   4.279649   3.421971   3.362259
    10  O    1.818006   2.536025   2.301533   3.639880   4.060711
    11  H    2.321775   3.136788   2.826442   4.064482   4.499984
    12  O    1.819010   2.540161   2.759827   2.614866   3.298603
    13  H    2.322657   2.875634   3.286750   2.383386   3.107223
    14  H    2.322591   3.387332   3.506977   3.212032   3.703756
    15  H    2.325429   2.444290   3.398642   0.959822   1.567289
    16  H    2.325125   0.959918   1.567358   2.833814   3.510364
    17  H    2.321626   3.225876   3.056824   4.060370   4.288255
    18  H    2.324547   2.949275   3.660724   2.281137   2.137375
    19  H    2.322443   4.061883   4.556733   2.758526   2.328591
                    6          7          8          9         10
     6  O    0.000000
     7  H    0.960021   0.000000
     8  O    2.534622   2.347406   0.000000
     9  H    3.061530   2.718847   0.960108   0.000000
    10  O    2.605257   2.748593   2.606473   2.392848   0.000000
    11  H    3.444886   3.505227   2.750347   2.305222   0.959885
    12  O    3.640099   4.061422   2.609231   2.833582   2.538227
    13  H    4.062670   4.557707   3.028445   3.443229   3.430916
    14  H    4.061572   4.278496   2.441955   2.411193   2.673658
    15  H    2.670492   3.447487   3.387136   4.244531   4.060675
    16  H    2.397039   3.318813   4.061790   4.557738   3.061904
    17  H    2.484803   2.318921   2.642472   2.307685   0.960023
    18  H    0.959858   1.567527   2.953276   3.665802   3.489421
    19  H    2.297892   1.869309   0.959980   1.567353   3.129403
                   11         12         13         14         15
    11  H    0.000000
    12  O    2.352526   0.000000
    13  H    3.308498   0.959935   0.000000
    14  H    2.200452   0.959991   1.567533   0.000000
    15  H    4.606825   3.212091   2.949969   3.953725   0.000000
    16  H    3.822919   3.420362   3.691102   4.243941   2.410850
    17  H    1.567497   3.349453   4.210050   3.362383   4.495491
    18  H    4.288824   4.062660   4.281159   4.558009   2.225950
    19  H    3.454344   3.481323   3.833001   3.396353   3.504877
                   16         17         18         19
    16  H    0.000000
    17  H    3.544793   0.000000
    18  H    2.573032   3.433851   0.000000
    19  H    4.278809   2.920828   2.578800   0.000000
 Stoichiometry    FeH12O6(3+,6)
 Framework group  C1[X(FeH12O6)]
 Deg. of freedom    51
 Full point group                 C1      NOp   1
 Largest Abelian subgroup         C1      NOp   1
 Largest concise Abelian subgroup C1      NOp   1
                         Standard orientation:                         
 ---------------------------------------------------------------------
 Center     Atomic      Atomic             Coordinates (Angstroms)
 Number     Number       Type             X           Y           Z
 ---------------------------------------------------------------------
      1         26           0       -0.020212   -0.029769    0.009758
      2          8           0       -0.320773   -1.687164   -0.684161
      3          1           0       -1.136997   -1.679346   -1.189137
      4          8           0        1.254785   -0.678144    1.138153
      5          1           0        1.943573   -0.019708    1.254074
      6          8           0        1.298505    0.294488   -1.203590
      7          1           0        1.382461    1.241149   -1.339326
      8          8           0        0.280919    1.626834    0.697379
      9          1           0       -0.430846    2.216032    0.436526
     10          8           0       -1.285567    0.616476   -1.124434
     11          1           0       -2.034473    0.939301   -0.618170
     12          8           0       -1.338192   -0.350985    1.221594
     13          1           0       -0.971642   -0.815184    1.977660
     14          1           0       -1.717006    0.482356    1.510774
     15          1           0        1.635434   -1.476912    0.766219
     16          1           0        0.408530   -1.930525   -1.258908
     17          1           0       -0.914804    1.335716   -1.641030
     18          1           0        2.129249   -0.056449   -0.874904
     19          1           0        1.114608    1.965515    0.362985
 ---------------------------------------------------------------------
 Rotational constants (GHZ):           2.0396930           1.9739388           1.9252729
 Leave Link  202 at Wed Mar  5 19:55:02 2025, MaxMem= 13421772800 cpu:               0.6 elap:               0.1
 (Enter /gpfs/fs1/soft/improv/software/custom-built/gaussian/g16/l301.exe)
 Standard basis: 6-31+G(2df,p) (6D, 7F)
 Ernie: Thresh=  0.10000D-02 Tol=  0.10000D-05 Strict=F.
 There are   347 symmetry adapted cartesian basis functions of A   symmetry.
 There are   317 symmetry adapted basis functions of A   symmetry.
   317 basis functions,   514 primitive gaussians,   347 cartesian basis functions
    44 alpha electrons       39 beta electrons
       nuclear repulsion energy       767.7883002195 Hartrees.
 IExCor= 2119 DFT=T Ex+Corr=O3LYP ExCW=0 ScaHFX=  0.116100
 ScaDFX=  1.000000  1.000000  1.000000  0.810000 ScalE2=  1.000000  1.000000
 IRadAn=      5 IRanWt=     -1 IRanGd=            0 ICorTp=0 IEmpDi=  4
 NAtoms=   19 NActive=   19 NUniq=   19 SFac= 1.00D+00 NAtFMM=   60 NAOKFM=F Big=F
 Integral buffers will be    131072 words long.
 Raffenetti 2 integral format.
 Two-electron integral symmetry is turned on.
 R6DIni: Non-standard D2/D3 S6 parameter, value=     1.000000
 R6DIni: Non-standard D2/D3 S8 parameter, value=     1.805800
 R6DIni: Non-standard D2/D3 SR6 parameter, value=     1.406000
 Leave Link  301 at Wed Mar  5 19:55:02 2025, MaxMem= 13421772800 cpu:               0.4 elap:               0.1
 (Enter /gpfs/fs1/soft/improv/software/custom-built/gaussian/g16/l302.exe)
 NPDir=0 NMtPBC=     1 NCelOv=     1 NCel=       1 NClECP=     1 NCelD=      1
         NCelK=      1 NCelE2=     1 NClLst=     1 CellRange=     0.0.
 One-electron integrals computed using PRISM.
 One-electron integral symmetry used in STVInt
 NBasis=   317 RedAO= T EigKep=  1.64D-06  NBF=   317
 NBsUse=   317 1.00D-06 EigRej= -1.00D+00 NBFU=   317
 Precomputing XC quadrature grid using
 IXCGrd= 4 IRadAn=           5 IRanWt=          -1 IRanGd=           0 AccXCQ= 0.00D+00.
 Generated NRdTot=       0 NPtTot=           0 NUsed=           0 NTot=          32
 NSgBfM=   347   346   347   347   347 MxSgAt=    19 MxSgA2=    19.
 Leave Link  302 at Wed Mar  5 19:55:03 2025, MaxMem= 13421772800 cpu:              21.3 elap:               0.3
 (Enter /gpfs/fs1/soft/improv/software/custom-built/gaussian/g16/l303.exe)
 DipDrv:  MaxL=1.
 Leave Link  303 at Wed Mar  5 19:55:03 2025, MaxMem= 13421772800 cpu:               1.1 elap:               0.0
 (Enter /gpfs/fs1/soft/improv/software/custom-built/gaussian/g16/l401.exe)
 ExpMin= 1.26D-02 ExpMax= 6.11D+04 ExpMxC= 9.18D+03 IAcc=3 IRadAn=         5 AccDes= 0.00D+00
 Harris functional with IExCor= 2119 and IRadAn=       5 diagonalized for initial guess.
 HarFok:  IExCor= 2119 AccDes= 0.00D+00 IRadAn=         5 IDoV= 1 UseB2=F ITyADJ=14
 ICtDFT=  3500011 ScaDFX=  1.000000  1.000000  1.000000  1.000000
 FoFCou: FMM=F IPFlag=           0 FMFlag=      100000 FMFlg1=           0
         NFxFlg=           0 DoJE=T BraDBF=F KetDBF=T FulRan=T
         wScrn=  0.000000 ICntrl=       500 IOpCl=  0 I1Cent=   200000004 NGrid=           0
         NMat0=    1 NMatS0=      1 NMatT0=    0 NMatD0=    1 NMtDS0=    0 NMtDT0=    0
 Petite list used in FoFCou.
 Harris En= -1708.62175341655    
 JPrj=0 DoOrth=F DoCkMO=F.
 Initial guess <Sx>= 0.0000 <Sy>= 0.0000 <Sz>= 2.5000 <S**2>= 8.7500 S= 2.5000
 Leave Link  401 at Wed Mar  5 19:55:04 2025, MaxMem= 13421772800 cpu:              40.7 elap:               0.6
 (Enter /gpfs/fs1/soft/improv/software/custom-built/gaussian/g16/l502.exe)
 Integral symmetry usage will be decided dynamically.
 UHF open shell SCF:
 Using DIIS extrapolation, IDIIS=  1040.
 NGot= 13421772800 LenX= 13421483807 LenY= 13421362957
 Requested convergence on RMS density matrix=1.00D-08 within  50 cycles.
 Requested convergence on MAX density matrix=1.00D-06.
 Requested convergence on             energy=1.00D-06.
 No special actions if energy rises.
 Fock matrices will be formed incrementally for  20 cycles.

 Cycle   1  Pass 1  IDiag  1:
 FoFJK:  IHMeth= 1 ICntrl=       0 DoSepK=F KAlg= 0 I1Cent=           0 FoldK=F
 IRaf= 990000000 NMat=       1 IRICut=       1 DoRegI=T DoRafI=F ISym2E= 0 IDoP0=0 IntGTp=1.
 FoFCou: FMM=F IPFlag=           0 FMFlag=      100000 FMFlg1=           0
         NFxFlg=           0 DoJE=F BraDBF=F KetDBF=F FulRan=T
         wScrn=  0.000000 ICntrl=         0 IOpCl=  1 I1Cent=           0 NGrid=           0
         NMat0=    1 NMatS0=      1 NMatT0=    0 NMatD0=    1 NMtDS0=    0 NMtDT0=    0
 Symmetry not used in FoFCou.
 E= -1719.61016689097    
 DIIS: error= 7.38D-02 at cycle   1 NSaved=   1.
 NSaved= 1 IEnMin= 1 EnMin= -1719.61016689097     IErMin= 1 ErrMin= 7.38D-02
 ErrMax= 7.38D-02  0.00D+00 EMaxC= 1.00D-01 BMatC= 8.58D+00 BMatP= 8.58D+00
 IDIUse=3 WtCom= 2.62D-01 WtEn= 7.38D-01
 Coeff-Com:  0.100D+01
 Coeff-En:   0.100D+01
 Coeff:      0.100D+01
 Gap=     0.030 Goal=   None    Shift=    0.000
 Gap=    -0.648 Goal=   None    Shift=    0.000
 GapD=   -0.648 DampG=0.250 DampE=0.250 DampFc=0.1250 IDamp=-1.
 Damping current iteration by 1.25D-01
 RMSDP=6.95D-01 MaxDP=1.30D+02              OVMax= 9.62D-01

 Cycle   2  Pass 1  IDiag  1:
 RMSU=  2.97D-02    CP:  9.06D-01
 E= -1720.13269048737     Delta-E=       -0.522523596398 Rises=F Damp=T
 DIIS: error= 3.51D-02 at cycle   2 NSaved=   2.
 NSaved= 2 IEnMin= 2 EnMin= -1720.13269048737     IErMin= 2 ErrMin= 3.51D-02
 ErrMax= 3.51D-02  0.00D+00 EMaxC= 1.00D-01 BMatC= 2.30D+00 BMatP= 8.58D+00
 IDIUse=3 WtCom= 6.49D-01 WtEn= 3.51D-01
 Coeff-Com: -0.794D+00 0.179D+01
 Coeff-En:   0.000D+00 0.100D+01
 Coeff:     -0.515D+00 0.151D+01
 Gap=     0.387 Goal=   None    Shift=    0.000
 Gap=     0.019 Goal=   None    Shift=    0.000
 RMSDP=7.23D-01 MaxDP=1.36D+02 DE=-5.23D-01 OVMax= 9.59D-01

 Cycle   3  Pass 1  IDiag  1:
 RMSU=  2.48D-02    CP:  7.72D-02  2.49D+00
 E= -1720.59115789599     Delta-E=       -0.458467408623 Rises=F Damp=F
 DIIS: error= 4.12D-02 at cycle   3 NSaved=   3.
 NSaved= 3 IEnMin= 3 EnMin= -1720.59115789599     IErMin= 2 ErrMin= 3.51D-02
 ErrMax= 4.12D-02  0.00D+00 EMaxC= 1.00D-01 BMatC= 2.40D+00 BMatP= 2.30D+00
 IDIUse=3 WtCom= 5.88D-01 WtEn= 4.12D-01
 EnCoef did   100 forward-backward iterations
 Coeff-Com:  0.578D-01 0.419D+00 0.523D+00
 Coeff-En:   0.264D+00 0.445D-02 0.732D+00
 Coeff:      0.143D+00 0.248D+00 0.609D+00
 Gap=     0.132 Goal=   None    Shift=    0.000
 Gap=     0.210 Goal=   None    Shift=    0.000
 RMSDP=2.41D-02 MaxDP=2.88D+00 DE=-4.58D-01 OVMax= 2.55D-01

 Cycle   4  Pass 1  IDiag  1:
 RMSU=  8.14D-03    CP:  5.93D-02  1.93D+00  1.05D+00
 E= -1720.90718149597     Delta-E=       -0.316023599977 Rises=F Damp=F
 DIIS: error= 1.39D-02 at cycle   4 NSaved=   4.
 NSaved= 4 IEnMin= 4 EnMin= -1720.90718149597     IErMin= 4 ErrMin= 1.39D-02
 ErrMax= 1.39D-02  0.00D+00 EMaxC= 1.00D-01 BMatC= 3.15D-01 BMatP= 2.30D+00
 IDIUse=3 WtCom= 8.61D-01 WtEn= 1.39D-01
 Coeff-Com: -0.172D+00 0.248D+00 0.159D+00 0.765D+00
 Coeff-En:   0.000D+00 0.000D+00 0.155D+00 0.845D+00
 Coeff:     -0.148D+00 0.214D+00 0.159D+00 0.776D+00
 Gap=     0.227 Goal=   None    Shift=    0.000
 Gap=     0.182 Goal=   None    Shift=    0.000
 RMSDP=4.68D-03 MaxDP=5.56D-01 DE=-3.16D-01 OVMax= 3.73D-02

 Cycle   5  Pass 1  IDiag  1:
 RMSU=  2.89D-03    CP:  6.13D-02  2.00D+00  1.02D+00  7.06D-01
 E= -1720.94921147758     Delta-E=       -0.042029981613 Rises=F Damp=F
 DIIS: error= 2.26D-03 at cycle   5 NSaved=   5.
 NSaved= 5 IEnMin= 5 EnMin= -1720.94921147758     IErMin= 5 ErrMin= 2.26D-03
 ErrMax= 2.26D-03  0.00D+00 EMaxC= 1.00D-01 BMatC= 1.55D-02 BMatP= 3.15D-01
 IDIUse=3 WtCom= 9.77D-01 WtEn= 2.26D-02
 Coeff-Com: -0.105D+00 0.141D+00 0.367D-01 0.250D+00 0.678D+00
 Coeff-En:   0.000D+00 0.000D+00 0.000D+00 0.000D+00 0.100D+01
 Coeff:     -0.103D+00 0.137D+00 0.358D-01 0.244D+00 0.686D+00
 Gap=     0.217 Goal=   None    Shift=    0.000
 Gap=     0.180 Goal=   None    Shift=    0.000
 RMSDP=1.13D-03 MaxDP=1.25D-01 DE=-4.20D-02 OVMax= 1.73D-02

 Cycle   6  Pass 1  IDiag  1:
 RMSU=  6.90D-04    CP:  6.20D-02  2.02D+00  1.03D+00  7.49D-01  8.97D-01
 E= -1720.95043542253     Delta-E=       -0.001223944955 Rises=F Damp=F
 DIIS: error= 1.65D-03 at cycle   6 NSaved=   6.
 NSaved= 6 IEnMin= 6 EnMin= -1720.95043542253     IErMin= 6 ErrMin= 1.65D-03
 ErrMax= 1.65D-03  0.00D+00 EMaxC= 1.00D-01 BMatC= 8.72D-03 BMatP= 1.55D-02
 IDIUse=3 WtCom= 9.84D-01 WtEn= 1.65D-02
 Coeff-Com: -0.731D-02 0.796D-02-0.149D-02-0.106D+00 0.393D+00 0.714D+00
 Coeff-En:   0.000D+00 0.000D+00 0.000D+00 0.000D+00 0.313D+00 0.687D+00
 Coeff:     -0.719D-02 0.783D-02-0.146D-02-0.105D+00 0.392D+00 0.713D+00
 Gap=     0.223 Goal=   None    Shift=    0.000
 Gap=     0.177 Goal=   None    Shift=    0.000
 RMSDP=7.89D-04 MaxDP=8.13D-02 DE=-1.22D-03 OVMax= 7.68D-03

 Cycle   7  Pass 1  IDiag  1:
 RMSU=  3.44D-04    CP:  6.21D-02  2.04D+00  1.03D+00  7.44D-01  1.00D+00
                    CP:  7.57D-01
 E= -1720.95178487247     Delta-E=       -0.001349449934 Rises=F Damp=F
 DIIS: error= 3.82D-04 at cycle   7 NSaved=   7.
 NSaved= 7 IEnMin= 7 EnMin= -1720.95178487247     IErMin= 7 ErrMin= 3.82D-04
 ErrMax= 3.82D-04  0.00D+00 EMaxC= 1.00D-01 BMatC= 4.08D-04 BMatP= 8.72D-03
 IDIUse=3 WtCom= 9.96D-01 WtEn= 3.82D-03
 Coeff-Com:  0.323D-02-0.457D-02-0.124D-03-0.653D-01 0.144D+00 0.343D+00
 Coeff-Com:  0.579D+00
 Coeff-En:   0.000D+00 0.000D+00 0.000D+00 0.000D+00 0.000D+00 0.000D+00
 Coeff-En:   0.100D+01
 Coeff:      0.322D-02-0.455D-02-0.123D-03-0.650D-01 0.144D+00 0.342D+00
 Coeff:      0.581D+00
 Gap=     0.224 Goal=   None    Shift=    0.000
 Gap=     0.176 Goal=   None    Shift=    0.000
 RMSDP=2.25D-04 MaxDP=2.14D-02 DE=-1.35D-03 OVMax= 1.49D-03

 Cycle   8  Pass 1  IDiag  1:
 RMSU=  1.39D-04    CP:  6.20D-02  2.03D+00  1.03D+00  7.36D-01  1.00D+00
                    CP:  8.00D-01  8.11D-01
 E= -1720.95185437445     Delta-E=       -0.000069501982 Rises=F Damp=F
 DIIS: error= 1.28D-04 at cycle   8 NSaved=   8.
 NSaved= 8 IEnMin= 8 EnMin= -1720.95185437445     IErMin= 8 ErrMin= 1.28D-04
 ErrMax= 1.28D-04  0.00D+00 EMaxC= 1.00D-01 BMatC= 2.98D-05 BMatP= 4.08D-04
 IDIUse=3 WtCom= 9.99D-01 WtEn= 1.28D-03
 Coeff-Com: -0.547D-03 0.120D-02-0.136D-02-0.759D-02-0.185D-02 0.253D-01
 Coeff-Com:  0.209D+00 0.776D+00
 Coeff-En:   0.000D+00 0.000D+00 0.000D+00 0.000D+00 0.000D+00 0.000D+00
 Coeff-En:   0.000D+00 0.100D+01
 Coeff:     -0.546D-03 0.120D-02-0.136D-02-0.758D-02-0.185D-02 0.253D-01
 Coeff:      0.209D+00 0.776D+00
 Gap=     0.224 Goal=   None    Shift=    0.000
 Gap=     0.176 Goal=   None    Shift=    0.000
 RMSDP=4.22D-05 MaxDP=4.37D-03 DE=-6.95D-05 OVMax= 3.55D-04

 Cycle   9  Pass 1  IDiag  1:
 RMSU=  1.86D-05    CP:  6.19D-02  2.03D+00  1.03D+00  7.39D-01  1.00D+00
                    CP:  8.08D-01  8.53D-01  9.86D-01
 E= -1720.95185902224     Delta-E=       -0.000004647793 Rises=F Damp=F
 DIIS: error= 2.91D-05 at cycle   9 NSaved=   9.
 NSaved= 9 IEnMin= 9 EnMin= -1720.95185902224     IErMin= 9 ErrMin= 2.91D-05
 ErrMax= 2.91D-05  0.00D+00 EMaxC= 1.00D-01 BMatC= 3.03D-06 BMatP= 2.98D-05
 IDIUse=1 WtCom= 1.00D+00 WtEn= 0.00D+00
 Coeff-Com: -0.566D-05 0.185D-04-0.401D-03 0.252D-02-0.953D-02-0.135D-01
 Coeff-Com:  0.378D-01 0.283D+00 0.700D+00
 Coeff:     -0.566D-05 0.185D-04-0.401D-03 0.252D-02-0.953D-02-0.135D-01
 Coeff:      0.378D-01 0.283D+00 0.700D+00
 Gap=     0.224 Goal=   None    Shift=    0.000
 Gap=     0.176 Goal=   None    Shift=    0.000
 RMSDP=1.31D-05 MaxDP=1.75D-03 DE=-4.65D-06 OVMax= 2.48D-04

 Cycle  10  Pass 1  IDiag  1:
 RMSU=  8.20D-06    CP:  6.19D-02  2.03D+00  1.03D+00  7.39D-01  1.00D+00
                    CP:  8.03D-01  8.69D-01  9.70D-01  7.36D-01
 E= -1720.95185955042     Delta-E=       -0.000000528179 Rises=F Damp=F
 DIIS: error= 7.57D-06 at cycle  10 NSaved=  10.
 NSaved=10 IEnMin=10 EnMin= -1720.95185955042     IErMin=10 ErrMin= 7.57D-06
 ErrMax= 7.57D-06  0.00D+00 EMaxC= 1.00D-01 BMatC= 2.33D-07 BMatP= 3.03D-06
 IDIUse=1 WtCom= 1.00D+00 WtEn= 0.00D+00
 Coeff-Com:  0.155D-04-0.293D-04-0.130D-03 0.151D-02-0.467D-02-0.771D-02
 Coeff-Com:  0.905D-02 0.105D+00 0.337D+00 0.560D+00
 Coeff:      0.155D-04-0.293D-04-0.130D-03 0.151D-02-0.467D-02-0.771D-02
 Coeff:      0.905D-02 0.105D+00 0.337D+00 0.560D+00
 Gap=     0.224 Goal=   None    Shift=    0.000
 Gap=     0.176 Goal=   None    Shift=    0.000
 RMSDP=3.68D-06 MaxDP=4.72D-04 DE=-5.28D-07 OVMax= 5.44D-05

 Cycle  11  Pass 1  IDiag  1:
 RMSU=  2.44D-06    CP:  6.19D-02  2.03D+00  1.03D+00  7.39D-01  1.00D+00
                    CP:  8.05D-01  8.67D-01  9.74D-01  7.96D-01  8.67D-01
 E= -1720.95185958489     Delta-E=       -0.000000034466 Rises=F Damp=F
 DIIS: error= 3.12D-06 at cycle  11 NSaved=  11.
 NSaved=11 IEnMin=11 EnMin= -1720.95185958489     IErMin=11 ErrMin= 3.12D-06
 ErrMax= 3.12D-06  0.00D+00 EMaxC= 1.00D-01 BMatC= 4.51D-08 BMatP= 2.33D-07
 IDIUse=1 WtCom= 1.00D+00 WtEn= 0.00D+00
 Coeff-Com: -0.116D-04 0.171D-04 0.154D-04 0.230D-03-0.508D-03-0.129D-02
 Coeff-Com: -0.362D-02-0.409D-02 0.270D-01 0.308D+00 0.674D+00
 Coeff:     -0.116D-04 0.171D-04 0.154D-04 0.230D-03-0.508D-03-0.129D-02
 Coeff:     -0.362D-02-0.409D-02 0.270D-01 0.308D+00 0.674D+00
 Gap=     0.224 Goal=   None    Shift=    0.000
 Gap=     0.176 Goal=   None    Shift=    0.000
 RMSDP=1.50D-06 MaxDP=1.49D-04 DE=-3.45D-08 OVMax= 1.90D-05

 Cycle  12  Pass 1  IDiag  1:
 RMSU=  1.01D-06    CP:  6.19D-02  2.03D+00  1.03D+00  7.39D-01  1.00D+00
                    CP:  8.05D-01  8.68D-01  9.73D-01  7.97D-01  9.19D-01
                    CP:  8.06D-01
 E= -1720.95185959321     Delta-E=       -0.000000008324 Rises=F Damp=F
 DIIS: error= 4.48D-07 at cycle  12 NSaved=  12.
 NSaved=12 IEnMin=12 EnMin= -1720.95185959321     IErMin=12 ErrMin= 4.48D-07
 ErrMax= 4.48D-07  0.00D+00 EMaxC= 1.00D-01 BMatC= 9.23D-10 BMatP= 4.51D-08
 IDIUse=1 WtCom= 1.00D+00 WtEn= 0.00D+00
 Coeff-Com: -0.173D-05 0.267D-05 0.124D-04-0.618D-04 0.234D-03 0.304D-03
 Coeff-Com: -0.126D-02-0.827D-02-0.179D-01 0.259D-01 0.139D+00 0.862D+00
 Coeff:     -0.173D-05 0.267D-05 0.124D-04-0.618D-04 0.234D-03 0.304D-03
 Coeff:     -0.126D-02-0.827D-02-0.179D-01 0.259D-01 0.139D+00 0.862D+00
 Gap=     0.224 Goal=   None    Shift=    0.000
 Gap=     0.176 Goal=   None    Shift=    0.000
 RMSDP=5.75D-07 MaxDP=5.37D-05 DE=-8.32D-09 OVMax= 5.17D-06

 Cycle  13  Pass 1  IDiag  1:
 RMSU=  3.52D-07    CP:  6.19D-02  2.03D+00  1.03D+00  7.39D-01  1.00D+00
                    CP:  8.05D-01  8.68D-01  9.72D-01  8.03D-01  9.48D-01
                    CP:  8.74D-01  9.42D-01
 E= -1720.95185959340     Delta-E=       -0.000000000186 Rises=F Damp=F
 DIIS: error= 3.27D-07 at cycle  13 NSaved=  13.
 NSaved=13 IEnMin=13 EnMin= -1720.95185959340     IErMin=13 ErrMin= 3.27D-07
 ErrMax= 3.27D-07  0.00D+00 EMaxC= 1.00D-01 BMatC= 3.84D-10 BMatP= 9.23D-10
 IDIUse=1 WtCom= 1.00D+00 WtEn= 0.00D+00
 Coeff-Com:  0.699D-06-0.105D-05 0.448D-05-0.573D-04 0.167D-03 0.294D-03
 Coeff-Com: -0.195D-03-0.366D-02-0.115D-01-0.217D-01-0.696D-02 0.431D+00
 Coeff-Com:  0.613D+00
 Coeff:      0.699D-06-0.105D-05 0.448D-05-0.573D-04 0.167D-03 0.294D-03
 Coeff:     -0.195D-03-0.366D-02-0.115D-01-0.217D-01-0.696D-02 0.431D+00
 Coeff:      0.613D+00
 Gap=     0.224 Goal=   None    Shift=    0.000
 Gap=     0.176 Goal=   None    Shift=    0.000
 RMSDP=1.93D-07 MaxDP=2.13D-05 DE=-1.86D-10 OVMax= 2.65D-06

 Cycle  14  Pass 1  IDiag  1:
 RMSU=  8.93D-08    CP:  6.19D-02  2.03D+00  1.03D+00  7.39D-01  1.00D+00
                    CP:  8.05D-01  8.68D-01  9.72D-01  8.02D-01  9.52D-01
                    CP:  8.73D-01  1.03D+00  8.32D-01
 E= -1720.95185959345     Delta-E=       -0.000000000054 Rises=F Damp=F
 DIIS: error= 1.70D-07 at cycle  14 NSaved=  14.
 NSaved=14 IEnMin=14 EnMin= -1720.95185959345     IErMin=14 ErrMin= 1.70D-07
 ErrMax= 1.70D-07  0.00D+00 EMaxC= 1.00D-01 BMatC= 8.23D-11 BMatP= 3.84D-10
 IDIUse=1 WtCom= 1.00D+00 WtEn= 0.00D+00
 Coeff-Com:  0.402D-06-0.580D-06-0.312D-06-0.200D-04 0.399D-04 0.100D-03
 Coeff-Com:  0.184D-03-0.163D-03-0.226D-02-0.192D-01-0.386D-01 0.360D-01
 Coeff-Com:  0.342D+00 0.681D+00
 Coeff:      0.402D-06-0.580D-06-0.312D-06-0.200D-04 0.399D-04 0.100D-03
 Coeff:      0.184D-03-0.163D-03-0.226D-02-0.192D-01-0.386D-01 0.360D-01
 Coeff:      0.342D+00 0.681D+00
 Gap=     0.224 Goal=   None    Shift=    0.000
 Gap=     0.176 Goal=   None    Shift=    0.000
 RMSDP=9.80D-08 MaxDP=1.36D-05 DE=-5.37D-11 OVMax= 6.34D-07

 Cycle  15  Pass 1  IDiag  1:
 RMSU=  3.85D-08    CP:  6.19D-02  2.03D+00  1.03D+00  7.39D-01  1.00D+00
                    CP:  8.05D-01  8.68D-01  9.71D-01  8.03D-01  9.53D-01
                    CP:  8.85D-01  1.06D+00  9.14D-01  8.04D-01
 E= -1720.95185959350     Delta-E=       -0.000000000050 Rises=F Damp=F
 DIIS: error= 2.70D-08 at cycle  15 NSaved=  15.
 NSaved=15 IEnMin=15 EnMin= -1720.95185959350     IErMin=15 ErrMin= 2.70D-08
 ErrMax= 2.70D-08  0.00D+00 EMaxC= 1.00D-01 BMatC= 2.36D-12 BMatP= 8.23D-11
 IDIUse=1 WtCom= 1.00D+00 WtEn= 0.00D+00
 Coeff-Com:  0.456D-08 0.357D-07-0.199D-06 0.708D-06-0.776D-05-0.843D-05
 Coeff-Com:  0.421D-04 0.289D-03 0.635D-03-0.139D-02-0.584D-02-0.281D-01
 Coeff-Com:  0.102D-01 0.108D+00 0.916D+00
 Coeff:      0.456D-08 0.357D-07-0.199D-06 0.708D-06-0.776D-05-0.843D-05
 Coeff:      0.421D-04 0.289D-03 0.635D-03-0.139D-02-0.584D-02-0.281D-01
 Coeff:      0.102D-01 0.108D+00 0.916D+00
 Gap=     0.224 Goal=   None    Shift=    0.000
 Gap=     0.176 Goal=   None    Shift=    0.000
 RMSDP=3.18D-08 MaxDP=4.00D-06 DE=-5.00D-11 OVMax= 1.87D-07

 Cycle  16  Pass 1  IDiag  1:
 RMSU=  1.48D-08    CP:  6.19D-02  2.03D+00  1.03D+00  7.39D-01  1.00D+00
                    CP:  8.05D-01  8.68D-01  9.71D-01  8.03D-01  9.53D-01
                    CP:  8.84D-01  1.06D+00  9.30D-01  8.68D-01  9.51D-01
 E= -1720.95185959349     Delta-E=        0.000000000005 Rises=F Damp=F
 DIIS: error= 7.77D-09 at cycle  16 NSaved=  16.
 NSaved=16 IEnMin=15 EnMin= -1720.95185959350     IErMin=16 ErrMin= 7.77D-09
 ErrMax= 7.77D-09  0.00D+00 EMaxC= 1.00D-01 BMatC= 2.83D-13 BMatP= 2.36D-12
 IDIUse=1 WtCom= 1.00D+00 WtEn= 0.00D+00
 Coeff-Com: -0.177D-08 0.878D-08-0.598D-07 0.213D-05-0.631D-05-0.121D-04
 Coeff-Com:  0.196D-06 0.123D-03 0.441D-03 0.128D-02 0.143D-02-0.135D-01
 Coeff-Com: -0.281D-01-0.266D-01 0.328D+00 0.737D+00
 Coeff:     -0.177D-08 0.878D-08-0.598D-07 0.213D-05-0.631D-05-0.121D-04
 Coeff:      0.196D-06 0.123D-03 0.441D-03 0.128D-02 0.143D-02-0.135D-01
 Coeff:     -0.281D-01-0.266D-01 0.328D+00 0.737D+00
 Gap=     0.224 Goal=   None    Shift=    0.000
 Gap=     0.176 Goal=   None    Shift=    0.000
 RMSDP=8.07D-09 MaxDP=7.65D-07 DE= 5.00D-12 OVMax= 6.60D-08

 SCF Done:  E(UO3LYP) =  -1720.95185959     A.U. after   16 cycles
            NFock= 16  Conv=0.81D-08     -V/T= 2.0008
 <Sx>= 0.0000 <Sy>= 0.0000 <Sz>= 2.5000 <S**2>= 8.7535 S= 2.5006
 <L.S>=  0.00000000000    
 KE= 1.719605254867D+03 PE=-5.574128933936D+03 EE= 1.365783519256D+03
 Annihilation of the first spin contaminant:
 S**2 before annihilation     8.7535,   after     8.7500
 Leave Link  502 at Wed Mar  5 19:55:31 2025, MaxMem= 13421772800 cpu:            3029.7 elap:              26.8
 (Enter /gpfs/fs1/soft/improv/software/custom-built/gaussian/g16/l508.exe)
 QCSCF skips out because SCF is already converged.
 Leave Link  508 at Wed Mar  5 19:55:32 2025, MaxMem= 13421772800 cpu:               0.3 elap:               0.0
 (Enter /gpfs/fs1/soft/improv/software/custom-built/gaussian/g16/l801.exe)
 DoSCS=F DFT=T ScalE2(SS,OS)=  1.000000  1.000000
 Range of M.O.s used for correlation:     1   317
 NBasis=   317 NAE=    44 NBE=    39 NFC=     0 NFV=     0
 NROrb=    317 NOA=    44 NOB=    39 NVA=   273 NVB=   278

 **** Warning!!: The largest alpha MO coefficient is  0.22550978D+03


 **** Warning!!: The largest beta MO coefficient is  0.21227797D+03

 Leave Link  801 at Wed Mar  5 19:55:32 2025, MaxMem= 13421772800 cpu:               0.4 elap:               0.0
 (Enter /gpfs/fs1/soft/improv/software/custom-built/gaussian/g16/l1101.exe)
 Using compressed storage, NAtomX=    19.
 Will process     20 centers per pass.
 Leave Link 1101 at Wed Mar  5 19:55:33 2025, MaxMem= 13421772800 cpu:              51.7 elap:               0.5
 (Enter /gpfs/fs1/soft/improv/software/custom-built/gaussian/g16/l1102.exe)
 Symmetrizing basis deriv contribution to polar:
 IMax=3 JMax=2 DiffMx= 0.00D+00
 Leave Link 1102 at Wed Mar  5 19:55:33 2025, MaxMem= 13421772800 cpu:               1.0 elap:               0.0
 (Enter /gpfs/fs1/soft/improv/software/custom-built/gaussian/g16/l1110.exe)
 Forming Gx(P) for the SCF density, NAtomX=    19.
 Integral derivatives from FoFJK, PRISM(SPDF).
 Do as many integral derivatives as possible in FoFJK.
 G2DrvN: MDV=   13421770631.
 G2DrvN: will do    20 centers at a time, making    1 passes.
 Calling FoFCou, ICntrl=  3107 FMM=F I1Cent=   0 AccDes= 0.00D+00.
 FoFJK:  IHMeth= 1 ICntrl=    3107 DoSepK=F KAlg= 0 I1Cent=           0 FoldK=F
 IRaf=         0 NMat=       1 IRICut=       1 DoRegI=T DoRafI=F ISym2E= 0 IDoP0=0 IntGTp=1.
 FoFCou: FMM=F IPFlag=           0 FMFlag=      100000 FMFlg1=           0
         NFxFlg=           0 DoJE=F BraDBF=F KetDBF=F FulRan=T
         wScrn=  0.000000 ICntrl=      3107 IOpCl=  1 I1Cent=           0 NGrid=           0
         NMat0=    1 NMatS0=      1 NMatT0=    0 NMatD0=    1 NMtDS0=    0 NMtDT0=    0
 Symmetry not used in FoFCou.
 End of G2Drv F.D. properties file   721 does not exist.
 End of G2Drv F.D. properties file   722 does not exist.
 End of G2Drv F.D. properties file   788 does not exist.
 Leave Link 1110 at Wed Mar  5 19:55:49 2025, MaxMem= 13421772800 cpu:            1876.7 elap:              15.1
 (Enter /gpfs/fs1/soft/improv/software/custom-built/gaussian/g16/l1002.exe)
 Minotr:  UHF open shell wavefunction.
          IDoAtm=1111111111111111111
          Direct CPHF calculation.
          Differentiating once with respect to electric field.
                with respect to dipole field.
          Differentiating once with respect to nuclear coordinates.
          Requested convergence is 1.0D-08 RMS, and 1.0D-07 maximum.
          Secondary convergence is 1.0D-12 RMS, and 1.0D-12 maximum.
          NewPWx=T KeepS1=F KeepF1=F KeepIn=T MapXYZ=F SortEE=F KeepMc=T.
         6034 words used for storage of precomputed grid.
 Two-electron integrals replicated using symmetry.
          MDV=   13421772800 using IRadAn=       1.
          Solving linear equations simultaneously, MaxMat=     384.
 FoF2E skips out because all densities are zero.
 CalDSu exits because no D1Ps are significant.
 FoFJK:  IHMeth= 1 ICntrl=       0 DoSepK=F KAlg= 0 I1Cent=           0 FoldK=F
 IRaf= 990000000 NMat=      57 IRICut=     142 DoRegI=T DoRafI=T ISym2E= 2 IDoP0=3 IntGTp=2.
 FoFCou: FMM=F IPFlag=           0 FMFlag=      100000 FMFlg1=           0
         NFxFlg=           0 DoJE=F BraDBF=F KetDBF=F FulRan=T
         wScrn=  0.000000 ICntrl=         0 IOpCl=  1 I1Cent=           0 NGrid=           0
         NMat0=   57 NMatS0=     57 NMatT0=    0 NMatD0=   57 NMtDS0=    0 NMtDT0=    0
 Integrals replicated using symmetry in FoFCou.
 Raff kept on since  98.39% of shell-pairs survive, threshold=   0.20 IRatSp=98.
          There are    60 degrees of freedom in the 1st order CPHF.  IDoFFX=6 NUNeed=     3.
     57 vectors produced by pass  0 Test12= 3.81D-14 1.67D-09 XBig12= 7.26D+01 2.49D+00.
 AX will form    57 AO Fock derivatives at one time.
     57 vectors produced by pass  1 Test12= 3.81D-14 1.67D-09 XBig12= 6.90D+00 3.64D-01.
     57 vectors produced by pass  2 Test12= 3.81D-14 1.67D-09 XBig12= 8.61D-02 4.67D-02.
     57 vectors produced by pass  3 Test12= 3.81D-14 1.67D-09 XBig12= 9.38D-04 6.56D-03.
     57 vectors produced by pass  4 Test12= 3.81D-14 1.67D-09 XBig12= 9.38D-06 4.22D-04.
     57 vectors produced by pass  5 Test12= 3.81D-14 1.67D-09 XBig12= 3.77D-08 2.45D-05.
     34 vectors produced by pass  6 Test12= 3.81D-14 1.67D-09 XBig12= 8.80D-11 8.16D-07.
      7 vectors produced by pass  7 Test12= 3.81D-14 1.67D-09 XBig12= 1.69D-13 3.16D-08.
      3 vectors produced by pass  8 Test12= 3.81D-14 1.67D-09 XBig12= 4.11D-16 2.01D-09.
 InvSVY:  IOpt=1 It=  1 EMax= 5.33D-15
 Solved reduced A of dimension   386 with    60 vectors.
 FullF1:  Do perturbations      1 to       3.
 Isotropic polarizability for W=    0.000000       51.45 Bohr**3.
 End of Minotr F.D. properties file   721 does not exist.
 End of Minotr F.D. properties file   722 does not exist.
 End of Minotr F.D. properties file   788 does not exist.
 Leave Link 1002 at Wed Mar  5 19:56:54 2025, MaxMem= 13421772800 cpu:            7857.7 elap:              65.2
 (Enter /gpfs/fs1/soft/improv/software/custom-built/gaussian/g16/l601.exe)
 Copying SCF densities to generalized density rwf, IOpCl= 1 IROHF=0.

 **********************************************************************

            Population analysis using the SCF Density.

 **********************************************************************

 Orbital symmetries:
 Alpha Orbitals:
       Occupied  (A) (A) (A) (A) (A) (A) (A) (A) (A) (A) (A) (A)
                 (A) (A) (A) (A) (A) (A) (A) (A) (A) (A) (A) (A)
                 (A) (A) (A) (A) (A) (A) (A) (A) (A) (A) (A) (A)
                 (A) (A) (A) (A) (A) (A) (A) (A)
       Virtual   (A) (A) (A) (A) (A) (A) (A) (A) (A) (A) (A) (A)
                 (A) (A) (A) (A) (A) (A) (A) (A) (A) (A) (A) (A)
                 (A) (A) (A) (A) (A) (A) (A) (A) (A) (A) (A) (A)
                 (A) (A) (A) (A) (A) (A) (A) (A) (A) (A) (A) (A)
                 (A) (A) (A) (A) (A) (A) (A) (A) (A) (A) (A) (A)
                 (A) (A) (A) (A) (A) (A) (A) (A) (A) (A) (A) (A)
                 (A) (A) (A) (A) (A) (A) (A) (A) (A) (A) (A) (A)
                 (A) (A) (A) (A) (A) (A) (A) (A) (A) (A) (A) (A)
                 (A) (A) (A) (A) (A) (A) (A) (A) (A) (A) (A) (A)
                 (A) (A) (A) (A) (A) (A) (A) (A) (A) (A) (A) (A)
                 (A) (A) (A) (A) (A) (A) (A) (A) (A) (A) (A) (A)
                 (A) (A) (A) (A) (A) (A) (A) (A) (A) (A) (A) (A)
                 (A) (A) (A) (A) (A) (A) (A) (A) (A) (A) (A) (A)
                 (A) (A) (A) (A) (A) (A) (A) (A) (A) (A) (A) (A)
                 (A) (A) (A) (A) (A) (A) (A) (A) (A) (A) (A) (A)
                 (A) (A) (A) (A) (A) (A) (A) (A) (A) (A) (A) (A)
                 (A) (A) (A) (A) (A) (A) (A) (A) (A) (A) (A) (A)
                 (A) (A) (A) (A) (A) (A) (A) (A) (A) (A) (A) (A)
                 (A) (A) (A) (A) (A) (A) (A) (A) (A) (A) (A) (A)
                 (A) (A) (A) (A) (A) (A) (A) (A) (A) (A) (A) (A)
                 (A) (A) (A) (A) (A) (A) (A) (A) (A) (A) (A) (A)
                 (A) (A) (A) (A) (A) (A) (A) (A) (A) (A) (A) (A)
                 (A) (A) (A) (A) (A) (A) (A) (A) (A)
 Beta  Orbitals:
       Occupied  (A) (A) (A) (A) (A) (A) (A) (A) (A) (A) (A) (A)
                 (A) (A) (A) (A) (A) (A) (A) (A) (A) (A) (A) (A)
                 (A) (A) (A) (A) (A) (A) (A) (A) (A) (A) (A) (A)
                 (A) (A) (A)
       Virtual   (A) (A) (A) (A) (A) (A) (A) (A) (A) (A) (A) (A)
                 (A) (A) (A) (A) (A) (A) (A) (A) (A) (A) (A) (A)
                 (A) (A) (A) (A) (A) (A) (A) (A) (A) (A) (A) (A)
                 (A) (A) (A) (A) (A) (A) (A) (A) (A) (A) (A) (A)
                 (A) (A) (A) (A) (A) (A) (A) (A) (A) (A) (A) (A)
                 (A) (A) (A) (A) (A) (A) (A) (A) (A) (A) (A) (A)
                 (A) (A) (A) (A) (A) (A) (A) (A) (A) (A) (A) (A)
                 (A) (A) (A) (A) (A) (A) (A) (A) (A) (A) (A) (A)
                 (A) (A) (A) (A) (A) (A) (A) (A) (A) (A) (A) (A)
                 (A) (A) (A) (A) (A) (A) (A) (A) (A) (A) (A) (A)
                 (A) (A) (A) (A) (A) (A) (A) (A) (A) (A) (A) (A)
                 (A) (A) (A) (A) (A) (A) (A) (A) (A) (A) (A) (A)
                 (A) (A) (A) (A) (A) (A) (A) (A) (A) (A) (A) (A)
                 (A) (A) (A) (A) (A) (A) (A) (A) (A) (A) (A) (A)
                 (A) (A) (A) (A) (A) (A) (A) (A) (A) (A) (A) (A)
                 (A) (A) (A) (A) (A) (A) (A) (A) (A) (A) (A) (A)
                 (A) (A) (A) (A) (A) (A) (A) (A) (A) (A) (A) (A)
                 (A) (A) (A) (A) (A) (A) (A) (A) (A) (A) (A) (A)
                 (A) (A) (A) (A) (A) (A) (A) (A) (A) (A) (A) (A)
                 (A) (A) (A) (A) (A) (A) (A) (A) (A) (A) (A) (A)
                 (A) (A) (A) (A) (A) (A) (A) (A) (A) (A) (A) (A)
                 (A) (A) (A) (A) (A) (A) (A) (A) (A) (A) (A) (A)
                 (A) (A) (A) (A) (A) (A) (A) (A) (A) (A) (A) (A)
                 (A) (A)
 The electronic state is 6-A.
 Alpha  occ. eigenvalues -- -256.09715 -30.59179 -26.47889 -26.47804 -26.47759
 Alpha  occ. eigenvalues --  -19.61080 -19.61048 -19.60193 -19.59925 -19.57998
 Alpha  occ. eigenvalues --  -19.57286  -4.17591  -2.96628  -2.96371  -2.96244
 Alpha  occ. eigenvalues --   -1.64990  -1.62535  -1.62000  -1.61509  -1.59753
 Alpha  occ. eigenvalues --   -1.58963  -1.18049  -1.16587  -1.14582  -1.13887
 Alpha  occ. eigenvalues --   -1.12333  -1.10856  -1.10454  -1.10225  -1.08535
 Alpha  occ. eigenvalues --   -1.04527  -1.02874  -1.00999  -1.00580  -0.98590
 Alpha  occ. eigenvalues --   -0.97950  -0.94640  -0.94250  -0.92586  -0.91552
 Alpha  occ. eigenvalues --   -0.89607  -0.88905  -0.79387  -0.79113
 Alpha virt. eigenvalues --   -0.56702  -0.51369  -0.49225  -0.47832  -0.44571
 Alpha virt. eigenvalues --   -0.43494  -0.42291  -0.41864  -0.39127  -0.37520
 Alpha virt. eigenvalues --   -0.37043  -0.35585  -0.33876  -0.32927  -0.31897
 Alpha virt. eigenvalues --   -0.30301  -0.29764  -0.29422  -0.29016  -0.28433
 Alpha virt. eigenvalues --   -0.26833  -0.26195  -0.25505  -0.25201  -0.23461
 Alpha virt. eigenvalues --   -0.23212  -0.22072  -0.20906  -0.20331  -0.20026
 Alpha virt. eigenvalues --   -0.19115  -0.18500  -0.16633  -0.15958  -0.14865
 Alpha virt. eigenvalues --   -0.14215  -0.13625  -0.12980  -0.11949  -0.11234
 Alpha virt. eigenvalues --   -0.10088  -0.09327  -0.08893  -0.07470  -0.07076
 Alpha virt. eigenvalues --   -0.06072  -0.03169  -0.02051  -0.00380   0.04860
 Alpha virt. eigenvalues --    0.06630   0.08463   0.09148   0.19768   0.20759
 Alpha virt. eigenvalues --    0.22144   0.24211   0.26817   0.28157   0.29580
 Alpha virt. eigenvalues --    0.30710   0.31904   0.32231   0.33296   0.33654
 Alpha virt. eigenvalues --    0.35644   0.38035   0.38970   0.39743   0.41341
 Alpha virt. eigenvalues --    0.42781   0.43836   0.44616   0.46291   0.49453
 Alpha virt. eigenvalues --    0.50323   0.50439   0.51729   0.52550   0.52825
 Alpha virt. eigenvalues --    0.53594   0.55476   0.58441   0.60005   0.60978
 Alpha virt. eigenvalues --    0.62053   0.65305   0.66845   0.67947   0.70838
 Alpha virt. eigenvalues --    0.72482   0.74250   0.75127   0.76655   0.77732
 Alpha virt. eigenvalues --    0.78789   0.82055   0.83761   0.84535   0.85893
 Alpha virt. eigenvalues --    0.88233   0.89416   0.90545   1.04223   1.05464
 Alpha virt. eigenvalues --    1.12757   1.13919   1.16841   1.18301   1.20386
 Alpha virt. eigenvalues --    1.21055   1.21788   1.23026   1.25735   1.27703
 Alpha virt. eigenvalues --    1.31250   1.33557   1.34922   1.37807   1.40873
 Alpha virt. eigenvalues --    1.46728   1.51238   1.57991   1.65450   1.67349
 Alpha virt. eigenvalues --    1.69158   1.72316   1.72865   1.75958   1.80680
 Alpha virt. eigenvalues --    1.81976   1.82078   1.84747   1.85376   1.92458
 Alpha virt. eigenvalues --    1.94727   1.98438   2.01972   2.05276   2.08564
 Alpha virt. eigenvalues --    2.11188   2.12140   2.16552   2.19855   2.23101
 Alpha virt. eigenvalues --    2.24717   2.29124   2.30664   2.32663   2.35661
 Alpha virt. eigenvalues --    2.36513   2.37709   2.40426   2.40524   2.43160
 Alpha virt. eigenvalues --    2.43718   2.44915   2.46530   2.47155   2.48983
 Alpha virt. eigenvalues --    2.49515   2.50506   2.52096   2.53813   2.58859
 Alpha virt. eigenvalues --    2.64212   2.71342   2.74141   2.75195   2.76666
 Alpha virt. eigenvalues --    2.85541   3.11333   3.40047   3.41637   3.45374
 Alpha virt. eigenvalues --    3.49147   3.50999   3.56418   3.57387   3.58970
 Alpha virt. eigenvalues --    3.60494   3.62401   3.63386   3.64581   3.67582
 Alpha virt. eigenvalues --    3.68395   3.69232   3.69579   3.72731   3.75078
 Alpha virt. eigenvalues --    3.76011   3.76914   3.80114   3.80987   3.84994
 Alpha virt. eigenvalues --    3.87338   3.88459   3.90061   3.93114   3.94196
 Alpha virt. eigenvalues --    3.95941   3.98167   4.01304   4.04627   4.08761
 Alpha virt. eigenvalues --    4.13355   4.15656   4.15997   4.19312   4.21503
 Alpha virt. eigenvalues --    4.26846   4.31685   4.32422   4.35598   4.36384
 Alpha virt. eigenvalues --    4.38227   4.40491   4.43757   4.53964   4.58828
 Alpha virt. eigenvalues --    4.61331   4.61967   4.65326   4.68023   4.74857
 Alpha virt. eigenvalues --    4.78879   4.79587   4.80898   4.81769   4.83007
 Alpha virt. eigenvalues --    4.84728   4.84899   4.85695   4.87214   4.92114
 Alpha virt. eigenvalues --    4.92826   4.99366   5.00943   5.02473   5.04318
 Alpha virt. eigenvalues --    5.05888   5.10088   5.10944   5.12863   5.16153
 Alpha virt. eigenvalues --    5.19246   5.21665   5.23230   5.24546   5.26441
 Alpha virt. eigenvalues --    5.28658   5.29879   5.31564   5.31989   5.36133
 Alpha virt. eigenvalues --    5.40080   5.41836   5.54018   5.55153   5.95017
 Alpha virt. eigenvalues --    6.89191   6.91885   6.93219   7.01201   7.04194
 Alpha virt. eigenvalues --    7.19056  13.29777  13.31900  13.32916  13.87964
 Alpha virt. eigenvalues --   13.93583  13.98663  25.48643
  Beta  occ. eigenvalues -- -256.09606 -30.49742 -26.40515 -26.40438 -26.40399
  Beta  occ. eigenvalues --  -19.60769 -19.60735 -19.59862 -19.59585 -19.57616
  Beta  occ. eigenvalues --  -19.56898  -3.95970  -2.74293  -2.74117  -2.73996
  Beta  occ. eigenvalues --   -1.64143  -1.61677  -1.61086  -1.60604  -1.58713
  Beta  occ. eigenvalues --   -1.57899  -1.16993  -1.15489  -1.14007  -1.13173
  Beta  occ. eigenvalues --   -1.11400  -1.10131  -1.06920  -1.04746  -1.03868
  Beta  occ. eigenvalues --   -1.01059  -1.00793  -0.98474  -0.97568  -0.94105
  Beta  occ. eigenvalues --   -0.92656  -0.91263  -0.89633  -0.88342
  Beta virt. eigenvalues --   -0.70726  -0.70208  -0.69223  -0.59582  -0.59384
  Beta virt. eigenvalues --   -0.56502  -0.51183  -0.48988  -0.47649  -0.44207
  Beta virt. eigenvalues --   -0.43122  -0.42027  -0.41613  -0.38791  -0.37249
  Beta virt. eigenvalues --   -0.36747  -0.35246  -0.33651  -0.32815  -0.31690
  Beta virt. eigenvalues --   -0.30063  -0.29534  -0.29254  -0.28672  -0.28141
  Beta virt. eigenvalues --   -0.26650  -0.25850  -0.25243  -0.24854  -0.23095
  Beta virt. eigenvalues --   -0.22498  -0.21606  -0.20178  -0.19950  -0.19145
  Beta virt. eigenvalues --   -0.18445  -0.17980  -0.16197  -0.15484  -0.14125
  Beta virt. eigenvalues --   -0.13878  -0.12936  -0.11964  -0.11191  -0.10194
  Beta virt. eigenvalues --   -0.09609  -0.08663  -0.08338  -0.06613  -0.06494
  Beta virt. eigenvalues --   -0.04791  -0.02692  -0.00848   0.00826   0.06363
  Beta virt. eigenvalues --    0.08007   0.08646   0.09408   0.20236   0.21288
  Beta virt. eigenvalues --    0.22795   0.24901   0.27291   0.28578   0.30314
  Beta virt. eigenvalues --    0.31169   0.32516   0.32820   0.33672   0.34336
  Beta virt. eigenvalues --    0.35929   0.38541   0.39563   0.40284   0.41808
  Beta virt. eigenvalues --    0.43206   0.44251   0.45106   0.46833   0.50363
  Beta virt. eigenvalues --    0.50957   0.51180   0.52272   0.53334   0.53543
  Beta virt. eigenvalues --    0.54301   0.56308   0.59077   0.60776   0.61798
  Beta virt. eigenvalues --    0.62765   0.66172   0.67845   0.69323   0.72169
  Beta virt. eigenvalues --    0.73720   0.75507   0.76954   0.77760   0.79055
  Beta virt. eigenvalues --    0.80278   0.83041   0.85656   0.86671   0.87960
  Beta virt. eigenvalues --    0.89938   0.90743   0.92434   1.06890   1.07752
  Beta virt. eigenvalues --    1.15668   1.16183   1.18961   1.20003   1.23589
  Beta virt. eigenvalues --    1.23785   1.25275   1.25919   1.29950   1.30577
  Beta virt. eigenvalues --    1.34746   1.35578   1.37319   1.40523   1.42793
  Beta virt. eigenvalues --    1.47584   1.53086   1.59265   1.65887   1.67840
  Beta virt. eigenvalues --    1.69814   1.73010   1.73392   1.76657   1.81484
  Beta virt. eigenvalues --    1.82819   1.83101   1.85424   1.85892   1.93450
  Beta virt. eigenvalues --    1.96861   1.99031   2.02897   2.05983   2.10117
  Beta virt. eigenvalues --    2.13074   2.13219   2.18015   2.22170   2.25290
  Beta virt. eigenvalues --    2.26998   2.31349   2.33885   2.35648   2.36717
  Beta virt. eigenvalues --    2.37787   2.38886   2.41328   2.41525   2.44005
  Beta virt. eigenvalues --    2.45108   2.45861   2.48237   2.49745   2.50010
  Beta virt. eigenvalues --    2.51765   2.52210   2.53834   2.56053   2.59735
  Beta virt. eigenvalues --    2.64951   2.72654   2.75666   2.77837   2.79965
  Beta virt. eigenvalues --    2.88255   3.14712   3.43848   3.45084   3.46948
  Beta virt. eigenvalues --    3.50431   3.52071   3.57684   3.58842   3.60476
  Beta virt. eigenvalues --    3.64301   3.65201   3.65494   3.66674   3.71337
  Beta virt. eigenvalues --    3.72418   3.73054   3.73731   3.75072   3.78385
  Beta virt. eigenvalues --    3.82184   3.82925   3.84306   3.85981   3.89519
  Beta virt. eigenvalues --    3.90770   3.92271   3.92695   3.95751   3.97700
  Beta virt. eigenvalues --    3.98472   4.03694   4.10575   4.14086   4.15394
  Beta virt. eigenvalues --    4.17794   4.20849   4.21760   4.23205   4.24250
  Beta virt. eigenvalues --    4.30207   4.36094   4.36357   4.38152   4.39446
  Beta virt. eigenvalues --    4.41494   4.43879   4.48257   4.55466   4.60923
  Beta virt. eigenvalues --    4.62956   4.63565   4.66921   4.69958   4.76968
  Beta virt. eigenvalues --    4.79781   4.80740   4.81838   4.82468   4.84722
  Beta virt. eigenvalues --    4.85762   4.86718   4.87475   4.89418   4.94603
  Beta virt. eigenvalues --    4.95392   5.01305   5.02815   5.04197   5.06182
  Beta virt. eigenvalues --    5.08605   5.12630   5.13709   5.15234   5.18714
  Beta virt. eigenvalues --    5.20658   5.23030   5.25087   5.26540   5.28049
  Beta virt. eigenvalues --    5.30328   5.31541   5.33660   5.33971   5.37090
  Beta virt. eigenvalues --    5.40935   5.42719   5.55562   5.56572   5.98058
  Beta virt. eigenvalues --    6.90301   6.92999   6.94317   7.02286   7.05270
  Beta virt. eigenvalues --    7.19910  13.30392  13.32495  13.33505  13.88573
  Beta virt. eigenvalues --   13.94223  13.99292  25.59022
          Condensed to atoms (all electrons):
               1          2          3          4          5          6
     1  Fe  24.650022  -0.077931  -0.010428  -0.033640  -0.009500  -0.064678
     2  O   -0.077931   8.304635   0.314779  -0.062784   0.000252  -0.058979
     3  H   -0.010428   0.314779   0.253284   0.000666  -0.000018   0.001492
     4  O   -0.033640  -0.062784   0.000666   8.288134   0.309049  -0.061166
     5  H   -0.009500   0.000252  -0.000018   0.309049   0.280458   0.004030
     6  O   -0.064678  -0.058979   0.001492  -0.061166   0.004030   8.309951
     7  H   -0.004463   0.000492  -0.000037  -0.000002  -0.000360   0.307062
     8  O   -0.075941   0.056281  -0.000888  -0.070252   0.004207  -0.073184
     9  H   -0.005470  -0.000715  -0.000002   0.000594   0.000015   0.001159
    10  O   -0.036551  -0.051775   0.001137   0.045427  -0.001015  -0.069838
    11  H   -0.002112   0.001685  -0.000260  -0.000723   0.000009  -0.000189
    12  O   -0.064135  -0.051811   0.001236  -0.050718  -0.000161   0.055955
    13  H   -0.012446  -0.000232  -0.000063   0.001270  -0.000017  -0.000847
    14  H    0.006170   0.001048  -0.000024   0.001140   0.000031  -0.001087
    15  H   -0.004532   0.001990   0.000016   0.313117  -0.021989  -0.006274
    16  H   -0.002141   0.305112  -0.014086  -0.000313  -0.000038   0.000018
    17  H   -0.010970  -0.000905   0.000097  -0.000833  -0.000008   0.002830
    18  H   -0.008639  -0.000794   0.000021   0.001061  -0.001471   0.313239
    19  H   -0.007838  -0.001112   0.000007  -0.000486   0.000354   0.003257
               7          8          9         10         11         12
     1  Fe  -0.004463  -0.075941  -0.005470  -0.036551  -0.002112  -0.064135
     2  O    0.000492   0.056281  -0.000715  -0.051775   0.001685  -0.051811
     3  H   -0.000037  -0.000888  -0.000002   0.001137  -0.000260   0.001236
     4  O   -0.000002  -0.070252   0.000594   0.045427  -0.000723  -0.050718
     5  H   -0.000360   0.004207   0.000015  -0.001015   0.000009  -0.000161
     6  O    0.307062  -0.073184   0.001159  -0.069838  -0.000189   0.055955
     7  H    0.287011   0.002045  -0.000391   0.000657   0.000040  -0.001422
     8  O    0.002045   8.308450   0.311351  -0.039432  -0.006406  -0.055626
     9  H   -0.000391   0.311351   0.269639  -0.001111   0.000247  -0.001581
    10  O    0.000657  -0.039432  -0.001111   8.291814   0.310842  -0.080880
    11  H    0.000040  -0.006406   0.000247   0.310842   0.272059   0.001800
    12  O   -0.001422  -0.055626  -0.001581  -0.080880   0.001800   8.305836
    13  H    0.000008   0.001370   0.000019   0.001465  -0.000026   0.314570
    14  H   -0.000008  -0.001380   0.000345  -0.001824   0.001332   0.299774
    15  H    0.000141  -0.000208  -0.000028  -0.000758  -0.000001   0.001849
    16  H    0.000010  -0.001000   0.000005   0.001773  -0.000009   0.000407
    17  H    0.000725   0.001330  -0.001371   0.313258  -0.021377   0.000453
    18  H   -0.016777   0.000935   0.000021   0.000354  -0.000024  -0.000802
    19  H    0.001352   0.310157  -0.016187  -0.000901   0.000143   0.001271
              13         14         15         16         17         18
     1  Fe  -0.012446   0.006170  -0.004532  -0.002141  -0.010970  -0.008639
     2  O   -0.000232   0.001048   0.001990   0.305112  -0.000905  -0.000794
     3  H   -0.000063  -0.000024   0.000016  -0.014086   0.000097   0.000021
     4  O    0.001270   0.001140   0.313117  -0.000313  -0.000833   0.001061
     5  H   -0.000017   0.000031  -0.021989  -0.000038  -0.000008  -0.001471
     6  O   -0.000847  -0.001087  -0.006274   0.000018   0.002830   0.313239
     7  H    0.000008  -0.000008   0.000141   0.000010   0.000725  -0.016777
     8  O    0.001370  -0.001380  -0.000208  -0.001000   0.001330   0.000935
     9  H    0.000019   0.000345  -0.000028   0.000005  -0.001371   0.000021
    10  O    0.001465  -0.001824  -0.000758   0.001773   0.313258   0.000354
    11  H   -0.000026   0.001332  -0.000001  -0.000009  -0.021377  -0.000024
    12  O    0.314570   0.299774   0.001849   0.000407   0.000453  -0.000802
    13  H    0.249741  -0.014453  -0.000151  -0.000009  -0.000023  -0.000001
    14  H   -0.014453   0.288523  -0.000011  -0.000024  -0.000086   0.000004
    15  H   -0.000151  -0.000011   0.265571   0.000135   0.000010  -0.000092
    16  H   -0.000009  -0.000024   0.000135   0.277027   0.000050  -0.000162
    17  H   -0.000023  -0.000086   0.000010   0.000050   0.279274  -0.000029
    18  H   -0.000001   0.000004  -0.000092  -0.000162  -0.000029   0.265737
    19  H   -0.000042  -0.000025   0.000048  -0.000014  -0.000270  -0.000371
              19
     1  Fe  -0.007838
     2  O   -0.001112
     3  H    0.000007
     4  O   -0.000486
     5  H    0.000354
     6  O    0.003257
     7  H    0.001352
     8  O    0.310157
     9  H   -0.016187
    10  O   -0.000901
    11  H    0.000143
    12  O    0.001271
    13  H   -0.000042
    14  H   -0.000025
    15  H    0.000048
    16  H   -0.000014
    17  H   -0.000270
    18  H   -0.000371
    19  H    0.283962
          Atomic-Atomic Spin Densities.
               1          2          3          4          5          6
     1  Fe   4.911121  -0.099856   0.000460  -0.105258   0.000030  -0.119543
     2  O   -0.099856   0.299190  -0.005485  -0.022478   0.000253  -0.020773
     3  H    0.000460  -0.005485   0.004662   0.000320   0.000005   0.001025
     4  O   -0.105258  -0.022478   0.000320   0.279182  -0.004336  -0.022893
     5  H    0.000030   0.000253   0.000005  -0.004336   0.003774   0.002446
     6  O   -0.119543  -0.020773   0.001025  -0.022893   0.002446   0.289197
     7  H    0.001298   0.000302  -0.000009  -0.000220  -0.000043  -0.006868
     8  O   -0.119588   0.032141  -0.000641  -0.027171   0.001527  -0.026787
     9  H    0.002689  -0.000672   0.000001   0.000504  -0.000057  -0.000464
    10  O   -0.107399  -0.018400   0.002267   0.028943  -0.000637  -0.030985
    11  H    0.001748  -0.000050  -0.000027  -0.000350   0.000003   0.000387
    12  O   -0.098704  -0.030703   0.002110  -0.017823   0.000327   0.033251
    13  H    0.000726   0.001684  -0.000037   0.002062  -0.000043  -0.000604
    14  H   -0.000222   0.000470  -0.000030   0.000370  -0.000011  -0.000701
    15  H    0.001818   0.001602  -0.000050  -0.004584  -0.000109   0.000450
    16  H    0.000166  -0.003812   0.000129   0.001183  -0.000025   0.001332
    17  H    0.000503   0.000156  -0.000046  -0.000610   0.000002   0.001302
    18  H    0.002542   0.000278  -0.000009   0.004659  -0.000011  -0.007422
    19  H    0.001275  -0.000755   0.000005   0.000696   0.000088   0.005109
               7          8          9         10         11         12
     1  Fe   0.001298  -0.119588   0.002689  -0.107399   0.001748  -0.098704
     2  O    0.000302   0.032141  -0.000672  -0.018400  -0.000050  -0.030703
     3  H   -0.000009  -0.000641   0.000001   0.002267  -0.000027   0.002110
     4  O   -0.000220  -0.027171   0.000504   0.028943  -0.000350  -0.017823
     5  H   -0.000043   0.001527  -0.000057  -0.000637   0.000003   0.000327
     6  O   -0.006868  -0.026787  -0.000464  -0.030985   0.000387   0.033251
     7  H    0.004200   0.004342  -0.000091   0.001206  -0.000030  -0.000782
     8  O    0.004342   0.289146  -0.006621  -0.018599   0.000529  -0.026942
     9  H   -0.000091  -0.006621   0.004956   0.003671   0.000058   0.000611
    10  O    0.001206  -0.018599   0.003671   0.280913  -0.005017  -0.027471
    11  H   -0.000030   0.000529   0.000058  -0.005017   0.005087   0.002015
    12  O   -0.000782  -0.026942   0.000611  -0.027471   0.002015   0.303959
    13  H    0.000005   0.001228  -0.000022   0.000314  -0.000069  -0.005785
    14  H    0.000002   0.001403   0.000132   0.001655   0.000163  -0.004565
    15  H   -0.000008   0.000331   0.000004  -0.000344   0.000002  -0.000023
    16  H   -0.000059  -0.000620   0.000005   0.000363   0.000004   0.000323
    17  H    0.000099   0.001855  -0.000029  -0.003755  -0.000163   0.000244
    18  H    0.000294  -0.000149   0.000010   0.000553   0.000004  -0.000658
    19  H   -0.000034  -0.006906   0.000276  -0.000215  -0.000008   0.000398
              13         14         15         16         17         18
     1  Fe   0.000726  -0.000222   0.001818   0.000166   0.000503   0.002542
     2  O    0.001684   0.000470   0.001602  -0.003812   0.000156   0.000278
     3  H   -0.000037  -0.000030  -0.000050   0.000129  -0.000046  -0.000009
     4  O    0.002062   0.000370  -0.004584   0.001183  -0.000610   0.004659
     5  H   -0.000043  -0.000011  -0.000109  -0.000025   0.000002  -0.000011
     6  O   -0.000604  -0.000701   0.000450   0.001332   0.001302  -0.007422
     7  H    0.000005   0.000002  -0.000008  -0.000059   0.000099   0.000294
     8  O    0.001228   0.001403   0.000331  -0.000620   0.001855  -0.000149
     9  H   -0.000022   0.000132   0.000004   0.000005  -0.000029   0.000010
    10  O    0.000314   0.001655  -0.000344   0.000363  -0.003755   0.000553
    11  H   -0.000069   0.000163   0.000002   0.000004  -0.000163   0.000004
    12  O   -0.005785  -0.004565  -0.000023   0.000323   0.000244  -0.000658
    13  H    0.005044   0.000112  -0.000031  -0.000016   0.000006  -0.000001
    14  H    0.000112   0.004739   0.000004   0.000006  -0.000036   0.000005
    15  H   -0.000031   0.000004   0.004523   0.000078   0.000002   0.000048
    16  H   -0.000016   0.000006   0.000078   0.004145  -0.000010   0.000060
    17  H    0.000006  -0.000036   0.000002  -0.000010   0.003552  -0.000050
    18  H   -0.000001   0.000005   0.000048   0.000060  -0.000050   0.005562
    19  H   -0.000010  -0.000062  -0.000022   0.000001  -0.000016  -0.000115
              19
     1  Fe   0.001275
     2  O   -0.000755
     3  H    0.000005
     4  O    0.000696
     5  H    0.000088
     6  O    0.005109
     7  H   -0.000034
     8  O   -0.006906
     9  H    0.000276
    10  O   -0.000215
    11  H   -0.000008
    12  O    0.000398
    13  H   -0.000010
    14  H   -0.000062
    15  H   -0.000022
    16  H    0.000001
    17  H   -0.000016
    18  H   -0.000115
    19  H    0.004196
 Mulliken charges and spin densities:
               1          2
     1  Fe   1.775223   4.273805
     2  O   -0.679236   0.133092
     3  H    0.453070   0.004649
     4  O   -0.679541   0.112197
     5  H    0.436173   0.003181
     6  O   -0.662749   0.097458
     7  H    0.423917   0.003605
     8  O   -0.671810   0.098476
     9  H    0.443460   0.004959
    10  O   -0.682643   0.107062
    11  H    0.442970   0.004287
    12  O   -0.676015   0.129783
    13  H    0.459868   0.004561
    14  H    0.420553   0.003434
    15  H    0.451168   0.003692
    16  H    0.433258   0.003254
    17  H    0.437846   0.003005
    18  H    0.447790   0.005601
    19  H    0.426696   0.003899
 Sum of Mulliken charges =   3.00000   5.00000
 Mulliken charges and spin densities with hydrogens summed into heavy atoms:
               1          2
     1  Fe   1.775223   4.273805
     2  O    0.207092   0.140995
     4  O    0.207800   0.119070
     6  O    0.208958   0.106664
     8  O    0.198346   0.107333
    10  O    0.198174   0.114354
    12  O    0.204407   0.137779
 APT charges:
               1
     1  Fe   2.143774
     2  O   -0.617957
     3  H    0.399766
     4  O   -0.583615
     5  H    0.359633
     6  O   -0.582201
     7  H    0.348364
     8  O   -0.583845
     9  H    0.362305
    10  O   -0.578856
    11  H    0.366913
    12  O   -0.607194
    13  H    0.401859
    14  H    0.360264
    15  H    0.372377
    16  H    0.369780
    17  H    0.359177
    18  H    0.362318
    19  H    0.347137
 Sum of APT charges =   3.00000
 APT charges with hydrogens summed into heavy atoms:
               1
     1  Fe   2.143774
     2  O    0.151590
     4  O    0.148394
     6  O    0.128482
     8  O    0.125597
    10  O    0.147234
    12  O    0.154929
 Electronic spatial extent (au):  <R**2>=            838.3287
 Charge=              3.0000 electrons
 Dipole moment (field-independent basis, Debye):
    X=              2.2842    Y=              3.6376    Z=             -0.9825  Tot=              4.4063
 Quadrupole moment (field-independent basis, Debye-Ang):
   XX=            -11.6753   YY=            -15.4018   ZZ=            -26.1280
   XY=             -4.1986   XZ=             -1.6062   YZ=             -0.9611
 Traceless Quadrupole moment (field-independent basis, Debye-Ang):
   XX=              6.0598   YY=              2.3332   ZZ=             -8.3930
   XY=             -4.1986   XZ=             -1.6062   YZ=             -0.9611
 Octapole moment (field-independent basis, Debye-Ang**2):
  XXX=             18.2285  YYY=             17.1344  ZZZ=              5.0725  XYY=              4.1722
  XXY=              9.0547  XXZ=              3.2678  XZZ=             -8.0656  YZZ=             -3.3364
  YYZ=            -14.5424  XYZ=             -3.2045
 Hexadecapole moment (field-independent basis, Debye-Ang**3):
 XXXX=           -165.9190 YYYY=           -174.3926 ZZZZ=           -212.3459 XXXY=            -21.3452
 XXXZ=              2.2735 YYYX=             -8.7448 YYYZ=             11.0097 ZZZX=            -16.2288
 ZZZY=            -15.5658 XXYY=            -46.7147 XXZZ=            -53.3120 YYZZ=            -50.7373
 XXYZ=             -0.3281 YYXZ=              3.2467 ZZXY=              2.0828
 N-N= 7.677883002195D+02 E-N=-5.574128932001D+03  KE= 1.719605254867D+03
  Exact polarizability:      53.045      -0.414      52.300      -0.612       0.049      49.012
 Approx polarizability:      75.445      -0.553      74.622      -1.152      -0.128      69.069
                          Isotropic Fermi Contact Couplings
        Atom                 a.u.       MegaHertz       Gauss      10(-4) cm-1
     1  Fe(57)             0.30194       8.75874       3.12534       2.92160
     2  O(17)              0.14289     -17.32419      -6.18170      -5.77873
     3  H(1)               0.00232       2.07548       0.74058       0.69230
     4  O(17)              0.14010     -16.98603      -6.06104      -5.66593
     5  H(1)               0.00182       1.62454       0.57968       0.54189
     6  O(17)              0.14469     -17.54203      -6.25943      -5.85139
     7  H(1)               0.00163       1.45619       0.51960       0.48573
     8  O(17)              0.14343     -17.38882      -6.20476      -5.80029
     9  H(1)               0.00226       2.02183       0.72144       0.67441
    10  O(17)              0.13876     -16.82367      -6.00310      -5.61177
    11  H(1)               0.00256       2.28480       0.81527       0.76213
    12  O(17)              0.14130     -17.13127      -6.11286      -5.71438
    13  H(1)               0.00236       2.10532       0.75123       0.70226
    14  H(1)               0.00205       1.83148       0.65352       0.61091
    15  H(1)               0.00232       2.07072       0.73888       0.69072
    16  H(1)               0.00190       1.69878       0.60617       0.56665
    17  H(1)               0.00188       1.68249       0.60036       0.56122
    18  H(1)               0.00239       2.13769       0.76278       0.71306
    19  H(1)               0.00159       1.42068       0.50693       0.47389
 --------------------------------------------------------
       Center         ----  Spin Dipole Couplings  ----
                      3XX-RR        3YY-RR        3ZZ-RR
 --------------------------------------------------------
     1   Atom        0.015079     -0.015347      0.000268
     2   Atom       -0.330875      0.470176     -0.139301
     3   Atom        0.000496      0.016512     -0.017008
     4   Atom        0.037177     -0.205845      0.168667
     5   Atom        0.062719     -0.044851     -0.017869
     6   Atom        0.066536     -0.259109      0.192574
     7   Atom       -0.006124      0.014261     -0.008136
     8   Atom       -0.282319      0.290069     -0.007750
     9   Atom       -0.039100      0.094337     -0.055237
    10   Atom        0.082762     -0.163084      0.080322
    11   Atom        0.074226     -0.035699     -0.038528
    12   Atom        0.226808     -0.230946      0.004138
    13   Atom       -0.028817     -0.039141      0.067958
    14   Atom        0.024929     -0.025257      0.000329
    15   Atom        0.018381      0.021040     -0.039421
    16   Atom       -0.034278      0.042979     -0.008701
    17   Atom       -0.032324      0.007258      0.025066
    18   Atom        0.091691     -0.059354     -0.032338
    19   Atom       -0.001909      0.056448     -0.054539
 --------------------------------------------------------
                        XY            XZ            YZ
 --------------------------------------------------------
     1   Atom       -0.009822      0.014232     -0.008871
     2   Atom        0.145945      0.027471      0.118258
     3   Atom        0.050503      0.056819      0.055534
     4   Atom       -0.173055      0.272649     -0.213888
     5   Atom        0.017652      0.074582      0.001352
     6   Atom        0.087608     -0.345193     -0.023213
     7   Atom        0.051835     -0.057539     -0.052690
     8   Atom        0.107985      0.065657      0.285749
     9   Atom       -0.039728      0.003310      0.025419
    10   Atom       -0.128635      0.376647     -0.076698
    11   Atom       -0.065279      0.022930     -0.012838
    12   Atom        0.232478     -0.306402     -0.051511
    13   Atom        0.013121     -0.041965     -0.061433
    14   Atom       -0.038261     -0.079522      0.030477
    15   Atom       -0.079856      0.033447     -0.018999
    16   Atom       -0.029566     -0.035429      0.074914
    17   Atom       -0.023852      0.036714     -0.079619
    18   Atom       -0.012175     -0.047018     -0.005754
    19   Atom        0.073852      0.000775      0.019993
 --------------------------------------------------------


 ---------------------------------------------------------------------------------
              Anisotropic Spin Dipole Couplings in Principal Axis System
 ---------------------------------------------------------------------------------

       Atom             a.u.   MegaHertz   Gauss  10(-4) cm-1        Axes

              Baa    -0.0198    -0.342    -0.122    -0.114  0.1335  0.9379  0.3203
     1 Fe(57) Bbb    -0.0079    -0.137    -0.049    -0.046 -0.5746 -0.1901  0.7960
              Bcc     0.0277     0.479     0.171     0.160  0.8075 -0.2903  0.5135
 
              Baa    -0.3568    25.821     9.214     8.613  0.9850 -0.1692 -0.0324
     2 O(17)  Bbb    -0.1614    11.682     4.168     3.897  0.0007 -0.1842  0.9829
              Bcc     0.5183   -37.503   -13.382   -12.510  0.1723  0.9682  0.1813
 
              Baa    -0.0681   -36.310   -12.956   -12.112 -0.5094 -0.2387  0.8267
     3 H(1)   Bbb    -0.0413   -22.024    -7.859    -7.346 -0.6457  0.7411 -0.1839
              Bcc     0.1093    58.333    20.815    19.458  0.5688  0.6276  0.5317
 
              Baa    -0.3144    22.750     8.118     7.589  0.2462  0.9300  0.2728
     4 O(17)  Bbb    -0.1775    12.841     4.582     4.283  0.7787 -0.0222 -0.6271
              Bcc     0.4919   -35.591   -12.700   -11.872  0.5771 -0.3668  0.7296
 
              Baa    -0.0656   -34.984   -12.483   -11.669 -0.5036  0.3784  0.7767
     5 H(1)   Bbb    -0.0433   -23.085    -8.237    -7.700  0.1114  0.9199 -0.3760
              Bcc     0.1088    58.069    20.721    19.370  0.8567  0.1028  0.5054
 
              Baa    -0.3007    21.760     7.764     7.258 -0.4723  0.8319 -0.2914
     6 O(17)  Bbb    -0.1871    13.538     4.831     4.516  0.6030  0.5460  0.5816
              Bcc     0.4878   -35.298   -12.595   -11.774 -0.6429 -0.0990  0.7595
 
              Baa    -0.0647   -34.536   -12.323   -11.520  0.6820  0.0396  0.7303
     7 H(1)   Bbb    -0.0437   -23.314    -8.319    -7.777 -0.4728  0.7856  0.3990
              Bcc     0.1084    57.850    20.642    19.297  0.5579  0.6174 -0.5545
 
              Baa    -0.3032    21.936     7.827     7.317  0.9867 -0.1385 -0.0853
     8 O(17)  Bbb    -0.1811    13.101     4.675     4.370  0.0011 -0.5188  0.8549
              Bcc     0.4842   -35.038   -12.502   -11.687  0.1627  0.8436  0.5117
 
              Baa    -0.0651   -34.722   -12.390   -11.582 -0.4973 -0.2561  0.8289
     9 H(1)   Bbb    -0.0436   -23.269    -8.303    -7.762  0.8296  0.1393  0.5407
              Bcc     0.1087    57.991    20.693    19.344 -0.2539  0.9566  0.1432
 
              Baa    -0.3066    22.185     7.916     7.400  0.7126  0.2998 -0.6343
    10 O(17)  Bbb    -0.1840    13.311     4.750     4.440 -0.0665  0.9289  0.3643
              Bcc     0.4906   -35.496   -12.666   -11.840  0.6984 -0.2175  0.6819
 
              Baa    -0.0662   -35.340   -12.610   -11.788  0.4089  0.9088  0.0827
    11 H(1)   Bbb    -0.0430   -22.949    -8.189    -7.655 -0.1932 -0.0024  0.9812
              Bcc     0.1092    58.289    20.799    19.443  0.8919 -0.4172  0.1746
 
              Baa    -0.3511    25.409     9.066     8.475 -0.4898  0.8171 -0.3040
    12 O(17)  Bbb    -0.1568    11.349     4.050     3.786  0.3360  0.4987  0.7990
              Bcc     0.5080   -36.758   -13.116   -12.261  0.8045  0.2893 -0.5188
 
[...]
    14  H   -0.013417   0.282265  -0.000001  -0.000001  -0.000029  -0.000000
    15  H   -0.000030  -0.000001   0.282325  -0.000030  -0.000000  -0.000029
    16  H   -0.000001  -0.000001  -0.000030   0.282361  -0.000001  -0.000030
    17  H   -0.000001  -0.000029  -0.000000  -0.000001   0.282322  -0.000001
    18  H    0.000001  -0.000000  -0.000029  -0.000030  -0.000001   0.282287
    19  H   -0.000001  -0.000001  -0.000001   0.000001  -0.000029  -0.000030
              19
     1  Fe  -0.000113
     2  O   -0.000411
     3  H   -0.000000
     4  O    0.000471
     5  H   -0.000029
     6  O    0.001826
     7  H   -0.000029
     8  O    0.295223
     9  H   -0.013417
    10  O    0.000470
    11  H   -0.000001
    12  O    0.000994
    13  H   -0.000001
    14  H   -0.000001
    15  H   -0.000001
    16  H    0.000001
    17  H   -0.000029
    18  H   -0.000030
    19  H    0.282339
          Atomic-Atomic Spin Densities.
               1          2          3          4          5          6
     1  Fe   4.831120  -0.088771   0.003057  -0.088682   0.003051  -0.088745
     2  O   -0.088771   0.228865  -0.005102  -0.009145   0.000175  -0.009146
     3  H    0.003057  -0.005102   0.001768   0.000355  -0.000001   0.000175
     4  O   -0.088682  -0.009145   0.000355   0.228615  -0.005096  -0.009148
     5  H    0.003051   0.000175  -0.000001  -0.005096   0.001771   0.000356
     6  O   -0.088745  -0.009146   0.000175  -0.009148   0.000356   0.228807
     7  H    0.003056   0.000357  -0.000001   0.000175  -0.000001  -0.005103
     8  O   -0.088808   0.010773  -0.000149  -0.009134   0.000684  -0.009156
     9  H    0.003059  -0.000149   0.000000   0.000355  -0.000019   0.000175
    10  O   -0.088712  -0.009169   0.000358   0.010768  -0.000149  -0.009134
    11  H    0.003053   0.000687  -0.000019  -0.000149   0.000000   0.000354
    12  O   -0.088811  -0.009115   0.000682  -0.009182   0.000357   0.010770
    13  H    0.003057   0.000354  -0.000019   0.000689  -0.000019  -0.000150
    14  H    0.003060   0.000353  -0.000018   0.000175  -0.000001  -0.000149
    15  H    0.003052   0.000685  -0.000019  -0.005096   0.000872   0.000355
    16  H    0.003055  -0.005101   0.000873   0.000356  -0.000001   0.000686
    17  H    0.003055   0.000175  -0.000001  -0.000149   0.000000   0.000354
    18  H    0.003055   0.000356  -0.000001   0.000684  -0.000019  -0.005100
    19  H    0.003057  -0.000150   0.000000   0.000354  -0.000018   0.000687
               7          8          9         10         11         12
     1  Fe   0.003056  -0.088808   0.003059  -0.088712   0.003053  -0.088811
     2  O    0.000357   0.010773  -0.000149  -0.009169   0.000687  -0.009115
     3  H   -0.000001  -0.000149   0.000000   0.000358  -0.000019   0.000682
     4  O    0.000175  -0.009134   0.000355   0.010768  -0.000149  -0.009182
     5  H   -0.000001   0.000684  -0.000019  -0.000149   0.000000   0.000357
     6  O   -0.005103  -0.009156   0.000175  -0.009134   0.000354   0.010770
     7  H    0.001773   0.000356  -0.000001   0.000684  -0.000019  -0.000149
     8  O    0.000356   0.229045  -0.005106  -0.009156   0.000175  -0.009129
     9  H   -0.000001  -0.005106   0.001769   0.000355  -0.000001   0.000685
    10  O    0.000684  -0.009156   0.000355   0.228749  -0.005097  -0.009160
    11  H   -0.000019   0.000175  -0.000001  -0.005097   0.001765   0.000355
    12  O   -0.000149  -0.009129   0.000685  -0.009160   0.000355   0.229023
    13  H    0.000000   0.000355  -0.000019   0.000175  -0.000001  -0.005104
    14  H    0.000000   0.000355  -0.000019   0.000685  -0.000019  -0.005103
    15  H   -0.000001   0.000175  -0.000001  -0.000149   0.000000   0.000358
    16  H   -0.000019  -0.000149   0.000000   0.000355  -0.000019   0.000174
    17  H   -0.000018   0.000686  -0.000019  -0.005099   0.000872   0.000356
    18  H    0.000873   0.000357  -0.000001   0.000175  -0.000001  -0.000150
    19  H   -0.000019  -0.005103   0.000873   0.000357  -0.000001   0.000175
              13         14         15         16         17         18
     1  Fe   0.003057   0.003060   0.003052   0.003055   0.003055   0.003055
     2  O    0.000354   0.000353   0.000685  -0.005101   0.000175   0.000356
     3  H   -0.000019  -0.000018  -0.000019   0.000873  -0.000001  -0.000001
     4  O    0.000689   0.000175  -0.005096   0.000356  -0.000149   0.000684
     5  H   -0.000019  -0.000001   0.000872  -0.000001   0.000000  -0.000019
     6  O   -0.000150  -0.000149   0.000355   0.000686   0.000354  -0.005100
     7  H    0.000000   0.000000  -0.000001  -0.000019  -0.000018   0.000873
     8  O    0.000355   0.000355   0.000175  -0.000149   0.000686   0.000357
     9  H   -0.000019  -0.000019  -0.000001   0.000000  -0.000019  -0.000001
    10  O    0.000175   0.000685  -0.000149   0.000355  -0.005099   0.000175
    11  H   -0.000001  -0.000019   0.000000  -0.000019   0.000872  -0.000001
    12  O   -0.005104  -0.005103   0.000358   0.000174   0.000356  -0.000150
    13  H    0.001762   0.000873  -0.000019  -0.000001  -0.000001   0.000000
    14  H    0.000873   0.001767  -0.000001  -0.000001  -0.000019   0.000000
    15  H   -0.000019  -0.000001   0.001766  -0.000019   0.000000  -0.000019
    16  H   -0.000001  -0.000001  -0.000019   0.001762  -0.000001  -0.000019
    17  H   -0.000001  -0.000019   0.000000  -0.000001   0.001766  -0.000001
    18  H    0.000000   0.000000  -0.000019  -0.000019  -0.000001   0.001767
    19  H   -0.000001  -0.000001  -0.000001   0.000000  -0.000019  -0.000019
              19
     1  Fe   0.003057
     2  O   -0.000150
     3  H    0.000000
     4  O    0.000354
     5  H   -0.000018
     6  O    0.000687
     7  H   -0.000019
     8  O   -0.005103
     9  H    0.000873
    10  O    0.000357
    11  H   -0.000001
    12  O    0.000175
    13  H   -0.000001
    14  H   -0.000001
    15  H   -0.000001
    16  H    0.000000
    17  H   -0.000019
    18  H   -0.000019
    19  H    0.001760
 Mulliken charges and spin densities:
               1          2
     1  Fe   1.515720   4.335258
     2  O   -0.617929   0.106933
     3  H    0.432688   0.001936
     4  O   -0.618498   0.106748
     5  H    0.432831   0.001940
     6  O   -0.618049   0.106889
     7  H    0.432700   0.001942
     8  O   -0.617887   0.107070
     9  H    0.432768   0.001937
    10  O   -0.618366   0.106835
    11  H    0.432813   0.001935
    12  O   -0.617901   0.107033
    13  H    0.432668   0.001931
    14  H    0.432809   0.001937
    15  H    0.432757   0.001938
    16  H    0.432600   0.001932
    17  H    0.432748   0.001937
    18  H    0.432789   0.001938
    19  H    0.432740   0.001931
 Sum of Mulliken charges =   3.00000   5.00000
 Mulliken charges and spin densities with hydrogens summed into heavy atoms:
               1          2
     1  Fe   1.515720   4.335258
     2  O    0.247358   0.110802
     4  O    0.247090   0.110626
     6  O    0.247439   0.110769
     8  O    0.247621   0.110938
    10  O    0.247195   0.110707
    12  O    0.247576   0.110901
 Electronic spatial extent (au):  <R**2>=           1072.6788
 Charge=              3.0000 electrons
 Dipole moment (field-independent basis, Debye):
    X=              0.0021    Y=              0.0003    Z=              0.0009  Tot=              0.0023
 Quadrupole moment (field-independent basis, Debye-Ang):
   XX=             -6.7498   YY=             -6.7972   ZZ=             -6.7768
   XY=             -0.0102   XZ=              0.0062   YZ=              0.0037
 Traceless Quadrupole moment (field-independent basis, Debye-Ang):
   XX=              0.0248   YY=             -0.0226   ZZ=             -0.0022
   XY=             -0.0102   XZ=              0.0062   YZ=              0.0037
 Octapole moment (field-independent basis, Debye-Ang**2):
  XXX=              0.0532  YYY=             -0.0858  ZZZ=              0.0019  XYY=             -0.0252
  XXY=              0.0196  XXZ=              0.0193  XZZ=             -0.0010  YZZ=              0.0727
  YYZ=             -0.0065  XYZ=             -0.0079
 Hexadecapole moment (field-independent basis, Debye-Ang**3):
 XXXX=           -188.7741 YYYY=           -160.2696 ZZZZ=           -185.9328 XXXY=              1.1406
 XXXZ=            -25.3773 YYYX=              2.6464 YYYZ=             -2.0551 ZZZX=            -29.6864
 ZZZY=             -1.2105 XXYY=            -33.4275 XXZZ=             -7.4556 YYZZ=            -36.2308
 XXYZ=              3.3006 YYXZ=             55.1178 ZZXY=             -3.8821
 N-N= 6.758236814144D+02 E-N=-5.391925721111D+03  KE= 1.717243812159D+03
                          Isotropic Fermi Contact Couplings
        Atom                 a.u.       MegaHertz       Gauss      10(-4) cm-1
     1  Fe(57)             0.46869      13.59563       4.85126       4.53501
     2  O(17)              0.13923     -16.88047      -6.02337      -5.63072
     3  H(1)               0.00121       1.08250       0.38626       0.36108
     4  O(17)              0.13920     -16.87630      -6.02188      -5.62933
     5  H(1)               0.00121       1.08341       0.38659       0.36139
     6  O(17)              0.13923     -16.87977      -6.02312      -5.63048
     7  H(1)               0.00121       1.08415       0.38685       0.36163
     8  O(17)              0.13928     -16.88583      -6.02529      -5.63251
     9  H(1)               0.00121       1.08171       0.38598       0.36082
    10  O(17)              0.13923     -16.87960      -6.02306      -5.63043
    11  H(1)               0.00121       1.08047       0.38554       0.36040
    12  O(17)              0.13928     -16.88580      -6.02528      -5.63250
    13  H(1)               0.00121       1.07795       0.38464       0.35957
    14  H(1)               0.00121       1.08228       0.38618       0.36101
    15  H(1)               0.00121       1.08200       0.38608       0.36092
    16  H(1)               0.00121       1.08012       0.38542       0.36029
    17  H(1)               0.00121       1.08122       0.38581       0.36066
    18  H(1)               0.00121       1.08237       0.38622       0.36104
    19  H(1)               0.00121       1.07854       0.38485       0.35976
 --------------------------------------------------------
       Center         ----  Spin Dipole Couplings  ----
                      3XX-RR        3YY-RR        3ZZ-RR
 --------------------------------------------------------
     1   Atom        0.000159      0.000149     -0.000307
     2   Atom        0.049648     -0.094602      0.044954
     3   Atom       -0.015328     -0.028327      0.043654
     4   Atom       -0.061618      0.138128     -0.076510
     5   Atom       -0.030021      0.007922      0.022100
     6   Atom        0.012749     -0.042259      0.029510
     7   Atom       -0.030496      0.059576     -0.029080
     8   Atom        0.049917     -0.096711      0.046794
     9   Atom        0.038779     -0.024724     -0.014056
    10   Atom       -0.063053      0.138510     -0.075458
    11   Atom       -0.030040      0.007980      0.022060
    12   Atom        0.011666     -0.041932      0.030266
    13   Atom       -0.030558      0.059673     -0.029115
    14   Atom        0.009975     -0.019086      0.009111
    15   Atom        0.027105      0.004556     -0.031661
    16   Atom        0.039022     -0.024828     -0.014195
    17   Atom        0.027331      0.004323     -0.031654
    18   Atom        0.009792     -0.019135      0.009343
    19   Atom       -0.015315     -0.028074      0.043389
 --------------------------------------------------------
                        XY            XZ            YZ
 --------------------------------------------------------
     1   Atom        0.000060      0.000409     -0.000078
     2   Atom        0.122387     -0.146994      0.131537
     3   Atom        0.007835     -0.039683     -0.027441
     4   Atom        0.049173      0.206949      0.030329
     5   Atom        0.015159      0.010455      0.052846
     6   Atom       -0.171127     -0.060766     -0.161885
     7   Atom       -0.021272      0.011036     -0.024954
     8   Atom        0.122671     -0.145840      0.131739
     9   Atom       -0.032013     -0.039500      0.010957
    10   Atom        0.049582      0.206920      0.029558
    11   Atom        0.015087      0.010379      0.052898
    12   Atom       -0.171708     -0.061359     -0.161314
    13   Atom       -0.021121      0.011007     -0.024995
    14   Atom       -0.022695      0.050430     -0.023014
    15   Atom        0.052820      0.007231      0.011737
    16   Atom       -0.031994     -0.039383      0.010860
    17   Atom        0.052736      0.007397      0.011856
    18   Atom       -0.022607      0.050457     -0.022986
    19   Atom        0.007990     -0.039726     -0.027714
 --------------------------------------------------------


 ---------------------------------------------------------------------------------
              Anisotropic Spin Dipole Couplings in Principal Axis System
 ---------------------------------------------------------------------------------

       Atom             a.u.   MegaHertz   Gauss  10(-4) cm-1        Axes

              Baa    -0.0006    -0.010    -0.003    -0.003 -0.4992  0.1361  0.8557
     1 Fe(57) Bbb     0.0002     0.003     0.001     0.001  0.0213  0.9892 -0.1449
              Bcc     0.0004     0.007     0.002     0.002  0.8662  0.0541  0.4967
 
              Baa    -0.2768    20.029     7.147     6.681 -0.4941  0.7021 -0.5128
     2 O(17)  Bbb     0.0823    -5.958    -2.126    -1.987  0.5152  0.7115  0.4778
              Bcc     0.1945   -14.071    -5.021    -4.693 -0.7003  0.0281  0.7133
 
              Baa    -0.0409   -21.820    -7.786    -7.278  0.5175  0.7124  0.4741
     3 H(1)   Bbb    -0.0306   -16.328    -5.826    -5.447  0.7454 -0.6473  0.1591
              Bcc     0.0715    38.149    13.612    12.725 -0.4202 -0.2710  0.8660
 
              Baa    -0.2765    20.009     7.140     6.674 -0.6969  0.0302  0.7165
     4 O(17)  Bbb     0.0818    -5.922    -2.113    -1.975 -0.4931  0.7052 -0.5094
              Bcc     0.1947   -14.087    -5.027    -4.699  0.5207  0.7083  0.4766
 
              Baa    -0.0409   -21.815    -7.784    -7.277 -0.4933  0.7050 -0.5096
     5 H(1)   Bbb    -0.0306   -16.321    -5.824    -5.444  0.8524  0.2749 -0.4448
              Bcc     0.0715    38.136    13.608    12.721  0.1735  0.6538  0.7365
 
              Baa    -0.2767    20.024     7.145     6.679  0.5192  0.7087  0.4777
     6 O(17)  Bbb     0.0822    -5.947    -2.122    -1.984 -0.6981  0.0292  0.7155
              Bcc     0.1945   -14.077    -5.023    -4.696 -0.4931  0.7049 -0.5099
 
              Baa    -0.0409   -21.818    -7.785    -7.278 -0.6982  0.0298  0.7153
     7 H(1)   Bbb    -0.0306   -16.324    -5.825    -5.445  0.6800  0.3402  0.6496
              Bcc     0.0715    38.143    13.610    12.723 -0.2239  0.9399 -0.2578
 
              Baa    -0.2771    20.048     7.154     6.687 -0.4920  0.7064 -0.5089
     8 O(17)  Bbb     0.0827    -5.984    -2.135    -1.996  0.5212  0.7072  0.4777
              Bcc     0.1944   -14.064    -5.019    -4.691 -0.6973  0.0302  0.7161
 
              Baa    -0.0409   -21.825    -7.788    -7.280  0.5210  0.7072  0.4779
     9 H(1)   Bbb    -0.0306   -16.328    -5.826    -5.446  0.1472 -0.6260  0.7658
              Bcc     0.0715    38.153    13.614    12.726  0.8408 -0.3287 -0.4302
 
              Baa    -0.2767    20.022     7.144     6.679 -0.6992  0.0327  0.7141
    10 O(17)  Bbb     0.0822    -5.949    -2.123    -1.984 -0.4919  0.7029 -0.5138
              Bcc     0.1945   -14.073    -5.022    -4.694  0.5188  0.7105  0.4754
 
              Baa    -0.0409   -21.821    -7.786    -7.279 -0.4909  0.7052 -0.5116
    11 H(1)   Bbb    -0.0306   -16.324    -5.825    -5.445  0.8540  0.2732 -0.4428
              Bcc     0.0715    38.145    13.611    12.724  0.1725  0.6543  0.7363
 
              Baa    -0.2770    20.046     7.153     6.687  0.5221  0.7078  0.4758
    12 O(17)  Bbb     0.0827    -5.984    -2.135    -1.996 -0.6966  0.0320  0.7167
              Bcc     0.1943   -14.062    -5.018    -4.691 -0.4921  0.7057 -0.5098
 
              Baa    -0.0409   -21.833    -7.791    -7.283 -0.6965  0.0319  0.7169
    13 H(1)   Bbb    -0.0306   -16.328    -5.826    -5.446  0.6823  0.3390  0.6478
              Bcc     0.0715    38.161    13.617    12.729 -0.2223  0.9403 -0.2578
 
              Baa    -0.0409   -21.822    -7.787    -7.279 -0.6965  0.0318  0.7169
    14 H(1)   Bbb    -0.0306   -16.330    -5.827    -5.447  0.2620  0.9413  0.2128
              Bcc     0.0715    38.152    13.614    12.726  0.6681 -0.3360  0.6639
 
              Baa    -0.0409   -21.820    -7.786    -7.278 -0.4934  0.7049 -0.5096
    15 H(1)   Bbb    -0.0306   -16.319    -5.823    -5.444 -0.4084  0.3295  0.8512
              Bcc     0.0715    38.140    13.609    12.722  0.7680  0.6281  0.1253
 
              Baa    -0.0409   -21.831    -7.790    -7.282  0.5187  0.7103  0.4758
    16 H(1)   Bbb    -0.0306   -16.328    -5.826    -5.447  0.1483 -0.6228  0.7682
              Bcc     0.0715    38.159    13.616    12.729  0.8420 -0.3279 -0.4284
 
              Baa    -0.0409   -21.822    -7.787    -7.279 -0.4895  0.7053 -0.5127
    17 H(1)   Bbb    -0.0306   -16.324    -5.825    -5.445 -0.4108  0.3321  0.8491
              Bcc     0.0715    38.146    13.611    12.724  0.7692  0.6263  0.1271
 
              Baa    -0.0409   -21.822    -7.787    -7.279 -0.6985  0.0296  0.7150
    18 H(1)   Bbb    -0.0306   -16.323    -5.824    -5.445  0.2594  0.9417  0.2143
              Bcc     0.0715    38.145    13.611    12.724  0.6670 -0.3352  0.6654
 
              Baa    -0.0409   -21.832    -7.790    -7.282  0.5209  0.7073  0.4779
    19 H(1)   Bbb    -0.0306   -16.327    -5.826    -5.446  0.7427 -0.6515  0.1547
              Bcc     0.0715    38.159    13.616    12.728 -0.4208 -0.2744  0.8647
 

 ---------------------------------------------------------------------------------

 No NMR shielding tensors so no spin-rotation constants.
 Leave Link  601 at Wed Mar  5 20:53:34 2025, MaxMem= 13421772800 cpu:              29.5 elap:               0.3
 (Enter /gpfs/fs1/soft/improv/software/custom-built/gaussian/g16/l9999.exe)

 Test job not archived.
 1\1\GINC-I375\SP\UO3LYP\Gen\Fe1H12O6(3+,6)\HHARB\05-Mar-2025\0\\#p O3L
 YP scrf=(cpcm,solvent=water) geom=allcheck guess=read chkbasis IOp(3/1
 74=1000000) IOp(3/175=1805800) IOp(3/176=1406000)\\Title\\3,6\Fe,-0.78
 49782553,0.7128133352,0.0316618313\O,-1.3212653923,2.6821687987,-0.287
 7173928\H,-1.4425463738,3.1173111001,-1.1492921817\O,1.2080000004,1.25
 70143808,0.0355386101\H,1.9700889544,0.6648065582,0.1588466995\O,-0.87
 32250849,1.0210780378,2.0726015257\H,-1.6524091531,0.9028555307,2.6432
 12245\O,-0.2493885735,-1.2562541685,0.3533853408\H,-0.0639638437,-1.92
 51638151,-0.3284283523\O,-2.7780693852,0.1694002378,0.025935494\H,-3.5
 398269917,0.7625278888,-0.0948970618\O,-0.6948097722,0.4042444816,-2.0
 089705454\H,0.0844678315,0.525316251,-2.5788121002\H,-1.4229971074,0.1
 103976041,-2.5834630381\H,1.5633372745,2.1546432947,-0.0856265947\H,-1
 .5023718373,3.3508859729,0.394946592\H,-3.1339356872,-0.7285565236,0.1
 427112781\H,-0.1433159673,1.3120040377,2.6464176362\H,-0.1343082058,-1
 .6914132329,1.2159954243\\Version=ES64L-G16RevC.02\State=6-A\HF=-1721.
 8402946\S2=8.754901\S2-1=0.\S2A=8.750008\RMSD=6.572e-09\Dipole=-0.0005
 612,-0.0005702,-0.0004412\Quadrupole=-0.006828,0.009041,-0.002213,0.00
 07812,0.0113084,0.0142988\PG=C01 [X(Fe1H12O6)]\\@


 The lyf so short, the craft so long to lerne.
                             -- Chaucer
 Job cpu time:       0 days  0 hours 39 minutes 43.7 seconds.
 Elapsed time:       0 days  0 hours  0 minutes 21.8 seconds.
 File lengths (MBytes):  RWF=    119 Int=      0 D2E=      0 Chk=    268 Scr=      1
 Normal termination of Gaussian 16 at Wed Mar  5 20:53:34 2025.
