 Entering Gaussian System, Link 0=g16
 Input=Fe_2_TPSSh.com
 Output=Fe_2_TPSSh.log
 Initial command:
 /gpfs/fs1/soft/improv/software/custom-built/gaussian/g16/l1.exe "/scratch/Gau-529857.inp" -scrdir="/scratch/"
 Default CPUs for threads: 0-127
 Default linda workers: i334.lcrc.anl.gov
 Default is to use 128 SMP processors on each worker.
 Entering Link 1 = /gpfs/fs1/soft/improv/software/custom-built/gaussian/g16/l1.exe PID=    529858.
  
 Copyright (c) 1988-2021, Gaussian, Inc.  All Rights Reserved.
  
 This is part of the Gaussian(R) 16 program.  It is based on
 the Gaussian(R) 09 system (copyright 2009, Gaussian, Inc.),
 the Gaussian(R) 03 system (copyright 2003, Gaussian, Inc.),
 the Gaussian(R) 98 system (copyright 1998, Gaussian, Inc.),
 the Gaussian(R) 94 system (copyright 1995, Gaussian, Inc.),
 the Gaussian 92(TM) system (copyright 1992, Gaussian, Inc.),
 the Gaussian 90(TM) system (copyright 1990, Gaussian, Inc.),
 the Gaussian 88(TM) system (copyright 1988, Gaussian, Inc.),
 the Gaussian 86(TM) system (copyright 1986, Carnegie Mellon
 University), and the Gaussian 82(TM) system (copyright 1983,
 Carnegie Mellon University). Gaussian is a federally registered
 trademark of Gaussian, Inc.
  
 This software contains proprietary and confidential information,
 including trade secrets, belonging to Gaussian, Inc.
  
 This software is provided under written license and may be
 used, copied, transmitted, or stored only in accord with that
 written license.
  
 The following legend is applicable only to US Government
 contracts under FAR:
  
                    RESTRICTED RIGHTS LEGEND
  
 Use, reproduction and disclosure by the US Government is
 subject to restrictions as set forth in subparagraphs (a)
 and (c) of the Commercial Computer Software - Restricted
 Rights clause in FAR 52.227-19.
  
 Gaussian, Inc.
 340 Quinnipiac St., Bldg. 40, Wallingford CT 06492
  
  
 ---------------------------------------------------------------
 Warning -- This program may not be used in any manner that
 competes with the business of Gaussian, Inc. or will provide
 assistance to any competitor of Gaussian, Inc.  The licensee
 of this program is prohibited from giving any competitor of
 Gaussian, Inc. access to this program.  By using this program,
 the user acknowledges that Gaussian, Inc. is engaged in the
 business of creating and licensing software in the field of
 computational chemistry and represents and warrants to the
 licensee that it is not a competitor of Gaussian, Inc. and that
 it will not use this program in any manner prohibited above.
 ---------------------------------------------------------------
  

 Cite this work as:
 Gaussian 16, Revision C.02,
 M. J. Frisch, G. W. Trucks, H. B. Schlegel, G. E. Scuseria, 
 M. A. Robb, J. R. Cheeseman, G. Scalmani, V. Barone, 
 G. A. Petersson, H. Nakatsuji, X. Li, M. Caricato, A. V. Marenich, 
 J. Bloino, B. G. Janesko, R. Gomperts, B. Mennucci, H. P. Hratchian, 
 J. V. Ortiz, A. F. Izmaylov, J. L. Sonnenberg, D. Williams-Young, 
 F. Ding, F. Lipparini, F. Egidi, J. Goings, B. Peng, A. Petrone, 
 T. Henderson, D. Ranasinghe, V. G. Zakrzewski, J. Gao, N. Rega, 
 G. Zheng, W. Liang, M. Hada, M. Ehara, K. Toyota, R. Fukuda, 
 J. Hasegawa, M. Ishida, T. Nakajima, Y. Honda, O. Kitao, H. Nakai, 
 T. Vreven, K. Throssell, J. A. Montgomery, Jr., J. E. Peralta, 
 F. Ogliaro, M. J. Bearpark, J. J. Heyd, E. N. Brothers, K. N. Kudin, 
 V. N. Staroverov, T. A. Keith, R. Kobayashi, J. Normand, 
 K. Raghavachari, A. P. Rendell, J. C. Burant, S. S. Iyengar, 
 J. Tomasi, M. Cossi, J. M. Millam, M. Klene, C. Adamo, R. Cammi, 
 J. W. Ochterski, R. L. Martin, K. Morokuma, O. Farkas, 
 J. B. Foresman, and D. J. Fox, Gaussian, Inc., Wallingford CT, 2019.
 
 ******************************************
 Gaussian 16:  ES64L-G16RevC.02  7-Dec-2021
                 5-Mar-2025 
 ******************************************
 %chk=Fe_2_TPSSh.chk
 SetSPE:  set environment variable "OMP_PROC_BIND" = "true"
 SetSPE:  set environment variable "OMP_PLACES" = "{0},{1},{2},{3},{4},{5},{6},{7},{8},{9},{10},{11},{12},{13},{14},{15},{16},{17},{18},{19},{20},{21},{22},{23},{24},{25},{26},{27},{28},{29},{30},{31},{32},{33},{34},{35},{36},{37},{38},{39},{40},{41},{42},{43},{44},{45},{46},{47},{48},{49},{50},{51},{52},{53},{54},{55},{56},{57},{58},{59},{60},{61},{62},{63},{64},{65},{66},{67},{68},{69},{70},{71},{72},{73},{74},{75},{76},{77},{78},{79},{80},{81},{82},{83},{84},{85},{86},{87},{88},{89},{90},{91},{92},{93},{94},{95},{96},{97},{98},{99},{100},{101},{102},{103},{104},{105},{106},{107},{108},{109},{110},{111},{112},{113},{114},{115},{116},{117},{118},{119},{120},{121},{122},{123},{124},{125},{126},{127}"
 SetLPE:    new flags="-opt 'Tsnet.Node.lindarsharg: ssh'  -nodelist 'i334.lcrc.anl.gov' -env GAUSS_MDEF=13421772800 -env GAUSS_EXEDIR="/gpfs/fs1/soft/improv/software/custom-built/gaussian/g16/bsd:/gpfs/fs1/soft/improv/software/custom-built/gaussian/g16" -env "OMP_PROC_BIND=true" -env "OMP_PLACES={0},{1},{2},{3},{4},{5},{6},{7},{8},{9},{10},{11},{12},{13},{14},{15},{16},{17},{18},{19},{20},{21},{22},{23},{24},{25},{26},{27},{28},{29},{30},{31},{32},{33},{34},{35},{36},{37},{38},{39},{40},{41},{42},{43},{44},{45},{46},{47},{48},{49},{50},{51},{52},{53},{54},{55},{56},{57},{58},{59},{60},{61},{62},{63},{64},{65},{66},{67},{68},{69},{70},{71},{72},{73},{74},{75},{76},{77},{78},{79},{80},{81},{82},{83},{84},{85},{86},{87},{88},{89},{90},{91},{92},{93},{94},{95},{96},{97},{98},{99},{100},{101},{102},{103},{104},{105},{106},{107},{108},{109},{110},{111},{112},{113},{114},{115},{116},{117},{118},{119},{120},{121},{122},{123},{124},{125},{126},{127}" -env GAUSS_ADEF="0,1,2,3,4,5,6,7,8,9,10,11,12,13,14,15,16,17,18,19,20,21,22,23,24,25,26,27,28,29,30,31,32,33,34,35,36,37,38,39,40,41,42,43,44,45,46,47,48,49,50,51,52,53,54,55,56,57,58,59,60,61,62,63,64,65,66,67,68,69,70,71,72,73,74,75,76,77,78,79,80,81,82,83,84,85,86,87,88,89,90,91,92,93,94,95,96,97,98,99,100,101,102,103,104,105,106,107,108,109,110,111,112,113,114,115,116,117,118,119,120,121,122,123,124,125,126,127""
 Will use up to    1 processors via Linda.
 ----------------------------------------------------------------------
 #p TPSSH 6-31+G(2df,p) opt=(cartesian,calcall,maxcycles=500,loose) fre
 q scf=(maxcycles=500,xqc,maxconventional=50) IOp(3/174=1000000) IOp(3/
 175=1219000) IOp(3/176=1223000)
 ----------------------------------------------------------------------
 1/6=500,7=-1,10=4,18=10,26=3,38=1/1,3;
 2/12=2,17=6,18=5,29=2,40=1/2;
 3/5=1,6=6,7=114,11=2,25=1,30=1,71=2,74=-35,140=1,174=1000000,175=1219000,176=1223000/1,2,3;
 4//1;
 5/5=2,7=500,8=3,13=1,38=5,85=50/2,8;
 8/6=4,10=90,11=11/1;
 11/6=1,8=1,9=11,15=111,16=1/1,2,10;
 10/6=1/2;
 6/7=2,8=2,9=2,10=2,18=1,28=1/1;
 7/7=1,10=1,25=1/1,2,3,16;
 1/6=500,7=-1,10=4,18=10,26=3/3(3);
 2/29=1/2;
 7/7=1,8=1,9=1,25=1,44=-1/16;
 99/12=1/99;
 2/29=1/2;
 3/5=1,6=6,7=114,11=2,25=1,30=1,71=2,74=-35,140=1,174=1000000,175=1219000,176=1223000/1,2,3;
 4/5=5,16=3,69=1/1;
 5/5=2,7=500,8=3,13=1,38=5,85=50/2,8;
 8/6=4,10=90,11=11/1;
 11/6=1,8=1,9=11,15=111,16=1/1,2,10;
 10/6=1/2;
 7/7=1,10=1,25=1/1,2,3,16;
 1/6=500,7=-1,10=4,18=10,26=3/3(-8);
 2/29=1/2;
 6/7=2,8=2,9=2,10=2,18=1,19=2,28=1/1;
 7/7=1,8=1,9=1,25=1,44=-1/16;
 99/12=1/99;
 Leave Link    1 at Wed Mar  5 20:50:12 2025, MaxMem=           0 cpu:               3.5 elap:               0.1
 (Enter /gpfs/fs1/soft/improv/software/custom-built/gaussian/g16/l101.exe)
 -----
 Title
 -----
 Symbolic Z-matrix:
 Charge =  3 Multiplicity = 6
 Fe                   -0.79304   0.81881  -0.09491 
 O                    -1.20497   2.57394  -0.35687 
 H                    -2.12106   2.64974  -0.63312 
 O                     0.99012   1.19063  -0.05794 
 H                     1.42696   0.5998    0.55971 
 O                    -0.81752   1.03069   1.71365 
 H                    -1.02108   0.1906    2.13133 
 O                    -0.38507  -0.93351   0.17118 
 H                    -1.15682  -1.47369  -0.01433 
 O                    -2.57341   0.45178  -0.12186 
 H                    -2.77756  -0.08744  -0.88929 
 O                    -0.76966   0.60461  -1.90111 
 H                     0.09872   0.83457  -2.23949 
 H                    -0.96534  -0.30999  -2.11742 
 H                     1.12208   2.09943   0.22124 
 H                    -1.07671   3.0584    0.46184 
 H                    -2.81407  -0.02398   0.6765 
 H                     0.0422    1.33615   2.01181 
 H                    -0.11532  -1.06446   1.08312 
 
 ITRead=  0  0  0  0  0  0  0  0  0  0  0  0  0  0  0  0  0  0  0
 MicOpt= -1 -1 -1 -1 -1 -1 -1 -1 -1 -1 -1 -1 -1 -1 -1 -1 -1 -1 -1
 NAtoms=     19 NQM=       19 NQMF=       0 NMMI=      0 NMMIF=      0
                NMic=       0 NMicF=      0.
                    Isotopes and Nuclear Properties:
 (Nuclear quadrupole moments (NQMom) in fm**2, nuclear magnetic moments (NMagM)
  in nuclear magnetons)

  Atom         1           2           3           4           5           6           7           8           9          10
 IAtWgt=          56          16           1          16           1          16           1          16           1          16
 AtmWgt=  55.9349393  15.9949146   1.0078250  15.9949146   1.0078250  15.9949146   1.0078250  15.9949146   1.0078250  15.9949146
 NucSpn=           0           0           1           0           1           0           1           0           1           0
 AtZEff=  -0.0000000  -0.0000000  -0.0000000  -0.0000000  -0.0000000  -0.0000000  -0.0000000  -0.0000000  -0.0000000  -0.0000000
 NQMom=    0.0000000   0.0000000   0.0000000   0.0000000   0.0000000   0.0000000   0.0000000   0.0000000   0.0000000   0.0000000
 NMagM=    0.0000000   0.0000000   2.7928460   0.0000000   2.7928460   0.0000000   2.7928460   0.0000000   2.7928460   0.0000000
 AtZNuc=  26.0000000   8.0000000   1.0000000   8.0000000   1.0000000   8.0000000   1.0000000   8.0000000   1.0000000   8.0000000

  Atom        11          12          13          14          15          16          17          18          19
 IAtWgt=           1          16           1           1           1           1           1           1           1
 AtmWgt=   1.0078250  15.9949146   1.0078250   1.0078250   1.0078250   1.0078250   1.0078250   1.0078250   1.0078250
 NucSpn=           1           0           1           1           1           1           1           1           1
 AtZEff=  -0.0000000  -0.0000000  -0.0000000  -0.0000000  -0.0000000  -0.0000000  -0.0000000  -0.0000000  -0.0000000
 NQMom=    0.0000000   0.0000000   0.0000000   0.0000000   0.0000000   0.0000000   0.0000000   0.0000000   0.0000000
 NMagM=    2.7928460   0.0000000   2.7928460   2.7928460   2.7928460   2.7928460   2.7928460   2.7928460   2.7928460
 AtZNuc=   1.0000000   8.0000000   1.0000000   1.0000000   1.0000000   1.0000000   1.0000000   1.0000000   1.0000000
 Leave Link  101 at Wed Mar  5 20:50:13 2025, MaxMem= 13421772800 cpu:               0.4 elap:               0.1
 (Enter /gpfs/fs1/soft/improv/software/custom-built/gaussian/g16/l103.exe)

 GradGradGradGradGradGradGradGradGradGradGradGradGradGradGradGradGradGrad
 Berny optimization.
 Initialization pass.
 No Z-matrix variables, so optimization will use Cartesian coordinates.
 Trust Radius=3.00D-01 FncErr=1.00D-07 GrdErr=1.00D-06 EigMax=2.50D+02 EigMin=1.00D-04
 Number of steps in this run=    114 maximum allowed number of steps=    114.
 GradGradGradGradGradGradGradGradGradGradGradGradGradGradGradGradGradGrad

 Leave Link  103 at Wed Mar  5 20:50:13 2025, MaxMem= 13421772800 cpu:               0.4 elap:               0.1
 (Enter /gpfs/fs1/soft/improv/software/custom-built/gaussian/g16/l202.exe)
 ---------------------------------------------------------------------------------------------------
                            Z-MATRIX (ANGSTROMS AND DEGREES)
   CD    Cent   Atom    N1       Length/X        N2       Alpha/Y        N3        Beta/Z          J
 ---------------------------------------------------------------------------------------------------
      1      1  Fe       0  -0.793037          0.818805         -0.094905
      2      2  O        0  -1.204971          2.573941         -0.356874
      3      3  H        0  -2.121063          2.649743         -0.633122
      4      4  O        0   0.990122          1.190635         -0.057941
      5      5  H        0   1.426962          0.599798          0.559707
      6      6  O        0  -0.817519          1.030691          1.713650
      7      7  H        0  -1.021079          0.190602          2.131326
      8      8  O        0  -0.385068         -0.933506          0.171177
      9      9  H        0  -1.156817         -1.473692         -0.014327
     10     10  O        0  -2.573405          0.451778         -0.121857
     11     11  H        0  -2.777557         -0.087440         -0.889285
     12     12  O        0  -0.769659          0.604612         -1.901109
     13     13  H        0   0.098725          0.834573         -2.239490
     14     14  H        0  -0.965336         -0.309994         -2.117418
     15     15  H        0   1.122081          2.099426          0.221242
     16     16  H        0  -1.076711          3.058396          0.461841
     17     17  H        0  -2.814074         -0.023981          0.676500
     18     18  H        0   0.042204          1.336153          2.011809
     19     19  H        0  -0.115315         -1.064459          1.083123
 ---------------------------------------------------------------------------------------------------
                         Z-Matrix orientation:                         
 ---------------------------------------------------------------------
 Center     Atomic      Atomic             Coordinates (Angstroms)
 Number     Number       Type             X           Y           Z
 ---------------------------------------------------------------------
      1         26           0       -0.793037    0.818805   -0.094905
      2          8           0       -1.204971    2.573941   -0.356874
      3          1           0       -2.121063    2.649743   -0.633122
      4          8           0        0.990122    1.190635   -0.057941
      5          1           0        1.426962    0.599798    0.559707
      6          8           0       -0.817519    1.030691    1.713650
      7          1           0       -1.021079    0.190602    2.131326
      8          8           0       -0.385068   -0.933506    0.171177
      9          1           0       -1.156817   -1.473692   -0.014327
     10          8           0       -2.573405    0.451778   -0.121857
     11          1           0       -2.777557   -0.087440   -0.889285
     12          8           0       -0.769659    0.604612   -1.901109
     13          1           0        0.098725    0.834573   -2.239490
     14          1           0       -0.965336   -0.309994   -2.117418
     15          1           0        1.122081    2.099426    0.221242
     16          1           0       -1.076711    3.058396    0.461841
     17          1           0       -2.814074   -0.023981    0.676500
     18          1           0        0.042204    1.336153    2.011809
     19          1           0       -0.115315   -1.064459    1.083123
 ---------------------------------------------------------------------
                    Distance matrix (angstroms):
                    1          2          3          4          5
     1  Fe   0.000000
     2  O    1.821762   0.000000
     3  H    2.325008   0.959835   0.000000
     4  O    1.821889   2.611767   3.484150   0.000000
     5  H    2.324839   3.415322   4.267739   0.959899   0.000000
     6  O    1.821090   2.611285   3.134947   2.536076   2.560263
     7  H    2.324381   3.450400   3.859988   3.136540   2.937743
     8  O    1.818745   3.640503   4.062050   2.540791   2.405292
     9  H    2.322579   4.062387   4.279649   3.421971   3.362259
    10  O    1.818006   2.536025   2.301533   3.639880   4.060711
    11  H    2.321775   3.136788   2.826442   4.064482   4.499984
    12  O    1.819010   2.540161   2.759827   2.614866   3.298603
    13  H    2.322657   2.875634   3.286750   2.383386   3.107223
    14  H    2.322591   3.387332   3.506977   3.212032   3.703756
    15  H    2.325429   2.444290   3.398642   0.959822   1.567289
    16  H    2.325125   0.959918   1.567358   2.833814   3.510364
    17  H    2.321626   3.225876   3.056824   4.060370   4.288255
    18  H    2.324547   2.949275   3.660724   2.281137   2.137375
    19  H    2.322443   4.061883   4.556733   2.758526   2.328591
                    6          7          8          9         10
     6  O    0.000000
     7  H    0.960021   0.000000
     8  O    2.534622   2.347406   0.000000
     9  H    3.061530   2.718847   0.960108   0.000000
    10  O    2.605257   2.748593   2.606473   2.392848   0.000000
    11  H    3.444886   3.505227   2.750347   2.305222   0.959885
    12  O    3.640099   4.061422   2.609231   2.833582   2.538227
    13  H    4.062670   4.557707   3.028445   3.443229   3.430916
    14  H    4.061572   4.278496   2.441955   2.411193   2.673658
    15  H    2.670492   3.447487   3.387136   4.244531   4.060675
    16  H    2.397039   3.318813   4.061790   4.557738   3.061904
    17  H    2.484803   2.318921   2.642472   2.307685   0.960023
    18  H    0.959858   1.567527   2.953276   3.665802   3.489421
    19  H    2.297892   1.869309   0.959980   1.567353   3.129403
                   11         12         13         14         15
    11  H    0.000000
    12  O    2.352526   0.000000
    13  H    3.308498   0.959935   0.000000
    14  H    2.200452   0.959991   1.567533   0.000000
    15  H    4.606825   3.212091   2.949969   3.953725   0.000000
    16  H    3.822919   3.420362   3.691102   4.243941   2.410850
    17  H    1.567497   3.349453   4.210050   3.362383   4.495491
    18  H    4.288824   4.062660   4.281159   4.558009   2.225950
    19  H    3.454344   3.481323   3.833001   3.396353   3.504877
                   16         17         18         19
    16  H    0.000000
    17  H    3.544793   0.000000
    18  H    2.573032   3.433851   0.000000
    19  H    4.278809   2.920828   2.578800   0.000000
 Stoichiometry    FeH12O6(3+,6)
 Framework group  C1[X(FeH12O6)]
 Deg. of freedom    51
 Full point group                 C1      NOp   1
 Largest Abelian subgroup         C1      NOp   1
 Largest concise Abelian subgroup C1      NOp   1
                         Standard orientation:                         
 ---------------------------------------------------------------------
 Center     Atomic      Atomic             Coordinates (Angstroms)
 Number     Number       Type             X           Y           Z
 ---------------------------------------------------------------------
      1         26           0       -0.020212   -0.029769    0.009758
      2          8           0       -0.320773   -1.687164   -0.684161
      3          1           0       -1.136997   -1.679346   -1.189137
      4          8           0        1.254785   -0.678144    1.138153
      5          1           0        1.943573   -0.019708    1.254074
      6          8           0        1.298505    0.294488   -1.203590
      7          1           0        1.382461    1.241149   -1.339326
      8          8           0        0.280919    1.626834    0.697379
      9          1           0       -0.430846    2.216032    0.436526
     10          8           0       -1.285567    0.616476   -1.124434
     11          1           0       -2.034473    0.939301   -0.618170
     12          8           0       -1.338192   -0.350985    1.221594
     13          1           0       -0.971642   -0.815184    1.977660
     14          1           0       -1.717006    0.482356    1.510774
     15          1           0        1.635434   -1.476912    0.766219
     16          1           0        0.408530   -1.930525   -1.258908
     17          1           0       -0.914804    1.335716   -1.641030
     18          1           0        2.129249   -0.056449   -0.874904
     19          1           0        1.114608    1.965515    0.362985
 ---------------------------------------------------------------------
 Rotational constants (GHZ):           2.0396930           1.9739388           1.9252729
 Leave Link  202 at Wed Mar  5 20:50:14 2025, MaxMem= 13421772800 cpu:               0.5 elap:               0.2
 (Enter /gpfs/fs1/soft/improv/software/custom-built/gaussian/g16/l301.exe)
 Standard basis: 6-31+G(2df,p) (6D, 7F)
 Ernie: Thresh=  0.10000D-02 Tol=  0.10000D-05 Strict=F.
 There are   347 symmetry adapted cartesian basis functions of A   symmetry.
 There are   317 symmetry adapted basis functions of A   symmetry.
   317 basis functions,   514 primitive gaussians,   347 cartesian basis functions
    44 alpha electrons       39 beta electrons
       nuclear repulsion energy       767.7883002195 Hartrees.
 IExCor= 2523 DFT=T Ex+Corr=TPSSh ExCW=0 ScaHFX=  0.100000
 ScaDFX=  0.900000  0.900000  1.000000  1.000000 ScalE2=  1.000000  1.000000
 IRadAn=      5 IRanWt=     -1 IRanGd=            0 ICorTp=0 IEmpDi=  4
 NAtoms=   19 NActive=   19 NUniq=   19 SFac= 1.00D+00 NAtFMM=   60 NAOKFM=F Big=F
 Integral buffers will be    131072 words long.
 Raffenetti 2 integral format.
 Two-electron integral symmetry is turned on.
 R6DIni: Non-standard D2/D3 S6 parameter, value=     1.000000
 R6DIni: Non-standard D2/D3 S8 parameter, value=     1.219000
 R6DIni: Non-standard D2/D3 SR6 parameter, value=     1.223000
 Leave Link  301 at Wed Mar  5 20:50:14 2025, MaxMem= 13421772800 cpu:               0.4 elap:               0.1
 (Enter /gpfs/fs1/soft/improv/software/custom-built/gaussian/g16/l302.exe)
 NPDir=0 NMtPBC=     1 NCelOv=     1 NCel=       1 NClECP=     1 NCelD=      1
         NCelK=      1 NCelE2=     1 NClLst=     1 CellRange=     0.0.
 One-electron integrals computed using PRISM.
 One-electron integral symmetry used in STVInt
 NBasis=   317 RedAO= T EigKep=  1.64D-06  NBF=   317
 NBsUse=   317 1.00D-06 EigRej= -1.00D+00 NBFU=   317
 Precomputing XC quadrature grid using
 IXCGrd= 4 IRadAn=           5 IRanWt=          -1 IRanGd=           0 AccXCQ= 0.00D+00.
 Generated NRdTot=       0 NPtTot=           0 NUsed=           0 NTot=          32
 NSgBfM=   347   346   347   347   347 MxSgAt=    19 MxSgA2=    19.
 Leave Link  302 at Wed Mar  5 20:50:15 2025, MaxMem= 13421772800 cpu:              22.0 elap:               0.3
 (Enter /gpfs/fs1/soft/improv/software/custom-built/gaussian/g16/l303.exe)
 DipDrv:  MaxL=1.
 Leave Link  303 at Wed Mar  5 20:50:15 2025, MaxMem= 13421772800 cpu:               1.1 elap:               0.0
 (Enter /gpfs/fs1/soft/improv/software/custom-built/gaussian/g16/l401.exe)
 ExpMin= 1.26D-02 ExpMax= 6.11D+04 ExpMxC= 9.18D+03 IAcc=3 IRadAn=         5 AccDes= 0.00D+00
 Harris functional with IExCor= 1009 and IRadAn=       5 diagonalized for initial guess.
 HarFok:  IExCor= 1009 AccDes= 0.00D+00 IRadAn=         5 IDoV= 1 UseB2=F ITyADJ=14
 ICtDFT=  3500011 ScaDFX=  1.000000  1.000000  1.000000  1.000000
 FoFCou: FMM=F IPFlag=           0 FMFlag=      100000 FMFlg1=           0
         NFxFlg=           0 DoJE=T BraDBF=F KetDBF=T FulRan=T
         wScrn=  0.000000 ICntrl=       500 IOpCl=  0 I1Cent=   200000004 NGrid=           0
         NMat0=    1 NMatS0=      1 NMatT0=    0 NMatD0=    1 NMtDS0=    0 NMtDT0=    0
 Petite list used in FoFCou.
 Harris En= -1720.83105260979    
 JPrj=0 DoOrth=F DoCkMO=F.
 Initial guess <Sx>= 0.0000 <Sy>= 0.0000 <Sz>= 2.5000 <S**2>= 8.7500 S= 2.5000
 Leave Link  401 at Wed Mar  5 20:50:16 2025, MaxMem= 13421772800 cpu:              39.5 elap:               0.5
 (Enter /gpfs/fs1/soft/improv/software/custom-built/gaussian/g16/l502.exe)
 Integral symmetry usage will be decided dynamically.
 UHF open shell SCF:
 Using DIIS extrapolation, IDIIS=  1040.
 NGot= 13421772800 LenX= 13421483807 LenY= 13421362957
 Requested convergence on RMS density matrix=1.00D-08 within  50 cycles.
 Requested convergence on MAX density matrix=1.00D-06.
 Requested convergence on             energy=1.00D-06.
 No special actions if energy rises.
 Fock matrices will be formed incrementally for  20 cycles.

 Cycle   1  Pass 1  IDiag  1:
 FoFJK:  IHMeth= 1 ICntrl=       0 DoSepK=F KAlg= 0 I1Cent=           0 FoldK=F
 IRaf= 990000000 NMat=       1 IRICut=       1 DoRegI=T DoRafI=F ISym2E= 0 IDoP0=0 IntGTp=1.
 FoFCou: FMM=F IPFlag=           0 FMFlag=      100000 FMFlg1=           0
         NFxFlg=           0 DoJE=F BraDBF=F KetDBF=F FulRan=T
         wScrn=  0.000000 ICntrl=         0 IOpCl=  1 I1Cent=           0 NGrid=           0
         NMat0=    1 NMatS0=      1 NMatT0=    0 NMatD0=    1 NMtDS0=    0 NMtDT0=    0
 Symmetry not used in FoFCou.
 E= -1720.57990374200    
 DIIS: error= 2.96D-02 at cycle   1 NSaved=   1.
 NSaved= 1 IEnMin= 1 EnMin= -1720.57990374200     IErMin= 1 ErrMin= 2.96D-02
 ErrMax= 2.96D-02  0.00D+00 EMaxC= 1.00D-01 BMatC= 2.73D+00 BMatP= 2.73D+00
 IDIUse=3 WtCom= 7.04D-01 WtEn= 2.96D-01
 Coeff-Com:  0.100D+01
 Coeff-En:   0.100D+01
 Coeff:      0.100D+01
 Gap=     0.475 Goal=   None    Shift=    0.000
 Gap=    -0.155 Goal=   None    Shift=    0.000
 GapD=   -0.155 DampG=0.250 DampE=0.250 DampFc=0.1250 IDamp=-1.
 Damping current iteration by 1.25D-01
 RMSDP=7.74D-02 MaxDP=9.88D+00              OVMax= 8.40D-01

 Cycle   2  Pass 1  IDiag  1:
 RMSU=  5.23D-03    CP:  1.10D+00
 E= -1720.63997834946     Delta-E=       -0.060074607461 Rises=F Damp=T
 DIIS: error= 2.14D-02 at cycle   2 NSaved=   2.
 NSaved= 2 IEnMin= 2 EnMin= -1720.63997834946     IErMin= 2 ErrMin= 2.14D-02
 ErrMax= 2.14D-02  0.00D+00 EMaxC= 1.00D-01 BMatC= 8.08D-01 BMatP= 2.73D+00
 IDIUse=3 WtCom= 7.86D-01 WtEn= 2.14D-01
 Coeff-Com: -0.513D+00 0.151D+01
 Coeff-En:   0.255D+00 0.745D+00
 Coeff:     -0.348D+00 0.135D+01
 Gap=     0.276 Goal=   None    Shift=    0.000
 Gap=    -0.007 Goal=   None    Shift=    0.000
 RMSDP=1.51D-02 MaxDP=7.52D-01 DE=-6.01D-02 OVMax= 9.62D-01

 Cycle   3  Pass 1  IDiag  1:
 RMSU=  1.38D-02    CP:  1.03D+00  1.57D+00
 E= -1720.74309259784     Delta-E=       -0.103114248383 Rises=F Damp=F
 DIIS: error= 2.23D-02 at cycle   3 NSaved=   3.
 NSaved= 3 IEnMin= 3 EnMin= -1720.74309259784     IErMin= 2 ErrMin= 2.14D-02
 ErrMax= 2.23D-02  0.00D+00 EMaxC= 1.00D-01 BMatC= 1.16D+00 BMatP= 8.08D-01
 IDIUse=2 WtCom= 0.00D+00 WtEn= 1.00D+00
 Coeff-En:   0.000D+00 0.285D+00 0.715D+00
 Coeff:      0.000D+00 0.285D+00 0.715D+00
 Gap=     0.404 Goal=   None    Shift=    0.000
 Gap=     0.033 Goal=   None    Shift=    0.000
 RMSDP=3.59D-02 MaxDP=3.83D+00 DE=-1.03D-01 OVMax= 6.27D-01

 Cycle   4  Pass 1  IDiag  1:
 RMSU=  1.07D-02    CP:  1.38D+00  3.00D+00 -2.82D-02
 E= -1719.43229221433     Delta-E=        1.310800383511 Rises=F Damp=F
 DIIS: error= 9.32D-02 at cycle   4 NSaved=   4.
 NSaved= 4 IEnMin= 3 EnMin= -1720.74309259784     IErMin= 2 ErrMin= 2.14D-02
 ErrMax= 9.32D-02  0.00D+00 EMaxC= 1.00D-01 BMatC= 1.13D+01 BMatP= 8.08D-01
 IDIUse=2 WtCom= 0.00D+00 WtEn= 1.00D+00
 EnCoef did     2 forward-backward iterations
 Coeff-En:   0.170D+00 0.000D+00 0.670D+00 0.160D+00
 Coeff:      0.170D+00 0.000D+00 0.670D+00 0.160D+00
 Gap=     0.306 Goal=   None    Shift=    0.000
 Gap=     0.068 Goal=   None    Shift=    0.000
 RMSDP=2.03D-02 MaxDP=2.31D+00 DE= 1.31D+00 OVMax= 5.49D-01

 Cycle   5  Pass 1  IDiag  1:
 RMSU=  4.11D-03    CP:  1.17D+00  2.34D+00  3.37D-01  5.77D-01
 E= -1720.87835882381     Delta-E=       -1.446066609482 Rises=F Damp=F
 DIIS: error= 1.14D-02 at cycle   5 NSaved=   5.
 NSaved= 5 IEnMin= 5 EnMin= -1720.87835882381     IErMin= 5 ErrMin= 1.14D-02
 ErrMax= 1.14D-02  0.00D+00 EMaxC= 1.00D-01 BMatC= 3.46D-01 BMatP= 8.08D-01
 IDIUse=3 WtCom= 8.86D-01 WtEn= 1.14D-01
 Coeff-Com: -0.745D-01 0.111D+00 0.322D+00-0.364D-01 0.678D+00
 Coeff-En:   0.000D+00 0.000D+00 0.261D+00 0.000D+00 0.739D+00
 Coeff:     -0.661D-01 0.987D-01 0.315D+00-0.322D-01 0.685D+00
 Gap=     0.215 Goal=   None    Shift=    0.000
 Gap=     0.181 Goal=   None    Shift=    0.000
 RMSDP=7.41D-03 MaxDP=7.72D-01 DE=-1.45D+00 OVMax= 7.36D-02

 Cycle   6  Pass 1  IDiag  1:
 RMSU=  1.48D-03    CP:  1.11D+00  1.91D+00  5.88D-01  3.67D-01  6.76D-01
 E= -1720.93082917840     Delta-E=       -0.052470354584 Rises=F Damp=F
 DIIS: error= 2.31D-03 at cycle   6 NSaved=   6.
 NSaved= 6 IEnMin= 6 EnMin= -1720.93082917840     IErMin= 6 ErrMin= 2.31D-03
 ErrMax= 2.31D-03  0.00D+00 EMaxC= 1.00D-01 BMatC= 1.41D-02 BMatP= 3.46D-01
 IDIUse=3 WtCom= 9.77D-01 WtEn= 2.31D-02
 Coeff-Com: -0.764D-01 0.919D-01 0.151D+00-0.249D-01 0.363D+00 0.495D+00
 Coeff-En:   0.000D+00 0.000D+00 0.000D+00 0.000D+00 0.000D+00 0.100D+01
 Coeff:     -0.746D-01 0.898D-01 0.147D+00-0.243D-01 0.355D+00 0.507D+00
 Gap=     0.221 Goal=   None    Shift=    0.000
 Gap=     0.178 Goal=   None    Shift=    0.000
 RMSDP=1.02D-03 MaxDP=1.21D-01 DE=-5.25D-02 OVMax= 1.14D-02

 Cycle   7  Pass 1  IDiag  1:
 RMSU=  5.75D-04    CP:  1.12D+00  1.97D+00  5.73D-01  3.65D-01  7.22D-01
                    CP:  8.10D-01
 E= -1720.93273927508     Delta-E=       -0.001910096683 Rises=F Damp=F
 DIIS: error= 7.31D-04 at cycle   7 NSaved=   7.
 NSaved= 7 IEnMin= 7 EnMin= -1720.93273927508     IErMin= 7 ErrMin= 7.31D-04
 ErrMax= 7.31D-04  0.00D+00 EMaxC= 1.00D-01 BMatC= 1.69D-03 BMatP= 1.41D-02
 IDIUse=3 WtCom= 9.93D-01 WtEn= 7.31D-03
 Coeff-Com: -0.380D-01 0.423D-01-0.397D-02-0.756D-03 0.920D-02 0.235D+00
 Coeff-Com:  0.756D+00
 Coeff-En:   0.000D+00 0.000D+00 0.000D+00 0.000D+00 0.000D+00 0.000D+00
 Coeff-En:   0.100D+01
 Coeff:     -0.377D-01 0.420D-01-0.394D-02-0.750D-03 0.914D-02 0.233D+00
 Coeff:      0.758D+00
 Gap=     0.220 Goal=   None    Shift=    0.000
 Gap=     0.177 Goal=   None    Shift=    0.000
 RMSDP=1.61D-04 MaxDP=2.26D-02 DE=-1.91D-03 OVMax= 2.68D-03

 Cycle   8  Pass 1  IDiag  1:
 RMSU=  1.31D-04    CP:  1.12D+00  1.96D+00  5.73D-01  3.68D-01  7.21D-01
                    CP:  8.38D-01  9.09D-01
 E= -1720.93292959428     Delta-E=       -0.000190319201 Rises=F Damp=F
 DIIS: error= 5.60D-04 at cycle   8 NSaved=   8.
 NSaved= 8 IEnMin= 8 EnMin= -1720.93292959428     IErMin= 8 ErrMin= 5.60D-04
 ErrMax= 5.60D-04  0.00D+00 EMaxC= 1.00D-01 BMatC= 5.15D-04 BMatP= 1.69D-03
 IDIUse=3 WtCom= 9.94D-01 WtEn= 5.60D-03
 Coeff-Com: -0.241D-01 0.275D-01-0.580D-02 0.440D-03-0.820D-03 0.639D-01
 Coeff-Com:  0.209D+00 0.730D+00
 Coeff-En:   0.000D+00 0.000D+00 0.000D+00 0.000D+00 0.000D+00 0.000D+00
 Coeff-En:   0.000D+00 0.100D+01
 Coeff:     -0.240D-01 0.274D-01-0.577D-02 0.438D-03-0.816D-03 0.635D-01
 Coeff:      0.208D+00 0.731D+00
 Gap=     0.221 Goal=   None    Shift=    0.000
 Gap=     0.176 Goal=   None    Shift=    0.000
 RMSDP=2.02D-04 MaxDP=2.38D-02 DE=-1.90D-04 OVMax= 1.03D-03

 Cycle   9  Pass 1  IDiag  1:
 RMSU=  4.74D-05    CP:  1.12D+00  1.98D+00  5.72D-01  3.68D-01  7.21D-01
                    CP:  8.50D-01  9.54D-01  1.01D+00
 E= -1720.93298545711     Delta-E=       -0.000055862835 Rises=F Damp=F
 DIIS: error= 3.17D-04 at cycle   9 NSaved=   9.
 NSaved= 9 IEnMin= 9 EnMin= -1720.93298545711     IErMin= 9 ErrMin= 3.17D-04
 ErrMax= 3.17D-04  0.00D+00 EMaxC= 1.00D-01 BMatC= 1.58D-04 BMatP= 5.15D-04
 IDIUse=3 WtCom= 9.97D-01 WtEn= 3.17D-03
 Coeff-Com: -0.947D-02 0.111D-01-0.149D-02 0.307D-03 0.207D-02-0.233D-01
 Coeff-Com: -0.973D-01 0.214D+00 0.904D+00
 Coeff-En:   0.000D+00 0.000D+00 0.000D+00 0.000D+00 0.000D+00 0.000D+00
 Coeff-En:   0.000D+00 0.000D+00 0.100D+01
 Coeff:     -0.944D-02 0.110D-01-0.149D-02 0.306D-03 0.206D-02-0.232D-01
 Coeff:     -0.970D-01 0.213D+00 0.905D+00
 Gap=     0.222 Goal=   None    Shift=    0.000
 Gap=     0.175 Goal=   None    Shift=    0.000
 RMSDP=1.52D-04 MaxDP=1.74D-02 DE=-5.59D-05 OVMax= 8.94D-04

 Cycle  10  Pass 1  IDiag  1:
 RMSU=  3.24D-05    CP:  1.12D+00  1.98D+00  5.70D-01  3.69D-01  7.22D-01
                    CP:  8.64D-01  9.52D-01  1.15D+00  1.13D+00
 E= -1720.93300555778     Delta-E=       -0.000020100665 Rises=F Damp=F
 DIIS: error= 1.10D-04 at cycle  10 NSaved=  10.
 NSaved=10 IEnMin=10 EnMin= -1720.93300555778     IErMin=10 ErrMin= 1.10D-04
 ErrMax= 1.10D-04  0.00D+00 EMaxC= 1.00D-01 BMatC= 1.96D-05 BMatP= 1.58D-04
 IDIUse=3 WtCom= 9.99D-01 WtEn= 1.10D-03
 Coeff-Com: -0.217D-02 0.260D-02 0.582D-03 0.415D-04 0.281D-02-0.260D-01
 Coeff-Com: -0.998D-01-0.860D-01 0.563D+00 0.645D+00
 Coeff-En:   0.000D+00 0.000D+00 0.000D+00 0.000D+00 0.000D+00 0.000D+00
 Coeff-En:   0.000D+00 0.000D+00 0.000D+00 0.100D+01
 Coeff:     -0.217D-02 0.259D-02 0.581D-03 0.415D-04 0.281D-02-0.260D-01
 Coeff:     -0.997D-01-0.859D-01 0.562D+00 0.646D+00
 Gap=     0.222 Goal=   None    Shift=    0.000
 Gap=     0.175 Goal=   None    Shift=    0.000
 RMSDP=6.70D-05 MaxDP=7.65D-03 DE=-2.01D-05 OVMax= 3.36D-04

 Cycle  11  Pass 1  IDiag  1:
 RMSU=  1.25D-05    CP:  1.12D+00  1.99D+00  5.70D-01  3.70D-01  7.22D-01
                    CP:  8.62D-01  9.70D-01  1.24D+00  1.36D+00  8.05D-01
 E= -1720.93300830250     Delta-E=       -0.000002744724 Rises=F Damp=F
 DIIS: error= 1.60D-05 at cycle  11 NSaved=  11.
 NSaved=11 IEnMin=11 EnMin= -1720.93300830250     IErMin=11 ErrMin= 1.60D-05
 ErrMax= 1.60D-05  0.00D+00 EMaxC= 1.00D-01 BMatC= 6.06D-07 BMatP= 1.96D-05
 IDIUse=1 WtCom= 1.00D+00 WtEn= 0.00D+00
 Coeff-Com: -0.212D-03 0.268D-03 0.263D-03-0.111D-04 0.654D-03-0.509D-02
 Coeff-Com: -0.156D-01-0.508D-01 0.643D-01 0.215D+00 0.792D+00
 Coeff:     -0.212D-03 0.268D-03 0.263D-03-0.111D-04 0.654D-03-0.509D-02
 Coeff:     -0.156D-01-0.508D-01 0.643D-01 0.215D+00 0.792D+00
 Gap=     0.222 Goal=   None    Shift=    0.000
 Gap=     0.175 Goal=   None    Shift=    0.000
 RMSDP=9.09D-06 MaxDP=1.33D-03 DE=-2.74D-06 OVMax= 9.38D-05

 Cycle  12  Pass 1  IDiag  1:
 RMSU=  2.96D-06    CP:  1.12D+00  1.99D+00  5.70D-01  3.70D-01  7.22D-01
                    CP:  8.62D-01  9.75D-01  1.25D+00  1.37D+00  8.83D-01
                    CP:  8.05D-01
 E= -1720.93300839684     Delta-E=       -0.000000094336 Rises=F Damp=F
 DIIS: error= 2.08D-06 at cycle  12 NSaved=  12.
 NSaved=12 IEnMin=12 EnMin= -1720.93300839684     IErMin=12 ErrMin= 2.08D-06
 ErrMax= 2.08D-06  0.00D+00 EMaxC= 1.00D-01 BMatC= 1.53D-08 BMatP= 6.06D-07
 IDIUse=1 WtCom= 1.00D+00 WtEn= 0.00D+00
 Coeff-Com:  0.201D-04-0.178D-04 0.586D-04-0.305D-05 0.980D-04-0.727D-03
 Coeff-Com: -0.125D-02-0.147D-01-0.230D-02 0.498D-01 0.295D+00 0.674D+00
 Coeff:      0.201D-04-0.178D-04 0.586D-04-0.305D-05 0.980D-04-0.727D-03
 Coeff:     -0.125D-02-0.147D-01-0.230D-02 0.498D-01 0.295D+00 0.674D+00
 Gap=     0.222 Goal=   None    Shift=    0.000
 Gap=     0.175 Goal=   None    Shift=    0.000
 RMSDP=1.25D-06 MaxDP=1.39D-04 DE=-9.43D-08 OVMax= 2.28D-05

 Cycle  13  Pass 1  IDiag  1:
 RMSU=  7.03D-07    CP:  1.12D+00  1.99D+00  5.70D-01  3.70D-01  7.22D-01
                    CP:  8.62D-01  9.74D-01  1.25D+00  1.38D+00  8.82D-01
                    CP:  8.61D-01  8.94D-01
 E= -1720.93300839849     Delta-E=       -0.000000001653 Rises=F Damp=F
 DIIS: error= 1.59D-06 at cycle  13 NSaved=  13.
 NSaved=13 IEnMin=13 EnMin= -1720.93300839849     IErMin=13 ErrMin= 1.59D-06
 ErrMax= 1.59D-06  0.00D+00 EMaxC= 1.00D-01 BMatC= 7.71D-09 BMatP= 1.53D-08
 IDIUse=1 WtCom= 1.00D+00 WtEn= 0.00D+00
 Coeff-Com:  0.398D-04-0.473D-04-0.244D-04 0.118D-05-0.734D-04 0.578D-03
 Coeff-Com:  0.226D-02 0.142D-02-0.121D-01-0.987D-02 0.253D-01 0.406D+00
 Coeff-Com:  0.587D+00
 Coeff:      0.398D-04-0.473D-04-0.244D-04 0.118D-05-0.734D-04 0.578D-03
 Coeff:      0.226D-02 0.142D-02-0.121D-01-0.987D-02 0.253D-01 0.406D+00
 Coeff:      0.587D+00
 Gap=     0.222 Goal=   None    Shift=    0.000
 Gap=     0.175 Goal=   None    Shift=    0.000
 RMSDP=6.63D-07 MaxDP=7.11D-05 DE=-1.65D-09 OVMax= 8.95D-06

 Cycle  14  Pass 1  IDiag  1:
 RMSU=  3.10D-07    CP:  1.12D+00  1.99D+00  5.70D-01  3.70D-01  7.22D-01
                    CP:  8.62D-01  9.75D-01  1.25D+00  1.37D+00  8.87D-01
                    CP:  8.52D-01  9.53D-01  7.11D-01
 E= -1720.93300839967     Delta-E=       -0.000000001176 Rises=F Damp=F
 DIIS: error= 5.73D-07 at cycle  14 NSaved=  14.
 NSaved=14 IEnMin=14 EnMin= -1720.93300839967     IErMin=14 ErrMin= 5.73D-07
 ErrMax= 5.73D-07  0.00D+00 EMaxC= 1.00D-01 BMatC= 7.11D-10 BMatP= 7.71D-09
 IDIUse=1 WtCom= 1.00D+00 WtEn= 0.00D+00
 Coeff-Com:  0.126D-04-0.156D-04-0.155D-04 0.650D-06-0.350D-04 0.273D-03
 Coeff-Com:  0.816D-03 0.217D-02-0.282D-02-0.778D-02-0.221D-01 0.601D-01
 Coeff-Com:  0.198D+00 0.771D+00
 Coeff:      0.126D-04-0.156D-04-0.155D-04 0.650D-06-0.350D-04 0.273D-03
 Coeff:      0.816D-03 0.217D-02-0.282D-02-0.778D-02-0.221D-01 0.601D-01
 Coeff:      0.198D+00 0.771D+00
 Gap=     0.222 Goal=   None    Shift=    0.000
 Gap=     0.175 Goal=   None    Shift=    0.000
 RMSDP=3.19D-07 MaxDP=3.47D-05 DE=-1.18D-09 OVMax= 2.06D-06

 Cycle  15  Pass 1  IDiag  1:
 RMSU=  7.06D-08    CP:  1.12D+00  1.99D+00  5.70D-01  3.70D-01  7.22D-01
                    CP:  8.62D-01  9.75D-01  1.25D+00  1.37D+00  8.86D-01
                    CP:  8.52D-01  9.60D-01  7.74D-01  8.23D-01
 E= -1720.93300839984     Delta-E=       -0.000000000166 Rises=F Damp=F
 DIIS: error= 1.24D-07 at cycle  15 NSaved=  15.
 NSaved=15 IEnMin=15 EnMin= -1720.93300839984     IErMin=15 ErrMin= 1.24D-07
 ErrMax= 1.24D-07  0.00D+00 EMaxC= 1.00D-01 BMatC= 2.69D-11 BMatP= 7.11D-10
 IDIUse=1 WtCom= 1.00D+00 WtEn= 0.00D+00
 Coeff-Com:  0.169D-05-0.178D-05-0.226D-05 0.159D-06-0.567D-05 0.143D-04
 Coeff-Com:  0.112D-04 0.352D-03 0.257D-03-0.773D-03-0.472D-02-0.817D-02
 Coeff-Com:  0.984D-02 0.161D+00 0.842D+00
 Coeff:      0.169D-05-0.178D-05-0.226D-05 0.159D-06-0.567D-05 0.143D-04
 Coeff:      0.112D-04 0.352D-03 0.257D-03-0.773D-03-0.472D-02-0.817D-02
 Coeff:      0.984D-02 0.161D+00 0.842D+00
 Gap=     0.222 Goal=   None    Shift=    0.000
 Gap=     0.175 Goal=   None    Shift=    0.000
 RMSDP=1.17D-07 MaxDP=1.29D-05 DE=-1.66D-10 OVMax= 5.12D-07

 Cycle  16  Pass 1  IDiag  1:
 RMSU=  2.06D-08    CP:  1.12D+00  1.99D+00  5.70D-01  3.70D-01  7.22D-01
                    CP:  8.62D-01  9.75D-01  1.25D+00  1.37D+00  8.86D-01
                    CP:  8.52D-01  9.57D-01  7.79D-01  8.30D-01  1.04D+00
 E= -1720.93300839981     Delta-E=        0.000000000025 Rises=F Damp=F
 DIIS: error= 2.01D-08 at cycle  16 NSaved=  16.
 NSaved=16 IEnMin=15 EnMin= -1720.93300839984     IErMin=16 ErrMin= 2.01D-08
 ErrMax= 2.01D-08  0.00D+00 EMaxC= 1.00D-01 BMatC= 1.86D-12 BMatP= 2.69D-11
 IDIUse=1 WtCom= 1.00D+00 WtEn= 0.00D+00
 Coeff-Com: -0.164D-06 0.256D-06 0.185D-06 0.408D-09 0.934D-07-0.107D-04
 Coeff-Com: -0.426D-04 0.518D-05 0.278D-03 0.199D-03-0.425D-03-0.731D-02
 Coeff-Com: -0.969D-02 0.992D-02 0.316D+00 0.691D+00
 Coeff:     -0.164D-06 0.256D-06 0.185D-06 0.408D-09 0.934D-07-0.107D-04
 Coeff:     -0.426D-04 0.518D-05 0.278D-03 0.199D-03-0.425D-03-0.731D-02
 Coeff:     -0.969D-02 0.992D-02 0.316D+00 0.691D+00
 Gap=     0.222 Goal=   None    Shift=    0.000
 Gap=     0.175 Goal=   None    Shift=    0.000
 RMSDP=2.03D-08 MaxDP=2.77D-06 DE= 2.46D-11 OVMax= 2.03D-07

 Cycle  17  Pass 1  IDiag  1:
 RMSU=  5.05D-09    CP:  1.12D+00  1.99D+00  5.70D-01  3.70D-01  7.22D-01
                    CP:  8.62D-01  9.75D-01  1.25D+00  1.37D+00  8.86D-01
                    CP:  8.52D-01  9.57D-01  7.79D-01  8.42D-01  1.07D+00
                    CP:  8.05D-01
 E= -1720.93300839983     Delta-E=       -0.000000000023 Rises=F Damp=F
 DIIS: error= 1.17D-08 at cycle  17 NSaved=  17.
 NSaved=17 IEnMin=15 EnMin= -1720.93300839984     IErMin=17 ErrMin= 1.17D-08
 ErrMax= 1.17D-08  0.00D+00 EMaxC= 1.00D-01 BMatC= 4.51D-13 BMatP= 1.86D-12
 IDIUse=1 WtCom= 1.00D+00 WtEn= 0.00D+00
 Coeff-Com: -0.349D-06 0.408D-06 0.416D-06-0.262D-07 0.826D-06-0.753D-05
 Coeff-Com: -0.237D-04-0.442D-04 0.119D-03 0.211D-03 0.356D-03-0.312D-02
 Coeff-Com: -0.683D-02-0.147D-01 0.707D-01 0.405D+00 0.548D+00
 Coeff:     -0.349D-06 0.408D-06 0.416D-06-0.262D-07 0.826D-06-0.753D-05
 Coeff:     -0.237D-04-0.442D-04 0.119D-03 0.211D-03 0.356D-03-0.312D-02
 Coeff:     -0.683D-02-0.147D-01 0.707D-01 0.405D+00 0.548D+00
 Gap=     0.222 Goal=   None    Shift=    0.000
 Gap=     0.175 Goal=   None    Shift=    0.000
 RMSDP=4.08D-09 MaxDP=3.54D-07 DE=-2.27D-11 OVMax= 6.38D-08

 SCF Done:  E(UTPSSh) =  -1720.93300840     A.U. after   17 cycles
            NFock= 17  Conv=0.41D-08     -V/T= 2.0009
 <Sx>= 0.0000 <Sy>= 0.0000 <Sz>= 2.5000 <S**2>= 8.7530 S= 2.5005
 <L.S>=  0.00000000000    
 KE= 1.719431920015D+03 PE=-5.573163819470D+03 EE= 1.365010590835D+03
 Annihilation of the first spin contaminant:
 S**2 before annihilation     8.7530,   after     8.7500
 Leave Link  502 at Wed Mar  5 20:50:48 2025, MaxMem= 13421772800 cpu:            3673.7 elap:              32.1
 (Enter /gpfs/fs1/soft/improv/software/custom-built/gaussian/g16/l508.exe)
 QCSCF skips out because SCF is already converged.
 Leave Link  508 at Wed Mar  5 20:50:49 2025, MaxMem= 13421772800 cpu:               0.2 elap:               0.0
 (Enter /gpfs/fs1/soft/improv/software/custom-built/gaussian/g16/l801.exe)
 DoSCS=F DFT=T ScalE2(SS,OS)=  1.000000  1.000000
 Range of M.O.s used for correlation:     1   317
 NBasis=   317 NAE=    44 NBE=    39 NFC=     0 NFV=     0
 NROrb=    317 NOA=    44 NOB=    39 NVA=   273 NVB=   278

 **** Warning!!: The largest alpha MO coefficient is  0.23388883D+03


 **** Warning!!: The largest beta MO coefficient is  0.21783615D+03

 Leave Link  801 at Wed Mar  5 20:50:49 2025, MaxMem= 13421772800 cpu:               0.4 elap:               0.0
 (Enter /gpfs/fs1/soft/improv/software/custom-built/gaussian/g16/l1101.exe)
 Using compressed storage, NAtomX=    19.
 Will process     20 centers per pass.
 Leave Link 1101 at Wed Mar  5 20:50:50 2025, MaxMem= 13421772800 cpu:              52.2 elap:               0.5
 (Enter /gpfs/fs1/soft/improv/software/custom-built/gaussian/g16/l1102.exe)
 Symmetrizing basis deriv contribution to polar:
 IMax=3 JMax=2 DiffMx= 0.00D+00
 Leave Link 1102 at Wed Mar  5 20:50:51 2025, MaxMem= 13421772800 cpu:               1.0 elap:               0.0
 (Enter /gpfs/fs1/soft/improv/software/custom-built/gaussian/g16/l1110.exe)
 Forming Gx(P) for the SCF density, NAtomX=    19.
 Integral derivatives from FoFJK, PRISM(SPDF).
 Do as many integral derivatives as possible in FoFJK.
 G2DrvN: MDV=   13421770631.
 G2DrvN: will do    20 centers at a time, making    1 passes.
 Calling FoFCou, ICntrl=  3107 FMM=F I1Cent=   0 AccDes= 0.00D+00.
 FoFJK:  IHMeth= 1 ICntrl=    3107 DoSepK=F KAlg= 0 I1Cent=           0 FoldK=F
 IRaf=         0 NMat=       1 IRICut=       1 DoRegI=T DoRafI=F ISym2E= 0 IDoP0=0 IntGTp=1.
 FoFCou: FMM=F IPFlag=           0 FMFlag=      100000 FMFlg1=           0
         NFxFlg=           0 DoJE=F BraDBF=F KetDBF=F FulRan=T
         wScrn=  0.000000 ICntrl=      3107 IOpCl=  1 I1Cent=           0 NGrid=           0
         NMat0=    1 NMatS0=      1 NMatT0=    0 NMatD0=    1 NMtDS0=    0 NMtDT0=    0
 Symmetry not used in FoFCou.
 End of G2Drv F.D. properties file   721 does not exist.
 End of G2Drv F.D. properties file   722 does not exist.
 End of G2Drv F.D. properties file   788 does not exist.
 Leave Link 1110 at Wed Mar  5 20:51:16 2025, MaxMem= 13421772800 cpu:            3127.0 elap:              25.1
 (Enter /gpfs/fs1/soft/improv/software/custom-built/gaussian/g16/l1002.exe)
 Minotr:  UHF open shell wavefunction.
          IDoAtm=1111111111111111111
          Direct CPHF calculation.
          Differentiating once with respect to electric field.
                with respect to dipole field.
          Differentiating once with respect to nuclear coordinates.
          Requested convergence is 1.0D-08 RMS, and 1.0D-07 maximum.
          Secondary convergence is 1.0D-12 RMS, and 1.0D-12 maximum.
          NewPWx=T KeepS1=F KeepF1=F KeepIn=T MapXYZ=F SortEE=F KeepMc=T.
         6034 words used for storage of precomputed grid.
 Two-electron integrals replicated using symmetry.
          MDV=   13421772800 using IRadAn=       1.
          Solving linear equations simultaneously, MaxMat=     384.
 FoF2E skips out because all densities are zero.
 CalDSu exits because no D1Ps are significant.
 FoFJK:  IHMeth= 1 ICntrl=       0 DoSepK=F KAlg= 0 I1Cent=           0 FoldK=F
 IRaf= 990000000 NMat=      57 IRICut=     142 DoRegI=T DoRafI=T ISym2E= 2 IDoP0=3 IntGTp=2.
 FoFCou: FMM=F IPFlag=           0 FMFlag=      100000 FMFlg1=           0
         NFxFlg=           0 DoJE=F BraDBF=F KetDBF=F FulRan=T
         wScrn=  0.000000 ICntrl=         0 IOpCl=  1 I1Cent=           0 NGrid=           0
         NMat0=   57 NMatS0=     57 NMatT0=    0 NMatD0=   57 NMtDS0=    0 NMtDT0=    0
 Integrals replicated using symmetry in FoFCou.
 Raff kept on since  98.46% of shell-pairs survive, threshold=   0.20 IRatSp=98.
          There are    60 degrees of freedom in the 1st order CPHF.  IDoFFX=6 NUNeed=     3.
     57 vectors produced by pass  0 Test12= 3.81D-14 1.67D-09 XBig12= 7.22D+01 2.49D+00.
 AX will form    57 AO Fock derivatives at one time.
     57 vectors produced by pass  1 Test12= 3.81D-14 1.67D-09 XBig12= 7.08D+00 3.40D-01.
     57 vectors produced by pass  2 Test12= 3.81D-14 1.67D-09 XBig12= 7.91D-02 4.49D-02.
     57 vectors produced by pass  3 Test12= 3.81D-14 1.67D-09 XBig12= 8.80D-04 5.48D-03.
     57 vectors produced by pass  4 Test12= 3.81D-14 1.67D-09 XBig12= 7.75D-06 2.87D-04.
     57 vectors produced by pass  5 Test12= 3.81D-14 1.67D-09 XBig12= 2.52D-08 1.82D-05.
     34 vectors produced by pass  6 Test12= 3.81D-14 1.67D-09 XBig12= 5.11D-11 7.94D-07.
      5 vectors produced by pass  7 Test12= 3.81D-14 1.67D-09 XBig12= 1.10D-13 3.05D-08.
 InvSVY:  IOpt=1 It=  1 EMax= 3.55D-15
 Solved reduced A of dimension   381 with    60 vectors.
 FullF1:  Do perturbations      1 to       3.
 Isotropic polarizability for W=    0.000000       51.58 Bohr**3.
 End of Minotr F.D. properties file   721 does not exist.
 End of Minotr F.D. properties file   722 does not exist.
 End of Minotr F.D. properties file   788 does not exist.
 Leave Link 1002 at Wed Mar  5 20:52:36 2025, MaxMem= 13421772800 cpu:            9565.0 elap:              78.7
 (Enter /gpfs/fs1/soft/improv/software/custom-built/gaussian/g16/l601.exe)
 Copying SCF densities to generalized density rwf, IOpCl= 1 IROHF=0.

 **********************************************************************

            Population analysis using the SCF Density.

 **********************************************************************

 Orbital symmetries:
 Alpha Orbitals:
       Occupied  (A) (A) (A) (A) (A) (A) (A) (A) (A) (A) (A) (A)
                 (A) (A) (A) (A) (A) (A) (A) (A) (A) (A) (A) (A)
                 (A) (A) (A) (A) (A) (A) (A) (A) (A) (A) (A) (A)
                 (A) (A) (A) (A) (A) (A) (A) (A)
       Virtual   (A) (A) (A) (A) (A) (A) (A) (A) (A) (A) (A) (A)
                 (A) (A) (A) (A) (A) (A) (A) (A) (A) (A) (A) (A)
                 (A) (A) (A) (A) (A) (A) (A) (A) (A) (A) (A) (A)
                 (A) (A) (A) (A) (A) (A) (A) (A) (A) (A) (A) (A)
                 (A) (A) (A) (A) (A) (A) (A) (A) (A) (A) (A) (A)
                 (A) (A) (A) (A) (A) (A) (A) (A) (A) (A) (A) (A)
                 (A) (A) (A) (A) (A) (A) (A) (A) (A) (A) (A) (A)
                 (A) (A) (A) (A) (A) (A) (A) (A) (A) (A) (A) (A)
                 (A) (A) (A) (A) (A) (A) (A) (A) (A) (A) (A) (A)
                 (A) (A) (A) (A) (A) (A) (A) (A) (A) (A) (A) (A)
                 (A) (A) (A) (A) (A) (A) (A) (A) (A) (A) (A) (A)
                 (A) (A) (A) (A) (A) (A) (A) (A) (A) (A) (A) (A)
                 (A) (A) (A) (A) (A) (A) (A) (A) (A) (A) (A) (A)
                 (A) (A) (A) (A) (A) (A) (A) (A) (A) (A) (A) (A)
                 (A) (A) (A) (A) (A) (A) (A) (A) (A) (A) (A) (A)
                 (A) (A) (A) (A) (A) (A) (A) (A) (A) (A) (A) (A)
                 (A) (A) (A) (A) (A) (A) (A) (A) (A) (A) (A) (A)
                 (A) (A) (A) (A) (A) (A) (A) (A) (A) (A) (A) (A)
                 (A) (A) (A) (A) (A) (A) (A) (A) (A) (A) (A) (A)
                 (A) (A) (A) (A) (A) (A) (A) (A) (A) (A) (A) (A)
                 (A) (A) (A) (A) (A) (A) (A) (A) (A) (A) (A) (A)
                 (A) (A) (A) (A) (A) (A) (A) (A) (A) (A) (A) (A)
                 (A) (A) (A) (A) (A) (A) (A) (A) (A)
 Beta  Orbitals:
       Occupied  (A) (A) (A) (A) (A) (A) (A) (A) (A) (A) (A) (A)
                 (A) (A) (A) (A) (A) (A) (A) (A) (A) (A) (A) (A)
                 (A) (A) (A) (A) (A) (A) (A) (A) (A) (A) (A) (A)
                 (A) (A) (A)
       Virtual   (A) (A) (A) (A) (A) (A) (A) (A) (A) (A) (A) (A)
                 (A) (A) (A) (A) (A) (A) (A) (A) (A) (A) (A) (A)
                 (A) (A) (A) (A) (A) (A) (A) (A) (A) (A) (A) (A)
                 (A) (A) (A) (A) (A) (A) (A) (A) (A) (A) (A) (A)
                 (A) (A) (A) (A) (A) (A) (A) (A) (A) (A) (A) (A)
                 (A) (A) (A) (A) (A) (A) (A) (A) (A) (A) (A) (A)
                 (A) (A) (A) (A) (A) (A) (A) (A) (A) (A) (A) (A)
                 (A) (A) (A) (A) (A) (A) (A) (A) (A) (A) (A) (A)
                 (A) (A) (A) (A) (A) (A) (A) (A) (A) (A) (A) (A)
                 (A) (A) (A) (A) (A) (A) (A) (A) (A) (A) (A) (A)
                 (A) (A) (A) (A) (A) (A) (A) (A) (A) (A) (A) (A)
                 (A) (A) (A) (A) (A) (A) (A) (A) (A) (A) (A) (A)
                 (A) (A) (A) (A) (A) (A) (A) (A) (A) (A) (A) (A)
                 (A) (A) (A) (A) (A) (A) (A) (A) (A) (A) (A) (A)
                 (A) (A) (A) (A) (A) (A) (A) (A) (A) (A) (A) (A)
                 (A) (A) (A) (A) (A) (A) (A) (A) (A) (A) (A) (A)
                 (A) (A) (A) (A) (A) (A) (A) (A) (A) (A) (A) (A)
                 (A) (A) (A) (A) (A) (A) (A) (A) (A) (A) (A) (A)
                 (A) (A) (A) (A) (A) (A) (A) (A) (A) (A) (A) (A)
                 (A) (A) (A) (A) (A) (A) (A) (A) (A) (A) (A) (A)
                 (A) (A) (A) (A) (A) (A) (A) (A) (A) (A) (A) (A)
                 (A) (A) (A) (A) (A) (A) (A) (A) (A) (A) (A) (A)
                 (A) (A) (A) (A) (A) (A) (A) (A) (A) (A) (A) (A)
                 (A) (A)
 The electronic state is 6-A.
 Alpha  occ. eigenvalues -- -256.50671 -30.60753 -26.43839 -26.43753 -26.43705
 Alpha  occ. eigenvalues --  -19.69840 -19.69808 -19.68961 -19.68687 -19.66747
 Alpha  occ. eigenvalues --  -19.66022  -4.18593  -2.96148  -2.95891  -2.95761
 Alpha  occ. eigenvalues --   -1.65808  -1.63289  -1.62753  -1.62266  -1.60489
 Alpha  occ. eigenvalues --   -1.59684  -1.18120  -1.16624  -1.14629  -1.13885
 Alpha  occ. eigenvalues --   -1.12295  -1.10770  -1.09810  -1.09615  -1.08646
 Alpha  occ. eigenvalues --   -1.04201  -1.02843  -1.00767  -1.00401  -0.97973
 Alpha  occ. eigenvalues --   -0.96916  -0.94349  -0.93993  -0.91908  -0.91151
 Alpha  occ. eigenvalues --   -0.89383  -0.88451  -0.78306  -0.78032
 Alpha virt. eigenvalues --   -0.55843  -0.50132  -0.47973  -0.46709  -0.43502
 Alpha virt. eigenvalues --   -0.42405  -0.40861  -0.40412  -0.37674  -0.35954
 Alpha virt. eigenvalues --   -0.35649  -0.34468  -0.32418  -0.31498  -0.30819
 Alpha virt. eigenvalues --   -0.28989  -0.28358  -0.27912  -0.27516  -0.27384
 Alpha virt. eigenvalues --   -0.25054  -0.24812  -0.24493  -0.23753  -0.22609
 Alpha virt. eigenvalues --   -0.22207  -0.20838  -0.20107  -0.19680  -0.18773
 Alpha virt. eigenvalues --   -0.18434  -0.17063  -0.15768  -0.14977  -0.14365
 Alpha virt. eigenvalues --   -0.13241  -0.12938  -0.12091  -0.11380  -0.10377
 Alpha virt. eigenvalues --   -0.08469  -0.08138  -0.07567  -0.06841  -0.05861
 Alpha virt. eigenvalues --   -0.04921  -0.01978  -0.01083   0.00480   0.05502
 Alpha virt. eigenvalues --    0.07421   0.09123   0.09740   0.20304   0.21442
 Alpha virt. eigenvalues --    0.22811   0.25113   0.28337   0.29952   0.31038
 Alpha virt. eigenvalues --    0.32456   0.33169   0.33811   0.35136   0.35377
 Alpha virt. eigenvalues --    0.37722   0.39614   0.40546   0.41587   0.42956
 Alpha virt. eigenvalues --    0.44525   0.45404   0.46078   0.47465   0.50536
 Alpha virt. eigenvalues --    0.51632   0.51665   0.53034   0.53742   0.54249
 Alpha virt. eigenvalues --    0.55098   0.57123   0.59451   0.61382   0.62378
 Alpha virt. eigenvalues --    0.63667   0.66398   0.68035   0.68925   0.71894
 Alpha virt. eigenvalues --    0.73506   0.75305   0.75899   0.77570   0.78646
 Alpha virt. eigenvalues --    0.79683   0.83108   0.85030   0.85807   0.87060
 Alpha virt. eigenvalues --    0.89388   0.90744   0.91586   1.06122   1.07223
 Alpha virt. eigenvalues --    1.13906   1.15247   1.18409   1.20318   1.21276
 Alpha virt. eigenvalues --    1.22959   1.23196   1.24893   1.27558   1.29401
 Alpha virt. eigenvalues --    1.33279   1.36202   1.37654   1.40055   1.42653
 Alpha virt. eigenvalues --    1.49078   1.54128   1.60482   1.69483   1.71543
 Alpha virt. eigenvalues --    1.73237   1.76679   1.76991   1.79830   1.84880
 Alpha virt. eigenvalues --    1.86811   1.86894   1.89800   1.90415   1.96527
 Alpha virt. eigenvalues --    1.97868   2.02961   2.05963   2.09604   2.12731
 Alpha virt. eigenvalues --    2.15087   2.16547   2.20925   2.23883   2.27014
 Alpha virt. eigenvalues --    2.28659   2.33184   2.34494   2.36591   2.39848
 Alpha virt. eigenvalues --    2.40815   2.41964   2.44722   2.44988   2.47618
 Alpha virt. eigenvalues --    2.48069   2.49246   2.50950   2.51322   2.53237
 Alpha virt. eigenvalues --    2.53734   2.54669   2.56378   2.57995   2.63948
 Alpha virt. eigenvalues --    2.69022   2.76372   2.78602   2.80300   2.80975
 Alpha virt. eigenvalues --    2.90087   3.14495   3.44248   3.45880   3.50721
 Alpha virt. eigenvalues --    3.54588   3.56425   3.62037   3.62876   3.64265
 Alpha virt. eigenvalues --    3.65298   3.67494   3.68588   3.69691   3.72772
 Alpha virt. eigenvalues --    3.73178   3.74501   3.74728   3.77975   3.78687
 Alpha virt. eigenvalues --    3.79703   3.82326   3.85216   3.85542   3.90056
 Alpha virt. eigenvalues --    3.93063   3.94045   3.95773   3.98999   3.99839
 Alpha virt. eigenvalues --    4.02194   4.03954   4.07511   4.10202   4.14385
 Alpha virt. eigenvalues --    4.19296   4.21564   4.21949   4.25853   4.28307
 Alpha virt. eigenvalues --    4.33114   4.38411   4.39486   4.42663   4.43386
 Alpha virt. eigenvalues --    4.45319   4.47219   4.50597   4.63470   4.68464
 Alpha virt. eigenvalues --    4.71119   4.71867   4.75216   4.77876   4.84434
 Alpha virt. eigenvalues --    4.89084   4.89496   4.91403   4.92291   4.92423
 Alpha virt. eigenvalues --    4.94901   4.95400   4.96081   4.97048   5.01806
 Alpha virt. eigenvalues --    5.02508   5.09271   5.10931   5.12542   5.14437
 Alpha virt. eigenvalues --    5.15510   5.19707   5.20660   5.22756   5.25944
 Alpha virt. eigenvalues --    5.30704   5.32735   5.34100   5.34894   5.37107
 Alpha virt. eigenvalues --    5.39551   5.40840   5.42377   5.42959   5.46745
 Alpha virt. eigenvalues --    5.50654   5.52745   5.64692   5.65770   6.04518
 Alpha virt. eigenvalues --    6.99100   7.01746   7.03099   7.10785   7.14073
 Alpha virt. eigenvalues --    7.28400  13.39623  13.41780  13.42781  13.98081
 Alpha virt. eigenvalues --   14.03915  14.08976  25.61679
  Beta  occ. eigenvalues -- -256.50575 -30.52588 -26.37012 -26.36933 -26.36893
  Beta  occ. eigenvalues --  -19.69467 -19.69432 -19.68561 -19.68278 -19.66286
  Beta  occ. eigenvalues --  -19.65554  -3.97654  -2.74537  -2.74365  -2.74240
  Beta  occ. eigenvalues --   -1.65025  -1.62505  -1.61918  -1.61435  -1.59532
  Beta  occ. eigenvalues --   -1.58706  -1.17166  -1.15637  -1.14133  -1.13268
  Beta  occ. eigenvalues --   -1.11504  -1.10191  -1.07099  -1.04824  -1.03883
  Beta  occ. eigenvalues --   -1.01188  -1.00874  -0.98497  -0.97686  -0.94148
  Beta  occ. eigenvalues --   -0.92650  -0.91240  -0.89582  -0.88270
  Beta virt. eigenvalues --   -0.70761  -0.70252  -0.69261  -0.59680  -0.59459
  Beta virt. eigenvalues --   -0.55530  -0.49851  -0.47653  -0.46424  -0.43037
  Beta virt. eigenvalues --   -0.41929  -0.40511  -0.40077  -0.37229  -0.35572
  Beta virt. eigenvalues --   -0.35219  -0.33956  -0.32092  -0.31274  -0.30456
  Beta virt. eigenvalues --   -0.28519  -0.27906  -0.27498  -0.27103  -0.26942
  Beta virt. eigenvalues --   -0.24697  -0.24268  -0.24074  -0.23107  -0.21742
  Beta virt. eigenvalues --   -0.21387  -0.20138  -0.19112  -0.18355  -0.18099
  Beta virt. eigenvalues --   -0.17564  -0.16611  -0.14965  -0.14459  -0.13448
  Beta virt. eigenvalues --   -0.12537  -0.12175  -0.11044  -0.10530  -0.09415
  Beta virt. eigenvalues --   -0.07888  -0.07405  -0.06927  -0.05461  -0.05141
  Beta virt. eigenvalues --   -0.04159  -0.01156  -0.00015   0.01786   0.07152
  Beta virt. eigenvalues --    0.09056   0.09483   0.10133   0.20952   0.22173
  Beta virt. eigenvalues --    0.23685   0.26095   0.28973   0.30532   0.31917
  Beta virt. eigenvalues --    0.33062   0.33974   0.34442   0.35555   0.36147
  Beta virt. eigenvalues --    0.38139   0.40372   0.41117   0.42220   0.43527
  Beta virt. eigenvalues --    0.45062   0.45912   0.46681   0.48096   0.51504
  Beta virt. eigenvalues --    0.52313   0.52415   0.53654   0.54571   0.55032
  Beta virt. eigenvalues --    0.55817   0.57978   0.60155   0.62197   0.63226
  Beta virt. eigenvalues --    0.64460   0.67402   0.69122   0.70515   0.73331
  Beta virt. eigenvalues --    0.74891   0.76782   0.77878   0.78866   0.80055
  Beta virt. eigenvalues --    0.81289   0.84086   0.86959   0.88038   0.89316
  Beta virt. eigenvalues --    0.91261   0.92162   0.93629   1.08867   1.09648
  Beta virt. eigenvalues --    1.17427   1.18014   1.21226   1.22741   1.25096
  Beta virt. eigenvalues --    1.26028   1.27190   1.28194   1.32049   1.32979
  Beta virt. eigenvalues --    1.37421   1.38296   1.39850   1.42873   1.44790
  Beta virt. eigenvalues --    1.50147   1.56145   1.62030   1.70052   1.72131
  Beta virt. eigenvalues --    1.74012   1.77556   1.77648   1.80693   1.85816
  Beta virt. eigenvalues --    1.87875   1.88242   1.90739   1.91127   1.98132
  Beta virt. eigenvalues --    1.99828   2.03670   2.07027   2.10467   2.14416
  Beta virt. eigenvalues --    2.17194   2.17786   2.22536   2.26316   2.29389
  Beta virt. eigenvalues --    2.31085   2.35630   2.37990   2.39901   2.41120
  Beta virt. eigenvalues --    2.42243   2.43345   2.45858   2.46045   2.48627
  Beta virt. eigenvalues --    2.49657   2.50489   2.52806   2.54037   2.54573
  Beta virt. eigenvalues --    2.56047   2.56518   2.58272   2.60405   2.64945
  Beta virt. eigenvalues --    2.69987   2.77866   2.80953   2.82090   2.84112
  Beta virt. eigenvalues --    2.92751   3.18372   3.48396   3.49914   3.52178
  Beta virt. eigenvalues --    3.55977   3.57604   3.63437   3.64546   3.66117
  Beta virt. eigenvalues --    3.69816   3.70536   3.70976   3.72281   3.76672
  Beta virt. eigenvalues --    3.77929   3.78579   3.78739   3.80599   3.84146
  Beta virt. eigenvalues --    3.86432   3.87177   3.89091   3.90576   3.94890
  Beta virt. eigenvalues --    3.95822   3.97649   3.98208   4.01699   4.04165
  Beta virt. eigenvalues --    4.04738   4.10170   4.15536   4.19741   4.21105
  Beta virt. eigenvalues --    4.24693   4.27105   4.27897   4.29587   4.30899
  Beta virt. eigenvalues --    4.36870   4.43209   4.43577   4.45540   4.46770
  Beta virt. eigenvalues --    4.48947   4.50951   4.55236   4.65196   4.70675
  Beta virt. eigenvalues --    4.73019   4.73629   4.77066   4.80038   4.86826
  Beta virt. eigenvalues --    4.90426   4.91350   4.92430   4.93298   4.95008
  Beta virt. eigenvalues --    4.96470   4.96796   4.97474   4.99304   5.04400
  Beta virt. eigenvalues --    5.05210   5.11773   5.13285   5.14827   5.16762
  Beta virt. eigenvalues --    5.18608   5.22641   5.23896   5.25643   5.29193
  Beta virt. eigenvalues --    5.32292   5.34644   5.36187   5.37363   5.39043
  Beta virt. eigenvalues --    5.41584   5.42847   5.44888   5.45233   5.48028
  Beta virt. eigenvalues --    5.51842   5.54003   5.66571   5.67506   6.08117
  Beta virt. eigenvalues --    7.00571   7.03215   7.04549   7.12123   7.15420
  Beta virt. eigenvalues --    7.29466  13.40377  13.42527  13.43517  13.98778
  Beta virt. eigenvalues --   14.04644  14.09704  25.71951
          Condensed to atoms (all electrons):
               1          2          3          4          5          6
     1  Fe  24.860126  -0.044420  -0.011379  -0.001654  -0.009720  -0.034756
     2  O   -0.044420   8.251622   0.312253  -0.058769   0.000359  -0.059121
     3  H   -0.011379   0.312253   0.241332   0.000449  -0.000017   0.001129
     4  O   -0.001654  -0.058769   0.000449   8.243605   0.306008  -0.066886
     5  H   -0.009720   0.000359  -0.000017   0.306008   0.268204   0.002653
     6  O   -0.034756  -0.059121   0.001129  -0.066886   0.002653   8.255379
     7  H   -0.005924   0.000065  -0.000030  -0.000177  -0.000327   0.306563
     8  O   -0.048567   0.050232  -0.000807  -0.069090   0.003927  -0.074515
     9  H   -0.007369  -0.000691  -0.000002   0.000236   0.000023   0.000936
    10  O   -0.006023  -0.057672   0.002094   0.040125  -0.001014  -0.068419
    11  H   -0.001980   0.001453  -0.000265  -0.000692   0.000010  -0.000043
    12  O   -0.031281  -0.048593   0.000692  -0.055925  -0.000236   0.049212
    13  H   -0.013148  -0.000823  -0.000057   0.002164  -0.000028  -0.000715
    14  H    0.005634   0.000961  -0.000013   0.001074   0.000035  -0.001053
    15  H   -0.004476   0.001933   0.000026   0.308696  -0.021097  -0.006894
    16  H   -0.002512   0.302694  -0.013439  -0.001097  -0.000023   0.000387
    17  H   -0.011125  -0.000999   0.000082  -0.000824  -0.000007   0.002429
    18  H   -0.010269  -0.000723   0.000022   0.002071  -0.001550   0.311064
    19  H   -0.008978  -0.001106   0.000007  -0.000604   0.000227   0.003146
               7          8          9         10         11         12
     1  Fe  -0.005924  -0.048567  -0.007369  -0.006023  -0.001980  -0.031281
     2  O    0.000065   0.050232  -0.000691  -0.057672   0.001453  -0.048593
     3  H   -0.000030  -0.000807  -0.000002   0.002094  -0.000265   0.000692
     4  O   -0.000177  -0.069090   0.000236   0.040125  -0.000692  -0.055925
     5  H   -0.000327   0.003927   0.000023  -0.001014   0.000010  -0.000236
     6  O    0.306563  -0.074515   0.000936  -0.068419  -0.000043   0.049212
     7  H    0.276282   0.001323  -0.000423   0.000438   0.000045  -0.001362
     8  O    0.001323   8.255099   0.309331  -0.043612  -0.006691  -0.053763
     9  H   -0.000423   0.309331   0.258439  -0.000593   0.000120  -0.001262
    10  O    0.000438  -0.043612  -0.000593   8.244878   0.306691  -0.076402
    11  H    0.000045  -0.006691   0.000120   0.306691   0.260812   0.001802
    12  O   -0.001362  -0.053763  -0.001262  -0.076402   0.001802   8.248631
    13  H    0.000008   0.000807   0.000018   0.001403  -0.000020   0.311875
    14  H   -0.000009  -0.001404   0.000247  -0.002864   0.001242   0.298283
    15  H    0.000153  -0.000054  -0.000028  -0.000683  -0.000001   0.001660
    16  H   -0.000002  -0.000969   0.000005   0.001609  -0.000011   0.000406
    17  H    0.000621  -0.000014  -0.001386   0.310077  -0.020541   0.000632
    18  H   -0.016430   0.000706   0.000027   0.000089  -0.000025  -0.000764
    19  H    0.001618   0.308924  -0.015832  -0.000843   0.000149   0.000700
              13         14         15         16         17         18
     1  Fe  -0.013148   0.005634  -0.004476  -0.002512  -0.011125  -0.010269
     2  O   -0.000823   0.000961   0.001933   0.302694  -0.000999  -0.000723
     3  H   -0.000057  -0.000013   0.000026  -0.013439   0.000082   0.000022
     4  O    0.002164   0.001074   0.308696  -0.001097  -0.000824   0.002071
     5  H   -0.000028   0.000035  -0.021097  -0.000023  -0.000007  -0.001550
     6  O   -0.000715  -0.001053  -0.006894   0.000387   0.002429   0.311064
     7  H    0.000008  -0.000009   0.000153  -0.000002   0.000621  -0.016430
     8  O    0.000807  -0.001404  -0.000054  -0.000969  -0.000014   0.000706
     9  H    0.000018   0.000247  -0.000028   0.000005  -0.001386   0.000027
    10  O    0.001403  -0.002864  -0.000683   0.001609   0.310077   0.000089
    11  H   -0.000020   0.001242  -0.000001  -0.000011  -0.020541  -0.000025
    12  O    0.311875   0.298283   0.001660   0.000406   0.000632  -0.000764
    13  H    0.237565  -0.013827  -0.000152  -0.000002  -0.000023  -0.000003
    14  H   -0.013827   0.276224  -0.000013  -0.000025  -0.000062   0.000004
    15  H   -0.000152  -0.000013   0.253960   0.000090   0.000011  -0.000187
    16  H   -0.000002  -0.000025   0.000090   0.265259   0.000051  -0.000178
    17  H   -0.000023  -0.000062   0.000011   0.000051   0.266984  -0.000022
    18  H   -0.000003   0.000004  -0.000187  -0.000178  -0.000022   0.255476
    19  H   -0.000034  -0.000028   0.000054  -0.000015  -0.000240  -0.000448
              19
     1  Fe  -0.008978
     2  O   -0.001106
     3  H    0.000007
     4  O   -0.000604
     5  H    0.000227
     6  O    0.003146
     7  H    0.001618
     8  O    0.308924
     9  H   -0.015832
    10  O   -0.000843
    11  H    0.000149
    12  O    0.000700
    13  H   -0.000034
    14  H   -0.000028
    15  H    0.000054
    16  H   -0.000015
    17  H   -0.000240
    18  H   -0.000448
    19  H    0.273873
          Atomic-Atomic Spin Densities.
               1          2          3          4          5          6
     1  Fe   4.909387  -0.097569   0.000099  -0.103998  -0.000311  -0.118461
     2  O   -0.097569   0.295127  -0.004954  -0.021947   0.000255  -0.020581
     3  H    0.000099  -0.004954   0.005806   0.000340   0.000005   0.001002
     4  O   -0.103998  -0.021947   0.000340   0.278247  -0.004017  -0.024508
     5  H   -0.000311   0.000255   0.000005  -0.004017   0.004938   0.002472
     6  O   -0.118461  -0.020581   0.001002  -0.024508   0.002472   0.288686
     7  H    0.001052   0.000282  -0.000009  -0.000132  -0.000048  -0.006669
     8  O   -0.118587   0.029660  -0.000602  -0.026551   0.001520  -0.027994
     9  H    0.002499  -0.000624   0.000000   0.000480  -0.000062  -0.000389
    10  O   -0.106637  -0.018945   0.002249   0.026712  -0.000609  -0.030170
    11  H    0.001430  -0.000029  -0.000023  -0.000340   0.000003   0.000385
    12  O   -0.096921  -0.029798   0.002108  -0.017803   0.000307   0.030682
    13  H    0.000256   0.001642  -0.000037   0.002072  -0.000044  -0.000561
    14  H   -0.000672   0.000455  -0.000030   0.000307  -0.000011  -0.000657
    15  H    0.001393   0.001585  -0.000054  -0.004147  -0.000286   0.000477
    16  H   -0.000311  -0.003398   0.000010   0.001184  -0.000026   0.001348
    17  H    0.000021   0.000138  -0.000048  -0.000576   0.000002   0.001311
    18  H    0.002455   0.000271  -0.000007   0.004483   0.000006  -0.007302
    19  H    0.001139  -0.000710   0.000005   0.000697   0.000110   0.004913
               7          8          9         10         11         12
     1  Fe   0.001052  -0.118587   0.002499  -0.106637   0.001430  -0.096921
     2  O    0.000282   0.029660  -0.000624  -0.018945  -0.000029  -0.029798
     3  H   -0.000009  -0.000602   0.000000   0.002249  -0.000023   0.002108
     4  O   -0.000132  -0.026551   0.000480   0.026712  -0.000340  -0.017803
     5  H   -0.000048   0.001520  -0.000062  -0.000609   0.000003   0.000307
     6  O   -0.006669  -0.027994  -0.000389  -0.030170   0.000385   0.030682
     7  H    0.005395   0.004179  -0.000090   0.001176  -0.000032  -0.000734
     8  O    0.004179   0.288404  -0.006333  -0.020201   0.000547  -0.026633
     9  H   -0.000090  -0.006333   0.006171   0.003553   0.000084   0.000549
    10  O    0.001176  -0.020201   0.003553   0.279827  -0.004649  -0.026430
    11  H   -0.000032   0.000547   0.000084  -0.004649   0.006163   0.001942
    12  O   -0.000734  -0.026633   0.000549  -0.026430   0.001942   0.299446
    13  H    0.000005   0.001190  -0.000021   0.000331  -0.000075  -0.005125
    14  H    0.000001   0.001416   0.000152   0.001591   0.000204  -0.004106
    15  H   -0.000008   0.000342   0.000005  -0.000330   0.000003  -0.000046
    16  H   -0.000066  -0.000576   0.000005   0.000329   0.000006   0.000310
    17  H    0.000125   0.001861  -0.000029  -0.003249  -0.000336   0.000236
    18  H    0.000131  -0.000060   0.000010   0.000529   0.000005  -0.000614
    19  H    0.000066  -0.006920   0.000121  -0.000141  -0.000007   0.000395
              13         14         15         16         17         18
     1  Fe   0.000256  -0.000672   0.001393  -0.000311   0.000021   0.002455
     2  O    0.001642   0.000455   0.001585  -0.003398   0.000138   0.000271
     3  H   -0.000037  -0.000030  -0.000054   0.000010  -0.000048  -0.000007
     4  O    0.002072   0.000307  -0.004147   0.001184  -0.000576   0.004483
     5  H   -0.000044  -0.000011  -0.000286  -0.000026   0.000002   0.000006
     6  O   -0.000561  -0.000657   0.000477   0.001348   0.001311  -0.007302
     7  H    0.000005   0.000001  -0.000008  -0.000066   0.000125   0.000131
     8  O    0.001190   0.001416   0.000342  -0.000576   0.001861  -0.000060
     9  H   -0.000021   0.000152   0.000005   0.000005  -0.000029   0.000010
    10  O    0.000331   0.001591  -0.000330   0.000329  -0.003249   0.000529
    11  H   -0.000075   0.000204   0.000003   0.000006  -0.000336   0.000005
    12  O   -0.005125  -0.004106  -0.000046   0.000310   0.000236  -0.000614
    13  H    0.006138  -0.000033  -0.000032  -0.000017   0.000006  -0.000002
    14  H   -0.000033   0.005999   0.000005   0.000007  -0.000039   0.000005
    15  H   -0.000032   0.000005   0.005544   0.000101   0.000002   0.000074
    16  H   -0.000017   0.000007   0.000101   0.005375  -0.000010   0.000072
    17  H    0.000006  -0.000039   0.000002  -0.000010   0.004574  -0.000056
    18  H   -0.000002   0.000005   0.000074   0.000072  -0.000056   0.006994
    19  H   -0.000010  -0.000068  -0.000025  -0.000000  -0.000020  -0.000105
              19
     1  Fe   0.001139
     2  O   -0.000710
     3  H    0.000005
     4  O    0.000697
     5  H    0.000110
     6  O    0.004913
     7  H    0.000066
     8  O   -0.006920
     9  H    0.000121
    10  O   -0.000141
    11  H   -0.000007
    12  O    0.000395
    13  H   -0.000010
    14  H   -0.000068
    15  H   -0.000025
    16  H   -0.000000
    17  H   -0.000020
    18  H   -0.000105
    19  H    0.005580
 Mulliken charges and spin densities:
               1          2
     1  Fe   1.387821   4.276267
     2  O   -0.648657   0.130862
     3  H    0.467924   0.005860
     4  O   -0.648712   0.110502
     5  H    0.452573   0.004205
     6  O   -0.620496   0.093983
     7  H    0.437567   0.004626
     8  O   -0.630864   0.094662
     9  H    0.458202   0.006081
    10  O   -0.649281   0.104936
    11  H    0.457945   0.005279
    12  O   -0.644306   0.127764
    13  H    0.474992   0.005682
    14  H    0.435592   0.004527
    15  H    0.467002   0.004603
    16  H    0.447771   0.004342
    17  H    0.454356   0.003913
    18  H    0.461140   0.006887
    19  H    0.439430   0.005018
 Sum of Mulliken charges =   3.00000   5.00000
 Mulliken charges and spin densities with hydrogens summed into heavy atoms:
               1          2
     1  Fe   1.387821   4.276267
     2  O    0.267038   0.141064
     4  O    0.270863   0.119310
     6  O    0.278211   0.105496
     8  O    0.266769   0.105762
    10  O    0.263021   0.114129
    12  O    0.266277   0.137973
 APT charges:
               1
     1  Fe   2.117498
     2  O   -0.615013
     3  H    0.401363
     4  O   -0.579630
     5  H    0.359783
     6  O   -0.578642
     7  H    0.347938
     8  O   -0.580917
     9  H    0.362553
    10  O   -0.575127
    11  H    0.367430
    12  O   -0.603884
    13  H    0.403739
    14  H    0.360744
    15  H    0.373338
    16  H    0.370718
    17  H    0.359634
    18  H    0.362029
    19  H    0.346446
 Sum of APT charges =   3.00000
 APT charges with hydrogens summed into heavy atoms:
               1
     1  Fe   2.117498
     2  O    0.157068
     4  O    0.153491
     6  O    0.131325
     8  O    0.128082
    10  O    0.151937
    12  O    0.160598
 Electronic spatial extent (au):  <R**2>=            838.1753
 Charge=              3.0000 electrons
 Dipole moment (field-independent basis, Debye):
    X=              2.2904    Y=              3.6500    Z=             -0.9857  Tot=              4.4204
 Quadrupole moment (field-independent basis, Debye-Ang):
   XX=            -11.5874   YY=            -15.3324   ZZ=            -26.0791
   XY=             -4.2206   XZ=             -1.6050   YZ=             -0.9669
 Traceless Quadrupole moment (field-independent basis, Debye-Ang):
   XX=              6.0789   YY=              2.3339   ZZ=             -8.4128
   XY=             -4.2206   XZ=             -1.6050   YZ=             -0.9669
 Octapole moment (field-independent basis, Debye-Ang**2):
  XXX=             18.3123  YYY=             17.1922  ZZZ=              5.1287  XYY=              4.1583
  XXY=              9.0665  XXZ=              3.2843  XZZ=             -8.1441  YZZ=             -3.3863
  YYZ=            -14.6171  XYZ=             -3.2192
 Hexadecapole moment (field-independent basis, Debye-Ang**3):
 XXXX=           -164.6603 YYYY=           -172.9393 ZZZZ=           -211.3053 XXXY=            -21.5286
 XXXZ=              2.2729 YYYX=             -8.6969 YYYZ=             11.3460 ZZZX=            -16.3728
 ZZZY=            -15.6861 XXYY=            -46.3578 XXZZ=            -52.5851 YYZZ=            -50.2717
 XXYZ=             -0.5640 YYXZ=              3.4081 ZZXY=              2.0683
 N-N= 7.677883002195D+02 E-N=-5.573163818363D+03  KE= 1.719431920015D+03
  Exact polarizability:      53.190      -0.427      52.432      -0.619       0.050      49.111
 Approx polarizability:      75.361      -0.463      74.543      -1.098      -0.100      69.192
                          Isotropic Fermi Contact Couplings
        Atom                 a.u.       MegaHertz       Gauss      10(-4) cm-1
     1  Fe(57)             0.11830       3.43150       1.22444       1.14463
     2  O(17)              0.14960     -18.13746      -6.47190      -6.05001
     3  H(1)               0.00292       2.60926       0.93105       0.87036
     4  O(17)              0.14741     -17.87222      -6.37725      -5.96153
     5  H(1)               0.00235       2.09760       0.74848       0.69969
     6  O(17)              0.15256     -18.49613      -6.59988      -6.16965
     7  H(1)               0.00211       1.88426       0.67235       0.62852
     8  O(17)              0.15100     -18.30697      -6.53238      -6.10655
     9  H(1)               0.00279       2.49701       0.89100       0.83291
    10  O(17)              0.14563     -17.65624      -6.30019      -5.88949
    11  H(1)               0.00309       2.76105       0.98521       0.92099
    12  O(17)              0.14796     -17.93895      -6.40106      -5.98379
    13  H(1)               0.00291       2.59936       0.92752       0.86705
    14  H(1)               0.00262       2.34273       0.83595       0.78145
    15  H(1)               0.00283       2.52717       0.90176       0.84297
    16  H(1)               0.00247       2.20561       0.78702       0.73571
    17  H(1)               0.00237       2.11682       0.75533       0.70609
    18  H(1)               0.00297       2.65922       0.94888       0.88702
    19  H(1)               0.00209       1.86446       0.66529       0.62192
 --------------------------------------------------------
       Center         ----  Spin Dipole Couplings  ----
                      3XX-RR        3YY-RR        3ZZ-RR
 --------------------------------------------------------
     1   Atom        0.012106     -0.014998      0.002892
     2   Atom       -0.335828      0.476353     -0.140525
     3   Atom       -0.000363      0.017393     -0.017030
     4   Atom        0.036655     -0.208943      0.172288
     5   Atom        0.062137     -0.045043     -0.017094
     6   Atom        0.068147     -0.262901      0.194754
     7   Atom       -0.005418      0.012855     -0.007437
     8   Atom       -0.286470      0.294353     -0.007883
     9   Atom       -0.039408      0.094086     -0.054678
    10   Atom        0.084595     -0.167468      0.082873
    11   Atom        0.073607     -0.035339     -0.038268
    12   Atom        0.230315     -0.233496      0.003181
    13   Atom       -0.028262     -0.038783      0.067045
    14   Atom        0.025389     -0.026250      0.000861
    15   Atom        0.018617      0.020347     -0.038963
    16   Atom       -0.034743      0.043664     -0.008922
    17   Atom       -0.031827      0.006684      0.025143
    18   Atom        0.090580     -0.058843     -0.031737
    19   Atom       -0.002813      0.056845     -0.054032
 --------------------------------------------------------
                        XY            XZ            YZ
 --------------------------------------------------------
     1   Atom       -0.007552      0.013809     -0.007392
     2   Atom        0.148564      0.027524      0.118203
     3   Atom        0.050421      0.055585      0.055468
     4   Atom       -0.175884      0.277333     -0.216409
     5   Atom        0.016559      0.074343      0.001096
     6   Atom        0.088854     -0.350565     -0.023710
     7   Atom        0.051505     -0.057530     -0.052338
     8   Atom        0.109334      0.066994      0.289707
     9   Atom       -0.038672      0.002900      0.025863
    10   Atom       -0.130222      0.382416     -0.077866
    11   Atom       -0.064628      0.023759     -0.013198
    12   Atom        0.237265     -0.309371     -0.051706
    13   Atom        0.013488     -0.042655     -0.060543
    14   Atom       -0.037441     -0.079173      0.029668
    15   Atom       -0.079057      0.033814     -0.019655
    16   Atom       -0.029059     -0.034189      0.074483
    17   Atom       -0.024363      0.037167     -0.078696
    18   Atom       -0.011522     -0.047657     -0.005570
    19   Atom        0.073044      0.001419      0.020349
 --------------------------------------------------------


 ---------------------------------------------------------------------------------
              Anisotropic Spin Dipole Couplings in Principal Axis System
 ---------------------------------------------------------------------------------

       Atom             a.u.   MegaHertz   Gauss  10(-4) cm-1        Axes

              Baa    -0.0180    -0.311    -0.111    -0.104  0.1217  0.9581  0.2591
     1 Fe(57) Bbb    -0.0068    -0.119    -0.042    -0.040 -0.6174 -0.1314  0.7756
              Bcc     0.0248     0.429     0.153     0.143  0.7772 -0.2544  0.5756
 
              Baa    -0.3624    26.220     9.356     8.746  0.9849 -0.1700 -0.0316
     2 O(17)  Bbb    -0.1624    11.751     4.193     3.920  0.0002 -0.1820  0.9833
              Bcc     0.5248   -37.971   -13.549   -12.666  0.1729  0.9685  0.1792
 
              Baa    -0.0672   -35.852   -12.793   -11.959 -0.5069 -0.2406  0.8277
     3 H(1)   Bbb    -0.0414   -22.067    -7.874    -7.361 -0.6521  0.7350 -0.1857
              Bcc     0.1086    57.920    20.667    19.320  0.5637  0.6339  0.5295
 
              Baa    -0.3188    23.068     8.231     7.695  0.2511  0.9301  0.2681
     4 O(17)  Bbb    -0.1809    13.090     4.671     4.366  0.7775 -0.0288 -0.6282
              Bcc     0.4997   -36.157   -12.902   -12.061  0.5766 -0.3662  0.7304
 
              Baa    -0.0648   -34.587   -12.342   -11.537 -0.5039  0.3789  0.7762
     5 H(1)   Bbb    -0.0434   -23.136    -8.255    -7.717  0.1181  0.9205 -0.3726
              Bcc     0.1082    57.723    20.597    19.254  0.8556  0.0961  0.5086
 
              Baa    -0.3050    22.071     7.875     7.362 -0.4721  0.8319 -0.2917
     6 O(17)  Bbb    -0.1902    13.760     4.910     4.590  0.6024  0.5460  0.5822
              Bcc     0.4952   -35.831   -12.785   -11.952 -0.6436 -0.0992  0.7589
 
              Baa    -0.0640   -34.156   -12.188   -11.393  0.6814  0.0410  0.7308
     7 H(1)   Bbb    -0.0438   -23.391    -8.347    -7.802 -0.4697  0.7902  0.3937
              Bcc     0.1079    57.548    20.534    19.196  0.5613  0.6115 -0.5577
 
[...]
    14  H   -0.011928   0.267859  -0.000001  -0.000001  -0.000043  -0.000000
    15  H   -0.000042  -0.000001   0.267946  -0.000043  -0.000000  -0.000043
    16  H   -0.000001  -0.000001  -0.000043   0.267905  -0.000001  -0.000043
    17  H   -0.000001  -0.000043  -0.000000  -0.000001   0.267945  -0.000001
    18  H    0.000001  -0.000000  -0.000043  -0.000043  -0.000001   0.267859
    19  H   -0.000001  -0.000001  -0.000001   0.000001  -0.000043  -0.000043
              19
     1  Fe  -0.003562
     2  O   -0.000450
     3  H   -0.000000
     4  O    0.000553
     5  H   -0.000042
     6  O    0.002447
     7  H   -0.000043
     8  O    0.293104
     9  H   -0.011924
    10  O    0.000558
    11  H   -0.000001
    12  O    0.000971
    13  H   -0.000001
    14  H   -0.000001
    15  H   -0.000001
    16  H    0.000001
    17  H   -0.000043
    18  H   -0.000043
    19  H    0.267906
          Atomic-Atomic Spin Densities.
               1          2          3          4          5          6
     1  Fe   4.873348  -0.092314   0.003076  -0.092379   0.003079  -0.092300
     2  O   -0.092314   0.236280  -0.005297  -0.012225   0.000227  -0.012241
     3  H    0.003076  -0.005297   0.003098   0.000437  -0.000002   0.000227
     4  O   -0.092379  -0.012225   0.000437   0.236501  -0.005296  -0.012215
     5  H    0.003079   0.000227  -0.000002  -0.005296   0.003095   0.000437
     6  O   -0.092300  -0.012241   0.000227  -0.012215   0.000437   0.236298
     7  H    0.003075   0.000437  -0.000002   0.000227  -0.000002  -0.005292
     8  O   -0.092314   0.012472  -0.000178  -0.012220   0.000872  -0.012247
     9  H    0.003077  -0.000178   0.000000   0.000437  -0.000023   0.000228
    10  O   -0.092379  -0.012220   0.000437   0.012467  -0.000177  -0.012211
    11  H    0.003079   0.000873  -0.000023  -0.000177   0.000000   0.000436
    12  O   -0.092300  -0.012247   0.000875  -0.012211   0.000436   0.012466
    13  H    0.003075   0.000437  -0.000023   0.000872  -0.000023  -0.000177
    14  H    0.003075   0.000437  -0.000023   0.000227  -0.000002  -0.000178
    15  H    0.003079   0.000873  -0.000023  -0.005297   0.000769   0.000437
    16  H    0.003077  -0.005297   0.000769   0.000437  -0.000002   0.000874
    17  H    0.003079   0.000227  -0.000002  -0.000178   0.000000   0.000436
    18  H    0.003075   0.000437  -0.000002   0.000874  -0.000023  -0.005294
    19  H    0.003076  -0.000178   0.000000   0.000437  -0.000023   0.000875
               7          8          9         10         11         12
     1  Fe   0.003075  -0.092314   0.003077  -0.092379   0.003079  -0.092300
     2  O    0.000437   0.012472  -0.000178  -0.012220   0.000873  -0.012247
     3  H   -0.000002  -0.000178   0.000000   0.000437  -0.000023   0.000875
     4  O    0.000227  -0.012220   0.000437   0.012467  -0.000177  -0.012211
     5  H   -0.000002   0.000872  -0.000023  -0.000177   0.000000   0.000436
     6  O   -0.005292  -0.012247   0.000228  -0.012211   0.000436   0.012466
     7  H    0.003095   0.000437  -0.000002   0.000872  -0.000023  -0.000177
     8  O    0.000437   0.236281  -0.005297  -0.012225   0.000227  -0.012242
     9  H   -0.000002  -0.005297   0.003099   0.000437  -0.000002   0.000874
    10  O    0.000872  -0.012225   0.000437   0.236506  -0.005296  -0.012214
    11  H   -0.000023   0.000227  -0.000002  -0.005296   0.003095   0.000437
    12  O   -0.000177  -0.012242   0.000874  -0.012214   0.000437   0.236296
    13  H    0.000000   0.000437  -0.000023   0.000227  -0.000002  -0.005292
    14  H    0.000000   0.000437  -0.000023   0.000874  -0.000023  -0.005294
    15  H   -0.000002   0.000227  -0.000002  -0.000178   0.000000   0.000436
    16  H   -0.000023  -0.000178   0.000000   0.000437  -0.000023   0.000228
    17  H   -0.000023   0.000874  -0.000023  -0.005297   0.000769   0.000437
    18  H    0.000768   0.000437  -0.000002   0.000227  -0.000002  -0.000178
    19  H   -0.000023  -0.005297   0.000769   0.000437  -0.000002   0.000227
              13         14         15         16         17         18
     1  Fe   0.003075   0.003075   0.003079   0.003077   0.003079   0.003075
     2  O    0.000437   0.000437   0.000873  -0.005297   0.000227   0.000437
     3  H   -0.000023  -0.000023  -0.000023   0.000769  -0.000002  -0.000002
     4  O    0.000872   0.000227  -0.005297   0.000437  -0.000178   0.000874
     5  H   -0.000023  -0.000002   0.000769  -0.000002   0.000000  -0.000023
     6  O   -0.000177  -0.000178   0.000437   0.000874   0.000436  -0.005294
     7  H    0.000000   0.000000  -0.000002  -0.000023  -0.000023   0.000768
     8  O    0.000437   0.000437   0.000227  -0.000178   0.000874   0.000437
     9  H   -0.000023  -0.000023  -0.000002   0.000000  -0.000023  -0.000002
    10  O    0.000227   0.000874  -0.000178   0.000437  -0.005297   0.000227
    11  H   -0.000002  -0.000023   0.000000  -0.000023   0.000769  -0.000002
    12  O   -0.005292  -0.005294   0.000436   0.000228   0.000437  -0.000178
    13  H    0.003095   0.000768  -0.000023  -0.000002  -0.000002   0.000000
    14  H    0.000768   0.003095  -0.000002  -0.000002  -0.000023   0.000000
    15  H   -0.000023  -0.000002   0.003096  -0.000023   0.000000  -0.000023
    16  H   -0.000002  -0.000002  -0.000023   0.003099  -0.000002  -0.000023
    17  H   -0.000002  -0.000023   0.000000  -0.000002   0.003096  -0.000002
    18  H    0.000000   0.000000  -0.000023  -0.000023  -0.000002   0.003095
    19  H   -0.000002  -0.000002  -0.000002   0.000000  -0.000023  -0.000023
              19
     1  Fe   0.003076
     2  O   -0.000178
     3  H    0.000000
     4  O    0.000437
     5  H   -0.000023
     6  O    0.000875
     7  H   -0.000023
     8  O   -0.005297
     9  H    0.000769
    10  O    0.000437
    11  H   -0.000002
    12  O    0.000227
    13  H   -0.000002
    14  H   -0.000002
    15  H   -0.000002
    16  H    0.000000
    17  H   -0.000023
    18  H   -0.000023
    19  H    0.003098
 Mulliken charges and spin densities:
               1          2
     1  Fe   1.288266   4.356285
     2  O   -0.616045   0.100504
     3  H    0.450572   0.003348
     4  O   -0.615555   0.100718
     5  H    0.450577   0.003345
     6  O   -0.616152   0.100558
     7  H    0.450704   0.003345
     8  O   -0.616045   0.100505
     9  H    0.450575   0.003348
    10  O   -0.615554   0.100722
    11  H    0.450581   0.003345
    12  O   -0.616153   0.100557
    13  H    0.450703   0.003345
    14  H    0.450643   0.003345
    15  H    0.450544   0.003345
    16  H    0.450575   0.003348
    17  H    0.450548   0.003345
    18  H    0.450643   0.003345
    19  H    0.450572   0.003348
 Sum of Mulliken charges =   3.00000   5.00000
 Mulliken charges and spin densities with hydrogens summed into heavy atoms:
               1          2
     1  Fe   1.288266   4.356285
     2  O    0.285102   0.107200
     4  O    0.285566   0.107408
     6  O    0.285195   0.107248
     8  O    0.285103   0.107201
    10  O    0.285575   0.107412
    12  O    0.285194   0.107247
 Electronic spatial extent (au):  <R**2>=           1050.0557
 Charge=              3.0000 electrons
 Dipole moment (field-independent basis, Debye):
    X=             -0.0000    Y=              0.0000    Z=              0.0000  Tot=              0.0000
 Quadrupole moment (field-independent basis, Debye-Ang):
   XX=             -6.7586   YY=             -6.7584   ZZ=             -6.7482
   XY=             -0.0012   XZ=              0.0024   YZ=             -0.0035
 Traceless Quadrupole moment (field-independent basis, Debye-Ang):
   XX=             -0.0035   YY=             -0.0034   ZZ=              0.0069
   XY=             -0.0012   XZ=              0.0024   YZ=             -0.0035
 Octapole moment (field-independent basis, Debye-Ang**2):
  XXX=              0.0002  YYY=              0.0008  ZZZ=              0.0006  XYY=              0.0000
  XXY=             -0.0003  XXZ=             -0.0005  XZZ=             -0.0004  YZZ=             -0.0001
  YYZ=              0.0001  XYZ=             -0.0004
 Hexadecapole moment (field-independent basis, Debye-Ang**3):
 XXXX=           -178.7638 YYYY=           -139.7924 ZZZZ=           -174.3152 XXXY=            -15.4860
 XXXZ=            -16.4627 YYYX=             23.8521 YYYZ=             27.8880 ZZZX=            -29.7649
 ZZZY=            -11.1270 XXYY=            -38.3363 XXZZ=             -3.6485 YYZZ=            -42.4745
 XXYZ=            -16.7847 YYXZ=             46.2442 ZZXY=             -8.3719
 N-N= 6.826783004548D+02 E-N=-5.404596406216D+03  KE= 1.716872377631D+03
                          Isotropic Fermi Contact Couplings
        Atom                 a.u.       MegaHertz       Gauss      10(-4) cm-1
     1  Fe(57)             0.27274       7.91173       2.82310       2.63907
     2  O(17)              0.14847     -18.00002      -6.42285      -6.00416
     3  H(1)               0.00181       1.61675       0.57690       0.53929
     4  O(17)              0.14851     -18.00487      -6.42459      -6.00578
     5  H(1)               0.00181       1.61658       0.57684       0.53923
     6  O(17)              0.14848     -18.00134      -6.42332      -6.00460
     7  H(1)               0.00181       1.61678       0.57691       0.53930
     8  O(17)              0.14847     -18.00010      -6.42288      -6.00419
     9  H(1)               0.00181       1.61728       0.57709       0.53947
    10  O(17)              0.14851     -18.00505      -6.42465      -6.00584
    11  H(1)               0.00181       1.61652       0.57682       0.53921
    12  O(17)              0.14848     -18.00133      -6.42332      -6.00460
    13  H(1)               0.00181       1.61678       0.57691       0.53930
    14  H(1)               0.00181       1.61592       0.57660       0.53901
    15  H(1)               0.00181       1.61617       0.57669       0.53910
    16  H(1)               0.00181       1.61730       0.57709       0.53947
    17  H(1)               0.00181       1.61624       0.57671       0.53912
    18  H(1)               0.00181       1.61589       0.57659       0.53900
    19  H(1)               0.00181       1.61675       0.57690       0.53929
 --------------------------------------------------------
       Center         ----  Spin Dipole Couplings  ----
                      3XX-RR        3YY-RR        3ZZ-RR
 --------------------------------------------------------
     1   Atom       -0.000082      0.000299     -0.000217
     2   Atom       -0.068375      0.162130     -0.093755
     3   Atom        0.007539      0.025958     -0.033496
     4   Atom        0.071201     -0.129016      0.057815
     5   Atom        0.018563     -0.028066      0.009503
     6   Atom       -0.002215     -0.033380      0.035595
     7   Atom       -0.019109     -0.030394      0.049503
     8   Atom       -0.068391      0.162132     -0.093742
     9   Atom       -0.034156      0.021506      0.012650
    10   Atom        0.071191     -0.129027      0.057836
    11   Atom        0.018565     -0.028066      0.009501
    12   Atom       -0.002215     -0.033382      0.035597
    13   Atom       -0.019110     -0.030394      0.049504
    14   Atom        0.046479     -0.033415     -0.013065
    15   Atom       -0.019305      0.044428     -0.025123
    16   Atom       -0.034156      0.021504      0.012652
    17   Atom       -0.019306      0.044428     -0.025122
    18   Atom        0.046481     -0.033415     -0.013066
    19   Atom        0.007540      0.025957     -0.033497
 --------------------------------------------------------
                        XY            XZ            YZ
 --------------------------------------------------------
     1   Atom        0.000272      0.000113      0.000240
     2   Atom        0.029889      0.200057      0.048754
     3   Atom        0.053820      0.000667      0.007911
     4   Atom       -0.159358     -0.018035     -0.158116
     5   Atom       -0.012616      0.054702     -0.011123
     6   Atom        0.129485     -0.182400      0.109356
     7   Atom        0.006617     -0.034628     -0.027795
     8   Atom        0.029891      0.200059      0.048747
     9   Atom        0.008964      0.001642      0.053924
    10   Atom       -0.159367     -0.018039     -0.158108
    11   Atom       -0.012615      0.054702     -0.011122
    12   Atom        0.129488     -0.182400      0.109350
    13   Atom        0.006617     -0.034627     -0.027795
    14   Atom       -0.021604     -0.040767      0.005778
    15   Atom       -0.035169      0.018392     -0.028683
    16   Atom        0.008966      0.001644      0.053924
    17   Atom       -0.035167      0.018393     -0.028685
    18   Atom       -0.021604     -0.040767      0.005778
    19   Atom        0.053820      0.000668      0.007912
 --------------------------------------------------------


 ---------------------------------------------------------------------------------
              Anisotropic Spin Dipole Couplings in Principal Axis System
 ---------------------------------------------------------------------------------

       Atom             a.u.   MegaHertz   Gauss  10(-4) cm-1        Axes

              Baa    -0.0003    -0.005    -0.002    -0.002 -0.0488 -0.3463  0.9369
     1 Fe(57) Bbb    -0.0002    -0.004    -0.001    -0.001  0.9008 -0.4205 -0.1085
              Bcc     0.0005     0.009     0.003     0.003  0.4315  0.8386  0.3324
 
              Baa    -0.2820    20.409     7.282     6.808 -0.6805 -0.0346  0.7320
     2 O(17)  Bbb     0.0818    -5.920    -2.112    -1.975  0.6184 -0.5629  0.5483
              Bcc     0.2002   -14.489    -5.170    -4.833  0.3931  0.8258  0.4044
 
              Baa    -0.0409   -21.804    -7.780    -7.273  0.6184 -0.5630  0.5483
     3 H(1)   Bbb    -0.0309   -16.478    -5.880    -5.496 -0.4539  0.3137  0.8340
              Bcc     0.0717    38.282    13.660    12.770  0.6415  0.7646  0.0615
 
              Baa    -0.2823    20.429     7.289     6.814  0.3929  0.8258  0.4047
     4 O(17)  Bbb     0.0823    -5.952    -2.124    -1.985 -0.6796 -0.0358  0.7327
              Bcc     0.2001   -14.476    -5.166    -4.829  0.6195 -0.5629  0.5471
 
              Baa    -0.0409   -21.806    -7.781    -7.274 -0.6808 -0.0353  0.7316
     5 H(1)   Bbb    -0.0309   -16.479    -5.880    -5.497  0.0980  0.9855  0.1387
              Bcc     0.0718    38.285    13.661    12.771  0.7258 -0.1661  0.6675
 
              Baa    -0.2821    20.412     7.283     6.809  0.6181 -0.5630  0.5487
     6 O(17)  Bbb     0.0818    -5.921    -2.113    -1.975  0.3923  0.8257  0.4054
              Bcc     0.2003   -14.491    -5.171    -4.834 -0.6813 -0.0353  0.7312
 
              Baa    -0.0409   -21.802    -7.779    -7.272  0.3927  0.8259  0.4045
     7 H(1)   Bbb    -0.0309   -16.477    -5.879    -5.496  0.8462 -0.4968  0.1927
              Bcc     0.0717    38.278    13.659    12.768 -0.3602 -0.2666  0.8940
 
              Baa    -0.2820    20.409     7.282     6.808 -0.6805 -0.0345  0.7319
     8 O(17)  Bbb     0.0818    -5.920    -2.112    -1.975  0.6184 -0.5629  0.5484
              Bcc     0.2002   -14.489    -5.170    -4.833  0.3931  0.8258  0.4044
 
              Baa    -0.0409   -21.802    -7.779    -7.272  0.6183 -0.5630  0.5484
     9 H(1)   Bbb    -0.0309   -16.478    -5.880    -5.497  0.7826  0.3765 -0.4958
              Bcc     0.0717    38.280    13.659    12.769  0.0727  0.7357  0.6734
 
              Baa    -0.2823    20.429     7.290     6.814  0.3929  0.8258  0.4046
    10 O(17)  Bbb     0.0823    -5.953    -2.124    -1.986 -0.6796 -0.0357  0.7327
              Bcc     0.2001   -14.476    -5.166    -4.829  0.6195 -0.5629  0.5472
 
              Baa    -0.0409   -21.806    -7.781    -7.274 -0.6808 -0.0352  0.7316
    11 H(1)   Bbb    -0.0309   -16.479    -5.880    -5.497  0.0980  0.9855  0.1387
              Bcc     0.0718    38.285    13.661    12.771  0.7259 -0.1661  0.6675
 
              Baa    -0.2821    20.412     7.283     6.809  0.6181 -0.5630  0.5487
    12 O(17)  Bbb     0.0818    -5.921    -2.113    -1.975  0.3922  0.8257  0.4054
              Bcc     0.2003   -14.491    -5.171    -4.834 -0.6813 -0.0354  0.7312
 
              Baa    -0.0409   -21.802    -7.779    -7.272  0.3927  0.8259  0.4045
    13 H(1)   Bbb    -0.0309   -16.477    -5.879    -5.496  0.8462 -0.4968  0.1927
              Bcc     0.0717    38.278    13.659    12.768 -0.3601 -0.2666  0.8940
 
              Baa    -0.0409   -21.806    -7.781    -7.274  0.3931  0.8255  0.4049
    14 H(1)   Bbb    -0.0309   -16.476    -5.879    -5.496  0.2768 -0.5262  0.8041
              Bcc     0.0717    38.282    13.660    12.769  0.8768 -0.2040 -0.4354
 
              Baa    -0.0409   -21.807    -7.781    -7.274 -0.6803 -0.0343  0.7321
    15 H(1)   Bbb    -0.0309   -16.479    -5.880    -5.497  0.6159  0.5147  0.5965
              Bcc     0.0718    38.286    13.661    12.771 -0.3973  0.8567 -0.3291
 
              Baa    -0.0409   -21.802    -7.779    -7.272  0.6183 -0.5630  0.5483
    16 H(1)   Bbb    -0.0309   -16.478    -5.880    -5.497  0.7826  0.3765 -0.4959
              Bcc     0.0717    38.280    13.659    12.769  0.0727  0.7357  0.6734
 
              Baa    -0.0409   -21.807    -7.781    -7.274 -0.6803 -0.0343  0.7321
    17 H(1)   Bbb    -0.0309   -16.479    -5.880    -5.497  0.6159  0.5147  0.5964
              Bcc     0.0718    38.286    13.661    12.771 -0.3973  0.8567 -0.3291
 
              Baa    -0.0409   -21.806    -7.781    -7.274  0.3931  0.8255  0.4049
    18 H(1)   Bbb    -0.0309   -16.476    -5.879    -5.496  0.2768 -0.5262  0.8041
              Bcc     0.0717    38.282    13.660    12.769  0.8768 -0.2040 -0.4354
 
              Baa    -0.0409   -21.804    -7.780    -7.273  0.6184 -0.5630  0.5484
    19 H(1)   Bbb    -0.0309   -16.478    -5.880    -5.496 -0.4539  0.3137  0.8340
              Bcc     0.0717    38.282    13.660    12.770  0.6415  0.7646  0.0616
 

 ---------------------------------------------------------------------------------

 No NMR shielding tensors so no spin-rotation constants.
 Leave Link  601 at Wed Mar  5 22:04:30 2025, MaxMem= 13421772800 cpu:              29.7 elap:               0.4
 (Enter /gpfs/fs1/soft/improv/software/custom-built/gaussian/g16/l9999.exe)

 Test job not archived.
 1\1\GINC-I334\SP\UTPSSh\Gen\Fe1H12O6(3+,6)\HHARB\05-Mar-2025\0\\#p TPS
 SH scrf=(cpcm,solvent=water) geom=allcheck guess=read chkbasis IOp(3/1
 74=1000000) IOp(3/175=1219000) IOp(3/176=1223000)\\Title\\3,6\Fe,-0.78
 48160639,0.7129522719,0.0317937019\O,-1.322594243,2.6559272975,-0.2856
 045714\H,-1.4408889487,3.0910375435,-1.1534405515\O,1.181987849,1.2579
 91546,0.0367274472\H,1.9487759834,0.6635877933,0.159917414\O,-0.873534
 5811,1.0172966981,2.0479349766\H,-1.6572089479,0.8938703026,2.61983222
 64\O,-0.247064052,-1.2300318364,0.3491808745\H,-0.0595567525,-1.900195
 7469,-0.3379703959\O,-2.7516214466,0.1679236867,0.0268659234\H,-3.5184
 02412,0.7623439373,-0.0963789483\O,-0.6960763885,0.4086038695,-1.98434
 73846\H,0.0876059714,0.5320249612,-2.5562330879\H,-1.4293929847,0.1116
 27044,-2.5592441065\H,1.5339820114,2.1623654628,-0.0843972862\H,-1.510
 1415665,3.3260842731,0.4015416012\H,-3.1036290248,-0.7364519475,0.1480
 304298\H,-0.1402082257,1.3142628428,2.6228232487\H,-0.1287337472,-1.66
 51402296,1.2170138987\\Version=ES64L-G16RevC.02\State=6-A\HF=-1721.811
 2994\S2=8.754298\S2-1=0.\S2A=8.750006\RMSD=5.547e-09\Dipole=-0.0000068
 ,-0.0000096,-0.0000112\Quadrupole=0.0039733,-0.0033385,-0.0006349,-0.0
 004352,-0.0040311,0.0005998\PG=C01 [X(Fe1H12O6)]\\@


 IT'S WHAT A FELLER THINKS HE KNOWS THAT HURTS HIM...
                    ------
           KIN HUBBARD
 Job cpu time:       0 days  0 hours 43 minutes 10.3 seconds.
 Elapsed time:       0 days  0 hours  0 minutes 23.4 seconds.
 File lengths (MBytes):  RWF=    119 Int=      0 D2E=      0 Chk=    268 Scr=      1
 Normal termination of Gaussian 16 at Wed Mar  5 22:04:30 2025.
