 Entering Gaussian System, Link 0=g16
 Input=Fe_2_X3LYP.com
 Output=Fe_2_X3LYP.log
 Initial command:
 /gpfs/fs1/soft/improv/software/custom-built/gaussian/g16/l1.exe "/scratch/Gau-3344825.inp" -scrdir="/scratch/"
 Default CPUs for threads: 0-127
 Default linda workers: i186.lcrc.anl.gov
 Default is to use 128 SMP processors on each worker.
 Entering Link 1 = /gpfs/fs1/soft/improv/software/custom-built/gaussian/g16/l1.exe PID=   3344826.
  
 Copyright (c) 1988-2021, Gaussian, Inc.  All Rights Reserved.
  
 This is part of the Gaussian(R) 16 program.  It is based on
 the Gaussian(R) 09 system (copyright 2009, Gaussian, Inc.),
 the Gaussian(R) 03 system (copyright 2003, Gaussian, Inc.),
 the Gaussian(R) 98 system (copyright 1998, Gaussian, Inc.),
 the Gaussian(R) 94 system (copyright 1995, Gaussian, Inc.),
 the Gaussian 92(TM) system (copyright 1992, Gaussian, Inc.),
 the Gaussian 90(TM) system (copyright 1990, Gaussian, Inc.),
 the Gaussian 88(TM) system (copyright 1988, Gaussian, Inc.),
 the Gaussian 86(TM) system (copyright 1986, Carnegie Mellon
 University), and the Gaussian 82(TM) system (copyright 1983,
 Carnegie Mellon University). Gaussian is a federally registered
 trademark of Gaussian, Inc.
  
 This software contains proprietary and confidential information,
 including trade secrets, belonging to Gaussian, Inc.
  
 This software is provided under written license and may be
 used, copied, transmitted, or stored only in accord with that
 written license.
  
 The following legend is applicable only to US Government
 contracts under FAR:
  
                    RESTRICTED RIGHTS LEGEND
  
 Use, reproduction and disclosure by the US Government is
 subject to restrictions as set forth in subparagraphs (a)
 and (c) of the Commercial Computer Software - Restricted
 Rights clause in FAR 52.227-19.
  
 Gaussian, Inc.
 340 Quinnipiac St., Bldg. 40, Wallingford CT 06492
  
  
 ---------------------------------------------------------------
 Warning -- This program may not be used in any manner that
 competes with the business of Gaussian, Inc. or will provide
 assistance to any competitor of Gaussian, Inc.  The licensee
 of this program is prohibited from giving any competitor of
 Gaussian, Inc. access to this program.  By using this program,
 the user acknowledges that Gaussian, Inc. is engaged in the
 business of creating and licensing software in the field of
 computational chemistry and represents and warrants to the
 licensee that it is not a competitor of Gaussian, Inc. and that
 it will not use this program in any manner prohibited above.
 ---------------------------------------------------------------
  

 Cite this work as:
 Gaussian 16, Revision C.02,
 M. J. Frisch, G. W. Trucks, H. B. Schlegel, G. E. Scuseria, 
 M. A. Robb, J. R. Cheeseman, G. Scalmani, V. Barone, 
 G. A. Petersson, H. Nakatsuji, X. Li, M. Caricato, A. V. Marenich, 
 J. Bloino, B. G. Janesko, R. Gomperts, B. Mennucci, H. P. Hratchian, 
 J. V. Ortiz, A. F. Izmaylov, J. L. Sonnenberg, D. Williams-Young, 
 F. Ding, F. Lipparini, F. Egidi, J. Goings, B. Peng, A. Petrone, 
 T. Henderson, D. Ranasinghe, V. G. Zakrzewski, J. Gao, N. Rega, 
 G. Zheng, W. Liang, M. Hada, M. Ehara, K. Toyota, R. Fukuda, 
 J. Hasegawa, M. Ishida, T. Nakajima, Y. Honda, O. Kitao, H. Nakai, 
 T. Vreven, K. Throssell, J. A. Montgomery, Jr., J. E. Peralta, 
 F. Ogliaro, M. J. Bearpark, J. J. Heyd, E. N. Brothers, K. N. Kudin, 
 V. N. Staroverov, T. A. Keith, R. Kobayashi, J. Normand, 
 K. Raghavachari, A. P. Rendell, J. C. Burant, S. S. Iyengar, 
 J. Tomasi, M. Cossi, J. M. Millam, M. Klene, C. Adamo, R. Cammi, 
 J. W. Ochterski, R. L. Martin, K. Morokuma, O. Farkas, 
 J. B. Foresman, and D. J. Fox, Gaussian, Inc., Wallingford CT, 2019.
 
 ******************************************
 Gaussian 16:  ES64L-G16RevC.02  7-Dec-2021
                 5-Mar-2025 
 ******************************************
 %chk=Fe_2_X3LYP.chk
 SetSPE:  set environment variable "OMP_PROC_BIND" = "true"
 SetSPE:  set environment variable "OMP_PLACES" = "{0},{1},{2},{3},{4},{5},{6},{7},{8},{9},{10},{11},{12},{13},{14},{15},{16},{17},{18},{19},{20},{21},{22},{23},{24},{25},{26},{27},{28},{29},{30},{31},{32},{33},{34},{35},{36},{37},{38},{39},{40},{41},{42},{43},{44},{45},{46},{47},{48},{49},{50},{51},{52},{53},{54},{55},{56},{57},{58},{59},{60},{61},{62},{63},{64},{65},{66},{67},{68},{69},{70},{71},{72},{73},{74},{75},{76},{77},{78},{79},{80},{81},{82},{83},{84},{85},{86},{87},{88},{89},{90},{91},{92},{93},{94},{95},{96},{97},{98},{99},{100},{101},{102},{103},{104},{105},{106},{107},{108},{109},{110},{111},{112},{113},{114},{115},{116},{117},{118},{119},{120},{121},{122},{123},{124},{125},{126},{127}"
 SetLPE:    new flags="-opt 'Tsnet.Node.lindarsharg: ssh'  -nodelist 'i186.lcrc.anl.gov' -env GAUSS_MDEF=13421772800 -env GAUSS_EXEDIR="/gpfs/fs1/soft/improv/software/custom-built/gaussian/g16/bsd:/gpfs/fs1/soft/improv/software/custom-built/gaussian/g16" -env "OMP_PROC_BIND=true" -env "OMP_PLACES={0},{1},{2},{3},{4},{5},{6},{7},{8},{9},{10},{11},{12},{13},{14},{15},{16},{17},{18},{19},{20},{21},{22},{23},{24},{25},{26},{27},{28},{29},{30},{31},{32},{33},{34},{35},{36},{37},{38},{39},{40},{41},{42},{43},{44},{45},{46},{47},{48},{49},{50},{51},{52},{53},{54},{55},{56},{57},{58},{59},{60},{61},{62},{63},{64},{65},{66},{67},{68},{69},{70},{71},{72},{73},{74},{75},{76},{77},{78},{79},{80},{81},{82},{83},{84},{85},{86},{87},{88},{89},{90},{91},{92},{93},{94},{95},{96},{97},{98},{99},{100},{101},{102},{103},{104},{105},{106},{107},{108},{109},{110},{111},{112},{113},{114},{115},{116},{117},{118},{119},{120},{121},{122},{123},{124},{125},{126},{127}" -env GAUSS_ADEF="0,1,2,3,4,5,6,7,8,9,10,11,12,13,14,15,16,17,18,19,20,21,22,23,24,25,26,27,28,29,30,31,32,33,34,35,36,37,38,39,40,41,42,43,44,45,46,47,48,49,50,51,52,53,54,55,56,57,58,59,60,61,62,63,64,65,66,67,68,69,70,71,72,73,74,75,76,77,78,79,80,81,82,83,84,85,86,87,88,89,90,91,92,93,94,95,96,97,98,99,100,101,102,103,104,105,106,107,108,109,110,111,112,113,114,115,116,117,118,119,120,121,122,123,124,125,126,127""
 Will use up to    1 processors via Linda.
 ----------------------------------------------------------------------
 #p X3LYP 6-31+G(2df,p) opt=(cartesian,calcall,maxcycles=500,loose) fre
 q scf=(maxcycles=500,xqc,maxconventional=50) IOp(3/174=1000000) IOp(3/
 175=299000) IOp(3/176=1000000)
 ----------------------------------------------------------------------
 1/6=500,7=-1,10=4,18=10,26=3,38=1/1,3;
 2/12=2,17=6,18=5,29=2,40=1/2;
 3/5=1,6=6,7=114,11=2,25=1,30=1,71=2,74=-33,140=1,174=1000000,175=299000,176=1000000/1,2,3;
 4//1;
 5/5=2,7=500,8=3,13=1,38=5,85=50/2,8;
 8/6=4,10=90,11=11/1;
 11/6=1,8=1,9=11,15=111,16=1/1,2,10;
 10/6=1/2;
 6/7=2,8=2,9=2,10=2,18=1,28=1/1;
 7/7=1,10=1,25=1/1,2,3,16;
 1/6=500,7=-1,10=4,18=10,26=3/3(3);
 2/29=1/2;
 7/7=1,8=1,9=1,25=1,44=-1/16;
 99/12=1/99;
 2/29=1/2;
 3/5=1,6=6,7=114,11=2,25=1,30=1,71=2,74=-33,140=1,174=1000000,175=299000,176=1000000/1,2,3;
 4/5=5,16=3,69=1/1;
 5/5=2,7=500,8=3,13=1,38=5,85=50/2,8;
 8/6=4,10=90,11=11/1;
 11/6=1,8=1,9=11,15=111,16=1/1,2,10;
 10/6=1/2;
 7/7=1,10=1,25=1/1,2,3,16;
 1/6=500,7=-1,10=4,18=10,26=3/3(-8);
 2/29=1/2;
 6/7=2,8=2,9=2,10=2,18=1,19=2,28=1/1;
 7/7=1,8=1,9=1,25=1,44=-1/16;
 99/12=1/99;
 Leave Link    1 at Wed Mar  5 20:53:50 2025, MaxMem=           0 cpu:               2.7 elap:               0.1
 (Enter /gpfs/fs1/soft/improv/software/custom-built/gaussian/g16/l101.exe)
 -----
 Title
 -----
 Symbolic Z-matrix:
 Charge =  3 Multiplicity = 6
 Fe                   -0.79304   0.81881  -0.09491 
 O                    -1.20497   2.57394  -0.35687 
 H                    -2.12106   2.64974  -0.63312 
 O                     0.99012   1.19063  -0.05794 
 H                     1.42696   0.5998    0.55971 
 O                    -0.81752   1.03069   1.71365 
 H                    -1.02108   0.1906    2.13133 
 O                    -0.38507  -0.93351   0.17118 
 H                    -1.15682  -1.47369  -0.01433 
 O                    -2.57341   0.45178  -0.12186 
 H                    -2.77756  -0.08744  -0.88929 
 O                    -0.76966   0.60461  -1.90111 
 H                     0.09872   0.83457  -2.23949 
 H                    -0.96534  -0.30999  -2.11742 
 H                     1.12208   2.09943   0.22124 
 H                    -1.07671   3.0584    0.46184 
 H                    -2.81407  -0.02398   0.6765 
 H                     0.0422    1.33615   2.01181 
 H                    -0.11532  -1.06446   1.08312 
 
 ITRead=  0  0  0  0  0  0  0  0  0  0  0  0  0  0  0  0  0  0  0
 MicOpt= -1 -1 -1 -1 -1 -1 -1 -1 -1 -1 -1 -1 -1 -1 -1 -1 -1 -1 -1
 NAtoms=     19 NQM=       19 NQMF=       0 NMMI=      0 NMMIF=      0
                NMic=       0 NMicF=      0.
                    Isotopes and Nuclear Properties:
 (Nuclear quadrupole moments (NQMom) in fm**2, nuclear magnetic moments (NMagM)
  in nuclear magnetons)

  Atom         1           2           3           4           5           6           7           8           9          10
 IAtWgt=          56          16           1          16           1          16           1          16           1          16
 AtmWgt=  55.9349393  15.9949146   1.0078250  15.9949146   1.0078250  15.9949146   1.0078250  15.9949146   1.0078250  15.9949146
 NucSpn=           0           0           1           0           1           0           1           0           1           0
 AtZEff=  -0.0000000  -0.0000000  -0.0000000  -0.0000000  -0.0000000  -0.0000000  -0.0000000  -0.0000000  -0.0000000  -0.0000000
 NQMom=    0.0000000   0.0000000   0.0000000   0.0000000   0.0000000   0.0000000   0.0000000   0.0000000   0.0000000   0.0000000
 NMagM=    0.0000000   0.0000000   2.7928460   0.0000000   2.7928460   0.0000000   2.7928460   0.0000000   2.7928460   0.0000000
 AtZNuc=  26.0000000   8.0000000   1.0000000   8.0000000   1.0000000   8.0000000   1.0000000   8.0000000   1.0000000   8.0000000

  Atom        11          12          13          14          15          16          17          18          19
 IAtWgt=           1          16           1           1           1           1           1           1           1
 AtmWgt=   1.0078250  15.9949146   1.0078250   1.0078250   1.0078250   1.0078250   1.0078250   1.0078250   1.0078250
 NucSpn=           1           0           1           1           1           1           1           1           1
 AtZEff=  -0.0000000  -0.0000000  -0.0000000  -0.0000000  -0.0000000  -0.0000000  -0.0000000  -0.0000000  -0.0000000
 NQMom=    0.0000000   0.0000000   0.0000000   0.0000000   0.0000000   0.0000000   0.0000000   0.0000000   0.0000000
 NMagM=    2.7928460   0.0000000   2.7928460   2.7928460   2.7928460   2.7928460   2.7928460   2.7928460   2.7928460
 AtZNuc=   1.0000000   8.0000000   1.0000000   1.0000000   1.0000000   1.0000000   1.0000000   1.0000000   1.0000000
 Leave Link  101 at Wed Mar  5 20:53:51 2025, MaxMem= 13421772800 cpu:               0.4 elap:               0.1
 (Enter /gpfs/fs1/soft/improv/software/custom-built/gaussian/g16/l103.exe)

 GradGradGradGradGradGradGradGradGradGradGradGradGradGradGradGradGradGrad
 Berny optimization.
 Initialization pass.
 No Z-matrix variables, so optimization will use Cartesian coordinates.
 Trust Radius=3.00D-01 FncErr=1.00D-07 GrdErr=1.00D-06 EigMax=2.50D+02 EigMin=1.00D-04
 Number of steps in this run=    114 maximum allowed number of steps=    114.
 GradGradGradGradGradGradGradGradGradGradGradGradGradGradGradGradGradGrad

 Leave Link  103 at Wed Mar  5 20:53:51 2025, MaxMem= 13421772800 cpu:               0.4 elap:               0.1
 (Enter /gpfs/fs1/soft/improv/software/custom-built/gaussian/g16/l202.exe)
 ---------------------------------------------------------------------------------------------------
                            Z-MATRIX (ANGSTROMS AND DEGREES)
   CD    Cent   Atom    N1       Length/X        N2       Alpha/Y        N3        Beta/Z          J
 ---------------------------------------------------------------------------------------------------
      1      1  Fe       0  -0.793037          0.818805         -0.094905
      2      2  O        0  -1.204971          2.573941         -0.356874
      3      3  H        0  -2.121063          2.649743         -0.633122
      4      4  O        0   0.990122          1.190635         -0.057941
      5      5  H        0   1.426962          0.599798          0.559707
      6      6  O        0  -0.817519          1.030691          1.713650
      7      7  H        0  -1.021079          0.190602          2.131326
      8      8  O        0  -0.385068         -0.933506          0.171177
      9      9  H        0  -1.156817         -1.473692         -0.014327
     10     10  O        0  -2.573405          0.451778         -0.121857
     11     11  H        0  -2.777557         -0.087440         -0.889285
     12     12  O        0  -0.769659          0.604612         -1.901109
     13     13  H        0   0.098725          0.834573         -2.239490
     14     14  H        0  -0.965336         -0.309994         -2.117418
     15     15  H        0   1.122081          2.099426          0.221242
     16     16  H        0  -1.076711          3.058396          0.461841
     17     17  H        0  -2.814074         -0.023981          0.676500
     18     18  H        0   0.042204          1.336153          2.011809
     19     19  H        0  -0.115315         -1.064459          1.083123
 ---------------------------------------------------------------------------------------------------
                         Z-Matrix orientation:                         
 ---------------------------------------------------------------------
 Center     Atomic      Atomic             Coordinates (Angstroms)
 Number     Number       Type             X           Y           Z
 ---------------------------------------------------------------------
      1         26           0       -0.793037    0.818805   -0.094905
      2          8           0       -1.204971    2.573941   -0.356874
      3          1           0       -2.121063    2.649743   -0.633122
      4          8           0        0.990122    1.190635   -0.057941
      5          1           0        1.426962    0.599798    0.559707
      6          8           0       -0.817519    1.030691    1.713650
      7          1           0       -1.021079    0.190602    2.131326
      8          8           0       -0.385068   -0.933506    0.171177
      9          1           0       -1.156817   -1.473692   -0.014327
     10          8           0       -2.573405    0.451778   -0.121857
     11          1           0       -2.777557   -0.087440   -0.889285
     12          8           0       -0.769659    0.604612   -1.901109
     13          1           0        0.098725    0.834573   -2.239490
     14          1           0       -0.965336   -0.309994   -2.117418
     15          1           0        1.122081    2.099426    0.221242
     16          1           0       -1.076711    3.058396    0.461841
     17          1           0       -2.814074   -0.023981    0.676500
     18          1           0        0.042204    1.336153    2.011809
     19          1           0       -0.115315   -1.064459    1.083123
 ---------------------------------------------------------------------
                    Distance matrix (angstroms):
                    1          2          3          4          5
     1  Fe   0.000000
     2  O    1.821762   0.000000
     3  H    2.325008   0.959835   0.000000
     4  O    1.821889   2.611767   3.484150   0.000000
     5  H    2.324839   3.415322   4.267739   0.959899   0.000000
     6  O    1.821090   2.611285   3.134947   2.536076   2.560263
     7  H    2.324381   3.450400   3.859988   3.136540   2.937743
     8  O    1.818745   3.640503   4.062050   2.540791   2.405292
     9  H    2.322579   4.062387   4.279649   3.421971   3.362259
    10  O    1.818006   2.536025   2.301533   3.639880   4.060711
    11  H    2.321775   3.136788   2.826442   4.064482   4.499984
    12  O    1.819010   2.540161   2.759827   2.614866   3.298603
    13  H    2.322657   2.875634   3.286750   2.383386   3.107223
    14  H    2.322591   3.387332   3.506977   3.212032   3.703756
    15  H    2.325429   2.444290   3.398642   0.959822   1.567289
    16  H    2.325125   0.959918   1.567358   2.833814   3.510364
    17  H    2.321626   3.225876   3.056824   4.060370   4.288255
    18  H    2.324547   2.949275   3.660724   2.281137   2.137375
    19  H    2.322443   4.061883   4.556733   2.758526   2.328591
                    6          7          8          9         10
     6  O    0.000000
     7  H    0.960021   0.000000
     8  O    2.534622   2.347406   0.000000
     9  H    3.061530   2.718847   0.960108   0.000000
    10  O    2.605257   2.748593   2.606473   2.392848   0.000000
    11  H    3.444886   3.505227   2.750347   2.305222   0.959885
    12  O    3.640099   4.061422   2.609231   2.833582   2.538227
    13  H    4.062670   4.557707   3.028445   3.443229   3.430916
    14  H    4.061572   4.278496   2.441955   2.411193   2.673658
    15  H    2.670492   3.447487   3.387136   4.244531   4.060675
    16  H    2.397039   3.318813   4.061790   4.557738   3.061904
    17  H    2.484803   2.318921   2.642472   2.307685   0.960023
    18  H    0.959858   1.567527   2.953276   3.665802   3.489421
    19  H    2.297892   1.869309   0.959980   1.567353   3.129403
                   11         12         13         14         15
    11  H    0.000000
    12  O    2.352526   0.000000
    13  H    3.308498   0.959935   0.000000
    14  H    2.200452   0.959991   1.567533   0.000000
    15  H    4.606825   3.212091   2.949969   3.953725   0.000000
    16  H    3.822919   3.420362   3.691102   4.243941   2.410850
    17  H    1.567497   3.349453   4.210050   3.362383   4.495491
    18  H    4.288824   4.062660   4.281159   4.558009   2.225950
    19  H    3.454344   3.481323   3.833001   3.396353   3.504877
                   16         17         18         19
    16  H    0.000000
    17  H    3.544793   0.000000
    18  H    2.573032   3.433851   0.000000
    19  H    4.278809   2.920828   2.578800   0.000000
 Stoichiometry    FeH12O6(3+,6)
 Framework group  C1[X(FeH12O6)]
 Deg. of freedom    51
 Full point group                 C1      NOp   1
 Largest Abelian subgroup         C1      NOp   1
 Largest concise Abelian subgroup C1      NOp   1
                         Standard orientation:                         
 ---------------------------------------------------------------------
 Center     Atomic      Atomic             Coordinates (Angstroms)
 Number     Number       Type             X           Y           Z
 ---------------------------------------------------------------------
      1         26           0       -0.020212   -0.029769    0.009758
      2          8           0       -0.320773   -1.687164   -0.684161
      3          1           0       -1.136997   -1.679346   -1.189137
      4          8           0        1.254785   -0.678144    1.138153
      5          1           0        1.943573   -0.019708    1.254074
      6          8           0        1.298505    0.294488   -1.203590
      7          1           0        1.382461    1.241149   -1.339326
      8          8           0        0.280919    1.626834    0.697379
      9          1           0       -0.430846    2.216032    0.436526
     10          8           0       -1.285567    0.616476   -1.124434
     11          1           0       -2.034473    0.939301   -0.618170
     12          8           0       -1.338192   -0.350985    1.221594
     13          1           0       -0.971642   -0.815184    1.977660
     14          1           0       -1.717006    0.482356    1.510774
     15          1           0        1.635434   -1.476912    0.766219
     16          1           0        0.408530   -1.930525   -1.258908
     17          1           0       -0.914804    1.335716   -1.641030
     18          1           0        2.129249   -0.056449   -0.874904
     19          1           0        1.114608    1.965515    0.362985
 ---------------------------------------------------------------------
 Rotational constants (GHZ):           2.0396930           1.9739388           1.9252729
 Leave Link  202 at Wed Mar  5 20:53:51 2025, MaxMem= 13421772800 cpu:               0.5 elap:               0.0
 (Enter /gpfs/fs1/soft/improv/software/custom-built/gaussian/g16/l301.exe)
 Standard basis: 6-31+G(2df,p) (6D, 7F)
 Ernie: Thresh=  0.10000D-02 Tol=  0.10000D-05 Strict=F.
 There are   347 symmetry adapted cartesian basis functions of A   symmetry.
 There are   317 symmetry adapted basis functions of A   symmetry.
   317 basis functions,   514 primitive gaussians,   347 cartesian basis functions
    44 alpha electrons       39 beta electrons
       nuclear repulsion energy       767.7883002195 Hartrees.
 IExCor= 3102 DFT=T Ex+Corr=X3LYP ExCW=0 ScaHFX=  0.218000
 ScaDFX=  0.782000  0.709000  1.000000  0.871000 ScalE2=  1.000000  1.000000
 IRadAn=      5 IRanWt=     -1 IRanGd=            0 ICorTp=0 IEmpDi=  4
 NAtoms=   19 NActive=   19 NUniq=   19 SFac= 1.00D+00 NAtFMM=   60 NAOKFM=F Big=F
 Integral buffers will be    131072 words long.
 Raffenetti 2 integral format.
 Two-electron integral symmetry is turned on.
 R6DIni: Non-standard D2/D3 S6 parameter, value=     1.000000
 R6DIni: Non-standard D2/D3 S8 parameter, value=     0.299000
 R6DIni: Non-standard D2/D3 SR6 parameter, value=     1.000000
 Leave Link  301 at Wed Mar  5 20:53:51 2025, MaxMem= 13421772800 cpu:               0.4 elap:               0.0
 (Enter /gpfs/fs1/soft/improv/software/custom-built/gaussian/g16/l302.exe)
 NPDir=0 NMtPBC=     1 NCelOv=     1 NCel=       1 NClECP=     1 NCelD=      1
         NCelK=      1 NCelE2=     1 NClLst=     1 CellRange=     0.0.
 One-electron integrals computed using PRISM.
 One-electron integral symmetry used in STVInt
 NBasis=   317 RedAO= T EigKep=  1.64D-06  NBF=   317
 NBsUse=   317 1.00D-06 EigRej= -1.00D+00 NBFU=   317
 Precomputing XC quadrature grid using
 IXCGrd= 4 IRadAn=           5 IRanWt=          -1 IRanGd=           0 AccXCQ= 0.00D+00.
 Generated NRdTot=       0 NPtTot=           0 NUsed=           0 NTot=          32
 NSgBfM=   347   346   347   347   347 MxSgAt=    19 MxSgA2=    19.
 Leave Link  302 at Wed Mar  5 20:53:52 2025, MaxMem= 13421772800 cpu:              22.2 elap:               0.3
 (Enter /gpfs/fs1/soft/improv/software/custom-built/gaussian/g16/l303.exe)
 DipDrv:  MaxL=1.
 Leave Link  303 at Wed Mar  5 20:53:52 2025, MaxMem= 13421772800 cpu:               1.1 elap:               0.0
 (Enter /gpfs/fs1/soft/improv/software/custom-built/gaussian/g16/l401.exe)
 ExpMin= 1.26D-02 ExpMax= 6.11D+04 ExpMxC= 9.18D+03 IAcc=3 IRadAn=         5 AccDes= 0.00D+00
 Harris functional with IExCor= 3102 and IRadAn=       5 diagonalized for initial guess.
 HarFok:  IExCor= 3102 AccDes= 0.00D+00 IRadAn=         5 IDoV= 1 UseB2=F ITyADJ=14
 ICtDFT=  3500011 ScaDFX=  1.000000  1.000000  1.000000  1.000000
 FoFCou: FMM=F IPFlag=           0 FMFlag=      100000 FMFlg1=           0
         NFxFlg=           0 DoJE=T BraDBF=F KetDBF=T FulRan=T
         wScrn=  0.000000 ICntrl=       500 IOpCl=  0 I1Cent=   200000004 NGrid=           0
         NMat0=    1 NMatS0=      1 NMatT0=    0 NMatD0=    1 NMtDS0=    0 NMtDT0=    0
 Petite list used in FoFCou.
 Harris En= -1721.56367570268    
 JPrj=0 DoOrth=F DoCkMO=F.
 Initial guess <Sx>= 0.0000 <Sy>= 0.0000 <Sz>= 2.5000 <S**2>= 8.7500 S= 2.5000
 Leave Link  401 at Wed Mar  5 20:53:53 2025, MaxMem= 13421772800 cpu:              40.3 elap:               0.5
 (Enter /gpfs/fs1/soft/improv/software/custom-built/gaussian/g16/l502.exe)
 Integral symmetry usage will be decided dynamically.
 UHF open shell SCF:
 Using DIIS extrapolation, IDIIS=  1040.
 NGot= 13421772800 LenX= 13421483807 LenY= 13421362957
 Requested convergence on RMS density matrix=1.00D-08 within  50 cycles.
 Requested convergence on MAX density matrix=1.00D-06.
 Requested convergence on             energy=1.00D-06.
 No special actions if energy rises.
 Fock matrices will be formed incrementally for  20 cycles.

 Cycle   1  Pass 1  IDiag  1:
 FoFJK:  IHMeth= 1 ICntrl=       0 DoSepK=F KAlg= 0 I1Cent=           0 FoldK=F
 IRaf= 990000000 NMat=       1 IRICut=       1 DoRegI=T DoRafI=F ISym2E= 0 IDoP0=0 IntGTp=1.
 FoFCou: FMM=F IPFlag=           0 FMFlag=      100000 FMFlg1=           0
         NFxFlg=           0 DoJE=F BraDBF=F KetDBF=F FulRan=T
         wScrn=  0.000000 ICntrl=         0 IOpCl=  1 I1Cent=           0 NGrid=           0
         NMat0=    1 NMatS0=      1 NMatT0=    0 NMatD0=    1 NMtDS0=    0 NMtDT0=    0
 Symmetry not used in FoFCou.
 E= -1720.30949747773    
 DIIS: error= 3.01D-02 at cycle   1 NSaved=   1.
 NSaved= 1 IEnMin= 1 EnMin= -1720.30949747773     IErMin= 1 ErrMin= 3.01D-02
 ErrMax= 3.01D-02  0.00D+00 EMaxC= 1.00D-01 BMatC= 2.91D+00 BMatP= 2.91D+00
 IDIUse=3 WtCom= 6.99D-01 WtEn= 3.01D-01
 Coeff-Com:  0.100D+01
 Coeff-En:   0.100D+01
 Coeff:      0.100D+01
 Gap=     0.530 Goal=   None    Shift=    0.000
 Gap=    -0.119 Goal=   None    Shift=    0.000
 GapD=   -0.119 DampG=0.250 DampE=0.250 DampFc=0.1250 IDamp=-1.
 Damping current iteration by 1.25D-01
 RMSDP=6.01D-02 MaxDP=7.77D+00              OVMax= 8.00D-01

 Cycle   2  Pass 1  IDiag  1:
 RMSU=  4.35D-03    CP:  1.07D+00
 E= -1720.37628541970     Delta-E=       -0.066787941971 Rises=F Damp=T
 DIIS: error= 1.67D-02 at cycle   2 NSaved=   2.
 NSaved= 2 IEnMin= 2 EnMin= -1720.37628541970     IErMin= 2 ErrMin= 1.67D-02
 ErrMax= 1.67D-02  0.00D+00 EMaxC= 1.00D-01 BMatC= 8.65D-01 BMatP= 2.91D+00
 IDIUse=3 WtCom= 8.33D-01 WtEn= 1.67D-01
 Coeff-Com: -0.655D+00 0.165D+01
 Coeff-En:   0.198D+00 0.802D+00
 Coeff:     -0.513D+00 0.151D+01
 Gap=     0.309 Goal=   None    Shift=    0.000
 Gap=    -0.028 Goal=   None    Shift=    0.000
 RMSDP=2.84D-02 MaxDP=2.84D+00 DE=-6.68D-02 OVMax= 9.47D-01

 Cycle   3  Pass 1  IDiag  1:
 RMSU=  1.37D-02    CP:  7.83D-01  1.49D+00
 E= -1720.50915760604     Delta-E=       -0.132872186336 Rises=F Damp=F
 DIIS: error= 2.49D-02 at cycle   3 NSaved=   3.
 NSaved= 3 IEnMin= 3 EnMin= -1720.50915760604     IErMin= 2 ErrMin= 1.67D-02
 ErrMax= 2.49D-02  0.00D+00 EMaxC= 1.00D-01 BMatC= 1.32D+00 BMatP= 8.65D-01
 IDIUse=2 WtCom= 0.00D+00 WtEn= 1.00D+00
 EnCoef did     7 forward-backward iterations
 Coeff-En:   0.845D-02 0.234D+00 0.757D+00
 Coeff:      0.845D-02 0.234D+00 0.757D+00
 Gap=     0.476 Goal=   None    Shift=    0.000
 Gap=     0.071 Goal=   None    Shift=    0.000
 RMSDP=4.56D-02 MaxDP=4.79D+00 DE=-1.33D-01 OVMax= 5.35D-01

 Cycle   4  Pass 1  IDiag  1:
 RMSU=  9.47D-03    CP:  1.26D+00  3.00D+00 -7.34D-02
 E= -1719.58078762674     Delta-E=        0.928369979294 Rises=F Damp=F
 DIIS: error= 8.07D-02 at cycle   4 NSaved=   4.
 NSaved= 4 IEnMin= 3 EnMin= -1720.50915760604     IErMin= 2 ErrMin= 1.67D-02
 ErrMax= 8.07D-02  0.00D+00 EMaxC= 1.00D-01 BMatC= 8.58D+00 BMatP= 8.65D-01
 IDIUse=2 WtCom= 0.00D+00 WtEn= 1.00D+00
 EnCoef did     2 forward-backward iterations
 Coeff-En:   0.123D+00 0.000D+00 0.685D+00 0.192D+00
 Coeff:      0.123D+00 0.000D+00 0.685D+00 0.192D+00
 Gap=     0.356 Goal=   None    Shift=    0.000
 Gap=     0.130 Goal=   None    Shift=    0.000
 RMSDP=2.58D-02 MaxDP=2.79D+00 DE= 9.28D-01 OVMax= 4.56D-01

 Cycle   5  Pass 1  IDiag  1:
 RMSU=  3.92D-03    CP:  9.83D-01  2.30D+00  3.63D-01  5.83D-01
 E= -1720.67551839489     Delta-E=       -1.094730768143 Rises=F Damp=F
 DIIS: error= 8.34D-03 at cycle   5 NSaved=   5.
 NSaved= 5 IEnMin= 5 EnMin= -1720.67551839489     IErMin= 5 ErrMin= 8.34D-03
 ErrMax= 8.34D-03  0.00D+00 EMaxC= 1.00D-01 BMatC= 2.61D-01 BMatP= 8.65D-01
 IDIUse=3 WtCom= 9.17D-01 WtEn= 8.34D-02
 Coeff-Com: -0.188D+00 0.229D+00 0.301D+00-0.436D-01 0.701D+00
 Coeff-En:   0.000D+00 0.000D+00 0.179D+00 0.000D+00 0.821D+00
 Coeff:     -0.172D+00 0.210D+00 0.290D+00-0.399D-01 0.711D+00
 Gap=     0.255 Goal=   None    Shift=    0.000
 Gap=     0.230 Goal=   None    Shift=    0.000
 RMSDP=8.33D-03 MaxDP=8.27D-01 DE=-1.09D+00 OVMax= 5.82D-02

 Cycle   6  Pass 1  IDiag  1:
 RMSU=  1.29D-03    CP:  9.01D-01  1.95D+00  6.02D-01  3.91D-01  7.62D-01
 E= -1720.71583013737     Delta-E=       -0.040311742480 Rises=F Damp=F
 DIIS: error= 2.89D-03 at cycle   6 NSaved=   6.
 NSaved= 6 IEnMin= 6 EnMin= -1720.71583013737     IErMin= 6 ErrMin= 2.89D-03
 ErrMax= 2.89D-03  0.00D+00 EMaxC= 1.00D-01 BMatC= 1.34D-02 BMatP= 2.61D-01
 IDIUse=3 WtCom= 9.71D-01 WtEn= 2.89D-02
 Coeff-Com: -0.133D+00 0.152D+00 0.118D+00-0.256D-01 0.345D+00 0.544D+00
 Coeff-En:   0.000D+00 0.000D+00 0.000D+00 0.000D+00 0.000D+00 0.100D+01
 Coeff:     -0.129D+00 0.147D+00 0.115D+00-0.249D-01 0.335D+00 0.557D+00
 Gap=     0.263 Goal=   None    Shift=    0.000
 Gap=     0.228 Goal=   None    Shift=    0.000
 RMSDP=1.18D-03 MaxDP=1.36D-01 DE=-4.03D-02 OVMax= 7.59D-03

 Cycle   7  Pass 1  IDiag  1:
 RMSU=  5.16D-04    CP:  9.11D-01  2.04D+00  5.86D-01  3.89D-01  8.10D-01
                    CP:  8.28D-01
 E= -1720.71726612555     Delta-E=       -0.001435988183 Rises=F Damp=F
 DIIS: error= 1.29D-03 at cycle   7 NSaved=   7.
 NSaved= 7 IEnMin= 7 EnMin= -1720.71726612555     IErMin= 7 ErrMin= 1.29D-03
 ErrMax= 1.29D-03  0.00D+00 EMaxC= 1.00D-01 BMatC= 3.12D-03 BMatP= 1.34D-02
 IDIUse=3 WtCom= 9.87D-01 WtEn= 1.29D-02
 Coeff-Com: -0.556D-01 0.623D-01-0.179D-01-0.536D-04-0.285D-03 0.266D+00
 Coeff-Com:  0.746D+00
 Coeff-En:   0.000D+00 0.000D+00 0.000D+00 0.000D+00 0.000D+00 0.000D+00
 Coeff-En:   0.100D+01
 Coeff:     -0.549D-01 0.615D-01-0.177D-01-0.529D-04-0.281D-03 0.262D+00
 Coeff:      0.749D+00
 Gap=     0.263 Goal=   None    Shift=    0.000
 Gap=     0.227 Goal=   None    Shift=    0.000
 RMSDP=4.13D-04 MaxDP=4.59D-02 DE=-1.44D-03 OVMax= 2.61D-03

 Cycle   8  Pass 1  IDiag  1:
 RMSU=  1.19D-04    CP:  9.15D-01  2.06D+00  5.79D-01  3.94D-01  8.07D-01
                    CP:  8.78D-01  8.53D-01
 E= -1720.71762727923     Delta-E=       -0.000361153678 Rises=F Damp=F
 DIIS: error= 7.03D-04 at cycle   8 NSaved=   8.
 NSaved= 8 IEnMin= 8 EnMin= -1720.71762727923     IErMin= 8 ErrMin= 7.03D-04
 ErrMax= 7.03D-04  0.00D+00 EMaxC= 1.00D-01 BMatC= 7.51D-04 BMatP= 3.12D-03
 IDIUse=3 WtCom= 9.93D-01 WtEn= 7.03D-03
 Coeff-Com: -0.193D-01 0.233D-01-0.812D-02 0.125D-02-0.957D-02-0.403D-01
 Coeff-Com: -0.777D-01 0.113D+01
 Coeff-En:   0.000D+00 0.000D+00 0.000D+00 0.000D+00 0.000D+00 0.000D+00
 Coeff-En:   0.000D+00 0.100D+01
 Coeff:     -0.192D-01 0.231D-01-0.806D-02 0.124D-02-0.950D-02-0.401D-01
 Coeff:     -0.772D-01 0.113D+01
 Gap=     0.265 Goal=   None    Shift=    0.000
 Gap=     0.225 Goal=   None    Shift=    0.000
 RMSDP=4.23D-04 MaxDP=4.62D-02 DE=-3.61D-04 OVMax= 1.97D-03

 Cycle   9  Pass 1  IDiag  1:
 RMSU=  6.00D-05    CP:  9.20D-01  2.08D+00  5.74D-01  3.95D-01  8.06D-01
                    CP:  9.03D-01  9.24D-01  1.26D+00
 E= -1720.71772965532     Delta-E=       -0.000102376096 Rises=F Damp=F
 DIIS: error= 2.23D-04 at cycle   9 NSaved=   9.
 NSaved= 9 IEnMin= 9 EnMin= -1720.71772965532     IErMin= 9 ErrMin= 2.23D-04
 ErrMax= 2.23D-04  0.00D+00 EMaxC= 1.00D-01 BMatC= 7.36D-05 BMatP= 7.51D-04
 IDIUse=3 WtCom= 9.98D-01 WtEn= 2.23D-03
 Coeff-Com: -0.312D-02 0.413D-02 0.156D-02 0.191D-03 0.285D-02-0.581D-01
 Coeff-Com: -0.175D+00 0.344D+00 0.884D+00
 Coeff-En:   0.000D+00 0.000D+00 0.000D+00 0.000D+00 0.000D+00 0.000D+00
 Coeff-En:   0.000D+00 0.000D+00 0.100D+01
 Coeff:     -0.312D-02 0.412D-02 0.156D-02 0.191D-03 0.284D-02-0.580D-01
 Coeff:     -0.174D+00 0.343D+00 0.884D+00
 Gap=     0.265 Goal=   None    Shift=    0.000
 Gap=     0.225 Goal=   None    Shift=    0.000
 RMSDP=1.62D-04 MaxDP=1.56D-02 DE=-1.02D-04 OVMax= 8.26D-04

 Cycle  10  Pass 1  IDiag  1:
 RMSU=  1.89D-05    CP:  9.22D-01  2.09D+00  5.72D-01  3.96D-01  8.06D-01
                    CP:  9.10D-01  9.22D-01  1.47D+00  1.07D+00
 E= -1720.71773971776     Delta-E=       -0.000010062439 Rises=F Damp=F
 DIIS: error= 2.43D-05 at cycle  10 NSaved=  10.
 NSaved=10 IEnMin=10 EnMin= -1720.71773971776     IErMin=10 ErrMin= 2.43D-05
 ErrMax= 2.43D-05  0.00D+00 EMaxC= 1.00D-01 BMatC= 2.00D-06 BMatP= 7.36D-05
 IDIUse=1 WtCom= 1.00D+00 WtEn= 0.00D+00
 Coeff-Com: -0.103D-02 0.139D-02 0.136D-02-0.127D-04 0.249D-02-0.242D-01
 Coeff-Com: -0.741D-01 0.819D-01 0.434D+00 0.578D+00
 Coeff:     -0.103D-02 0.139D-02 0.136D-02-0.127D-04 0.249D-02-0.242D-01
 Coeff:     -0.741D-01 0.819D-01 0.434D+00 0.578D+00
 Gap=     0.266 Goal=   None    Shift=    0.000
 Gap=     0.225 Goal=   None    Shift=    0.000
 RMSDP=1.78D-05 MaxDP=2.66D-03 DE=-1.01D-05 OVMax= 1.30D-04

 Cycle  11  Pass 1  IDiag  1:
 RMSU=  7.76D-06    CP:  9.22D-01  2.09D+00  5.72D-01  3.95D-01  8.06D-01
                    CP:  9.08D-01  9.28D-01  1.49D+00  1.07D+00  8.42D-01
 E= -1720.71774001114     Delta-E=       -0.000000293374 Rises=F Damp=F
 DIIS: error= 6.79D-06 at cycle  11 NSaved=  11.
 NSaved=11 IEnMin=11 EnMin= -1720.71774001114     IErMin=11 ErrMin= 6.79D-06
 ErrMax= 6.79D-06  0.00D+00 EMaxC= 1.00D-01 BMatC= 2.08D-07 BMatP= 2.00D-06
 IDIUse=1 WtCom= 1.00D+00 WtEn= 0.00D+00
 Coeff-Com: -0.130D-03 0.194D-03 0.330D-03-0.267D-04 0.582D-03-0.161D-02
 Coeff-Com: -0.351D-02-0.196D-01 0.454D-01 0.273D+00 0.705D+00
 Coeff:     -0.130D-03 0.194D-03 0.330D-03-0.267D-04 0.582D-03-0.161D-02
 Coeff:     -0.351D-02-0.196D-01 0.454D-01 0.273D+00 0.705D+00
 Gap=     0.266 Goal=   None    Shift=    0.000
 Gap=     0.225 Goal=   None    Shift=    0.000
 RMSDP=3.56D-06 MaxDP=5.62D-04 DE=-2.93D-07 OVMax= 5.95D-05

 Cycle  12  Pass 1  IDiag  1:
 RMSU=  2.30D-06    CP:  9.22D-01  2.09D+00  5.71D-01  3.95D-01  8.06D-01
                    CP:  9.08D-01  9.31D-01  1.50D+00  1.08D+00  9.00D-01
                    CP:  8.16D-01
 E= -1720.71774004996     Delta-E=       -0.000000038824 Rises=F Damp=F
 DIIS: error= 1.04D-06 at cycle  12 NSaved=  12.
 NSaved=12 IEnMin=12 EnMin= -1720.71774004996     IErMin=12 ErrMin= 1.04D-06
 ErrMax= 1.04D-06  0.00D+00 EMaxC= 1.00D-01 BMatC= 4.16D-09 BMatP= 2.08D-07
 IDIUse=1 WtCom= 1.00D+00 WtEn= 0.00D+00
 Coeff-Com:  0.591D-04-0.681D-04-0.394D-04-0.195D-05-0.736D-04 0.130D-02
 Coeff-Com:  0.396D-02-0.908D-02-0.199D-01 0.833D-02 0.118D+00 0.898D+00
 Coeff:      0.591D-04-0.681D-04-0.394D-04-0.195D-05-0.736D-04 0.130D-02
 Coeff:      0.396D-02-0.908D-02-0.199D-01 0.833D-02 0.118D+00 0.898D+00
 Gap=     0.266 Goal=   None    Shift=    0.000
 Gap=     0.225 Goal=   None    Shift=    0.000
 RMSDP=9.04D-07 MaxDP=1.27D-04 DE=-3.88D-08 OVMax= 1.58D-05

 Cycle  13  Pass 1  IDiag  1:
 RMSU=  4.85D-07    CP:  9.22D-01  2.09D+00  5.71D-01  3.95D-01  8.06D-01
                    CP:  9.08D-01  9.31D-01  1.50D+00  1.08D+00  9.13D-01
                    CP:  8.78D-01  1.02D+00
 E= -1720.71774005079     Delta-E=       -0.000000000827 Rises=F Damp=F
 DIIS: error= 8.00D-07 at cycle  13 NSaved=  13.
 NSaved=13 IEnMin=13 EnMin= -1720.71774005079     IErMin=13 ErrMin= 8.00D-07
 ErrMax= 8.00D-07  0.00D+00 EMaxC= 1.00D-01 BMatC= 2.48D-09 BMatP= 4.16D-09
 IDIUse=1 WtCom= 1.00D+00 WtEn= 0.00D+00
 Coeff-Com:  0.409D-04-0.503D-04-0.495D-04 0.702D-06-0.872D-04 0.803D-03
 Coeff-Com:  0.218D-02-0.235D-02-0.128D-01-0.187D-01-0.487D-02 0.421D+00
 Coeff-Com:  0.615D+00
 Coeff:      0.409D-04-0.503D-04-0.495D-04 0.702D-06-0.872D-04 0.803D-03
 Coeff:      0.218D-02-0.235D-02-0.128D-01-0.187D-01-0.487D-02 0.421D+00
 Coeff:      0.615D+00
 Gap=     0.266 Goal=   None    Shift=    0.000
 Gap=     0.225 Goal=   None    Shift=    0.000
 RMSDP=3.65D-07 MaxDP=3.63D-05 DE=-8.27D-10 OVMax= 5.51D-06

 Cycle  14  Pass 1  IDiag  1:
 RMSU=  1.53D-07    CP:  9.22D-01  2.09D+00  5.71D-01  3.95D-01  8.06D-01
                    CP:  9.08D-01  9.31D-01  1.50D+00  1.08D+00  9.17D-01
                    CP:  8.69D-01  1.08D+00  9.15D-01
 E= -1720.71774005111     Delta-E=       -0.000000000322 Rises=F Damp=F
 DIIS: error= 4.32D-07 at cycle  14 NSaved=  14.
 NSaved=14 IEnMin=14 EnMin= -1720.71774005111     IErMin=14 ErrMin= 4.32D-07
 ErrMax= 4.32D-07  0.00D+00 EMaxC= 1.00D-01 BMatC= 5.08D-10 BMatP= 2.48D-09
 IDIUse=1 WtCom= 1.00D+00 WtEn= 0.00D+00
 Coeff-Com:  0.133D-04-0.164D-04-0.179D-04 0.390D-06-0.333D-04 0.178D-03
 Coeff-Com:  0.368D-03 0.544D-03-0.256D-02-0.995D-02-0.214D-01 0.557D-01
 Coeff-Com:  0.314D+00 0.663D+00
 Coeff:      0.133D-04-0.164D-04-0.179D-04 0.390D-06-0.333D-04 0.178D-03
 Coeff:      0.368D-03 0.544D-03-0.256D-02-0.995D-02-0.214D-01 0.557D-01
 Coeff:      0.314D+00 0.663D+00
 Gap=     0.266 Goal=   None    Shift=    0.000
 Gap=     0.225 Goal=   None    Shift=    0.000
 RMSDP=2.92D-07 MaxDP=3.12D-05 DE=-3.22D-10 OVMax= 1.92D-06

 Cycle  15  Pass 1  IDiag  1:
 RMSU=  7.38D-08    CP:  9.22D-01  2.09D+00  5.71D-01  3.95D-01  8.06D-01
                    CP:  9.08D-01  9.31D-01  1.50D+00  1.08D+00  9.16D-01
                    CP:  8.71D-01  1.08D+00  9.57D-01  6.72D-01
 E= -1720.71774005119     Delta-E=       -0.000000000083 Rises=F Damp=F
 DIIS: error= 1.05D-07 at cycle  15 NSaved=  15.
 NSaved=15 IEnMin=15 EnMin= -1720.71774005119     IErMin=15 ErrMin= 1.05D-07
 ErrMax= 1.05D-07  0.00D+00 EMaxC= 1.00D-01 BMatC= 2.25D-11 BMatP= 5.08D-10
 IDIUse=1 WtCom= 1.00D+00 WtEn= 0.00D+00
 Coeff-Com:  0.239D-06 0.136D-06 0.441D-06 0.150D-07-0.253D-05-0.396D-04
 Coeff-Com: -0.122D-03 0.353D-03 0.689D-03-0.442D-04-0.317D-02-0.279D-01
 Coeff-Com:  0.467D-02 0.134D+00 0.891D+00
 Coeff:      0.239D-06 0.136D-06 0.441D-06 0.150D-07-0.253D-05-0.396D-04
 Coeff:     -0.122D-03 0.353D-03 0.689D-03-0.442D-04-0.317D-02-0.279D-01
 Coeff:      0.467D-02 0.134D+00 0.891D+00
 Gap=     0.266 Goal=   None    Shift=    0.000
 Gap=     0.225 Goal=   None    Shift=    0.000
 RMSDP=1.10D-07 MaxDP=1.18D-05 DE=-8.28D-11 OVMax= 8.02D-07

 Cycle  16  Pass 1  IDiag  1:
 RMSU=  1.42D-08    CP:  9.22D-01  2.09D+00  5.71D-01  3.95D-01  8.06D-01
                    CP:  9.08D-01  9.31D-01  1.50D+00  1.08D+00  9.15D-01
                    CP:  8.70D-01  1.07D+00  9.75D-01  7.10D-01  1.07D+00
 E= -1720.71774005119     Delta-E=       -0.000000000003 Rises=F Damp=F
 DIIS: error= 9.63D-09 at cycle  16 NSaved=  16.
 NSaved=16 IEnMin=16 EnMin= -1720.71774005119     IErMin=16 ErrMin= 9.63D-09
 ErrMax= 9.63D-09  0.00D+00 EMaxC= 1.00D-01 BMatC= 5.16D-13 BMatP= 2.25D-11
 IDIUse=1 WtCom= 1.00D+00 WtEn= 0.00D+00
 Coeff-Com: -0.908D-06 0.107D-05 0.127D-05-0.801D-07 0.193D-05-0.135D-04
 Coeff-Com: -0.309D-04 0.291D-05 0.223D-03 0.536D-03 0.639D-03-0.808D-02
 Coeff-Com: -0.180D-01-0.166D-01 0.156D+00 0.886D+00
 Coeff:     -0.908D-06 0.107D-05 0.127D-05-0.801D-07 0.193D-05-0.135D-04
 Coeff:     -0.309D-04 0.291D-05 0.223D-03 0.536D-03 0.639D-03-0.808D-02
 Coeff:     -0.180D-01-0.166D-01 0.156D+00 0.886D+00
 Gap=     0.266 Goal=   None    Shift=    0.000
 Gap=     0.225 Goal=   None    Shift=    0.000
 RMSDP=1.01D-08 MaxDP=1.07D-06 DE=-2.73D-12 OVMax= 1.49D-07

 Cycle  17  Pass 1  IDiag  1:
 RMSU=  5.86D-09    CP:  9.22D-01  2.09D+00  5.71D-01  3.95D-01  8.06D-01
                    CP:  9.08D-01  9.31D-01  1.50D+00  1.08D+00  9.15D-01
                    CP:  8.70D-01  1.07D+00  9.79D-01  7.29D-01  1.08D+00
                    CP:  9.65D-01
 E= -1720.71774005120     Delta-E=       -0.000000000007 Rises=F Damp=F
 DIIS: error= 1.32D-08 at cycle  17 NSaved=  17.
 NSaved=17 IEnMin=17 EnMin= -1720.71774005120     IErMin=16 ErrMin= 9.63D-09
 ErrMax= 1.32D-08  0.00D+00 EMaxC= 1.00D-01 BMatC= 3.85D-13 BMatP= 5.16D-13
 IDIUse=1 WtCom= 1.00D+00 WtEn= 0.00D+00
 Coeff-Com: -0.359D-06 0.401D-06 0.370D-06-0.258D-07 0.891D-06-0.643D-06
 Coeff-Com:  0.141D-05-0.406D-04 0.129D-05 0.160D-03 0.460D-03 0.119D-03
 Coeff-Com: -0.562D-02-0.162D-01-0.284D-01 0.276D+00 0.774D+00
 Coeff:     -0.359D-06 0.401D-06 0.370D-06-0.258D-07 0.891D-06-0.643D-06
 Coeff:      0.141D-05-0.406D-04 0.129D-05 0.160D-03 0.460D-03 0.119D-03
 Coeff:     -0.562D-02-0.162D-01-0.284D-01 0.276D+00 0.774D+00
 Gap=     0.266 Goal=   None    Shift=    0.000
 Gap=     0.225 Goal=   None    Shift=    0.000
 RMSDP=9.91D-09 MaxDP=1.22D-06 DE=-7.28D-12 OVMax= 4.65D-08

 Cycle  18  Pass 1  IDiag  1:
 RMSU=  1.61D-09    CP:  9.22D-01  2.09D+00  5.71D-01  3.95D-01  8.06D-01
                    CP:  9.08D-01  9.31D-01  1.50D+00  1.08D+00  9.15D-01
                    CP:  8.70D-01  1.07D+00  9.79D-01  7.32D-01  1.08D+00
                    CP:  1.03D+00  1.06D+00
 E= -1720.71774005120     Delta-E=        0.000000000005 Rises=F Damp=F
 DIIS: error= 4.35D-09 at cycle  18 NSaved=  18.
 NSaved=18 IEnMin=17 EnMin= -1720.71774005120     IErMin=18 ErrMin= 4.35D-09
 ErrMax= 4.35D-09  0.00D+00 EMaxC= 1.00D-01 BMatC= 7.45D-14 BMatP= 3.85D-13
 IDIUse=1 WtCom= 1.00D+00 WtEn= 0.00D+00
 Coeff-Com: -0.991D-08 0.269D-08-0.656D-07 0.609D-08 0.110D-06 0.258D-05
 Coeff-Com:  0.724D-05-0.264D-04-0.502D-04-0.285D-04 0.121D-03 0.190D-02
 Coeff-Com:  0.705D-03-0.588D-02-0.511D-01-0.408D-01 0.456D+00 0.639D+00
 Coeff:     -0.991D-08 0.269D-08-0.656D-07 0.609D-08 0.110D-06 0.258D-05
 Coeff:      0.724D-05-0.264D-04-0.502D-04-0.285D-04 0.121D-03 0.190D-02
 Coeff:      0.705D-03-0.588D-02-0.511D-01-0.408D-01 0.456D+00 0.639D+00
 Gap=     0.266 Goal=   None    Shift=    0.000
 Gap=     0.225 Goal=   None    Shift=    0.000
 RMSDP=4.26D-09 MaxDP=5.09D-07 DE= 5.46D-12 OVMax= 2.28D-08

 SCF Done:  E(UX3LYP) =  -1720.71774005     A.U. after   18 cycles
            NFock= 18  Conv=0.43D-08     -V/T= 2.0011
 <Sx>= 0.0000 <Sy>= 0.0000 <Sz>= 2.5000 <S**2>= 8.7538 S= 2.5006
 <L.S>=  0.00000000000    
 KE= 1.718844063535D+03 PE=-5.572286177300D+03 EE= 1.364936073494D+03
 Annihilation of the first spin contaminant:
 S**2 before annihilation     8.7538,   after     8.7500
 Leave Link  502 at Wed Mar  5 20:54:23 2025, MaxMem= 13421772800 cpu:            3395.5 elap:              29.9
 (Enter /gpfs/fs1/soft/improv/software/custom-built/gaussian/g16/l508.exe)
 QCSCF skips out because SCF is already converged.
 Leave Link  508 at Wed Mar  5 20:54:23 2025, MaxMem= 13421772800 cpu:               0.2 elap:               0.0
 (Enter /gpfs/fs1/soft/improv/software/custom-built/gaussian/g16/l801.exe)
 DoSCS=F DFT=T ScalE2(SS,OS)=  1.000000  1.000000
 Range of M.O.s used for correlation:     1   317
 NBasis=   317 NAE=    44 NBE=    39 NFC=     0 NFV=     0
 NROrb=    317 NOA=    44 NOB=    39 NVA=   273 NVB=   278

 **** Warning!!: The largest alpha MO coefficient is  0.22662579D+03


 **** Warning!!: The largest beta MO coefficient is  0.21325894D+03

 Leave Link  801 at Wed Mar  5 20:54:23 2025, MaxMem= 13421772800 cpu:               0.4 elap:               0.0
 (Enter /gpfs/fs1/soft/improv/software/custom-built/gaussian/g16/l1101.exe)
 Using compressed storage, NAtomX=    19.
 Will process     20 centers per pass.
 Leave Link 1101 at Wed Mar  5 20:54:24 2025, MaxMem= 13421772800 cpu:              51.5 elap:               0.5
 (Enter /gpfs/fs1/soft/improv/software/custom-built/gaussian/g16/l1102.exe)
 Symmetrizing basis deriv contribution to polar:
 IMax=3 JMax=2 DiffMx= 0.00D+00
 Leave Link 1102 at Wed Mar  5 20:54:24 2025, MaxMem= 13421772800 cpu:               1.0 elap:               0.0
 (Enter /gpfs/fs1/soft/improv/software/custom-built/gaussian/g16/l1110.exe)
 Forming Gx(P) for the SCF density, NAtomX=    19.
 Integral derivatives from FoFJK, PRISM(SPDF).
 Do as many integral derivatives as possible in FoFJK.
 G2DrvN: MDV=   13421770631.
 G2DrvN: will do    20 centers at a time, making    1 passes.
 Calling FoFCou, ICntrl=  3107 FMM=F I1Cent=   0 AccDes= 0.00D+00.
 FoFJK:  IHMeth= 1 ICntrl=    3107 DoSepK=F KAlg= 0 I1Cent=           0 FoldK=F
 IRaf=         0 NMat=       1 IRICut=       1 DoRegI=T DoRafI=F ISym2E= 0 IDoP0=0 IntGTp=1.
 FoFCou: FMM=F IPFlag=           0 FMFlag=      100000 FMFlg1=           0
         NFxFlg=           0 DoJE=F BraDBF=F KetDBF=F FulRan=T
         wScrn=  0.000000 ICntrl=      3107 IOpCl=  1 I1Cent=           0 NGrid=           0
         NMat0=    1 NMatS0=      1 NMatT0=    0 NMatD0=    1 NMtDS0=    0 NMtDT0=    0
 Symmetry not used in FoFCou.
 End of G2Drv F.D. properties file   721 does not exist.
 End of G2Drv F.D. properties file   722 does not exist.
 End of G2Drv F.D. properties file   788 does not exist.
 Leave Link 1110 at Wed Mar  5 20:54:39 2025, MaxMem= 13421772800 cpu:            1894.4 elap:              15.1
 (Enter /gpfs/fs1/soft/improv/software/custom-built/gaussian/g16/l1002.exe)
 Minotr:  UHF open shell wavefunction.
          IDoAtm=1111111111111111111
          Direct CPHF calculation.
          Differentiating once with respect to electric field.
                with respect to dipole field.
          Differentiating once with respect to nuclear coordinates.
          Requested convergence is 1.0D-08 RMS, and 1.0D-07 maximum.
          Secondary convergence is 1.0D-12 RMS, and 1.0D-12 maximum.
          NewPWx=T KeepS1=F KeepF1=F KeepIn=T MapXYZ=F SortEE=F KeepMc=T.
         6034 words used for storage of precomputed grid.
 Two-electron integrals replicated using symmetry.
          MDV=   13421772800 using IRadAn=       1.
          Solving linear equations simultaneously, MaxMat=     384.
 FoF2E skips out because all densities are zero.
 CalDSu exits because no D1Ps are significant.
 FoFJK:  IHMeth= 1 ICntrl=       0 DoSepK=F KAlg= 0 I1Cent=           0 FoldK=F
 IRaf= 990000000 NMat=      57 IRICut=     142 DoRegI=T DoRafI=T ISym2E= 2 IDoP0=3 IntGTp=2.
 FoFCou: FMM=F IPFlag=           0 FMFlag=      100000 FMFlg1=           0
         NFxFlg=           0 DoJE=F BraDBF=F KetDBF=F FulRan=T
         wScrn=  0.000000 ICntrl=         0 IOpCl=  1 I1Cent=           0 NGrid=           0
         NMat0=   57 NMatS0=     57 NMatT0=    0 NMatD0=   57 NMtDS0=    0 NMtDT0=    0
 Integrals replicated using symmetry in FoFCou.
 Raff kept on since  98.43% of shell-pairs survive, threshold=   0.20 IRatSp=98.
          There are    60 degrees of freedom in the 1st order CPHF.  IDoFFX=6 NUNeed=     3.
     57 vectors produced by pass  0 Test12= 3.81D-14 1.67D-09 XBig12= 5.65D+01 1.94D+00.
 AX will form    57 AO Fock derivatives at one time.
     57 vectors produced by pass  1 Test12= 3.81D-14 1.67D-09 XBig12= 4.94D+00 2.84D-01.
     57 vectors produced by pass  2 Test12= 3.81D-14 1.67D-09 XBig12= 7.58D-02 4.71D-02.
     57 vectors produced by pass  3 Test12= 3.81D-14 1.67D-09 XBig12= 1.15D-03 6.78D-03.
     57 vectors produced by pass  4 Test12= 3.81D-14 1.67D-09 XBig12= 1.29D-05 4.71D-04.
     57 vectors produced by pass  5 Test12= 3.81D-14 1.67D-09 XBig12= 7.59D-08 4.05D-05.
     49 vectors produced by pass  6 Test12= 3.81D-14 1.67D-09 XBig12= 2.53D-10 1.29D-06.
     10 vectors produced by pass  7 Test12= 3.81D-14 1.67D-09 XBig12= 6.30D-13 7.44D-08.
      3 vectors produced by pass  8 Test12= 3.81D-14 1.67D-09 XBig12= 1.99D-15 5.11D-09.
 InvSVY:  IOpt=1 It=  1 EMax= 7.11D-15
 Solved reduced A of dimension   404 with    60 vectors.
 FullF1:  Do perturbations      1 to       3.
 Isotropic polarizability for W=    0.000000       50.11 Bohr**3.
 End of Minotr F.D. properties file   721 does not exist.
 End of Minotr F.D. properties file   722 does not exist.
 End of Minotr F.D. properties file   788 does not exist.
 Leave Link 1002 at Wed Mar  5 20:55:46 2025, MaxMem= 13421772800 cpu:            8051.5 elap:              66.5
 (Enter /gpfs/fs1/soft/improv/software/custom-built/gaussian/g16/l601.exe)
 Copying SCF densities to generalized density rwf, IOpCl= 1 IROHF=0.

 **********************************************************************

            Population analysis using the SCF Density.

 **********************************************************************

 Orbital symmetries:
 Alpha Orbitals:
       Occupied  (A) (A) (A) (A) (A) (A) (A) (A) (A) (A) (A) (A)
                 (A) (A) (A) (A) (A) (A) (A) (A) (A) (A) (A) (A)
                 (A) (A) (A) (A) (A) (A) (A) (A) (A) (A) (A) (A)
                 (A) (A) (A) (A) (A) (A) (A) (A)
       Virtual   (A) (A) (A) (A) (A) (A) (A) (A) (A) (A) (A) (A)
                 (A) (A) (A) (A) (A) (A) (A) (A) (A) (A) (A) (A)
                 (A) (A) (A) (A) (A) (A) (A) (A) (A) (A) (A) (A)
                 (A) (A) (A) (A) (A) (A) (A) (A) (A) (A) (A) (A)
                 (A) (A) (A) (A) (A) (A) (A) (A) (A) (A) (A) (A)
                 (A) (A) (A) (A) (A) (A) (A) (A) (A) (A) (A) (A)
                 (A) (A) (A) (A) (A) (A) (A) (A) (A) (A) (A) (A)
                 (A) (A) (A) (A) (A) (A) (A) (A) (A) (A) (A) (A)
                 (A) (A) (A) (A) (A) (A) (A) (A) (A) (A) (A) (A)
                 (A) (A) (A) (A) (A) (A) (A) (A) (A) (A) (A) (A)
                 (A) (A) (A) (A) (A) (A) (A) (A) (A) (A) (A) (A)
                 (A) (A) (A) (A) (A) (A) (A) (A) (A) (A) (A) (A)
                 (A) (A) (A) (A) (A) (A) (A) (A) (A) (A) (A) (A)
                 (A) (A) (A) (A) (A) (A) (A) (A) (A) (A) (A) (A)
                 (A) (A) (A) (A) (A) (A) (A) (A) (A) (A) (A) (A)
                 (A) (A) (A) (A) (A) (A) (A) (A) (A) (A) (A) (A)
                 (A) (A) (A) (A) (A) (A) (A) (A) (A) (A) (A) (A)
                 (A) (A) (A) (A) (A) (A) (A) (A) (A) (A) (A) (A)
                 (A) (A) (A) (A) (A) (A) (A) (A) (A) (A) (A) (A)
                 (A) (A) (A) (A) (A) (A) (A) (A) (A) (A) (A) (A)
                 (A) (A) (A) (A) (A) (A) (A) (A) (A) (A) (A) (A)
                 (A) (A) (A) (A) (A) (A) (A) (A) (A) (A) (A) (A)
                 (A) (A) (A) (A) (A) (A) (A) (A) (A)
 Beta  Orbitals:
       Occupied  (A) (A) (A) (A) (A) (A) (A) (A) (A) (A) (A) (A)
                 (A) (A) (A) (A) (A) (A) (A) (A) (A) (A) (A) (A)
                 (A) (A) (A) (A) (A) (A) (A) (A) (A) (A) (A) (A)
                 (A) (A) (A)
       Virtual   (A) (A) (A) (A) (A) (A) (A) (A) (A) (A) (A) (A)
                 (A) (A) (A) (A) (A) (A) (A) (A) (A) (A) (A) (A)
                 (A) (A) (A) (A) (A) (A) (A) (A) (A) (A) (A) (A)
                 (A) (A) (A) (A) (A) (A) (A) (A) (A) (A) (A) (A)
                 (A) (A) (A) (A) (A) (A) (A) (A) (A) (A) (A) (A)
                 (A) (A) (A) (A) (A) (A) (A) (A) (A) (A) (A) (A)
                 (A) (A) (A) (A) (A) (A) (A) (A) (A) (A) (A) (A)
                 (A) (A) (A) (A) (A) (A) (A) (A) (A) (A) (A) (A)
                 (A) (A) (A) (A) (A) (A) (A) (A) (A) (A) (A) (A)
                 (A) (A) (A) (A) (A) (A) (A) (A) (A) (A) (A) (A)
                 (A) (A) (A) (A) (A) (A) (A) (A) (A) (A) (A) (A)
                 (A) (A) (A) (A) (A) (A) (A) (A) (A) (A) (A) (A)
                 (A) (A) (A) (A) (A) (A) (A) (A) (A) (A) (A) (A)
                 (A) (A) (A) (A) (A) (A) (A) (A) (A) (A) (A) (A)
                 (A) (A) (A) (A) (A) (A) (A) (A) (A) (A) (A) (A)
                 (A) (A) (A) (A) (A) (A) (A) (A) (A) (A) (A) (A)
                 (A) (A) (A) (A) (A) (A) (A) (A) (A) (A) (A) (A)
                 (A) (A) (A) (A) (A) (A) (A) (A) (A) (A) (A) (A)
                 (A) (A) (A) (A) (A) (A) (A) (A) (A) (A) (A) (A)
                 (A) (A) (A) (A) (A) (A) (A) (A) (A) (A) (A) (A)
                 (A) (A) (A) (A) (A) (A) (A) (A) (A) (A) (A) (A)
                 (A) (A) (A) (A) (A) (A) (A) (A) (A) (A) (A) (A)
                 (A) (A) (A) (A) (A) (A) (A) (A) (A) (A) (A) (A)
                 (A) (A)
 The electronic state is 6-A.
 Alpha  occ. eigenvalues -- -256.86781 -30.81709 -26.66241 -26.66169 -26.66127
 Alpha  occ. eigenvalues --  -19.80915 -19.80894 -19.79970 -19.79668 -19.77646
 Alpha  occ. eigenvalues --  -19.76908  -4.27019  -3.04334  -3.04102  -3.03973
 Alpha  occ. eigenvalues --   -1.69262  -1.66688  -1.66111  -1.65580  -1.63719
 Alpha  occ. eigenvalues --   -1.62896  -1.21240  -1.19742  -1.17494  -1.16811
 Alpha  occ. eigenvalues --   -1.15333  -1.14385  -1.14161  -1.13422  -1.11788
 Alpha  occ. eigenvalues --   -1.08163  -1.06018  -1.04178  -1.03820  -1.02079
 Alpha  occ. eigenvalues --   -1.01694  -0.97867  -0.97383  -0.95911  -0.94726
 Alpha  occ. eigenvalues --   -0.92618  -0.91996  -0.82837  -0.82544
 Alpha virt. eigenvalues --   -0.55991  -0.50331  -0.48128  -0.46765  -0.43465
 Alpha virt. eigenvalues --   -0.42367  -0.40979  -0.40556  -0.37697  -0.35996
 Alpha virt. eigenvalues --   -0.35561  -0.34210  -0.32602  -0.31690  -0.30832
 Alpha virt. eigenvalues --   -0.29165  -0.28480  -0.28162  -0.27667  -0.27318
 Alpha virt. eigenvalues --   -0.25433  -0.24945  -0.24555  -0.23891  -0.22328
 Alpha virt. eigenvalues --   -0.22079  -0.20639  -0.19705  -0.19142  -0.18661
 Alpha virt. eigenvalues --   -0.18203  -0.17092  -0.15349  -0.14739  -0.13869
 Alpha virt. eigenvalues --   -0.12954  -0.12540  -0.11610  -0.10937  -0.09982
 Alpha virt. eigenvalues --   -0.08467  -0.07888  -0.07339  -0.06173  -0.05650
 Alpha virt. eigenvalues --   -0.04950  -0.01729  -0.00964   0.00909   0.05858
 Alpha virt. eigenvalues --    0.07748   0.09687   0.10368   0.21390   0.22570
 Alpha virt. eigenvalues --    0.23996   0.26146   0.28967   0.30481   0.31722
 Alpha virt. eigenvalues --    0.33047   0.34007   0.34515   0.35641   0.35882
 Alpha virt. eigenvalues --    0.38206   0.40296   0.41133   0.42091   0.43469
 Alpha virt. eigenvalues --    0.45135   0.45981   0.46696   0.48188   0.51476
 Alpha virt. eigenvalues --    0.52377   0.52510   0.53895   0.54678   0.55055
 Alpha virt. eigenvalues --    0.55776   0.57856   0.60338   0.62028   0.63042
 Alpha virt. eigenvalues --    0.64295   0.67294   0.68696   0.70097   0.72518
 Alpha virt. eigenvalues --    0.74273   0.76018   0.77125   0.78456   0.79725
 Alpha virt. eigenvalues --    0.80683   0.84250   0.85955   0.86804   0.88148
 Alpha virt. eigenvalues --    0.89988   0.91391   0.92374   1.06508   1.07772
 Alpha virt. eigenvalues --    1.14982   1.15747   1.18942   1.20340   1.22564
 Alpha virt. eigenvalues --    1.23337   1.24011   1.25370   1.28120   1.30086
 Alpha virt. eigenvalues --    1.33819   1.35957   1.37510   1.40473   1.43165
 Alpha virt. eigenvalues --    1.49006   1.53798   1.60433   1.68833   1.70739
 Alpha virt. eigenvalues --    1.72565   1.75568   1.76322   1.79214   1.84008
 Alpha virt. eigenvalues --    1.85170   1.85295   1.88099   1.88666   1.95846
 Alpha virt. eigenvalues --    1.98017   2.01950   2.05420   2.08914   2.12078
 Alpha virt. eigenvalues --    2.14574   2.15605   2.20037   2.23274   2.26476
 Alpha virt. eigenvalues --    2.28030   2.32519   2.34139   2.36143   2.38991
 Alpha virt. eigenvalues --    2.39882   2.41007   2.43631   2.43810   2.46555
 Alpha virt. eigenvalues --    2.46891   2.48252   2.49869   2.50688   2.52320
 Alpha virt. eigenvalues --    2.52864   2.53883   2.55669   2.57112   2.62310
 Alpha virt. eigenvalues --    2.67573   2.74841   2.77594   2.78617   2.80187
 Alpha virt. eigenvalues --    2.89028   3.14397   3.44579   3.46161   3.51192
 Alpha virt. eigenvalues --    3.54974   3.56893   3.62165   3.63059   3.64334
 Alpha virt. eigenvalues --    3.65403   3.67599   3.68793   3.69767   3.72803
 Alpha virt. eigenvalues --    3.73367   3.74778   3.74931   3.78045   3.78686
 Alpha virt. eigenvalues --    3.79775   3.82169   3.85038   3.85348   3.89748
 Alpha virt. eigenvalues --    3.92714   3.93635   3.95455   3.98335   3.99925
 Alpha virt. eigenvalues --    4.01464   4.03743   4.06941   4.10398   4.14350
 Alpha virt. eigenvalues --    4.19103   4.21155   4.21537   4.24985   4.27166
 Alpha virt. eigenvalues --    4.32508   4.37285   4.38478   4.41510   4.42409
 Alpha virt. eigenvalues --    4.43809   4.45717   4.49186   4.60473   4.65430
 Alpha virt. eigenvalues --    4.68043   4.68650   4.72044   4.74788   4.81375
 Alpha virt. eigenvalues --    4.85504   4.86224   4.87588   4.88578   4.89429
 Alpha virt. eigenvalues --    4.91443   4.91742   4.92489   4.93743   4.98639
 Alpha virt. eigenvalues --    4.99358   5.05875   5.07486   5.08984   5.10930
 Alpha virt. eigenvalues --    5.12381   5.16379   5.17263   5.19272   5.22483
 Alpha virt. eigenvalues --    5.25649   5.28068   5.29737   5.30907   5.32751
 Alpha virt. eigenvalues --    5.35061   5.36200   5.38135   5.38600   5.42281
 Alpha virt. eigenvalues --    5.46177   5.47925   5.60254   5.61341   6.00642
 Alpha virt. eigenvalues --    6.94734   6.97413   6.98712   7.06687   7.09708
 Alpha virt. eigenvalues --    7.24344  13.34655  13.36782  13.37772  13.92848
 Alpha virt. eigenvalues --   13.98494  14.03574  25.58302
  Beta  occ. eigenvalues -- -256.86654 -30.72336 -26.58421 -26.58353 -26.58315
  Beta  occ. eigenvalues --  -19.80548 -19.80524 -19.79578 -19.79268 -19.77199
  Beta  occ. eigenvalues --  -19.76455  -4.04332  -2.80374  -2.80205  -2.80080
  Beta  occ. eigenvalues --   -1.68418  -1.65814  -1.65179  -1.64658  -1.62664
  Beta  occ. eigenvalues --   -1.61815  -1.20073  -1.18515  -1.16945  -1.16051
  Beta  occ. eigenvalues --   -1.14219  -1.12862  -1.10168  -1.07808  -1.06826
  Beta  occ. eigenvalues --   -1.04011  -1.03698  -1.01244  -1.00686  -0.97128
  Beta  occ. eigenvalues --   -0.95601  -0.94132  -0.92430  -0.91161
  Beta virt. eigenvalues --   -0.68630  -0.68140  -0.67209  -0.57702  -0.57523
  Beta virt. eigenvalues --   -0.55756  -0.50119  -0.47867  -0.46560  -0.43049
  Beta virt. eigenvalues --   -0.41937  -0.40697  -0.40293  -0.37323  -0.35718
  Beta virt. eigenvalues --   -0.35258  -0.33856  -0.32374  -0.31588  -0.30637
  Beta virt. eigenvalues --   -0.28882  -0.28226  -0.27954  -0.27328  -0.27032
  Beta virt. eigenvalues --   -0.25221  -0.24520  -0.24318  -0.23427  -0.21840
  Beta virt. eigenvalues --   -0.21422  -0.20314  -0.18978  -0.18573  -0.17985
  Beta virt. eigenvalues --   -0.17236  -0.16758  -0.14917  -0.14339  -0.13189
  Beta virt. eigenvalues --   -0.12532  -0.11959  -0.10681  -0.10113  -0.08918
  Beta virt. eigenvalues --   -0.08019  -0.07259  -0.06863  -0.05223  -0.05035
  Beta virt. eigenvalues --   -0.03893  -0.01174   0.00077   0.02024   0.07237
  Beta virt. eigenvalues --    0.09054   0.09862   0.10562   0.21775   0.23004
  Beta virt. eigenvalues --    0.24582   0.26774   0.29492   0.30907   0.32500
  Beta virt. eigenvalues --    0.33493   0.34704   0.35056   0.35958   0.36574
  Beta virt. eigenvalues --    0.38471   0.40883   0.41614   0.42617   0.43881
  Beta virt. eigenvalues --    0.45512   0.46350   0.47134   0.48653   0.52274
  Beta virt. eigenvalues --    0.52935   0.53111   0.54333   0.55336   0.55636
  Beta virt. eigenvalues --    0.56336   0.58544   0.60863   0.62693   0.63736
  Beta virt. eigenvalues --    0.64909   0.68082   0.69618   0.71311   0.73786
  Beta virt. eigenvalues --    0.75397   0.77239   0.78591   0.79663   0.80689
  Beta virt. eigenvalues --    0.81866   0.85057   0.87592   0.88861   0.90280
  Beta virt. eigenvalues --    0.91602   0.92589   0.93957   1.09172   1.10034
  Beta virt. eigenvalues --    1.17414   1.17733   1.20818   1.21912   1.25349
  Beta virt. eigenvalues --    1.25770   1.27093   1.27852   1.31973   1.32792
  Beta virt. eigenvalues --    1.36929   1.37895   1.39777   1.43036   1.45011
  Beta virt. eigenvalues --    1.49796   1.55481   1.61699   1.69204   1.71158
  Beta virt. eigenvalues --    1.73141   1.76164   1.76768   1.79827   1.84751
  Beta virt. eigenvalues --    1.85910   1.86220   1.88712   1.89109   1.96758
  Beta virt. eigenvalues --    1.99774   2.02429   2.06215   2.09476   2.13391
  Beta virt. eigenvalues --    2.16223   2.16510   2.21271   2.25190   2.28271
  Beta virt. eigenvalues --    2.29892   2.34452   2.36765   2.38753   2.39880
  Beta virt. eigenvalues --    2.40917   2.41957   2.44409   2.44645   2.47274
  Beta virt. eigenvalues --    2.48054   2.49024   2.51271   2.52937   2.53128
  Beta virt. eigenvalues --    2.54916   2.55316   2.57188   2.59097   2.63089
  Beta virt. eigenvalues --    2.68200   2.75930   2.78977   2.80578   2.82803
  Beta virt. eigenvalues --    2.91227   3.17297   3.47829   3.49398   3.52266
  Beta virt. eigenvalues --    3.56046   3.57792   3.63349   3.64352   3.66074
  Beta virt. eigenvalues --    3.68727   3.69812   3.70644   3.71976   3.75978
  Beta virt. eigenvalues --    3.77497   3.77909   3.78328   3.80157   3.83470
  Beta virt. eigenvalues --    3.84803   3.85472   3.87937   3.89211   3.93592
  Beta virt. eigenvalues --    3.94853   3.96600   3.97319   4.00401   4.03241
  Beta virt. eigenvalues --    4.03518   4.09088   4.15403   4.18976   4.19983
  Beta virt. eigenvalues --    4.23269   4.26024   4.26934   4.28667   4.29441
  Beta virt. eigenvalues --    4.35238   4.41510   4.41898   4.43784   4.45029
  Beta virt. eigenvalues --    4.46841   4.48941   4.53433   4.61771   4.67269
  Beta virt. eigenvalues --    4.69509   4.70021   4.73419   4.76534   4.83119
  Beta virt. eigenvalues --    4.86326   4.87307   4.88360   4.89148   4.91202
  Beta virt. eigenvalues --    4.92461   4.93137   4.93780   4.95525   5.00787
  Beta virt. eigenvalues --    5.01587   5.07561   5.09137   5.10506   5.12628
  Beta virt. eigenvalues --    5.14859   5.18488   5.19685   5.21281   5.24706
  Beta virt. eigenvalues --    5.26818   5.29243   5.31359   5.32603   5.34159
  Beta virt. eigenvalues --    5.36549   5.37673   5.40062   5.40438   5.43091
  Beta virt. eigenvalues --    5.46895   5.48688   5.61554   5.62538   6.03165
  Beta virt. eigenvalues --    6.95579   6.98264   6.99550   7.07467   7.10483
  Beta virt. eigenvalues --    7.24955  13.35105  13.37217  13.38208  13.93311
  Beta virt. eigenvalues --   13.98966  14.04037  25.67049
          Condensed to atoms (all electrons):
               1          2          3          4          5          6
     1  Fe  24.781143  -0.045515  -0.014707  -0.022887  -0.013971  -0.048844
     2  O   -0.045515   8.218280   0.317549  -0.051405  -0.000111  -0.053357
     3  H   -0.014707   0.317549   0.251605   0.000256  -0.000019   0.001308
     4  O   -0.022887  -0.051405   0.000256   8.227248   0.312432  -0.051280
     5  H   -0.013971  -0.000111  -0.000019   0.312432   0.279173   0.002726
     6  O   -0.048844  -0.053357   0.001308  -0.051280   0.002726   8.241013
     7  H   -0.009972  -0.000245  -0.000027  -0.000481  -0.000311   0.312385
     8  O   -0.062614   0.048900  -0.000859  -0.058757   0.004358  -0.065446
     9  H   -0.010567  -0.000759  -0.000001  -0.000161   0.000028   0.000942
    10  O   -0.028695  -0.052240   0.001056   0.036264  -0.001084  -0.058702
    11  H   -0.005391   0.001571  -0.000282  -0.000656   0.000011  -0.000640
    12  O   -0.039056  -0.037887   0.001029  -0.049617  -0.000402   0.047705
    13  H   -0.015870  -0.000607  -0.000043   0.001420  -0.000022  -0.000771
    14  H    0.001439   0.000592   0.000004   0.001203   0.000039  -0.001129
    15  H   -0.007703   0.001675   0.000018   0.314089  -0.022511  -0.006088
    16  H   -0.006265   0.307573  -0.014800  -0.000269  -0.000015  -0.000648
    17  H   -0.014664  -0.001125   0.000087  -0.000897  -0.000005   0.003053
    18  H   -0.012928   0.000055   0.000025   0.000880  -0.001454   0.316043
    19  H   -0.012680  -0.001165   0.000007   0.000268   0.000035   0.002067
               7          8          9         10         11         12
     1  Fe  -0.009972  -0.062614  -0.010567  -0.028695  -0.005391  -0.039056
     2  O   -0.000245   0.048900  -0.000759  -0.052240   0.001571  -0.037887
     3  H   -0.000027  -0.000859  -0.000001   0.001056  -0.000282   0.001029
     4  O   -0.000481  -0.058757  -0.000161   0.036264  -0.000656  -0.049617
     5  H   -0.000311   0.004358   0.000028  -0.001084   0.000011  -0.000402
     6  O    0.312385  -0.065446   0.000942  -0.058702  -0.000640   0.047705
     7  H    0.286686   0.000353  -0.000396   0.001419   0.000056  -0.001444
     8  O    0.000353   8.240309   0.314351  -0.028553  -0.006118  -0.046238
     9  H   -0.000396   0.314351   0.269308  -0.001307   0.000094  -0.000213
    10  O    0.001419  -0.028553  -0.001307   8.233724   0.311786  -0.067415
    11  H    0.000056  -0.006118   0.000094   0.311786   0.271434   0.001665
    12  O   -0.001444  -0.046238  -0.000213  -0.067415   0.001665   8.221601
    13  H    0.000009   0.001048   0.000026   0.001194  -0.000036   0.316549
    14  H   -0.000007  -0.001852   0.000155  -0.002185   0.001198   0.303010
    15  H    0.000174  -0.000618  -0.000030  -0.000699  -0.000002   0.001728
    16  H    0.000009  -0.001031   0.000006   0.002088  -0.000010  -0.000033
    17  H    0.000409   0.000152  -0.001329   0.315323  -0.021964   0.000247
    18  H   -0.017823   0.001001   0.000039  -0.000401  -0.000026  -0.000782
    19  H    0.001659   0.314715  -0.017302  -0.000983   0.000170   0.000214
              13         14         15         16         17         18
     1  Fe  -0.015870   0.001439  -0.007703  -0.006265  -0.014664  -0.012928
     2  O   -0.000607   0.000592   0.001675   0.307573  -0.001125   0.000055
     3  H   -0.000043   0.000004   0.000018  -0.014800   0.000087   0.000025
     4  O    0.001420   0.001203   0.314089  -0.000269  -0.000897   0.000880
     5  H   -0.000022   0.000039  -0.022511  -0.000015  -0.000005  -0.001454
     6  O   -0.000771  -0.001129  -0.006088  -0.000648   0.003053   0.316043
     7  H    0.000009  -0.000007   0.000174   0.000009   0.000409  -0.017823
     8  O    0.001048  -0.001852  -0.000618  -0.001031   0.000152   0.001001
     9  H    0.000026   0.000155  -0.000030   0.000006  -0.001329   0.000039
    10  O    0.001194  -0.002185  -0.000699   0.002088   0.315323  -0.000401
    11  H   -0.000036   0.001198  -0.000002  -0.000010  -0.021964  -0.000026
    12  O    0.316549   0.303010   0.001728  -0.000033   0.000247  -0.000782
    13  H    0.247768  -0.015207  -0.000163   0.000009  -0.000026  -0.000002
    14  H   -0.015207   0.288144  -0.000013  -0.000028  -0.000050   0.000005
    15  H   -0.000163  -0.000013   0.264567   0.000008   0.000012  -0.000166
    16  H    0.000009  -0.000028   0.000008   0.276856   0.000055  -0.000273
    17  H   -0.000026  -0.000050   0.000012   0.000055   0.277827  -0.000017
    18  H   -0.000002   0.000005  -0.000166  -0.000273  -0.000017   0.266697
    19  H   -0.000028  -0.000019   0.000067  -0.000013  -0.000240  -0.000441
              19
     1  Fe  -0.012680
     2  O   -0.001165
     3  H    0.000007
     4  O    0.000268
     5  H    0.000035
     6  O    0.002067
     7  H    0.001659
     8  O    0.314715
     9  H   -0.017302
    10  O   -0.000983
    11  H    0.000170
    12  O    0.000214
    13  H   -0.000028
    14  H   -0.000019
    15  H    0.000067
    16  H   -0.000013
    17  H   -0.000240
    18  H   -0.000441
    19  H    0.284598
          Atomic-Atomic Spin Densities.
               1          2          3          4          5          6
     1  Fe   4.912209  -0.093808   0.000571  -0.099911   0.000563  -0.113228
     2  O   -0.093808   0.279284  -0.005161  -0.020104   0.000241  -0.018245
     3  H    0.000571  -0.005161   0.005190   0.000382   0.000004   0.000860
     4  O   -0.099911  -0.020104   0.000382   0.262025  -0.004244  -0.020342
     5  H    0.000563   0.000241   0.000004  -0.004244   0.004387   0.002081
     6  O   -0.113228  -0.018245   0.000860  -0.020342   0.002081   0.270971
     7  H    0.001859   0.000300  -0.000008  -0.000220  -0.000039  -0.006714
     8  O   -0.113445   0.025823  -0.000560  -0.024086   0.001365  -0.023467
     9  H    0.002859  -0.000566   0.000001   0.000470  -0.000059  -0.000417
    10  O   -0.102033  -0.015677   0.002167   0.023010  -0.000551  -0.027259
    11  H    0.001844  -0.000043  -0.000028  -0.000332   0.000003   0.000408
    12  O   -0.093226  -0.027491   0.001899  -0.014508   0.000241   0.026641
    13  H    0.000596   0.001480  -0.000031   0.001999  -0.000039  -0.000522
    14  H    0.000173   0.000450  -0.000028   0.000200  -0.000007  -0.000593
    15  H    0.001783   0.001560  -0.000054  -0.004356  -0.000170   0.000393
    16  H    0.000421  -0.003841   0.000122   0.001032  -0.000023   0.001361
    17  H    0.000851   0.000093  -0.000042  -0.000521   0.000002   0.001175
    18  H    0.002868   0.000249  -0.000008   0.003940   0.000009  -0.007140
    19  H    0.002013  -0.000646   0.000005   0.000631   0.000076   0.004264
               7          8          9         10         11         12
     1  Fe   0.001859  -0.113445   0.002859  -0.102033   0.001844  -0.093226
     2  O    0.000300   0.025823  -0.000566  -0.015677  -0.000043  -0.027491
     3  H   -0.000008  -0.000560   0.000001   0.002167  -0.000028   0.001899
     4  O   -0.000220  -0.024086   0.000470   0.023010  -0.000332  -0.014508
     5  H   -0.000039   0.001365  -0.000059  -0.000551   0.000003   0.000241
     6  O   -0.006714  -0.023467  -0.000417  -0.027259   0.000408   0.026641
     7  H    0.004865   0.003581  -0.000086   0.001060  -0.000031  -0.000661
     8  O    0.003581   0.271297  -0.006234  -0.016808   0.000483  -0.023639
     9  H   -0.000086  -0.006234   0.005510   0.003165   0.000054   0.000496
    10  O    0.001060  -0.016808   0.003165   0.264005  -0.004801  -0.024019
    11  H   -0.000031   0.000483   0.000054  -0.004801   0.005513   0.001847
    12  O   -0.000661  -0.023639   0.000496  -0.024019   0.001847   0.282917
    13  H    0.000005   0.001022  -0.000019   0.000387  -0.000073  -0.005223
    14  H    0.000001   0.001400   0.000110   0.001410   0.000147  -0.004496
    15  H   -0.000007   0.000365   0.000004  -0.000319   0.000002  -0.000081
    16  H   -0.000064  -0.000525   0.000004   0.000224   0.000004   0.000316
    17  H    0.000090   0.001540  -0.000015  -0.003600  -0.000220   0.000245
    18  H    0.000194  -0.000121   0.000010   0.000507   0.000004  -0.000564
    19  H    0.000062  -0.007070   0.000197  -0.000209  -0.000006   0.000405
              13         14         15         16         17         18
     1  Fe   0.000596   0.000173   0.001783   0.000421   0.000851   0.002868
     2  O    0.001480   0.000450   0.001560  -0.003841   0.000093   0.000249
     3  H   -0.000031  -0.000028  -0.000054   0.000122  -0.000042  -0.000008
     4  O    0.001999   0.000200  -0.004356   0.001032  -0.000521   0.003940
     5  H   -0.000039  -0.000007  -0.000170  -0.000023   0.000002   0.000009
     6  O   -0.000522  -0.000593   0.000393   0.001361   0.001175  -0.007140
     7  H    0.000005   0.000001  -0.000007  -0.000064   0.000090   0.000194
     8  O    0.001022   0.001400   0.000365  -0.000525   0.001540  -0.000121
     9  H   -0.000019   0.000110   0.000004   0.000004  -0.000015   0.000010
    10  O    0.000387   0.001410  -0.000319   0.000224  -0.003600   0.000507
    11  H   -0.000073   0.000147   0.000002   0.000004  -0.000220   0.000004
    12  O   -0.005223  -0.004496  -0.000081   0.000316   0.000245  -0.000564
    13  H    0.005496   0.000090  -0.000029  -0.000015   0.000005  -0.000001
    14  H    0.000090   0.005303   0.000004   0.000006  -0.000036   0.000005
    15  H   -0.000029   0.000004   0.004974   0.000067   0.000002   0.000056
    16  H   -0.000015   0.000006   0.000067   0.004785  -0.000006   0.000049
    17  H    0.000005  -0.000036   0.000002  -0.000006   0.004079  -0.000054
    18  H   -0.000001   0.000005   0.000056   0.000049  -0.000054   0.006320
    19  H   -0.000009  -0.000067  -0.000024   0.000001  -0.000013  -0.000106
              19
     1  Fe   0.002013
     2  O   -0.000646
     3  H    0.000005
     4  O    0.000631
     5  H    0.000076
     6  O    0.004264
     7  H    0.000062
     8  O   -0.007070
     9  H    0.000197
    10  O   -0.000209
    11  H   -0.000006
    12  O    0.000405
    13  H   -0.000009
    14  H   -0.000067
    15  H   -0.000024
    16  H    0.000001
    17  H   -0.000013
    18  H   -0.000106
    19  H    0.005043
 Mulliken charges and spin densities:
               1          2
     1  Fe   1.589745   4.312959
     2  O   -0.651779   0.123898
     3  H    0.457792   0.005280
     4  O   -0.657650   0.105063
     5  H    0.441102   0.003839
     6  O   -0.640337   0.090227
     7  H    0.427548   0.004187
     8  O   -0.653103   0.090920
     9  H    0.447117   0.005484
    10  O   -0.660591   0.100658
    11  H    0.447139   0.004775
    12  O   -0.650663   0.121098
    13  H    0.464750   0.005117
    14  H    0.424700   0.004071
    15  H    0.455655   0.004171
    16  H    0.436781   0.003917
    17  H    0.443153   0.003574
    18  H    0.449569   0.006216
    19  H    0.429072   0.004545
 Sum of Mulliken charges =   3.00000   5.00000
 Mulliken charges and spin densities with hydrogens summed into heavy atoms:
               1          2
     1  Fe   1.589745   4.312959
     2  O    0.242793   0.133095
     4  O    0.239107   0.113074
     6  O    0.236779   0.100631
     8  O    0.223087   0.100949
    10  O    0.229701   0.109006
    12  O    0.238787   0.130287
 APT charges:
               1
     1  Fe   2.161318
     2  O   -0.641032
     3  H    0.410541
     4  O   -0.605640
     5  H    0.369103
     6  O   -0.606830
     7  H    0.358703
     8  O   -0.608709
     9  H    0.372872
    10  O   -0.601222
    11  H    0.377090
    12  O   -0.629983
    13  H    0.413109
    14  H    0.369203
    15  H    0.382746
    16  H    0.379237
    17  H    0.369191
    18  H    0.372764
    19  H    0.357541
 Sum of APT charges =   3.00000
 APT charges with hydrogens summed into heavy atoms:
               1
     1  Fe   2.161318
     2  O    0.148745
     4  O    0.146209
     6  O    0.124637
     8  O    0.121704
    10  O    0.145058
    12  O    0.152329
 Electronic spatial extent (au):  <R**2>=            839.1711
 Charge=              3.0000 electrons
 Dipole moment (field-independent basis, Debye):
    X=              2.3552    Y=              3.7528    Z=             -1.0140  Tot=              4.5452
 Quadrupole moment (field-independent basis, Debye-Ang):
   XX=            -11.9850   YY=            -15.7472   ZZ=            -26.6060
   XY=             -4.2649   XZ=             -1.6254   YZ=             -0.9778
 Traceless Quadrupole moment (field-independent basis, Debye-Ang):
   XX=              6.1277   YY=              2.3655   ZZ=             -8.4932
   XY=             -4.2649   XZ=             -1.6254   YZ=             -0.9778
 Octapole moment (field-independent basis, Debye-Ang**2):
  XXX=             18.6657  YYY=             17.6227  ZZZ=              5.1227  XYY=              4.2345
  XXY=              9.2211  XXZ=              3.2547  XZZ=             -8.1772  YZZ=             -3.3597
  YYZ=            -14.7525  XYZ=             -3.2516
 Hexadecapole moment (field-independent basis, Debye-Ang**3):
 XXXX=           -167.6112 YYYY=           -176.3244 ZZZZ=           -214.5751 XXXY=            -21.6144
 XXXZ=              2.3511 YYYX=             -8.9071 YYYZ=             10.9570 ZZZX=            -16.4552
 ZZZY=            -15.5650 XXYY=            -47.2078 XXZZ=            -54.0562 YYZZ=            -51.3364
 XXYZ=             -0.3726 YYXZ=              3.3016 ZZXY=              2.1002
 N-N= 7.677883002195D+02 E-N=-5.572286179525D+03  KE= 1.718844063535D+03
  Exact polarizability:      51.687      -0.466      50.923      -0.589       0.017      47.716
 Approx polarizability:      68.791      -0.669      67.909      -0.989      -0.170      63.042
                          Isotropic Fermi Contact Couplings
        Atom                 a.u.       MegaHertz       Gauss      10(-4) cm-1
     1  Fe(57)             0.25103       7.28196       2.59839       2.42900
     2  O(17)              0.15592     -18.90307      -6.74508      -6.30538
     3  H(1)               0.00255       2.27929       0.81331       0.76029
     4  O(17)              0.15232     -18.46658      -6.58934      -6.15979
     5  H(1)               0.00208       1.85529       0.66201       0.61886
     6  O(17)              0.15609     -18.92458      -6.75276      -6.31256
     7  H(1)               0.00186       1.66215       0.59310       0.55443
     8  O(17)              0.15458     -18.74083      -6.68719      -6.25127
     9  H(1)               0.00244       2.18145       0.77840       0.72766
    10  O(17)              0.15074     -18.27516      -6.52103      -6.09594
    11  H(1)               0.00270       2.41438       0.86151       0.80535
    12  O(17)              0.15403     -18.67399      -6.66334      -6.22897
    13  H(1)               0.00254       2.26998       0.80998       0.75718
    14  H(1)               0.00231       2.06307       0.73615       0.68817
    15  H(1)               0.00246       2.20347       0.78625       0.73500
    16  H(1)               0.00217       1.93671       0.69107       0.64602
    17  H(1)               0.00210       1.87522       0.66913       0.62551
    18  H(1)               0.00260       2.32228       0.82865       0.77463
    19  H(1)               0.00183       1.63773       0.58438       0.54629
 --------------------------------------------------------
       Center         ----  Spin Dipole Couplings  ----
                      3XX-RR        3YY-RR        3ZZ-RR
 --------------------------------------------------------
     1   Atom        0.007119     -0.013748      0.006629
     2   Atom       -0.326134      0.465319     -0.139185
     3   Atom       -0.000610      0.017363     -0.016753
     4   Atom        0.046834     -0.204197      0.157363
     5   Atom        0.062926     -0.045494     -0.017432
     6   Atom        0.076505     -0.257882      0.181377
     7   Atom       -0.005335      0.013078     -0.007742
     8   Atom       -0.280593      0.301055     -0.020462
     9   Atom       -0.039779      0.094985     -0.055206
    10   Atom        0.086456     -0.164244      0.077788
    11   Atom        0.074205     -0.035324     -0.038881
    12   Atom        0.220153     -0.234536      0.014383
    13   Atom       -0.028780     -0.039107      0.067887
    14   Atom        0.025408     -0.026728      0.001321
    15   Atom        0.019111      0.020407     -0.039519
    16   Atom       -0.035256      0.043874     -0.008618
    17   Atom       -0.032236      0.006945      0.025291
    18   Atom        0.091629     -0.059213     -0.032416
    19   Atom       -0.002740      0.057362     -0.054622
 --------------------------------------------------------
                        XY            XZ            YZ
 --------------------------------------------------------
     1   Atom       -0.003220      0.012795     -0.007736
     2   Atom        0.145372      0.030382      0.136795
     3   Atom        0.050889      0.055911      0.056167
     4   Atom       -0.176811      0.281113     -0.210940
     5   Atom        0.016605      0.074866      0.001250
     6   Atom        0.090876     -0.348360     -0.029490
     7   Atom        0.052118     -0.057780     -0.052845
     8   Atom        0.109376      0.064563      0.282964
     9   Atom       -0.039100      0.002807      0.025734
    10   Atom       -0.135827      0.376790     -0.086029
    11   Atom       -0.065247      0.023894     -0.013285
    12   Atom        0.221890     -0.317217     -0.055349
    13   Atom        0.013638     -0.043192     -0.060742
    14   Atom       -0.037639     -0.079761      0.029967
    15   Atom       -0.079715      0.033927     -0.019873
    16   Atom       -0.029235     -0.034202      0.075195
    17   Atom       -0.024747      0.037333     -0.079365
    18   Atom       -0.011568     -0.047843     -0.005496
    19   Atom        0.073737      0.001447      0.020171
 --------------------------------------------------------


 ---------------------------------------------------------------------------------
              Anisotropic Spin Dipole Couplings in Principal Axis System
 ---------------------------------------------------------------------------------

       Atom             a.u.   MegaHertz   Gauss  10(-4) cm-1        Axes

              Baa    -0.0164    -0.284    -0.101    -0.095 -0.0612  0.9355  0.3480
     1 Fe(57) Bbb    -0.0050    -0.086    -0.031    -0.029  0.7321  0.2791 -0.6214
              Bcc     0.0214     0.370     0.132     0.123  0.6785 -0.2167  0.7019
 
              Baa    -0.3522    25.483     9.093     8.500  0.9850 -0.1699 -0.0314
     2 O(17)  Bbb    -0.1687    12.207     4.356     4.072 -0.0050 -0.2098  0.9777
              Bcc     0.5209   -37.690   -13.449   -12.572  0.1727  0.9629  0.2075
 
[...]
    13  H    0.278892  -0.013925  -0.000057   0.000000  -0.000000   0.000001
    14  H   -0.013925   0.278948  -0.000000  -0.000000  -0.000057   0.000000
    15  H   -0.000057  -0.000000   0.278965  -0.000057   0.000000  -0.000057
    16  H    0.000000  -0.000000  -0.000057   0.278948  -0.000000  -0.000057
    17  H   -0.000000  -0.000057   0.000000  -0.000000   0.278962  -0.000000
    18  H    0.000001   0.000000  -0.000057  -0.000057  -0.000000   0.278943
    19  H   -0.000000  -0.000000  -0.000000   0.000001  -0.000057  -0.000057
              19
     1  Fe  -0.007936
     2  O   -0.000460
     3  H    0.000000
     4  O    0.000808
     5  H   -0.000057
     6  O    0.002718
     7  H   -0.000057
     8  O    0.298627
     9  H   -0.013927
    10  O    0.000808
    11  H   -0.000000
    12  O    0.000945
    13  H   -0.000000
    14  H   -0.000000
    15  H   -0.000000
    16  H    0.000001
    17  H   -0.000057
    18  H   -0.000057
    19  H    0.278941
          Atomic-Atomic Spin Densities.
               1          2          3          4          5          6
     1  Fe   4.850960  -0.083195   0.002982  -0.083216   0.002982  -0.083193
     2  O   -0.083195   0.218440  -0.005178  -0.010712   0.000177  -0.010709
     3  H    0.002982  -0.005178   0.002747   0.000392  -0.000002   0.000177
     4  O   -0.083216  -0.010712   0.000392   0.218507  -0.005178  -0.010718
     5  H    0.002982   0.000177  -0.000002  -0.005178   0.002748   0.000393
     6  O   -0.083193  -0.010709   0.000177  -0.010718   0.000393   0.218463
     7  H    0.002981   0.000392  -0.000002   0.000177  -0.000002  -0.005177
     8  O   -0.083198   0.010964  -0.000162  -0.010707   0.000836  -0.010708
     9  H    0.002982  -0.000162   0.000000   0.000392  -0.000021   0.000177
    10  O   -0.083219  -0.010709   0.000392   0.010969  -0.000162  -0.010714
    11  H    0.002982   0.000837  -0.000021  -0.000162   0.000000   0.000392
    12  O   -0.083176  -0.010710   0.000837  -0.010710   0.000392   0.010966
    13  H    0.002980   0.000392  -0.000021   0.000836  -0.000021  -0.000162
    14  H    0.002981   0.000392  -0.000021   0.000177  -0.000002  -0.000162
    15  H    0.002981   0.000836  -0.000021  -0.005178   0.000791   0.000392
    16  H    0.002982  -0.005179   0.000791   0.000392  -0.000002   0.000836
    17  H    0.002982   0.000177  -0.000002  -0.000162   0.000000   0.000392
    18  H    0.002982   0.000392  -0.000002   0.000837  -0.000021  -0.005178
    19  H    0.002982  -0.000162   0.000000   0.000392  -0.000021   0.000836
               7          8          9         10         11         12
     1  Fe   0.002981  -0.083198   0.002982  -0.083219   0.002982  -0.083176
     2  O    0.000392   0.010964  -0.000162  -0.010709   0.000837  -0.010710
     3  H   -0.000002  -0.000162   0.000000   0.000392  -0.000021   0.000837
     4  O    0.000177  -0.010707   0.000392   0.010969  -0.000162  -0.010710
     5  H   -0.000002   0.000836  -0.000021  -0.000162   0.000000   0.000392
     6  O   -0.005177  -0.010708   0.000177  -0.010714   0.000392   0.010966
     7  H    0.002747   0.000392  -0.000002   0.000837  -0.000021  -0.000162
     8  O    0.000392   0.218442  -0.005179  -0.010714   0.000177  -0.010713
     9  H   -0.000002  -0.005179   0.002750   0.000392  -0.000002   0.000836
    10  O    0.000837  -0.010714   0.000392   0.218521  -0.005178  -0.010711
    11  H   -0.000021   0.000177  -0.000002  -0.005178   0.002747   0.000392
    12  O   -0.000162  -0.010713   0.000836  -0.010711   0.000392   0.218404
    13  H    0.000000   0.000392  -0.000021   0.000177  -0.000002  -0.005176
    14  H    0.000000   0.000392  -0.000021   0.000836  -0.000021  -0.005177
    15  H   -0.000002   0.000177  -0.000002  -0.000162   0.000000   0.000392
    16  H   -0.000021  -0.000162   0.000000   0.000392  -0.000021   0.000177
    17  H   -0.000021   0.000836  -0.000021  -0.005178   0.000791   0.000392
    18  H    0.000791   0.000392  -0.000002   0.000177  -0.000002  -0.000162
    19  H   -0.000021  -0.005179   0.000791   0.000392  -0.000002   0.000177
              13         14         15         16         17         18
     1  Fe   0.002980   0.002981   0.002981   0.002982   0.002982   0.002982
     2  O    0.000392   0.000392   0.000836  -0.005179   0.000177   0.000392
     3  H   -0.000021  -0.000021  -0.000021   0.000791  -0.000002  -0.000002
     4  O    0.000836   0.000177  -0.005178   0.000392  -0.000162   0.000837
     5  H   -0.000021  -0.000002   0.000791  -0.000002   0.000000  -0.000021
     6  O   -0.000162  -0.000162   0.000392   0.000836   0.000392  -0.005178
     7  H    0.000000   0.000000  -0.000002  -0.000021  -0.000021   0.000791
     8  O    0.000392   0.000392   0.000177  -0.000162   0.000836   0.000392
     9  H   -0.000021  -0.000021  -0.000002   0.000000  -0.000021  -0.000002
    10  O    0.000177   0.000836  -0.000162   0.000392  -0.005178   0.000177
    11  H   -0.000002  -0.000021   0.000000  -0.000021   0.000791  -0.000002
    12  O   -0.005176  -0.005177   0.000392   0.000177   0.000392  -0.000162
    13  H    0.002747   0.000791  -0.000021  -0.000002  -0.000002   0.000000
    14  H    0.000791   0.002749  -0.000002  -0.000002  -0.000021   0.000000
    15  H   -0.000021  -0.000002   0.002749  -0.000021   0.000000  -0.000021
    16  H   -0.000002  -0.000002  -0.000021   0.002752  -0.000002  -0.000021
    17  H   -0.000002  -0.000021   0.000000  -0.000002   0.002750  -0.000002
    18  H    0.000000   0.000000  -0.000021  -0.000021  -0.000002   0.002748
    19  H   -0.000002  -0.000002  -0.000002   0.000000  -0.000021  -0.000021
              19
     1  Fe   0.002982
     2  O   -0.000162
     3  H    0.000000
     4  O    0.000392
     5  H   -0.000021
     6  O    0.000836
     7  H   -0.000021
     8  O   -0.005179
     9  H    0.000791
    10  O    0.000392
    11  H   -0.000002
    12  O    0.000177
    13  H   -0.000002
    14  H   -0.000002
    15  H   -0.000002
    16  H    0.000000
    17  H   -0.000021
    18  H   -0.000021
    19  H    0.002749
 Mulliken charges and spin densities:
               1          2
     1  Fe   1.422764   4.387540
     2  O   -0.616554   0.096283
     3  H    0.439694   0.002887
     4  O   -0.616505   0.096329
     5  H    0.439731   0.002888
     6  O   -0.616592   0.096303
     7  H    0.439762   0.002887
     8  O   -0.616553   0.096280
     9  H    0.439701   0.002889
    10  O   -0.616500   0.096338
    11  H    0.439729   0.002887
    12  O   -0.616644   0.096268
    13  H    0.439759   0.002887
    14  H    0.439705   0.002889
    15  H    0.439681   0.002888
    16  H    0.439722   0.002891
    17  H    0.439691   0.002889
    18  H    0.439707   0.002888
    19  H    0.439704   0.002889
 Sum of Mulliken charges =   3.00000   5.00000
 Mulliken charges and spin densities with hydrogens summed into heavy atoms:
               1          2
     1  Fe   1.422764   4.387540
     2  O    0.262862   0.102061
     4  O    0.262906   0.102106
     6  O    0.262876   0.102078
     8  O    0.262852   0.102058
    10  O    0.262920   0.102114
    12  O    0.262820   0.102044
 Electronic spatial extent (au):  <R**2>=           1053.9601
 Charge=              3.0000 electrons
 Dipole moment (field-independent basis, Debye):
    X=             -0.0002    Y=              0.0000    Z=              0.0004  Tot=              0.0005
 Quadrupole moment (field-independent basis, Debye-Ang):
   XX=             -7.3318   YY=             -7.3349   ZZ=             -7.3310
   XY=              0.0031   XZ=             -0.0008   YZ=              0.0042
 Traceless Quadrupole moment (field-independent basis, Debye-Ang):
   XX=              0.0008   YY=             -0.0023   ZZ=              0.0015
   XY=              0.0031   XZ=             -0.0008   YZ=              0.0042
 Octapole moment (field-independent basis, Debye-Ang**2):
  XXX=             -0.0056  YYY=              0.0050  ZZZ=              0.0069  XYY=              0.0012
  XXY=             -0.0014  XXZ=             -0.0025  XZZ=              0.0051  YZZ=             -0.0022
  YYZ=             -0.0007  XYZ=              0.0035
 Hexadecapole moment (field-independent basis, Debye-Ang**3):
 XXXX=           -172.9981 YYYY=           -120.5721 ZZZZ=           -178.5632 XXXY=             18.4043
 XXXZ=             13.2043 YYYX=            -29.9591 YYYZ=             42.8382 ZZZX=             19.6378
 ZZZY=            -17.9445 XXYY=            -57.2198 XXZZ=              0.8741 YYZZ=            -51.5243
 XXYZ=            -24.8729 YYXZ=            -32.8492 ZZXY=             11.5807
 N-N= 6.818890927212D+02 E-N=-5.401902716464D+03  KE= 1.716286073906D+03
                          Isotropic Fermi Contact Couplings
        Atom                 a.u.       MegaHertz       Gauss      10(-4) cm-1
     1  Fe(57)             0.39041      11.32501       4.04104       3.77762
     2  O(17)              0.15167     -18.38878      -6.56157      -6.13384
     3  H(1)               0.00162       1.44854       0.51687       0.48318
     4  O(17)              0.15168     -18.38978      -6.56193      -6.13417
     5  H(1)               0.00162       1.44941       0.51718       0.48347
     6  O(17)              0.15167     -18.38840      -6.56144      -6.13371
     7  H(1)               0.00162       1.44891       0.51701       0.48330
     8  O(17)              0.15168     -18.38917      -6.56171      -6.13397
     9  H(1)               0.00162       1.45016       0.51745       0.48372
    10  O(17)              0.15169     -18.39044      -6.56217      -6.13439
    11  H(1)               0.00162       1.44914       0.51709       0.48338
    12  O(17)              0.15166     -18.38673      -6.56084      -6.13315
    13  H(1)               0.00162       1.44919       0.51711       0.48340
    14  H(1)               0.00162       1.45002       0.51740       0.48367
    15  H(1)               0.00162       1.44996       0.51738       0.48366
    16  H(1)               0.00162       1.45125       0.51784       0.48408
    17  H(1)               0.00162       1.45005       0.51741       0.48368
    18  H(1)               0.00162       1.44958       0.51725       0.48353
    19  H(1)               0.00162       1.44998       0.51739       0.48366
 --------------------------------------------------------
       Center         ----  Spin Dipole Couplings  ----
                      3XX-RR        3YY-RR        3ZZ-RR
 --------------------------------------------------------
     1   Atom       -0.000002     -0.000147      0.000149
     2   Atom       -0.002937     -0.017203      0.020140
     3   Atom        0.053684     -0.037750     -0.015934
     4   Atom       -0.095790      0.187662     -0.091872
     5   Atom       -0.005568      0.040281     -0.034713
     6   Atom        0.098816     -0.170373      0.071557
     7   Atom       -0.011426      0.030371     -0.018945
     8   Atom       -0.003004     -0.017363      0.020366
     9   Atom       -0.017933     -0.033241      0.051174
    10   Atom       -0.095601      0.187668     -0.092067
    11   Atom       -0.005598      0.040309     -0.034711
    12   Atom        0.098795     -0.170276      0.071481
    13   Atom       -0.011423      0.030369     -0.018946
    14   Atom        0.016619     -0.030863      0.014244
    15   Atom       -0.035312      0.031186      0.004127
    16   Atom       -0.017916     -0.033259      0.051176
    17   Atom       -0.035321      0.031171      0.004150
    18   Atom        0.016624     -0.030866      0.014242
    19   Atom        0.053637     -0.037733     -0.015904
 --------------------------------------------------------
                        XY            XZ            YZ
 --------------------------------------------------------
     1   Atom        0.000037      0.000072      0.000081
     2   Atom       -0.098587      0.215667      0.074542
     3   Atom        0.013996      0.038302      0.001714
     4   Atom       -0.030676     -0.172025      0.072126
     5   Atom       -0.049831      0.002647      0.005199
     6   Atom        0.129419     -0.043565     -0.146773
     7   Atom        0.039328     -0.025797     -0.032061
     8   Atom       -0.098759      0.215550      0.074562
     9   Atom       -0.006567      0.034907     -0.025716
    10   Atom       -0.030609     -0.172027      0.072167
    11   Atom       -0.049823      0.002661      0.005176
    12   Atom        0.129421     -0.043640     -0.146779
    13   Atom        0.039327     -0.025793     -0.032056
    14   Atom        0.002930     -0.056719     -0.001910
    15   Atom        0.000125      0.006637      0.052760
    16   Atom       -0.006562      0.034918     -0.025679
    17   Atom        0.000109      0.006627      0.052761
    18   Atom        0.002922     -0.056725     -0.001903
    19   Atom        0.014016      0.038332      0.001727
 --------------------------------------------------------


 ---------------------------------------------------------------------------------
              Anisotropic Spin Dipole Couplings in Principal Axis System
 ---------------------------------------------------------------------------------

       Atom             a.u.   MegaHertz   Gauss  10(-4) cm-1        Axes

              Baa    -0.0002    -0.003    -0.001    -0.001 -0.1213  0.9682 -0.2186
     1 Fe(57) Bbb    -0.0000    -0.001    -0.000    -0.000  0.9239  0.0297 -0.3815
              Bcc     0.0002     0.003     0.001     0.001  0.3629  0.2483  0.8982
 
              Baa    -0.2677    19.370     6.912     6.461  0.6598  0.4408 -0.6085
     2 O(17)  Bbb     0.0422    -3.055    -1.090    -1.019 -0.2734  0.8952  0.3520
              Bcc     0.2255   -16.316    -5.822    -5.442  0.6999 -0.0659  0.7112
 
              Baa    -0.0414   -22.065    -7.873    -7.360 -0.2737  0.8951  0.3520
     3 H(1)   Bbb    -0.0309   -16.504    -5.889    -5.505 -0.3127 -0.4289  0.8475
              Bcc     0.0723    38.569    13.762    12.865  0.9096  0.1219  0.3973
 
              Baa    -0.2678    19.375     6.914     6.463  0.6998 -0.0655  0.7113
     4 O(17)  Bbb     0.0423    -3.064    -1.093    -1.022  0.6597  0.4412 -0.6084
              Bcc     0.2254   -16.311    -5.820    -5.441 -0.2740  0.8950  0.3520
 
              Baa    -0.0414   -22.065    -7.873    -7.360  0.6596  0.4414 -0.6084
     5 H(1)   Bbb    -0.0309   -16.506    -5.890    -5.506  0.5247  0.3092  0.7931
              Bcc     0.0723    38.570    13.763    12.866 -0.5382  0.8424  0.0276
 
              Baa    -0.2677    19.373     6.913     6.462 -0.2742  0.8950  0.3519
     6 O(17)  Bbb     0.0423    -3.061    -1.092    -1.021  0.6993 -0.0657  0.7118
              Bcc     0.2254   -16.312    -5.820    -5.441  0.6602  0.4413 -0.6078
 
              Baa    -0.0414   -22.063    -7.873    -7.359  0.6994 -0.0654  0.7117
     7 H(1)   Bbb    -0.0309   -16.505    -5.889    -5.505 -0.5219  0.6335  0.5712
              Bcc     0.0723    38.568    13.762    12.865  0.4882  0.7709 -0.4090
 
              Baa    -0.2677    19.370     6.912     6.461  0.6599  0.4414 -0.6080
     8 O(17)  Bbb     0.0422    -3.056    -1.090    -1.019 -0.2738  0.8948  0.3525
              Bcc     0.2255   -16.314    -5.821    -5.442  0.6997 -0.0662  0.7113
 
              Baa    -0.0413   -22.061    -7.872    -7.359 -0.2739  0.8950  0.3521
     9 H(1)   Bbb    -0.0309   -16.505    -5.889    -5.505  0.8897  0.3748 -0.2608
              Bcc     0.0723    38.566    13.761    12.864  0.3654 -0.2418  0.8989
 
              Baa    -0.2678    19.377     6.914     6.463  0.6994 -0.0658  0.7117
    10 O(17)  Bbb     0.0424    -3.066    -1.094    -1.023  0.6602  0.4411 -0.6080
              Bcc     0.2254   -16.310    -5.820    -5.441 -0.2739  0.8951  0.3519
 
              Baa    -0.0414   -22.065    -7.873    -7.360  0.6600  0.4412 -0.6081
    11 H(1)   Bbb    -0.0309   -16.506    -5.890    -5.506  0.5244  0.3091  0.7934
              Bcc     0.0723    38.571    13.763    12.866 -0.5380  0.8425  0.0274
 
              Baa    -0.2677    19.368     6.911     6.460 -0.2741  0.8949  0.3520
    12 O(17)  Bbb     0.0422    -3.053    -1.089    -1.018  0.6992 -0.0658  0.7118
              Bcc     0.2255   -16.315    -5.822    -5.442  0.6602  0.4413 -0.6077
 
              Baa    -0.0413   -22.061    -7.872    -7.359  0.6994 -0.0654  0.7117
    13 H(1)   Bbb    -0.0309   -16.503    -5.889    -5.505 -0.5219  0.6335  0.5712
              Bcc     0.0723    38.565    13.761    12.864  0.4882  0.7710 -0.4090
 
              Baa    -0.0413   -22.060    -7.872    -7.358  0.6996 -0.0659  0.7115
    14 H(1)   Bbb    -0.0309   -16.504    -5.889    -5.505  0.0224  0.9973  0.0703
              Bcc     0.0723    38.564    13.760    12.863  0.7142  0.0332 -0.6991
 
              Baa    -0.0413   -22.062    -7.872    -7.359  0.6597  0.4413 -0.6083
    15 H(1)   Bbb    -0.0309   -16.506    -5.890    -5.506  0.7505 -0.4287  0.5029
              Bcc     0.0723    38.568    13.762    12.865  0.0388  0.7883  0.6140
 
              Baa    -0.0413   -22.058    -7.871    -7.358 -0.2734  0.8953  0.3517
    16 H(1)   Bbb    -0.0309   -16.504    -5.889    -5.505  0.8897  0.3744 -0.2613
              Bcc     0.0723    38.562    13.760    12.863  0.3656 -0.2415  0.8989
 
              Baa    -0.0413   -22.062    -7.872    -7.359  0.6602  0.4412 -0.6078
    17 H(1)   Bbb    -0.0309   -16.506    -5.890    -5.506  0.7501 -0.4290  0.5034
              Bcc     0.0723    38.567    13.762    12.865  0.0386  0.7882  0.6141
 
              Baa    -0.0413   -22.062    -7.872    -7.359  0.6995 -0.0658  0.7116
    18 H(1)   Bbb    -0.0309   -16.505    -5.889    -5.506  0.0224  0.9973  0.0702
              Bcc     0.0723    38.567    13.762    12.865  0.7142  0.0331 -0.6991
 
              Baa    -0.0413   -22.062    -7.872    -7.359 -0.2743  0.8947  0.3524
    19 H(1)   Bbb    -0.0309   -16.505    -5.889    -5.505 -0.3128 -0.4296  0.8471
              Bcc     0.0723    38.566    13.761    12.864  0.9094  0.1221  0.3977
 

 ---------------------------------------------------------------------------------

 No NMR shielding tensors so no spin-rotation constants.
 Leave Link  601 at Wed Mar  5 21:44:12 2025, MaxMem= 13421772800 cpu:              29.5 elap:               0.3
 (Enter /gpfs/fs1/soft/improv/software/custom-built/gaussian/g16/l9999.exe)

 Test job not archived.
 1\1\GINC-I186\SP\UX3LYP\Gen\Fe1H12O6(3+,6)\HHARB\05-Mar-2025\0\\#p X3L
 YP scrf=(cpcm,solvent=water) geom=allcheck guess=read chkbasis IOp(3/1
 74=1000000) IOp(3/175=299000) IOp(3/176=1000000)\\Title\\3,6\Fe,-0.784
 8168149,0.7129544018,0.0318785447\O,-1.3199592682,2.6601649116,-0.2855
 994933\H,-1.4384559365,3.093811391,-1.1520692409\O,1.1862210365,1.2548
 626128,0.0345562839\H,1.9499869968,0.6595686102,0.1575985279\O,-0.8712
 445834,1.0178449057,2.0513480125\H,-1.6536897587,0.8961344269,2.622161
 3013\O,-0.2497531316,-1.2343460675,0.348863382\H,-0.065026175,-1.90307
 91625,-0.3378261204\O,-2.7558641026,0.171119235,0.029382295\H,-3.51962
 42243,0.7665306098,-0.0931017878\O,-0.698285567,0.408116981,-1.9876587
 139\H,0.0841777919,0.5298951659,-2.5584244258\H,-1.4315779756,0.113371
 1062,-2.5605926342\H,1.538801174,2.1569851642,-0.086810793\H,-1.504221
 4425,3.3293542916,0.4008136741\H,-3.1084725313,-0.7310929223,0.1501905
 892\H,-0.1378749998,1.312508405,2.6242347607\H,-0.1318380578,-1.668624
 2962,1.2151012478\\Version=ES64L-G16RevC.02\State=6-A\HF=-1721.6049358
 \S2=8.755054\S2-1=0.\S2A=8.750008\RMSD=4.821e-09\Dipole=-0.0000717,-0.
 0001024,-0.0001399\Quadrupole=-0.0022243,0.0012974,0.0009269,0.0033676
 ,0.00111,-0.0010583\PG=C01 [X(Fe1H12O6)]\\@


 BREAD HAS TO MOLD IN ORDER TO GET PENICILLIN.
          -- JERRY BOATZ
 Job cpu time:       0 days  0 hours 39 minutes 29.1 seconds.
 Elapsed time:       0 days  0 hours  0 minutes 21.6 seconds.
 File lengths (MBytes):  RWF=    118 Int=      0 D2E=      0 Chk=    268 Scr=      1
 Normal termination of Gaussian 16 at Wed Mar  5 21:44:12 2025.
