 Entering Gaussian System, Link 0=g16
 Input=Fe_2_n12.com
 Output=Fe_2_n12.log
 Initial command:
 /gpfs/fs1/soft/improv/software/custom-built/gaussian/g16/l1.exe "/scratch/Gau-3652794.inp" -scrdir="/scratch/"
 Default CPUs for threads: 0-127
 Default linda workers: i299.lcrc.anl.gov
 Default is to use 128 SMP processors on each worker.
 Entering Link 1 = /gpfs/fs1/soft/improv/software/custom-built/gaussian/g16/l1.exe PID=   3652795.
  
 Copyright (c) 1988-2021, Gaussian, Inc.  All Rights Reserved.
  
 This is part of the Gaussian(R) 16 program.  It is based on
 the Gaussian(R) 09 system (copyright 2009, Gaussian, Inc.),
 the Gaussian(R) 03 system (copyright 2003, Gaussian, Inc.),
 the Gaussian(R) 98 system (copyright 1998, Gaussian, Inc.),
 the Gaussian(R) 94 system (copyright 1995, Gaussian, Inc.),
 the Gaussian 92(TM) system (copyright 1992, Gaussian, Inc.),
 the Gaussian 90(TM) system (copyright 1990, Gaussian, Inc.),
 the Gaussian 88(TM) system (copyright 1988, Gaussian, Inc.),
 the Gaussian 86(TM) system (copyright 1986, Carnegie Mellon
 University), and the Gaussian 82(TM) system (copyright 1983,
 Carnegie Mellon University). Gaussian is a federally registered
 trademark of Gaussian, Inc.
  
 This software contains proprietary and confidential information,
 including trade secrets, belonging to Gaussian, Inc.
  
 This software is provided under written license and may be
 used, copied, transmitted, or stored only in accord with that
 written license.
  
 The following legend is applicable only to US Government
 contracts under FAR:
  
                    RESTRICTED RIGHTS LEGEND
  
 Use, reproduction and disclosure by the US Government is
 subject to restrictions as set forth in subparagraphs (a)
 and (c) of the Commercial Computer Software - Restricted
 Rights clause in FAR 52.227-19.
  
 Gaussian, Inc.
 340 Quinnipiac St., Bldg. 40, Wallingford CT 06492
  
  
 ---------------------------------------------------------------
 Warning -- This program may not be used in any manner that
 competes with the business of Gaussian, Inc. or will provide
 assistance to any competitor of Gaussian, Inc.  The licensee
 of this program is prohibited from giving any competitor of
 Gaussian, Inc. access to this program.  By using this program,
 the user acknowledges that Gaussian, Inc. is engaged in the
 business of creating and licensing software in the field of
 computational chemistry and represents and warrants to the
 licensee that it is not a competitor of Gaussian, Inc. and that
 it will not use this program in any manner prohibited above.
 ---------------------------------------------------------------
  

 Cite this work as:
 Gaussian 16, Revision C.02,
 M. J. Frisch, G. W. Trucks, H. B. Schlegel, G. E. Scuseria, 
 M. A. Robb, J. R. Cheeseman, G. Scalmani, V. Barone, 
 G. A. Petersson, H. Nakatsuji, X. Li, M. Caricato, A. V. Marenich, 
 J. Bloino, B. G. Janesko, R. Gomperts, B. Mennucci, H. P. Hratchian, 
 J. V. Ortiz, A. F. Izmaylov, J. L. Sonnenberg, D. Williams-Young, 
 F. Ding, F. Lipparini, F. Egidi, J. Goings, B. Peng, A. Petrone, 
 T. Henderson, D. Ranasinghe, V. G. Zakrzewski, J. Gao, N. Rega, 
 G. Zheng, W. Liang, M. Hada, M. Ehara, K. Toyota, R. Fukuda, 
 J. Hasegawa, M. Ishida, T. Nakajima, Y. Honda, O. Kitao, H. Nakai, 
 T. Vreven, K. Throssell, J. A. Montgomery, Jr., J. E. Peralta, 
 F. Ogliaro, M. J. Bearpark, J. J. Heyd, E. N. Brothers, K. N. Kudin, 
 V. N. Staroverov, T. A. Keith, R. Kobayashi, J. Normand, 
 K. Raghavachari, A. P. Rendell, J. C. Burant, S. S. Iyengar, 
 J. Tomasi, M. Cossi, J. M. Millam, M. Klene, C. Adamo, R. Cammi, 
 J. W. Ochterski, R. L. Martin, K. Morokuma, O. Farkas, 
 J. B. Foresman, and D. J. Fox, Gaussian, Inc., Wallingford CT, 2019.
 
 ******************************************
 Gaussian 16:  ES64L-G16RevC.02  7-Dec-2021
                 5-Mar-2025 
 ******************************************
 %chk=Fe_2_n12.chk
 SetSPE:  set environment variable "OMP_PROC_BIND" = "true"
 SetSPE:  set environment variable "OMP_PLACES" = "{0},{1},{2},{3},{4},{5},{6},{7},{8},{9},{10},{11},{12},{13},{14},{15},{16},{17},{18},{19},{20},{21},{22},{23},{24},{25},{26},{27},{28},{29},{30},{31},{32},{33},{34},{35},{36},{37},{38},{39},{40},{41},{42},{43},{44},{45},{46},{47},{48},{49},{50},{51},{52},{53},{54},{55},{56},{57},{58},{59},{60},{61},{62},{63},{64},{65},{66},{67},{68},{69},{70},{71},{72},{73},{74},{75},{76},{77},{78},{79},{80},{81},{82},{83},{84},{85},{86},{87},{88},{89},{90},{91},{92},{93},{94},{95},{96},{97},{98},{99},{100},{101},{102},{103},{104},{105},{106},{107},{108},{109},{110},{111},{112},{113},{114},{115},{116},{117},{118},{119},{120},{121},{122},{123},{124},{125},{126},{127}"
 SetLPE:    new flags="-opt 'Tsnet.Node.lindarsharg: ssh'  -nodelist 'i299.lcrc.anl.gov' -env GAUSS_MDEF=13421772800 -env GAUSS_EXEDIR="/gpfs/fs1/soft/improv/software/custom-built/gaussian/g16/bsd:/gpfs/fs1/soft/improv/software/custom-built/gaussian/g16" -env "OMP_PROC_BIND=true" -env "OMP_PLACES={0},{1},{2},{3},{4},{5},{6},{7},{8},{9},{10},{11},{12},{13},{14},{15},{16},{17},{18},{19},{20},{21},{22},{23},{24},{25},{26},{27},{28},{29},{30},{31},{32},{33},{34},{35},{36},{37},{38},{39},{40},{41},{42},{43},{44},{45},{46},{47},{48},{49},{50},{51},{52},{53},{54},{55},{56},{57},{58},{59},{60},{61},{62},{63},{64},{65},{66},{67},{68},{69},{70},{71},{72},{73},{74},{75},{76},{77},{78},{79},{80},{81},{82},{83},{84},{85},{86},{87},{88},{89},{90},{91},{92},{93},{94},{95},{96},{97},{98},{99},{100},{101},{102},{103},{104},{105},{106},{107},{108},{109},{110},{111},{112},{113},{114},{115},{116},{117},{118},{119},{120},{121},{122},{123},{124},{125},{126},{127}" -env GAUSS_ADEF="0,1,2,3,4,5,6,7,8,9,10,11,12,13,14,15,16,17,18,19,20,21,22,23,24,25,26,27,28,29,30,31,32,33,34,35,36,37,38,39,40,41,42,43,44,45,46,47,48,49,50,51,52,53,54,55,56,57,58,59,60,61,62,63,64,65,66,67,68,69,70,71,72,73,74,75,76,77,78,79,80,81,82,83,84,85,86,87,88,89,90,91,92,93,94,95,96,97,98,99,100,101,102,103,104,105,106,107,108,109,110,111,112,113,114,115,116,117,118,119,120,121,122,123,124,125,126,127""
 Will use up to    1 processors via Linda.
 ----------------------------------------------------------------------
 #p n12 6-31+G(2df,p) opt=(cartesian,calcall,maxcycles=500) freq scf=(m
 axcycles=500,xqc,maxconventional=50) IOp(3/174=1000000) IOp(3/175=2391
 600) IOp(3/176=1349300)
 ----------------------------------------------------------------------
 1/6=500,10=4,18=10,26=3,38=1/1,3;
 2/12=2,17=6,18=5,29=2,40=1/2;
 3/5=1,6=6,7=114,11=2,25=1,30=1,71=2,74=-67,140=1,174=1000000,175=2391600,176=1349300/1,2,3;
 4//1;
 5/5=2,7=500,8=3,13=1,38=5,85=50/2,8;
 8/6=4,10=90,11=11/1;
 11/6=1,8=1,9=11,15=111,16=1/1,2,10;
 10/6=1/2;
 6/7=2,8=2,9=2,10=2,18=1,28=1/1;
 7/7=1,10=1,25=1/1,2,3,16;
 1/6=500,10=4,18=10,26=3/3(3);
 2/29=1/2;
 7/7=1,8=1,9=1,25=1,44=-1/16;
 99/12=1/99;
 2/29=1/2;
 3/5=1,6=6,7=114,11=2,25=1,30=1,71=2,74=-67,140=1,174=1000000,175=2391600,176=1349300/1,2,3;
 4/5=5,16=3,69=1/1;
 5/5=2,7=500,8=3,13=1,38=5,85=50/2,8;
 8/6=4,10=90,11=11/1;
 11/6=1,8=1,9=11,15=111,16=1/1,2,10;
 10/6=1/2;
 7/7=1,10=1,25=1/1,2,3,16;
 1/6=500,10=4,18=10,26=3/3(-8);
 2/29=1/2;
 6/7=2,8=2,9=2,10=2,18=1,19=2,28=1/1;
 7/7=1,8=1,9=1,25=1,44=-1/16;
 99/12=1/99;
 Leave Link    1 at Wed Mar  5 19:52:10 2025, MaxMem=           0 cpu:               3.4 elap:               0.1
 (Enter /gpfs/fs1/soft/improv/software/custom-built/gaussian/g16/l101.exe)
 -----
 Title
 -----
 Symbolic Z-matrix:
 Charge =  3 Multiplicity = 6
 Fe                   -0.79304   0.81881  -0.09491 
 O                    -1.20497   2.57394  -0.35687 
 H                    -2.12106   2.64974  -0.63312 
 O                     0.99012   1.19063  -0.05794 
 H                     1.42696   0.5998    0.55971 
 O                    -0.81752   1.03069   1.71365 
 H                    -1.02108   0.1906    2.13133 
 O                    -0.38507  -0.93351   0.17118 
 H                    -1.15682  -1.47369  -0.01433 
 O                    -2.57341   0.45178  -0.12186 
 H                    -2.77756  -0.08744  -0.88929 
 O                    -0.76966   0.60461  -1.90111 
 H                     0.09872   0.83457  -2.23949 
 H                    -0.96534  -0.30999  -2.11742 
 H                     1.12208   2.09943   0.22124 
 H                    -1.07671   3.0584    0.46184 
 H                    -2.81407  -0.02398   0.6765 
 H                     0.0422    1.33615   2.01181 
 H                    -0.11532  -1.06446   1.08312 
 
 ITRead=  0  0  0  0  0  0  0  0  0  0  0  0  0  0  0  0  0  0  0
 MicOpt= -1 -1 -1 -1 -1 -1 -1 -1 -1 -1 -1 -1 -1 -1 -1 -1 -1 -1 -1
 NAtoms=     19 NQM=       19 NQMF=       0 NMMI=      0 NMMIF=      0
                NMic=       0 NMicF=      0.
                    Isotopes and Nuclear Properties:
 (Nuclear quadrupole moments (NQMom) in fm**2, nuclear magnetic moments (NMagM)
  in nuclear magnetons)

  Atom         1           2           3           4           5           6           7           8           9          10
 IAtWgt=          56          16           1          16           1          16           1          16           1          16
 AtmWgt=  55.9349393  15.9949146   1.0078250  15.9949146   1.0078250  15.9949146   1.0078250  15.9949146   1.0078250  15.9949146
 NucSpn=           0           0           1           0           1           0           1           0           1           0
 AtZEff=  -0.0000000  -0.0000000  -0.0000000  -0.0000000  -0.0000000  -0.0000000  -0.0000000  -0.0000000  -0.0000000  -0.0000000
 NQMom=    0.0000000   0.0000000   0.0000000   0.0000000   0.0000000   0.0000000   0.0000000   0.0000000   0.0000000   0.0000000
 NMagM=    0.0000000   0.0000000   2.7928460   0.0000000   2.7928460   0.0000000   2.7928460   0.0000000   2.7928460   0.0000000
 AtZNuc=  26.0000000   8.0000000   1.0000000   8.0000000   1.0000000   8.0000000   1.0000000   8.0000000   1.0000000   8.0000000

  Atom        11          12          13          14          15          16          17          18          19
 IAtWgt=           1          16           1           1           1           1           1           1           1
 AtmWgt=   1.0078250  15.9949146   1.0078250   1.0078250   1.0078250   1.0078250   1.0078250   1.0078250   1.0078250
 NucSpn=           1           0           1           1           1           1           1           1           1
 AtZEff=  -0.0000000  -0.0000000  -0.0000000  -0.0000000  -0.0000000  -0.0000000  -0.0000000  -0.0000000  -0.0000000
 NQMom=    0.0000000   0.0000000   0.0000000   0.0000000   0.0000000   0.0000000   0.0000000   0.0000000   0.0000000
 NMagM=    2.7928460   0.0000000   2.7928460   2.7928460   2.7928460   2.7928460   2.7928460   2.7928460   2.7928460
 AtZNuc=   1.0000000   8.0000000   1.0000000   1.0000000   1.0000000   1.0000000   1.0000000   1.0000000   1.0000000
 Leave Link  101 at Wed Mar  5 19:52:10 2025, MaxMem= 13421772800 cpu:               0.4 elap:               0.1
 (Enter /gpfs/fs1/soft/improv/software/custom-built/gaussian/g16/l103.exe)

 GradGradGradGradGradGradGradGradGradGradGradGradGradGradGradGradGradGrad
 Berny optimization.
 Initialization pass.
 No Z-matrix variables, so optimization will use Cartesian coordinates.
 Trust Radius=3.00D-01 FncErr=1.00D-07 GrdErr=1.00D-06 EigMax=2.50D+02 EigMin=1.00D-04
 Number of steps in this run=    114 maximum allowed number of steps=    114.
 GradGradGradGradGradGradGradGradGradGradGradGradGradGradGradGradGradGrad

 Leave Link  103 at Wed Mar  5 19:52:10 2025, MaxMem= 13421772800 cpu:               0.4 elap:               0.0
 (Enter /gpfs/fs1/soft/improv/software/custom-built/gaussian/g16/l202.exe)
 ---------------------------------------------------------------------------------------------------
                            Z-MATRIX (ANGSTROMS AND DEGREES)
   CD    Cent   Atom    N1       Length/X        N2       Alpha/Y        N3        Beta/Z          J
 ---------------------------------------------------------------------------------------------------
      1      1  Fe       0  -0.793037          0.818805         -0.094905
      2      2  O        0  -1.204971          2.573941         -0.356874
      3      3  H        0  -2.121063          2.649743         -0.633122
      4      4  O        0   0.990122          1.190635         -0.057941
      5      5  H        0   1.426962          0.599798          0.559707
      6      6  O        0  -0.817519          1.030691          1.713650
      7      7  H        0  -1.021079          0.190602          2.131326
      8      8  O        0  -0.385068         -0.933506          0.171177
      9      9  H        0  -1.156817         -1.473692         -0.014327
     10     10  O        0  -2.573405          0.451778         -0.121857
     11     11  H        0  -2.777557         -0.087440         -0.889285
     12     12  O        0  -0.769659          0.604612         -1.901109
     13     13  H        0   0.098725          0.834573         -2.239490
     14     14  H        0  -0.965336         -0.309994         -2.117418
     15     15  H        0   1.122081          2.099426          0.221242
     16     16  H        0  -1.076711          3.058396          0.461841
     17     17  H        0  -2.814074         -0.023981          0.676500
     18     18  H        0   0.042204          1.336153          2.011809
     19     19  H        0  -0.115315         -1.064459          1.083123
 ---------------------------------------------------------------------------------------------------
                         Z-Matrix orientation:                         
 ---------------------------------------------------------------------
 Center     Atomic      Atomic             Coordinates (Angstroms)
 Number     Number       Type             X           Y           Z
 ---------------------------------------------------------------------
      1         26           0       -0.793037    0.818805   -0.094905
      2          8           0       -1.204971    2.573941   -0.356874
      3          1           0       -2.121063    2.649743   -0.633122
      4          8           0        0.990122    1.190635   -0.057941
      5          1           0        1.426962    0.599798    0.559707
      6          8           0       -0.817519    1.030691    1.713650
      7          1           0       -1.021079    0.190602    2.131326
      8          8           0       -0.385068   -0.933506    0.171177
      9          1           0       -1.156817   -1.473692   -0.014327
     10          8           0       -2.573405    0.451778   -0.121857
     11          1           0       -2.777557   -0.087440   -0.889285
     12          8           0       -0.769659    0.604612   -1.901109
     13          1           0        0.098725    0.834573   -2.239490
     14          1           0       -0.965336   -0.309994   -2.117418
     15          1           0        1.122081    2.099426    0.221242
     16          1           0       -1.076711    3.058396    0.461841
     17          1           0       -2.814074   -0.023981    0.676500
     18          1           0        0.042204    1.336153    2.011809
     19          1           0       -0.115315   -1.064459    1.083123
 ---------------------------------------------------------------------
                    Distance matrix (angstroms):
                    1          2          3          4          5
     1  Fe   0.000000
     2  O    1.821762   0.000000
     3  H    2.325008   0.959835   0.000000
     4  O    1.821889   2.611767   3.484150   0.000000
     5  H    2.324839   3.415322   4.267739   0.959899   0.000000
     6  O    1.821090   2.611285   3.134947   2.536076   2.560263
     7  H    2.324381   3.450400   3.859988   3.136540   2.937743
     8  O    1.818745   3.640503   4.062050   2.540791   2.405292
     9  H    2.322579   4.062387   4.279649   3.421971   3.362259
    10  O    1.818006   2.536025   2.301533   3.639880   4.060711
    11  H    2.321775   3.136788   2.826442   4.064482   4.499984
    12  O    1.819010   2.540161   2.759827   2.614866   3.298603
    13  H    2.322657   2.875634   3.286750   2.383386   3.107223
    14  H    2.322591   3.387332   3.506977   3.212032   3.703756
    15  H    2.325429   2.444290   3.398642   0.959822   1.567289
    16  H    2.325125   0.959918   1.567358   2.833814   3.510364
    17  H    2.321626   3.225876   3.056824   4.060370   4.288255
    18  H    2.324547   2.949275   3.660724   2.281137   2.137375
    19  H    2.322443   4.061883   4.556733   2.758526   2.328591
                    6          7          8          9         10
     6  O    0.000000
     7  H    0.960021   0.000000
     8  O    2.534622   2.347406   0.000000
     9  H    3.061530   2.718847   0.960108   0.000000
    10  O    2.605257   2.748593   2.606473   2.392848   0.000000
    11  H    3.444886   3.505227   2.750347   2.305222   0.959885
    12  O    3.640099   4.061422   2.609231   2.833582   2.538227
    13  H    4.062670   4.557707   3.028445   3.443229   3.430916
    14  H    4.061572   4.278496   2.441955   2.411193   2.673658
    15  H    2.670492   3.447487   3.387136   4.244531   4.060675
    16  H    2.397039   3.318813   4.061790   4.557738   3.061904
    17  H    2.484803   2.318921   2.642472   2.307685   0.960023
    18  H    0.959858   1.567527   2.953276   3.665802   3.489421
    19  H    2.297892   1.869309   0.959980   1.567353   3.129403
                   11         12         13         14         15
    11  H    0.000000
    12  O    2.352526   0.000000
    13  H    3.308498   0.959935   0.000000
    14  H    2.200452   0.959991   1.567533   0.000000
    15  H    4.606825   3.212091   2.949969   3.953725   0.000000
    16  H    3.822919   3.420362   3.691102   4.243941   2.410850
    17  H    1.567497   3.349453   4.210050   3.362383   4.495491
    18  H    4.288824   4.062660   4.281159   4.558009   2.225950
    19  H    3.454344   3.481323   3.833001   3.396353   3.504877
                   16         17         18         19
    16  H    0.000000
    17  H    3.544793   0.000000
    18  H    2.573032   3.433851   0.000000
    19  H    4.278809   2.920828   2.578800   0.000000
 Stoichiometry    FeH12O6(3+,6)
 Framework group  C1[X(FeH12O6)]
 Deg. of freedom    51
 Full point group                 C1      NOp   1
 Largest Abelian subgroup         C1      NOp   1
 Largest concise Abelian subgroup C1      NOp   1
                         Standard orientation:                         
 ---------------------------------------------------------------------
 Center     Atomic      Atomic             Coordinates (Angstroms)
 Number     Number       Type             X           Y           Z
 ---------------------------------------------------------------------
      1         26           0       -0.020212   -0.029769    0.009758
      2          8           0       -0.320773   -1.687164   -0.684161
      3          1           0       -1.136997   -1.679346   -1.189137
      4          8           0        1.254785   -0.678144    1.138153
      5          1           0        1.943573   -0.019708    1.254074
      6          8           0        1.298505    0.294488   -1.203590
      7          1           0        1.382461    1.241149   -1.339326
      8          8           0        0.280919    1.626834    0.697379
      9          1           0       -0.430846    2.216032    0.436526
     10          8           0       -1.285567    0.616476   -1.124434
     11          1           0       -2.034473    0.939301   -0.618170
     12          8           0       -1.338192   -0.350985    1.221594
     13          1           0       -0.971642   -0.815184    1.977660
     14          1           0       -1.717006    0.482356    1.510774
     15          1           0        1.635434   -1.476912    0.766219
     16          1           0        0.408530   -1.930525   -1.258908
     17          1           0       -0.914804    1.335716   -1.641030
     18          1           0        2.129249   -0.056449   -0.874904
     19          1           0        1.114608    1.965515    0.362985
 ---------------------------------------------------------------------
 Rotational constants (GHZ):           2.0396930           1.9739388           1.9252729
 Leave Link  202 at Wed Mar  5 19:52:10 2025, MaxMem= 13421772800 cpu:               0.5 elap:               0.0
 (Enter /gpfs/fs1/soft/improv/software/custom-built/gaussian/g16/l301.exe)
 Standard basis: 6-31+G(2df,p) (6D, 7F)
 Ernie: Thresh=  0.10000D-02 Tol=  0.10000D-05 Strict=F.
 There are   347 symmetry adapted cartesian basis functions of A   symmetry.
 There are   317 symmetry adapted basis functions of A   symmetry.
   317 basis functions,   514 primitive gaussians,   347 cartesian basis functions
    44 alpha electrons       39 beta electrons
       nuclear repulsion energy       767.7883002195 Hartrees.
 IExCor= 5345 DFT=T Ex+Corr=N12 ExCW=0 ScaHFX=  0.000000
 ScaDFX=  1.000000  1.000000  1.000000  1.000000 ScalE2=  1.000000  1.000000
 IRadAn=      5 IRanWt=     -1 IRanGd=            0 ICorTp=0 IEmpDi=  4
 NAtoms=   19 NActive=   19 NUniq=   19 SFac= 1.00D+00 NAtFMM=   60 NAOKFM=F Big=F
 Integral buffers will be    131072 words long.
 Raffenetti 2 integral format.
 Two-electron integral symmetry is turned on.
 R6DIni: Non-standard D2/D3 S6 parameter, value=     1.000000
 R6DIni: Non-standard D2/D3 S8 parameter, value=     2.391600
 R6DIni: Non-standard D2/D3 SR6 parameter, value=     1.349300
 Leave Link  301 at Wed Mar  5 19:52:10 2025, MaxMem= 13421772800 cpu:               0.4 elap:               0.1
 (Enter /gpfs/fs1/soft/improv/software/custom-built/gaussian/g16/l302.exe)
 NPDir=0 NMtPBC=     1 NCelOv=     1 NCel=       1 NClECP=     1 NCelD=      1
         NCelK=      1 NCelE2=     1 NClLst=     1 CellRange=     0.0.
 One-electron integrals computed using PRISM.
 One-electron integral symmetry used in STVInt
 NBasis=   317 RedAO= T EigKep=  1.64D-06  NBF=   317
 NBsUse=   317 1.00D-06 EigRej= -1.00D+00 NBFU=   317
 Precomputing XC quadrature grid using
 IXCGrd= 4 IRadAn=           5 IRanWt=          -1 IRanGd=           0 AccXCQ= 0.00D+00.
 Generated NRdTot=       0 NPtTot=           0 NUsed=           0 NTot=          32
 NSgBfM=   347   346   347   347   347 MxSgAt=    19 MxSgA2=    19.
 Leave Link  302 at Wed Mar  5 19:52:10 2025, MaxMem= 13421772800 cpu:              22.2 elap:               0.3
 (Enter /gpfs/fs1/soft/improv/software/custom-built/gaussian/g16/l303.exe)
 DipDrv:  MaxL=1.
 Leave Link  303 at Wed Mar  5 19:52:10 2025, MaxMem= 13421772800 cpu:               1.1 elap:               0.0
 (Enter /gpfs/fs1/soft/improv/software/custom-built/gaussian/g16/l401.exe)
 ExpMin= 1.26D-02 ExpMax= 6.11D+04 ExpMxC= 9.18D+03 IAcc=3 IRadAn=         5 AccDes= 0.00D+00
 Harris functional with IExCor= 5345 and IRadAn=       5 diagonalized for initial guess.
 HarFok:  IExCor= 5345 AccDes= 0.00D+00 IRadAn=         5 IDoV= 1 UseB2=F ITyADJ=14
 ICtDFT=  3500011 ScaDFX=  1.000000  1.000000  1.000000  1.000000
 FoFCou: FMM=F IPFlag=           0 FMFlag=      100000 FMFlg1=           0
         NFxFlg=           0 DoJE=T BraDBF=F KetDBF=T FulRan=T
         wScrn=  0.000000 ICntrl=       500 IOpCl=  0 I1Cent=   200000004 NGrid=           0
         NMat0=    1 NMatS0=      1 NMatT0=    0 NMatD0=    1 NMtDS0=    0 NMtDT0=    0
 Petite list used in FoFCou.
 Harris En= -1721.75921955137    
 JPrj=0 DoOrth=F DoCkMO=F.
 Initial guess <Sx>= 0.0000 <Sy>= 0.0000 <Sz>= 2.5000 <S**2>= 8.7500 S= 2.5000
 Leave Link  401 at Wed Mar  5 19:52:11 2025, MaxMem= 13421772800 cpu:              39.7 elap:               0.5
 (Enter /gpfs/fs1/soft/improv/software/custom-built/gaussian/g16/l502.exe)
 Integral symmetry usage will be decided dynamically.
 UHF open shell SCF:
 Using DIIS extrapolation, IDIIS=  1040.
 NGot= 13421772800 LenX= 13421483807 LenY= 13421362957
 Requested convergence on RMS density matrix=1.00D-08 within  50 cycles.
 Requested convergence on MAX density matrix=1.00D-06.
 Requested convergence on             energy=1.00D-06.
 No special actions if energy rises.
 Fock matrices will be formed incrementally for  20 cycles.

 Cycle   1  Pass 1  IDiag  1:
 FoFJK:  IHMeth= 1 ICntrl=     500 DoSepK=F KAlg= 0 I1Cent=           0 FoldK=F
 IRaf= 990000000 NMat=       1 IRICut=       1 DoRegI=T DoRafI=F ISym2E= 0 IDoP0=0 IntGTp=1.
 FoFCou: FMM=F IPFlag=           0 FMFlag=      100000 FMFlg1=           0
         NFxFlg=           0 DoJE=T BraDBF=F KetDBF=F FulRan=T
         wScrn=  0.000000 ICntrl=       500 IOpCl=  0 I1Cent=           0 NGrid=           0
         NMat0=    1 NMatS0=      1 NMatT0=    0 NMatD0=    1 NMtDS0=    0 NMtDT0=    0
 Symmetry not used in FoFCou.
 E= -1720.67846576128    
 DIIS: error= 3.12D-02 at cycle   1 NSaved=   1.
 NSaved= 1 IEnMin= 1 EnMin= -1720.67846576128     IErMin= 1 ErrMin= 3.12D-02
 ErrMax= 3.12D-02  0.00D+00 EMaxC= 1.00D-01 BMatC= 2.32D+00 BMatP= 2.32D+00
 IDIUse=3 WtCom= 6.88D-01 WtEn= 3.12D-01
 Coeff-Com:  0.100D+01
 Coeff-En:   0.100D+01
 Coeff:      0.100D+01
 Gap=     0.274 Goal=   None    Shift=    0.000
 Gap=    -0.150 Goal=   None    Shift=    0.000
 GapD=   -0.150 DampG=0.250 DampE=0.250 DampFc=0.1250 IDamp=-1.
 Damping current iteration by 1.25D-01
 RMSDP=4.40D-02 MaxDP=5.41D+00              OVMax= 8.90D-01

 Cycle   2  Pass 1  IDiag  1:
 RMSU=  4.16D-03    CP:  1.03D+00
 E= -1720.75145058931     Delta-E=       -0.072984828024 Rises=F Damp=T
 DIIS: error= 1.95D-02 at cycle   2 NSaved=   2.
 NSaved= 2 IEnMin= 2 EnMin= -1720.75145058931     IErMin= 2 ErrMin= 1.95D-02
 ErrMax= 1.95D-02  0.00D+00 EMaxC= 1.00D-01 BMatC= 7.96D-01 BMatP= 2.32D+00
 IDIUse=3 WtCom= 8.05D-01 WtEn= 1.95D-01
 Coeff-Com: -0.446D+00 0.145D+01
 Coeff-En:   0.176D+00 0.824D+00
 Coeff:     -0.324D+00 0.132D+01
 Gap=     0.164 Goal=   None    Shift=    0.000
 Gap=    -0.013 Goal=   None    Shift=    0.000
 RMSDP=1.33D-01 MaxDP=2.38D+01 DE=-7.30D-02 OVMax= 9.93D-01

 Cycle   3  Pass 1  IDiag  1:
 RMSU=  1.30D-01    CP:  1.04D+00  3.00D+00
 E= -1719.68612648993     Delta-E=        1.065324099375 Rises=F Damp=F
 DIIS: error= 6.04D-02 at cycle   3 NSaved=   3.
 NSaved= 3 IEnMin= 2 EnMin= -1720.75145058931     IErMin= 2 ErrMin= 1.95D-02
 ErrMax= 6.04D-02  0.00D+00 EMaxC= 1.00D-01 BMatC= 7.09D+00 BMatP= 7.96D-01
 IDIUse=2 WtCom= 0.00D+00 WtEn= 1.00D+00
 Coeff-En:   0.000D+00 0.854D+00 0.146D+00
 Coeff:      0.000D+00 0.854D+00 0.146D+00
 Gap=     0.000 Goal=   None    Shift=    0.000
 Gap=     0.047 Goal=   None    Shift=    0.000
 RMSDP=1.33D-01 MaxDP=2.40D+01 DE= 1.07D+00 OVMax= 7.70D-01

 Cycle   4  Pass 1  IDiag  1:
 RMSU=  9.06D-03    CP:  9.98D-01  2.71D+00 -1.26D-02
 E= -1720.59572735707     Delta-E=       -0.909600867137 Rises=F Damp=F
 DIIS: error= 4.26D-02 at cycle   4 NSaved=   4.
 NSaved= 4 IEnMin= 2 EnMin= -1720.75145058931     IErMin= 2 ErrMin= 1.95D-02
 ErrMax= 4.26D-02  0.00D+00 EMaxC= 1.00D-01 BMatC= 3.14D+00 BMatP= 7.96D-01
 IDIUse=2 WtCom= 0.00D+00 WtEn= 1.00D+00
 EnCoef did   100 forward-backward iterations
 Coeff-En:   0.481D+00 0.741D-02 0.620D-01 0.450D+00
 Coeff:      0.481D+00 0.741D-02 0.620D-01 0.450D+00
 Gap=     0.110 Goal=   None    Shift=    0.000
 Gap=     0.128 Goal=   None    Shift=    0.000
 RMSDP=3.05D-02 MaxDP=3.48D+00 DE=-9.10D-01 OVMax= 3.72D-01

 Cycle   5  Pass 1  IDiag  1:
 RMSU=  7.58D-03    CP:  7.92D-01  2.03D+00 -1.69D-03  6.65D-01
 E= -1720.98454395176     Delta-E=       -0.388816594685 Rises=F Damp=F
 DIIS: error= 1.65D-02 at cycle   5 NSaved=   5.
 NSaved= 5 IEnMin= 5 EnMin= -1720.98454395176     IErMin= 5 ErrMin= 1.65D-02
 ErrMax= 1.65D-02  0.00D+00 EMaxC= 1.00D-01 BMatC= 4.58D-01 BMatP= 7.96D-01
 IDIUse=3 WtCom= 8.35D-01 WtEn= 1.65D-01
 Coeff-Com: -0.285D+00 0.616D+00-0.248D-01 0.687D-01 0.626D+00
 Coeff-En:   0.000D+00 0.000D+00 0.000D+00 0.178D+00 0.822D+00
 Coeff:     -0.238D+00 0.514D+00-0.207D-01 0.868D-01 0.658D+00
 Gap=     0.165 Goal=   None    Shift=    0.000
 Gap=     0.116 Goal=   None    Shift=    0.000
 RMSDP=1.13D-02 MaxDP=1.47D+00 DE=-3.89D-01 OVMax= 5.82D-02

 Cycle   6  Pass 1  IDiag  1:
 RMSU=  3.86D-03    CP:  8.63D-01  2.25D+00  4.15D-03  3.41D-01  8.08D-01
 E= -1721.04411973404     Delta-E=       -0.059575782280 Rises=F Damp=F
 DIIS: error= 3.50D-03 at cycle   6 NSaved=   6.
 NSaved= 6 IEnMin= 6 EnMin= -1721.04411973404     IErMin= 6 ErrMin= 3.50D-03
 ErrMax= 3.50D-03  0.00D+00 EMaxC= 1.00D-01 BMatC= 6.07D-02 BMatP= 4.58D-01
 IDIUse=3 WtCom= 9.65D-01 WtEn= 3.50D-02
 Coeff-Com: -0.389D+00 0.576D+00-0.174D-01-0.259D-01 0.392D+00 0.464D+00
 Coeff-En:   0.000D+00 0.000D+00 0.000D+00 0.000D+00 0.000D+00 0.100D+01
 Coeff:     -0.376D+00 0.556D+00-0.168D-01-0.250D-01 0.378D+00 0.483D+00
 Gap=     0.146 Goal=   None    Shift=    0.000
 Gap=     0.120 Goal=   None    Shift=    0.000
 RMSDP=3.10D-03 MaxDP=3.64D-01 DE=-5.96D-02 OVMax= 2.47D-02

 Cycle   7  Pass 1  IDiag  1:
 RMSU=  8.45D-04    CP:  8.43D-01  2.27D+00  4.15D-03  3.25D-01  9.23D-01
                    CP:  8.16D-01
 E= -1721.04760538491     Delta-E=       -0.003485650872 Rises=F Damp=F
 DIIS: error= 5.57D-03 at cycle   7 NSaved=   7.
 NSaved= 7 IEnMin= 7 EnMin= -1721.04760538491     IErMin= 6 ErrMin= 3.50D-03
 ErrMax= 5.57D-03  0.00D+00 EMaxC= 1.00D-01 BMatC= 4.95D-02 BMatP= 6.07D-02
 IDIUse=3 WtCom= 9.65D-01 WtEn= 3.50D-02
 Coeff-Com: -0.186D+00 0.233D+00-0.158D-02 0.694D-02-0.919D-01 0.126D+00
 Coeff-Com:  0.914D+00
 Coeff-En:   0.000D+00 0.000D+00 0.000D+00 0.000D+00 0.000D+00 0.231D+00
 Coeff-En:   0.769D+00
 Coeff:     -0.180D+00 0.225D+00-0.152D-02 0.670D-02-0.887D-01 0.129D+00
 Coeff:      0.909D+00
 Gap=     0.156 Goal=   None    Shift=    0.000
 Gap=     0.104 Goal=   None    Shift=    0.000
 RMSDP=3.46D-03 MaxDP=3.97D-01 DE=-3.49D-03 OVMax= 1.94D-02

 Cycle   8  Pass 1  IDiag  1:
 RMSU=  3.65D-04    CP:  8.67D-01  2.39D+00  4.00D-03  3.08D-01  8.42D-01
                    CP:  8.71D-01  1.00D+00
 E= -1721.05419044118     Delta-E=       -0.006585056276 Rises=F Damp=F
 DIIS: error= 1.66D-03 at cycle   8 NSaved=   8.
 NSaved= 8 IEnMin= 8 EnMin= -1721.05419044118     IErMin= 8 ErrMin= 1.66D-03
 ErrMax= 1.66D-03  0.00D+00 EMaxC= 1.00D-01 BMatC= 4.72D-03 BMatP= 4.95D-02
 IDIUse=3 WtCom= 9.83D-01 WtEn= 1.66D-02
 Coeff-Com: -0.491D-01 0.549D-01-0.297D-03 0.111D-01-0.978D-01-0.179D-01
 Coeff-Com:  0.298D+00 0.802D+00
 Coeff-En:   0.000D+00 0.000D+00 0.000D+00 0.000D+00 0.000D+00 0.000D+00
 Coeff-En:   0.000D+00 0.100D+01
 Coeff:     -0.483D-01 0.540D-01-0.292D-03 0.109D-01-0.962D-01-0.176D-01
 Coeff:      0.293D+00 0.805D+00
 Gap=     0.159 Goal=   None    Shift=    0.000
 Gap=     0.100 Goal=   None    Shift=    0.000
 RMSDP=8.32D-04 MaxDP=1.01D-01 DE=-6.59D-03 OVMax= 8.79D-03

 Cycle   9  Pass 1  IDiag  1:
 RMSU=  1.49D-04    CP:  8.72D-01  2.42D+00  3.98D-03  2.96D-01  8.27D-01
                    CP:  8.99D-01  1.07D+00  1.14D+00
 E= -1721.05487055894     Delta-E=       -0.000680117753 Rises=F Damp=F
 DIIS: error= 3.68D-04 at cycle   9 NSaved=   9.
 NSaved= 9 IEnMin= 9 EnMin= -1721.05487055894     IErMin= 9 ErrMin= 3.68D-04
 ErrMax= 3.68D-04  0.00D+00 EMaxC= 1.00D-01 BMatC= 3.82D-04 BMatP= 4.72D-03
 IDIUse=3 WtCom= 9.96D-01 WtEn= 3.68D-03
 Coeff-Com: -0.443D-02 0.333D-02 0.120D-03 0.526D-02-0.426D-01-0.333D-01
 Coeff-Com: -0.107D-01 0.535D+00 0.547D+00
 Coeff-En:   0.000D+00 0.000D+00 0.000D+00 0.000D+00 0.000D+00 0.000D+00
 Coeff-En:   0.000D+00 0.000D+00 0.100D+01
 Coeff:     -0.442D-02 0.331D-02 0.120D-03 0.524D-02-0.425D-01-0.332D-01
 Coeff:     -0.106D-01 0.533D+00 0.549D+00
 Gap=     0.160 Goal=   None    Shift=    0.000
 Gap=     0.099 Goal=   None    Shift=    0.000
 RMSDP=2.66D-04 MaxDP=2.78D-02 DE=-6.80D-04 OVMax= 4.04D-03

 Cycle  10  Pass 1  IDiag  1:
 RMSU=  7.89D-05    CP:  8.74D-01  2.43D+00  4.03D-03  2.91D-01  8.21D-01
                    CP:  9.07D-01  1.10D+00  1.19D+00  9.07D-01
 E= -1721.05492798725     Delta-E=       -0.000057428312 Rises=F Damp=F
 DIIS: error= 6.92D-05 at cycle  10 NSaved=  10.
 NSaved=10 IEnMin=10 EnMin= -1721.05492798725     IErMin=10 ErrMin= 6.92D-05
 ErrMax= 6.92D-05  0.00D+00 EMaxC= 1.00D-01 BMatC= 2.04D-05 BMatP= 3.82D-04
 IDIUse=1 WtCom= 1.00D+00 WtEn= 0.00D+00
 Coeff-Com:  0.312D-02-0.341D-02-0.640D-04 0.212D-04 0.693D-03-0.803D-02
 Coeff-Com: -0.593D-01 0.108D+00 0.317D+00 0.642D+00
 Coeff:      0.312D-02-0.341D-02-0.640D-04 0.212D-04 0.693D-03-0.803D-02
 Coeff:     -0.593D-01 0.108D+00 0.317D+00 0.642D+00
 Gap=     0.160 Goal=   None    Shift=    0.000
 Gap=     0.099 Goal=   None    Shift=    0.000
 RMSDP=3.88D-05 MaxDP=3.96D-03 DE=-5.74D-05 OVMax= 8.69D-04

 Cycle  11  Pass 1  IDiag  1:
 RMSU=  2.37D-05    CP:  8.74D-01  2.43D+00  4.02D-03  2.91D-01  8.21D-01
                    CP:  9.09D-01  1.09D+00  1.21D+00  9.51D-01  7.74D-01
 E= -1721.05493166979     Delta-E=       -0.000003682546 Rises=F Damp=F
 DIIS: error= 2.60D-05 at cycle  11 NSaved=  11.
 NSaved=11 IEnMin=11 EnMin= -1721.05493166979     IErMin=11 ErrMin= 2.60D-05
 ErrMax= 2.60D-05  0.00D+00 EMaxC= 1.00D-01 BMatC= 1.28D-06 BMatP= 2.04D-05
 IDIUse=1 WtCom= 1.00D+00 WtEn= 0.00D+00
 Coeff-Com:  0.864D-03-0.937D-03-0.191D-04-0.195D-03 0.155D-02-0.109D-02
 Coeff-Com: -0.134D-01 0.147D-01 0.759D-01 0.190D+00 0.732D+00
 Coeff:      0.864D-03-0.937D-03-0.191D-04-0.195D-03 0.155D-02-0.109D-02
 Coeff:     -0.134D-01 0.147D-01 0.759D-01 0.190D+00 0.732D+00
 Gap=     0.160 Goal=   None    Shift=    0.000
 Gap=     0.099 Goal=   None    Shift=    0.000
 RMSDP=1.29D-05 MaxDP=1.44D-03 DE=-3.68D-06 OVMax= 1.17D-04

 Cycle  12  Pass 1  IDiag  1:
 RMSU=  4.14D-06    CP:  8.74D-01  2.43D+00  4.02D-03  2.91D-01  8.21D-01
                    CP:  9.09D-01  1.09D+00  1.21D+00  9.62D-01  7.78D-01
                    CP:  1.01D+00
 E= -1721.05493180397     Delta-E=       -0.000000134174 Rises=F Damp=F
 DIIS: error= 8.52D-06 at cycle  12 NSaved=  12.
 NSaved=12 IEnMin=12 EnMin= -1721.05493180397     IErMin=12 ErrMin= 8.52D-06
 ErrMax= 8.52D-06  0.00D+00 EMaxC= 1.00D-01 BMatC= 3.00D-07 BMatP= 1.28D-06
 IDIUse=1 WtCom= 1.00D+00 WtEn= 0.00D+00
 Coeff-Com:  0.188D-03-0.217D-03-0.960D-05-0.123D-03 0.924D-03 0.331D-03
 Coeff-Com: -0.129D-02-0.241D-02 0.130D-01 0.496D-01 0.474D+00 0.466D+00
 Coeff:      0.188D-03-0.217D-03-0.960D-05-0.123D-03 0.924D-03 0.331D-03
 Coeff:     -0.129D-02-0.241D-02 0.130D-01 0.496D-01 0.474D+00 0.466D+00
 Gap=     0.160 Goal=   None    Shift=    0.000
 Gap=     0.099 Goal=   None    Shift=    0.000
 RMSDP=4.66D-06 MaxDP=6.11D-04 DE=-1.34D-07 OVMax= 6.49D-05

 Cycle  13  Pass 1  IDiag  1:
 RMSU=  2.18D-06    CP:  8.74D-01  2.43D+00  4.03D-03  2.91D-01  8.21D-01
                    CP:  9.09D-01  1.09D+00  1.21D+00  9.62D-01  7.82D-01
                    CP:  1.04D+00  8.69D-01
 E= -1721.05493184989     Delta-E=       -0.000000045925 Rises=F Damp=F
 DIIS: error= 2.86D-06 at cycle  13 NSaved=  13.
 NSaved=13 IEnMin=13 EnMin= -1721.05493184989     IErMin=13 ErrMin= 2.86D-06
 ErrMax= 2.86D-06  0.00D+00 EMaxC= 1.00D-01 BMatC= 2.47D-08 BMatP= 3.00D-07
 IDIUse=1 WtCom= 1.00D+00 WtEn= 0.00D+00
 Coeff-Com: -0.709D-04 0.587D-04-0.702D-06-0.257D-04 0.144D-03 0.462D-03
 Coeff-Com:  0.203D-02-0.352D-02-0.859D-02-0.140D-01 0.704D-01 0.209D+00
 Coeff-Com:  0.744D+00
 Coeff:     -0.709D-04 0.587D-04-0.702D-06-0.257D-04 0.144D-03 0.462D-03
 Coeff:      0.203D-02-0.352D-02-0.859D-02-0.140D-01 0.704D-01 0.209D+00
 Coeff:      0.744D+00
 Gap=     0.160 Goal=   None    Shift=    0.000
 Gap=     0.099 Goal=   None    Shift=    0.000
 RMSDP=3.55D-06 MaxDP=4.37D-04 DE=-4.59D-08 OVMax= 1.94D-05

 Cycle  14  Pass 1  IDiag  1:
 RMSU=  1.08D-06    CP:  8.74D-01  2.43D+00  4.04D-03  2.91D-01  8.22D-01
                    CP:  9.09D-01  1.09D+00  1.21D+00  9.62D-01  7.79D-01
                    CP:  1.07D+00  9.74D-01  1.12D+00
 E= -1721.05493185388     Delta-E=       -0.000000003984 Rises=F Damp=F
 DIIS: error= 3.99D-07 at cycle  14 NSaved=  14.
 NSaved=14 IEnMin=14 EnMin= -1721.05493185388     IErMin=14 ErrMin= 3.99D-07
 ErrMax= 3.99D-07  0.00D+00 EMaxC= 1.00D-01 BMatC= 7.46D-10 BMatP= 2.47D-08
 IDIUse=1 WtCom= 1.00D+00 WtEn= 0.00D+00
 Coeff-Com: -0.330D-04 0.305D-04 0.565D-06-0.339D-07-0.382D-04 0.110D-03
 Coeff-Com:  0.662D-03-0.789D-03-0.395D-02-0.966D-02-0.292D-01 0.145D-01
 Coeff-Com:  0.232D+00 0.796D+00
 Coeff:     -0.330D-04 0.305D-04 0.565D-06-0.339D-07-0.382D-04 0.110D-03
 Coeff:      0.662D-03-0.789D-03-0.395D-02-0.966D-02-0.292D-01 0.145D-01
 Coeff:      0.232D+00 0.796D+00
 Gap=     0.160 Goal=   None    Shift=    0.000
 Gap=     0.099 Goal=   None    Shift=    0.000
 RMSDP=1.13D-06 MaxDP=1.36D-04 DE=-3.98D-09 OVMax= 6.65D-06

 Cycle  15  Pass 1  IDiag  1:
 RMSU=  3.15D-07    CP:  8.74D-01  2.43D+00  4.04D-03  2.91D-01  8.22D-01
                    CP:  9.09D-01  1.09D+00  1.21D+00  9.63D-01  7.79D-01
                    CP:  1.08D+00  1.05D+00  1.22D+00  1.05D+00
 E= -1721.05493185400     Delta-E=       -0.000000000121 Rises=F Damp=F
 DIIS: error= 3.04D-07 at cycle  15 NSaved=  15.
 NSaved=15 IEnMin=15 EnMin= -1721.05493185400     IErMin=15 ErrMin= 3.04D-07
 ErrMax= 3.04D-07  0.00D+00 EMaxC= 1.00D-01 BMatC= 3.47D-10 BMatP= 7.46D-10
 IDIUse=1 WtCom= 1.00D+00 WtEn= 0.00D+00
 Coeff-Com: -0.833D-05 0.705D-05 0.274D-06 0.170D-05-0.290D-04 0.200D-04
 Coeff-Com:  0.203D-03-0.243D-03-0.161D-02-0.443D-02-0.206D-01-0.594D-02
 Coeff-Com:  0.798D-01 0.445D+00 0.508D+00
 Coeff:     -0.833D-05 0.705D-05 0.274D-06 0.170D-05-0.290D-04 0.200D-04
 Coeff:      0.203D-03-0.243D-03-0.161D-02-0.443D-02-0.206D-01-0.594D-02
 Coeff:      0.798D-01 0.445D+00 0.508D+00
 Gap=     0.160 Goal=   None    Shift=    0.000
 Gap=     0.099 Goal=   None    Shift=    0.000
 RMSDP=3.06D-07 MaxDP=3.64D-05 DE=-1.21D-10 OVMax= 3.88D-06

 Cycle  16  Pass 1  IDiag  1:
 RMSU=  1.10D-07    CP:  8.74D-01  2.43D+00  4.04D-03  2.91D-01  8.22D-01
                    CP:  9.09D-01  1.09D+00  1.21D+00  9.63D-01  7.80D-01
                    CP:  1.08D+00  1.05D+00  1.26D+00  1.09D+00  9.55D-01
 E= -1721.05493185400     Delta-E=       -0.000000000000 Rises=F Damp=F
 DIIS: error= 1.24D-07 at cycle  16 NSaved=  16.
 NSaved=16 IEnMin=16 EnMin= -1721.05493185400     IErMin=16 ErrMin= 1.24D-07
 ErrMax= 1.24D-07  0.00D+00 EMaxC= 1.00D-01 BMatC= 6.51D-11 BMatP= 3.47D-10
 IDIUse=1 WtCom= 1.00D+00 WtEn= 0.00D+00
 Coeff-Com:  0.566D-05-0.623D-05 0.690D-07 0.121D-05-0.871D-05-0.209D-04
 Coeff-Com: -0.545D-04 0.394D-04 0.655D-05-0.321D-03-0.531D-02-0.754D-02
 Coeff-Com: -0.936D-02 0.804D-01 0.339D+00 0.603D+00
 Coeff:      0.566D-05-0.623D-05 0.690D-07 0.121D-05-0.871D-05-0.209D-04
 Coeff:     -0.545D-04 0.394D-04 0.655D-05-0.321D-03-0.531D-02-0.754D-02
 Coeff:     -0.936D-02 0.804D-01 0.339D+00 0.603D+00
 Gap=     0.160 Goal=   None    Shift=    0.000
 Gap=     0.099 Goal=   None    Shift=    0.000
 RMSDP=2.11D-07 MaxDP=3.19D-05 DE=-4.55D-13 OVMax= 1.91D-06

 Cycle  17  Pass 1  IDiag  1:
 RMSU=  4.17D-08    CP:  8.74D-01  2.43D+00  4.04D-03  2.91D-01  8.22D-01
                    CP:  9.09D-01  1.09D+00  1.21D+00  9.63D-01  7.79D-01
                    CP:  1.08D+00  1.06D+00  1.27D+00  1.12D+00  9.96D-01
                    CP:  8.12D-01
 E= -1721.05493185402     Delta-E=       -0.000000000025 Rises=F Damp=F
 DIIS: error= 6.03D-08 at cycle  17 NSaved=  17.
 NSaved=17 IEnMin=17 EnMin= -1721.05493185402     IErMin=17 ErrMin= 6.03D-08
 ErrMax= 6.03D-08  0.00D+00 EMaxC= 1.00D-01 BMatC= 8.56D-12 BMatP= 6.51D-11
 IDIUse=1 WtCom= 1.00D+00 WtEn= 0.00D+00
 Coeff-Com:  0.158D-05-0.149D-05-0.113D-08 0.221D-06 0.529D-06-0.616D-05
 Coeff-Com: -0.355D-04 0.539D-04 0.193D-03 0.407D-03 0.436D-03-0.197D-02
 Coeff-Com: -0.131D-01-0.271D-01 0.509D-01 0.204D+00 0.786D+00
 Coeff:      0.158D-05-0.149D-05-0.113D-08 0.221D-06 0.529D-06-0.616D-05
 Coeff:     -0.355D-04 0.539D-04 0.193D-03 0.407D-03 0.436D-03-0.197D-02
 Coeff:     -0.131D-01-0.271D-01 0.509D-01 0.204D+00 0.786D+00
 Gap=     0.160 Goal=   None    Shift=    0.000
 Gap=     0.099 Goal=   None    Shift=    0.000
 RMSDP=6.19D-08 MaxDP=9.18D-06 DE=-2.50D-11 OVMax= 4.23D-07

 Cycle  18  Pass 1  IDiag  1:
 RMSU=  8.98D-09    CP:  8.74D-01  2.43D+00  4.04D-03  2.91D-01  8.22D-01
                    CP:  9.09D-01  1.09D+00  1.21D+00  9.63D-01  7.79D-01
                    CP:  1.08D+00  1.06D+00  1.28D+00  1.13D+00  1.03D+00
                    CP:  8.59D-01  9.49D-01
 E= -1721.05493185402     Delta-E=        0.000000000003 Rises=F Damp=F
 DIIS: error= 1.27D-08 at cycle  18 NSaved=  18.
 NSaved=18 IEnMin=17 EnMin= -1721.05493185402     IErMin=18 ErrMin= 1.27D-08
 ErrMax= 1.27D-08  0.00D+00 EMaxC= 1.00D-01 BMatC= 4.54D-13 BMatP= 8.56D-12
 IDIUse=1 WtCom= 1.00D+00 WtEn= 0.00D+00
 Coeff-Com:  0.405D-06-0.338D-06-0.129D-08 0.508D-07 0.603D-06-0.176D-05
 Coeff-Com: -0.138D-04 0.249D-04 0.907D-04 0.206D-03 0.397D-03-0.677D-03
 Coeff-Com: -0.593D-02-0.158D-01 0.112D-01 0.718D-01 0.359D+00 0.579D+00
 Coeff:      0.405D-06-0.338D-06-0.129D-08 0.508D-07 0.603D-06-0.176D-05
 Coeff:     -0.138D-04 0.249D-04 0.907D-04 0.206D-03 0.397D-03-0.677D-03
 Coeff:     -0.593D-02-0.158D-01 0.112D-01 0.718D-01 0.359D+00 0.579D+00
 Gap=     0.160 Goal=   None    Shift=    0.000
 Gap=     0.099 Goal=   None    Shift=    0.000
 RMSDP=1.03D-08 MaxDP=1.40D-06 DE= 2.73D-12 OVMax= 1.28D-07

 Cycle  19  Pass 1  IDiag  1:
 RMSU=  2.17D-09    CP:  8.74D-01  2.43D+00  4.04D-03  2.91D-01  8.22D-01
                    CP:  9.09D-01  1.09D+00  1.21D+00  9.63D-01  7.79D-01
                    CP:  1.08D+00  1.06D+00  1.28D+00  1.13D+00  1.03D+00
                    CP:  8.60D-01  9.66D-01  1.01D+00
 E= -1721.05493185402     Delta-E=        0.000000000005 Rises=F Damp=F
 DIIS: error= 5.96D-09 at cycle  19 NSaved=  19.
 NSaved=19 IEnMin=17 EnMin= -1721.05493185402     IErMin=19 ErrMin= 5.96D-09
 ErrMax= 5.96D-09  0.00D+00 EMaxC= 1.00D-01 BMatC= 7.62D-14 BMatP= 4.54D-13
 IDIUse=1 WtCom= 1.00D+00 WtEn= 0.00D+00
 Coeff-Com: -0.118D-07 0.288D-07 0.131D-08-0.103D-07 0.270D-06-0.326D-07
 Coeff-Com: -0.238D-05 0.672D-05 0.242D-04 0.623D-04 0.186D-03-0.829D-04
 Coeff-Com: -0.152D-02-0.553D-02-0.200D-02 0.915D-02 0.892D-01 0.396D+00
 Coeff-Com:  0.514D+00
 Coeff:     -0.118D-07 0.288D-07 0.131D-08-0.103D-07 0.270D-06-0.326D-07
 Coeff:     -0.238D-05 0.672D-05 0.242D-04 0.623D-04 0.186D-03-0.829D-04
 Coeff:     -0.152D-02-0.553D-02-0.200D-02 0.915D-02 0.892D-01 0.396D+00
 Coeff:      0.514D+00
 Gap=     0.160 Goal=   None    Shift=    0.000
 Gap=     0.099 Goal=   None    Shift=    0.000
 RMSDP=3.18D-09 MaxDP=4.65D-07 DE= 4.55D-12 OVMax= 3.94D-08

 SCF Done:  E(UN12) =  -1721.05493185     A.U. after   19 cycles
            NFock= 19  Conv=0.32D-08     -V/T= 2.0013
 <Sx>= 0.0000 <Sy>= 0.0000 <Sz>= 2.5000 <S**2>= 8.7530 S= 2.5005
 <L.S>=  0.00000000000    
 KE= 1.718865336667D+03 PE=-5.576945311130D+03 EE= 1.369236742389D+03
 Annihilation of the first spin contaminant:
 S**2 before annihilation     8.7530,   after     8.7500
 Leave Link  502 at Wed Mar  5 19:53:17 2025, MaxMem= 13421772800 cpu:            7871.1 elap:              65.4
 (Enter /gpfs/fs1/soft/improv/software/custom-built/gaussian/g16/l508.exe)
 QCSCF skips out because SCF is already converged.
 Leave Link  508 at Wed Mar  5 19:53:18 2025, MaxMem= 13421772800 cpu:               0.3 elap:               0.0
 (Enter /gpfs/fs1/soft/improv/software/custom-built/gaussian/g16/l801.exe)
 DoSCS=F DFT=T ScalE2(SS,OS)=  1.000000  1.000000
 Range of M.O.s used for correlation:     1   317
 NBasis=   317 NAE=    44 NBE=    39 NFC=     0 NFV=     0
 NROrb=    317 NOA=    44 NOB=    39 NVA=   273 NVB=   278

 **** Warning!!: The largest alpha MO coefficient is  0.22197191D+03


 **** Warning!!: The largest beta MO coefficient is  0.22771386D+03


 **** Warning!!: The smallest beta delta epsilon is  0.99438771D-01

 Leave Link  801 at Wed Mar  5 19:53:18 2025, MaxMem= 13421772800 cpu:               0.4 elap:               0.0
 (Enter /gpfs/fs1/soft/improv/software/custom-built/gaussian/g16/l1101.exe)
 Using compressed storage, NAtomX=    19.
 Will process     20 centers per pass.
 Leave Link 1101 at Wed Mar  5 19:53:18 2025, MaxMem= 13421772800 cpu:              51.5 elap:               0.5
 (Enter /gpfs/fs1/soft/improv/software/custom-built/gaussian/g16/l1102.exe)
 Symmetrizing basis deriv contribution to polar:
 IMax=3 JMax=2 DiffMx= 0.00D+00
 Leave Link 1102 at Wed Mar  5 19:53:19 2025, MaxMem= 13421772800 cpu:               1.1 elap:               0.0
 (Enter /gpfs/fs1/soft/improv/software/custom-built/gaussian/g16/l1110.exe)
 Forming Gx(P) for the SCF density, NAtomX=    19.
 Integral derivatives from FoFJK, PRISM(SPDF).
 Do as many integral derivatives as possible in FoFJK.
 G2DrvN: MDV=   13421770631.
 G2DrvN: will do    20 centers at a time, making    1 passes.
 Calling FoFCou, ICntrl=  3507 FMM=F I1Cent=   0 AccDes= 0.00D+00.
 FoFJK:  IHMeth= 1 ICntrl=    3507 DoSepK=F KAlg= 0 I1Cent=           0 FoldK=F
 IRaf=         0 NMat=       1 IRICut=       1 DoRegI=T DoRafI=F ISym2E= 0 IDoP0=0 IntGTp=1.
 FoFCou: FMM=F IPFlag=           0 FMFlag=      100000 FMFlg1=           0
         NFxFlg=           0 DoJE=F BraDBF=F KetDBF=F FulRan=T
         wScrn=  0.000000 ICntrl=      3507 IOpCl=  0 I1Cent=           0 NGrid=           0
         NMat0=    1 NMatS0=      1 NMatT0=    0 NMatD0=    1 NMtDS0=    0 NMtDT0=    0
 Symmetry not used in FoFCou.
 End of G2Drv F.D. properties file   721 does not exist.
 End of G2Drv F.D. properties file   722 does not exist.
 End of G2Drv F.D. properties file   788 does not exist.
 Leave Link 1110 at Wed Mar  5 19:53:33 2025, MaxMem= 13421772800 cpu:            1764.5 elap:              14.2
 (Enter /gpfs/fs1/soft/improv/software/custom-built/gaussian/g16/l1002.exe)
 Minotr:  UHF open shell wavefunction.
          IDoAtm=1111111111111111111
          Direct CPHF calculation.
          Differentiating once with respect to electric field.
                with respect to dipole field.
          Differentiating once with respect to nuclear coordinates.
          Requested convergence is 1.0D-08 RMS, and 1.0D-07 maximum.
          Secondary convergence is 1.0D-12 RMS, and 1.0D-12 maximum.
          NewPWx=T KeepS1=F KeepF1=F KeepIn=T MapXYZ=F SortEE=F KeepMc=T.
         6034 words used for storage of precomputed grid.
 Two-electron integrals replicated using symmetry.
          MDV=   13421772800 using IRadAn=       1.
          Solving linear equations simultaneously, MaxMat=     384.
 FoF2E skips out because all densities are zero.
 CalDSu exits because no D1Ps are significant.
 FoFJK:  IHMeth= 1 ICntrl=     500 DoSepK=F KAlg= 0 I1Cent=           0 FoldK=F
 IRaf= 990000000 NMat=      57 IRICut=       1 DoRegI=T DoRafI=F ISym2E= 2 IDoP0=3 IntGTp=2.
 FoFCou: FMM=F IPFlag=           0 FMFlag=      100000 FMFlg1=           0
         NFxFlg=           0 DoJE=F BraDBF=F KetDBF=F FulRan=T
         wScrn=  0.000000 ICntrl=       500 IOpCl=  0 I1Cent=           0 NGrid=           0
         NMat0=   57 NMatS0=     57 NMatT0=    0 NMatD0=   57 NMtDS0=    0 NMtDT0=    0
 Integrals replicated using symmetry in FoFCou.
          There are    60 degrees of freedom in the 1st order CPHF.  IDoFFX=6 NUNeed=     3.
     57 vectors produced by pass  0 Test12= 3.81D-14 1.67D-09 XBig12= 1.36D+02 4.36D+00.
 AX will form    57 AO Fock derivatives at one time.
     57 vectors produced by pass  1 Test12= 3.81D-14 1.67D-09 XBig12= 1.81D+01 6.66D-01.
     57 vectors produced by pass  2 Test12= 3.81D-14 1.67D-09 XBig12= 1.90D-01 7.73D-02.
     57 vectors produced by pass  3 Test12= 3.81D-14 1.67D-09 XBig12= 1.94D-03 4.79D-03.
     57 vectors produced by pass  4 Test12= 3.81D-14 1.67D-09 XBig12= 8.50D-06 2.79D-04.
     57 vectors produced by pass  5 Test12= 3.81D-14 1.67D-09 XBig12= 2.22D-08 1.19D-05.
     22 vectors produced by pass  6 Test12= 3.81D-14 1.67D-09 XBig12= 4.57D-11 4.81D-07.
      3 vectors produced by pass  7 Test12= 3.81D-14 1.67D-09 XBig12= 9.38D-14 2.41D-08.
 InvSVY:  IOpt=1 It=  1 EMax= 2.48D-15
 Solved reduced A of dimension   367 with    60 vectors.
 FullF1:  Do perturbations      1 to       3.
 Isotropic polarizability for W=    0.000000       54.87 Bohr**3.
 End of Minotr F.D. properties file   721 does not exist.
 End of Minotr F.D. properties file   722 does not exist.
 End of Minotr F.D. properties file   788 does not exist.
 Leave Link 1002 at Wed Mar  5 19:54:18 2025, MaxMem= 13421772800 cpu:            5290.9 elap:              44.3
 (Enter /gpfs/fs1/soft/improv/software/custom-built/gaussian/g16/l601.exe)
 Copying SCF densities to generalized density rwf, IOpCl= 1 IROHF=0.

 **********************************************************************

            Population analysis using the SCF Density.

 **********************************************************************

 Orbital symmetries:
 Alpha Orbitals:
       Occupied  (A) (A) (A) (A) (A) (A) (A) (A) (A) (A) (A) (A)
                 (A) (A) (A) (A) (A) (A) (A) (A) (A) (A) (A) (A)
                 (A) (A) (A) (A) (A) (A) (A) (A) (A) (A) (A) (A)
                 (A) (A) (A) (A) (A) (A) (A) (A)
       Virtual   (A) (A) (A) (A) (A) (A) (A) (A) (A) (A) (A) (A)
                 (A) (A) (A) (A) (A) (A) (A) (A) (A) (A) (A) (A)
                 (A) (A) (A) (A) (A) (A) (A) (A) (A) (A) (A) (A)
                 (A) (A) (A) (A) (A) (A) (A) (A) (A) (A) (A) (A)
                 (A) (A) (A) (A) (A) (A) (A) (A) (A) (A) (A) (A)
                 (A) (A) (A) (A) (A) (A) (A) (A) (A) (A) (A) (A)
                 (A) (A) (A) (A) (A) (A) (A) (A) (A) (A) (A) (A)
                 (A) (A) (A) (A) (A) (A) (A) (A) (A) (A) (A) (A)
                 (A) (A) (A) (A) (A) (A) (A) (A) (A) (A) (A) (A)
                 (A) (A) (A) (A) (A) (A) (A) (A) (A) (A) (A) (A)
                 (A) (A) (A) (A) (A) (A) (A) (A) (A) (A) (A) (A)
                 (A) (A) (A) (A) (A) (A) (A) (A) (A) (A) (A) (A)
                 (A) (A) (A) (A) (A) (A) (A) (A) (A) (A) (A) (A)
                 (A) (A) (A) (A) (A) (A) (A) (A) (A) (A) (A) (A)
                 (A) (A) (A) (A) (A) (A) (A) (A) (A) (A) (A) (A)
                 (A) (A) (A) (A) (A) (A) (A) (A) (A) (A) (A) (A)
                 (A) (A) (A) (A) (A) (A) (A) (A) (A) (A) (A) (A)
                 (A) (A) (A) (A) (A) (A) (A) (A) (A) (A) (A) (A)
                 (A) (A) (A) (A) (A) (A) (A) (A) (A) (A) (A) (A)
                 (A) (A) (A) (A) (A) (A) (A) (A) (A) (A) (A) (A)
                 (A) (A) (A) (A) (A) (A) (A) (A) (A) (A) (A) (A)
                 (A) (A) (A) (A) (A) (A) (A) (A) (A) (A) (A) (A)
                 (A) (A) (A) (A) (A) (A) (A) (A) (A)
 Beta  Orbitals:
       Occupied  (A) (A) (A) (A) (A) (A) (A) (A) (A) (A) (A) (A)
                 (A) (A) (A) (A) (A) (A) (A) (A) (A) (A) (A) (A)
                 (A) (A) (A) (A) (A) (A) (A) (A) (A) (A) (A) (A)
                 (A) (A) (A)
       Virtual   (A) (A) (A) (A) (A) (A) (A) (A) (A) (A) (A) (A)
                 (A) (A) (A) (A) (A) (A) (A) (A) (A) (A) (A) (A)
                 (A) (A) (A) (A) (A) (A) (A) (A) (A) (A) (A) (A)
                 (A) (A) (A) (A) (A) (A) (A) (A) (A) (A) (A) (A)
                 (A) (A) (A) (A) (A) (A) (A) (A) (A) (A) (A) (A)
                 (A) (A) (A) (A) (A) (A) (A) (A) (A) (A) (A) (A)
                 (A) (A) (A) (A) (A) (A) (A) (A) (A) (A) (A) (A)
                 (A) (A) (A) (A) (A) (A) (A) (A) (A) (A) (A) (A)
                 (A) (A) (A) (A) (A) (A) (A) (A) (A) (A) (A) (A)
                 (A) (A) (A) (A) (A) (A) (A) (A) (A) (A) (A) (A)
                 (A) (A) (A) (A) (A) (A) (A) (A) (A) (A) (A) (A)
                 (A) (A) (A) (A) (A) (A) (A) (A) (A) (A) (A) (A)
                 (A) (A) (A) (A) (A) (A) (A) (A) (A) (A) (A) (A)
                 (A) (A) (A) (A) (A) (A) (A) (A) (A) (A) (A) (A)
                 (A) (A) (A) (A) (A) (A) (A) (A) (A) (A) (A) (A)
                 (A) (A) (A) (A) (A) (A) (A) (A) (A) (A) (A) (A)
                 (A) (A) (A) (A) (A) (A) (A) (A) (A) (A) (A) (A)
                 (A) (A) (A) (A) (A) (A) (A) (A) (A) (A) (A) (A)
                 (A) (A) (A) (A) (A) (A) (A) (A) (A) (A) (A) (A)
                 (A) (A) (A) (A) (A) (A) (A) (A) (A) (A) (A) (A)
                 (A) (A) (A) (A) (A) (A) (A) (A) (A) (A) (A) (A)
                 (A) (A) (A) (A) (A) (A) (A) (A) (A) (A) (A) (A)
                 (A) (A) (A) (A) (A) (A) (A) (A) (A) (A) (A) (A)
                 (A) (A)
 The electronic state is 6-A.
 Alpha  occ. eigenvalues -- -255.03682 -30.29567 -26.46680 -26.46554 -26.46505
 Alpha  occ. eigenvalues --  -19.39577 -19.39528 -19.38752 -19.38572 -19.36769
 Alpha  occ. eigenvalues --  -19.36108  -3.98550  -2.84144  -2.83785  -2.83658
 Alpha  occ. eigenvalues --   -1.57849  -1.55449  -1.54914  -1.54503  -1.52819
 Alpha  occ. eigenvalues --   -1.52076  -1.14068  -1.12624  -1.10954  -1.10206
 Alpha  occ. eigenvalues --   -1.08647  -1.07307  -1.04787  -1.04658  -1.04250
 Alpha  occ. eigenvalues --   -0.99592  -0.98914  -0.96905  -0.96357  -0.93513
 Alpha  occ. eigenvalues --   -0.92180  -0.90463  -0.90135  -0.87674  -0.87437
 Alpha  occ. eigenvalues --   -0.85986  -0.84697  -0.74531  -0.74261
 Alpha virt. eigenvalues --   -0.58232  -0.53013  -0.50814  -0.49368  -0.46348
 Alpha virt. eigenvalues --   -0.45189  -0.43853  -0.43485  -0.40935  -0.39252
 Alpha virt. eigenvalues --   -0.38839  -0.37356  -0.35275  -0.34245  -0.33487
 Alpha virt. eigenvalues --   -0.31901  -0.31206  -0.30858  -0.30416  -0.30182
 Alpha virt. eigenvalues --   -0.28138  -0.27619  -0.27247  -0.26526  -0.24926
 Alpha virt. eigenvalues --   -0.24633  -0.23555  -0.22432  -0.21795  -0.21556
 Alpha virt. eigenvalues --   -0.20901  -0.19981  -0.18344  -0.17718  -0.16799
 Alpha virt. eigenvalues --   -0.15949  -0.15306  -0.14883  -0.13949  -0.13153
 Alpha virt. eigenvalues --   -0.11615  -0.10939  -0.10483  -0.09245  -0.08671
 Alpha virt. eigenvalues --   -0.07776  -0.04759  -0.03657  -0.02019   0.03319
 Alpha virt. eigenvalues --    0.05013   0.06742   0.07387   0.17841   0.19039
 Alpha virt. eigenvalues --    0.20441   0.23100   0.24970   0.25852   0.27310
 Alpha virt. eigenvalues --    0.28793   0.29422   0.30187   0.31282   0.31707
 Alpha virt. eigenvalues --    0.33281   0.35735   0.36897   0.37658   0.39102
 Alpha virt. eigenvalues --    0.39705   0.40853   0.41338   0.43607   0.46454
 Alpha virt. eigenvalues --    0.47679   0.48113   0.49380   0.49637   0.50343
 Alpha virt. eigenvalues --    0.50847   0.53125   0.55277   0.57028   0.57804
 Alpha virt. eigenvalues --    0.59403   0.62464   0.63762   0.65706   0.67127
 Alpha virt. eigenvalues --    0.69054   0.71415   0.71849   0.73014   0.74166
 Alpha virt. eigenvalues --    0.75406   0.78310   0.79852   0.81068   0.82348
 Alpha virt. eigenvalues --    0.84489   0.85618   0.87161   1.00867   1.02207
 Alpha virt. eigenvalues --    1.10598   1.11432   1.14024   1.15389   1.17931
 Alpha virt. eigenvalues --    1.18782   1.19490   1.20632   1.22906   1.25148
 Alpha virt. eigenvalues --    1.27926   1.30769   1.31917   1.34400   1.37552
 Alpha virt. eigenvalues --    1.43417   1.47794   1.54283   1.62537   1.64182
 Alpha virt. eigenvalues --    1.66034   1.69066   1.69653   1.72842   1.77354
 Alpha virt. eigenvalues --    1.78350   1.78398   1.80920   1.81579   1.88907
 Alpha virt. eigenvalues --    1.91426   1.95486   1.98786   2.02213   2.05295
 Alpha virt. eigenvalues --    2.07607   2.09144   2.13393   2.16511   2.19798
 Alpha virt. eigenvalues --    2.21328   2.25237   2.27241   2.28622   2.30931
 Alpha virt. eigenvalues --    2.32228   2.33394   2.36467   2.36908   2.38591
 Alpha virt. eigenvalues --    2.40246   2.40667   2.42806   2.43234   2.44865
 Alpha virt. eigenvalues --    2.45599   2.46618   2.48178   2.50045   2.55018
 Alpha virt. eigenvalues --    2.60220   2.67096   2.70174   2.71000   2.72853
 Alpha virt. eigenvalues --    2.81614   3.08468   3.36136   3.37688   3.40648
 Alpha virt. eigenvalues --    3.44346   3.46057   3.51626   3.52641   3.54223
 Alpha virt. eigenvalues --    3.57439   3.58120   3.58858   3.60130   3.63581
 Alpha virt. eigenvalues --    3.64678   3.65237   3.65621   3.68221   3.71555
 Alpha virt. eigenvalues --    3.72578   3.73028   3.76087   3.77170   3.81328
 Alpha virt. eigenvalues --    3.82916   3.84359   3.85315   3.88839   3.90736
 Alpha virt. eigenvalues --    3.91564   3.95849   3.97493   4.02832   4.05866
 Alpha virt. eigenvalues --    4.10276   4.11843   4.12476   4.14803   4.16991
 Alpha virt. eigenvalues --    4.22858   4.28020   4.28805   4.31222   4.32655
 Alpha virt. eigenvalues --    4.34133   4.36389   4.39410   4.50341   4.55392
 Alpha virt. eigenvalues --    4.57806   4.58460   4.61731   4.64485   4.71156
 Alpha virt. eigenvalues --    4.75103   4.75836   4.77094   4.77872   4.79439
 Alpha virt. eigenvalues --    4.80916   4.81050   4.81804   4.83549   4.88519
 Alpha virt. eigenvalues --    4.89241   4.95504   4.97115   4.98597   5.00488
 Alpha virt. eigenvalues --    5.02220   5.06374   5.07307   5.09023   5.12381
 Alpha virt. eigenvalues --    5.14987   5.17423   5.19185   5.20448   5.22278
 Alpha virt. eigenvalues --    5.24512   5.25713   5.27722   5.28089   5.31652
 Alpha virt. eigenvalues --    5.35517   5.37194   5.49428   5.50499   5.90765
 Alpha virt. eigenvalues --    6.81191   6.83857   6.85216   6.92741   6.95763
 Alpha virt. eigenvalues --    7.10363  13.23365  13.25505  13.26552  13.81762
 Alpha virt. eigenvalues --   13.87393  13.92478  25.42671
  Beta  occ. eigenvalues -- -255.03243 -30.20095 -26.39000 -26.38909 -26.38863
  Beta  occ. eigenvalues --  -19.39114 -19.39062 -19.38247 -19.38048 -19.36167
  Beta  occ. eigenvalues --  -19.35494  -3.81171  -2.67315  -2.67093  -2.66963
  Beta  occ. eigenvalues --   -1.57121  -1.54707  -1.54119  -1.53699  -1.51874
  Beta  occ. eigenvalues --   -1.51102  -1.13335  -1.11864  -1.10415  -1.09608
  Beta  occ. eigenvalues --   -1.07914  -1.06678  -1.03128  -1.01250  -1.00495
  Beta  occ. eigenvalues --   -0.97591  -0.97331  -0.95153  -0.94201  -0.90919
  Beta  occ. eigenvalues --   -0.89529  -0.88214  -0.86720  -0.85393
  Beta virt. eigenvalues --   -0.75449  -0.74805  -0.73645  -0.63681  -0.63421
  Beta virt. eigenvalues --   -0.57676  -0.52403  -0.50241  -0.48890  -0.45648
  Beta virt. eigenvalues --   -0.44467  -0.43272  -0.42907  -0.40276  -0.38673
  Beta virt. eigenvalues --   -0.38238  -0.36759  -0.35299  -0.34414  -0.33427
  Beta virt. eigenvalues --   -0.32146  -0.31020  -0.30610  -0.30458  -0.30048
  Beta virt. eigenvalues --   -0.27848  -0.27471  -0.27056  -0.26022  -0.24530
  Beta virt. eigenvalues --   -0.24044  -0.23135  -0.21978  -0.21373  -0.20803
  Beta virt. eigenvalues --   -0.20218  -0.19775  -0.17986  -0.17516  -0.16146
  Beta virt. eigenvalues --   -0.15839  -0.14840  -0.14187  -0.13401  -0.12579
  Beta virt. eigenvalues --   -0.11406  -0.10569  -0.10296  -0.08708  -0.08329
  Beta virt. eigenvalues --   -0.07301  -0.04592  -0.02922  -0.01271   0.04240
  Beta virt. eigenvalues --    0.05962   0.06855   0.07486   0.18158   0.19384
  Beta virt. eigenvalues --    0.20857   0.23473   0.25527   0.26579   0.28096
  Beta virt. eigenvalues --    0.29361   0.29905   0.30743   0.31648   0.32141
  Beta virt. eigenvalues --    0.33993   0.36339   0.37293   0.38172   0.39261
  Beta virt. eigenvalues --    0.40311   0.41341   0.41810   0.43920   0.47134
  Beta virt. eigenvalues --    0.48294   0.48703   0.49889   0.50248   0.50898
  Beta virt. eigenvalues --    0.51500   0.53892   0.55738   0.57731   0.58476
  Beta virt. eigenvalues --    0.60022   0.63174   0.64686   0.66604   0.68379
  Beta virt. eigenvalues --    0.70044   0.72520   0.72885   0.73987   0.75083
  Beta virt. eigenvalues --    0.76510   0.79282   0.81414   0.82691   0.83819
  Beta virt. eigenvalues --    0.85802   0.86714   0.88465   1.02668   1.03745
  Beta virt. eigenvalues --    1.12422   1.12986   1.15366   1.16470   1.20132
  Beta virt. eigenvalues --    1.20684   1.21789   1.22597   1.25374   1.26993
  Beta virt. eigenvalues --    1.30618   1.31868   1.33082   1.36290   1.38555
  Beta virt. eigenvalues --    1.44052   1.48922   1.55192   1.62854   1.64519
  Beta virt. eigenvalues --    1.66490   1.69568   1.70019   1.73343   1.78014
  Beta virt. eigenvalues --    1.78925   1.79032   1.81471   1.81976   1.89599
  Beta virt. eigenvalues --    1.92639   1.95886   1.99400   2.02710   2.06271
  Beta virt. eigenvalues --    2.08892   2.09869   2.14332   2.17903   2.21205
  Beta virt. eigenvalues --    2.22748   2.26751   2.29330   2.30695   2.31778
  Beta virt. eigenvalues --    2.33236   2.34322   2.37189   2.37630   2.39240
  Beta virt. eigenvalues --    2.40846   2.41643   2.44082   2.45123   2.45902
  Beta virt. eigenvalues --    2.46697   2.47729   2.49375   2.51536   2.55660
  Beta virt. eigenvalues --    2.60792   2.68109   2.71189   2.72924   2.75129
  Beta virt. eigenvalues --    2.83526   3.11215   3.38859   3.40146   3.42104
  Beta virt. eigenvalues --    3.45551   3.47124   3.52803   3.53930   3.55537
  Beta virt. eigenvalues --    3.59400   3.60391   3.61079   3.61758   3.66596
  Beta virt. eigenvalues --    3.67536   3.68173   3.69007   3.70148   3.73409
  Beta virt. eigenvalues --    3.76857   3.77688   3.78866   3.80604   3.84531
  Beta virt. eigenvalues --    3.85457   3.87145   3.87599   3.90767   3.92787
  Beta virt. eigenvalues --    3.93721   3.98870   4.07182   4.10046   4.10560
  Beta virt. eigenvalues --    4.13058   4.16455   4.17459   4.18934   4.19683
  Beta virt. eigenvalues --    4.25400   4.31768   4.31978   4.33888   4.34981
  Beta virt. eigenvalues --    4.37210   4.39100   4.44268   4.51758   4.57338
  Beta virt. eigenvalues --    4.59348   4.59983   4.63235   4.66319   4.72949
  Beta virt. eigenvalues --    4.76017   4.76937   4.77994   4.78624   4.80853
  Beta virt. eigenvalues --    4.81878   4.82718   4.83653   4.85431   4.90645
  Beta virt. eigenvalues --    4.91428   4.97185   4.98749   5.00087   5.02147
  Beta virt. eigenvalues --    5.04673   5.08429   5.09687   5.10990   5.14438
  Beta virt. eigenvalues --    5.16443   5.18710   5.20893   5.22188   5.23758
  Beta virt. eigenvalues --    5.26137   5.27250   5.29696   5.30112   5.32590
  Beta virt. eigenvalues --    5.36418   5.38137   5.50739   5.51749   5.93160
  Beta virt. eigenvalues --    6.82359   6.85026   6.86344   6.93905   6.96913
  Beta virt. eigenvalues --    7.11326  13.24348  13.26451  13.27482  13.82771
  Beta virt. eigenvalues --   13.88382  13.93473  25.50819
          Condensed to atoms (all electrons):
               1          2          3          4          5          6
     1  Fe  25.278939  -0.053580  -0.015139  -0.041607  -0.014560  -0.064434
     2  O   -0.053580   8.130778   0.318109  -0.041981   0.000075  -0.047103
     3  H   -0.015139   0.318109   0.258860   0.000460  -0.000017   0.000987
     4  O   -0.041607  -0.041981   0.000460   8.153661   0.312363  -0.042812
     5  H   -0.014560   0.000075  -0.000017   0.312363   0.285519   0.001102
     6  O   -0.064434  -0.047103   0.000987  -0.042812   0.001102   8.150980
     7  H   -0.011195  -0.000401  -0.000024  -0.000631  -0.000292   0.314116
     8  O   -0.074361   0.039472  -0.000726  -0.047375   0.002561  -0.047479
     9  H   -0.012284  -0.000790  -0.000001  -0.000138   0.000024   0.000616
    10  O   -0.042867  -0.043837  -0.000467   0.026738  -0.000991  -0.050660
    11  H   -0.005477   0.001247  -0.000276  -0.000605   0.000011  -0.000394
    12  O   -0.043106  -0.036469   0.000511  -0.041566  -0.000832   0.037664
    13  H   -0.017187  -0.001122  -0.000029   0.000011  -0.000002  -0.000605
    14  H   -0.000510   0.001131  -0.000004   0.000765   0.000050  -0.001119
    15  H   -0.008049  -0.000099   0.000018   0.312510  -0.022647  -0.006500
    16  H   -0.006512   0.306640  -0.014699  -0.001089  -0.000015  -0.002121
    17  H   -0.016080  -0.001598   0.000113  -0.000828  -0.000005   0.001475
    18  H   -0.012366  -0.000293   0.000024  -0.001361  -0.001295   0.315475
    19  H   -0.012749  -0.001084   0.000008  -0.000796   0.000067  -0.000552
               7          8          9         10         11         12
     1  Fe  -0.011195  -0.074361  -0.012284  -0.042867  -0.005477  -0.043106
     2  O   -0.000401   0.039472  -0.000790  -0.043837   0.001247  -0.036469
     3  H   -0.000024  -0.000726  -0.000001  -0.000467  -0.000276   0.000511
     4  O   -0.000631  -0.047375  -0.000138   0.026738  -0.000605  -0.041566
     5  H   -0.000292   0.002561   0.000024  -0.000991   0.000011  -0.000832
     6  O    0.314116  -0.047479   0.000616  -0.050660  -0.000394   0.037664
     7  H    0.294837  -0.002084  -0.000412   0.000423   0.000052  -0.001357
     8  O   -0.002084   8.145658   0.315508  -0.025823  -0.006256  -0.038434
     9  H   -0.000412   0.315508   0.278061  -0.002879   0.000065  -0.000491
    10  O    0.000423  -0.025823  -0.002879   8.156271   0.310236  -0.052579
    11  H    0.000052  -0.006256   0.000065   0.310236   0.279743  -0.000244
    12  O   -0.001357  -0.038434  -0.000491  -0.052579  -0.000244   8.122061
    13  H    0.000010   0.000452   0.000030   0.001560  -0.000046   0.318125
    14  H   -0.000008  -0.003262   0.000142  -0.003198   0.001233   0.304086
    15  H    0.000180  -0.000325  -0.000027  -0.000643  -0.000001   0.001325
    16  H   -0.000000  -0.001024   0.000007   0.001625  -0.000014   0.000708
    17  H    0.000476  -0.001126  -0.001160   0.315733  -0.022119   0.000428
    18  H   -0.018054   0.000616   0.000037  -0.000273  -0.000023  -0.000834
    19  H    0.002369   0.315238  -0.017423  -0.000972   0.000171   0.000162
              13         14         15         16         17         18
     1  Fe  -0.017187  -0.000510  -0.008049  -0.006512  -0.016080  -0.012366
     2  O   -0.001122   0.001131  -0.000099   0.306640  -0.001598  -0.000293
     3  H   -0.000029  -0.000004   0.000018  -0.014699   0.000113   0.000024
     4  O    0.000011   0.000765   0.312510  -0.001089  -0.000828  -0.001361
     5  H   -0.000002   0.000050  -0.022647  -0.000015  -0.000005  -0.001295
     6  O   -0.000605  -0.001119  -0.006500  -0.002121   0.001475   0.315475
     7  H    0.000010  -0.000008   0.000180  -0.000000   0.000476  -0.018054
     8  O    0.000452  -0.003262  -0.000325  -0.001024  -0.001126   0.000616
     9  H    0.000030   0.000142  -0.000027   0.000007  -0.001160   0.000037
    10  O    0.001560  -0.003198  -0.000643   0.001625   0.315733  -0.000273
    11  H   -0.000046   0.001233  -0.000001  -0.000014  -0.022119  -0.000023
    12  O    0.318125   0.304086   0.001325   0.000708   0.000428  -0.000834
    13  H    0.255018  -0.015164  -0.000145   0.000003  -0.000025  -0.000002
    14  H   -0.015164   0.294449  -0.000017  -0.000027  -0.000050   0.000006
    15  H   -0.000145  -0.000017   0.272842   0.000028   0.000012  -0.000151
    16  H    0.000003  -0.000027   0.000028   0.283836   0.000069  -0.000249
    17  H   -0.000025  -0.000050   0.000012   0.000069   0.284677  -0.000024
    18  H   -0.000002   0.000006  -0.000151  -0.000249  -0.000024   0.276284
    19  H   -0.000026  -0.000027   0.000066  -0.000014  -0.000222  -0.000463
              19
     1  Fe  -0.012749
     2  O   -0.001084
     3  H    0.000008
     4  O   -0.000796
     5  H    0.000067
     6  O   -0.000552
     7  H    0.002369
     8  O    0.315238
     9  H   -0.017423
    10  O   -0.000972
    11  H    0.000171
    12  O    0.000162
    13  H   -0.000026
    14  H   -0.000027
    15  H    0.000066
    16  H   -0.000014
    17  H   -0.000222
    18  H   -0.000463
    19  H    0.293461
          Atomic-Atomic Spin Densities.
               1          2          3          4          5          6
     1  Fe   4.629883  -0.083796  -0.000330  -0.091846  -0.000136  -0.102628
     2  O   -0.083796   0.304540  -0.005418  -0.017098   0.000176  -0.014680
     3  H   -0.000330  -0.005418   0.006569   0.000475   0.000004   0.000814
     4  O   -0.091846  -0.017098   0.000475   0.278882  -0.004129  -0.014663
     5  H   -0.000136   0.000176   0.000004  -0.004129   0.005115   0.002293
     6  O   -0.102628  -0.014680   0.000814  -0.014663   0.002293   0.280513
     7  H    0.001439   0.000368  -0.000010  -0.000528  -0.000041  -0.006988
     8  O   -0.101800   0.020254  -0.000521  -0.020494   0.001602  -0.018631
     9  H    0.002487  -0.000518  -0.000001   0.000595  -0.000078  -0.000619
    10  O   -0.092635  -0.009628   0.002499   0.016728  -0.000518  -0.024269
    11  H    0.000962  -0.000089  -0.000032  -0.000264   0.000003   0.000440
    12  O   -0.084213  -0.023906   0.002169  -0.008919   0.000225   0.021166
    13  H   -0.000268   0.001660  -0.000037   0.002394  -0.000045  -0.000490
    14  H   -0.001036   0.000469  -0.000035   0.000066  -0.000008  -0.000558
    15  H    0.001025   0.001929  -0.000073  -0.004273  -0.000364   0.000358
    16  H   -0.000821  -0.003713   0.000121   0.001202  -0.000028   0.001800
    17  H    0.000042   0.000110  -0.000050  -0.000494   0.000002   0.001458
    18  H    0.002828   0.000228  -0.000009   0.004448   0.000003  -0.008310
    19  H    0.001599  -0.000610   0.000005   0.000674   0.000069   0.004541
               7          8          9         10         11         12
     1  Fe   0.001439  -0.101800   0.002487  -0.092635   0.000962  -0.084213
     2  O    0.000368   0.020254  -0.000518  -0.009628  -0.000089  -0.023906
     3  H   -0.000010  -0.000521  -0.000001   0.002499  -0.000032   0.002169
     4  O   -0.000528  -0.020494   0.000595   0.016728  -0.000264  -0.008919
     5  H   -0.000041   0.001602  -0.000078  -0.000518   0.000003   0.000225
     6  O   -0.006988  -0.018631  -0.000619  -0.024269   0.000440   0.021166
     7  H    0.005619   0.003833  -0.000107   0.001173  -0.000040  -0.000629
     8  O    0.003833   0.279040  -0.006844  -0.011084   0.000419  -0.019951
     9  H   -0.000107  -0.006844   0.007139   0.003588   0.000060   0.000527
    10  O    0.001173  -0.011084   0.003588   0.275679  -0.004665  -0.020344
    11  H   -0.000040   0.000419   0.000060  -0.004665   0.007020   0.002167
    12  O   -0.000629  -0.019951   0.000527  -0.020344   0.002167   0.306881
    13  H    0.000005   0.001019  -0.000023   0.000477  -0.000098  -0.005569
    14  H    0.000000   0.001757   0.000117   0.001669   0.000167  -0.004485
    15  H   -0.000005   0.000376   0.000005  -0.000257   0.000003  -0.000165
    16  H   -0.000083  -0.000475   0.000005   0.000072   0.000005   0.000316
    17  H    0.000073   0.001729  -0.000039  -0.003402  -0.000437   0.000179
    18  H    0.000163  -0.000305   0.000011   0.000645   0.000005  -0.000515
    19  H    0.000061  -0.007518   0.000185  -0.000498  -0.000004   0.000496
              13         14         15         16         17         18
     1  Fe  -0.000268  -0.001036   0.001025  -0.000821   0.000042   0.002828
     2  O    0.001660   0.000469   0.001929  -0.003713   0.000110   0.000228
     3  H   -0.000037  -0.000035  -0.000073   0.000121  -0.000050  -0.000009
     4  O    0.002394   0.000066  -0.004273   0.001202  -0.000494   0.004448
     5  H   -0.000045  -0.000008  -0.000364  -0.000028   0.000002   0.000003
     6  O   -0.000490  -0.000558   0.000358   0.001800   0.001458  -0.008310
     7  H    0.000005   0.000000  -0.000005  -0.000083   0.000073   0.000163
     8  O    0.001019   0.001757   0.000376  -0.000475   0.001729  -0.000305
     9  H   -0.000023   0.000117   0.000005   0.000005  -0.000039   0.000011
    10  O    0.000477   0.001669  -0.000257   0.000072  -0.003402   0.000645
    11  H   -0.000098   0.000167   0.000003   0.000005  -0.000437   0.000005
    12  O   -0.005569  -0.004485  -0.000165   0.000316   0.000179  -0.000515
    13  H    0.007073   0.000068  -0.000032  -0.000019   0.000006  -0.000002
    14  H    0.000068   0.006145   0.000005   0.000007  -0.000044   0.000006
    15  H   -0.000032   0.000005   0.006199   0.000069   0.000003   0.000061
    16  H   -0.000019   0.000007   0.000069   0.005390  -0.000008   0.000056
    17  H    0.000006  -0.000044   0.000003  -0.000008   0.004722  -0.000074
    18  H   -0.000002   0.000006   0.000061   0.000056  -0.000074   0.008293
    19  H   -0.000012  -0.000086  -0.000031  -0.000001  -0.000015  -0.000132
              19
     1  Fe   0.001599
     2  O   -0.000610
     3  H    0.000005
     4  O    0.000674
     5  H    0.000069
     6  O    0.004541
     7  H    0.000061
     8  O   -0.007518
     9  H    0.000185
    10  O   -0.000498
    11  H   -0.000004
    12  O    0.000496
    13  H   -0.000012
    14  H   -0.000086
    15  H   -0.000031
    16  H   -0.000001
    17  H   -0.000015
    18  H   -0.000132
    19  H    0.005942
 Mulliken charges and spin densities:
               1          2
     1  Fe   1.173126   4.080757
     2  O   -0.569094   0.170277
     3  H    0.452292   0.006143
     4  O   -0.585719   0.142756
     5  H    0.438882   0.004147
     6  O   -0.558635   0.121549
     7  H    0.421997   0.004303
     8  O   -0.571229   0.122407
     9  H    0.441115   0.006490
    10  O   -0.587397   0.135231
    11  H    0.442696   0.005622
    12  O   -0.569157   0.165432
    13  H    0.459143   0.006107
    14  H    0.421524   0.004223
    15  H    0.451625   0.004832
    16  H    0.432846   0.003895
    17  H    0.440252   0.003761
    18  H    0.442947   0.007401
    19  H    0.422786   0.004667
 Sum of Mulliken charges =   3.00000   5.00000
 Mulliken charges and spin densities with hydrogens summed into heavy atoms:
               1          2
     1  Fe   1.173126   4.080757
     2  O    0.316045   0.180315
     4  O    0.304787   0.151735
     6  O    0.306309   0.133252
     8  O    0.292672   0.133564
    10  O    0.295552   0.144614
    12  O    0.311511   0.175762
 APT charges:
               1
     1  Fe   2.077076
     2  O   -0.609606
     3  H    0.403734
     4  O   -0.578103
     5  H    0.362265
     6  O   -0.571718
     7  H    0.347344
     8  O   -0.575351
     9  H    0.361402
    10  O   -0.574803
    11  H    0.369331
    12  O   -0.598432
    13  H    0.404882
    14  H    0.365503
    15  H    0.375303
    16  H    0.375511
    17  H    0.361056
    18  H    0.359726
    19  H    0.344880
 Sum of APT charges =   3.00000
 APT charges with hydrogens summed into heavy atoms:
               1
     1  Fe   2.077076
     2  O    0.169639
     4  O    0.159465
     6  O    0.135351
     8  O    0.130931
    10  O    0.155584
    12  O    0.171953
 Electronic spatial extent (au):  <R**2>=            836.0797
 Charge=              3.0000 electrons
 Dipole moment (field-independent basis, Debye):
    X=              2.2585    Y=              3.5880    Z=             -0.9681  Tot=              4.3487
 Quadrupole moment (field-independent basis, Debye-Ang):
   XX=            -10.6741   YY=            -14.3786   ZZ=            -25.1275
   XY=             -4.2014   XZ=             -1.6179   YZ=             -0.9382
 Traceless Quadrupole moment (field-independent basis, Debye-Ang):
   XX=              6.0526   YY=              2.3481   ZZ=             -8.4008
   XY=             -4.2014   XZ=             -1.6179   YZ=             -0.9382
 Octapole moment (field-independent basis, Debye-Ang**2):
  XXX=             18.1582  YYY=             16.7578  ZZZ=              5.2873  XYY=              4.0334
  XXY=              8.9436  XXZ=              3.4157  XZZ=             -8.2691  YZZ=             -3.5427
  YYZ=            -14.7031  XYZ=             -3.2279
 Hexadecapole moment (field-independent basis, Debye-Ang**3):
 XXXX=           -161.4818 YYYY=           -169.3516 ZZZZ=           -207.8466 XXXY=            -21.4193
 XXXZ=              2.1952 YYYX=             -8.4890 YYYZ=             11.5964 ZZZX=            -16.4060
 ZZZY=            -15.5353 XXYY=            -45.4335 XXZZ=            -51.3008 YYZZ=            -49.2170
 XXYZ=             -0.7737 YYXZ=              3.5252 ZZXY=              2.0605
 N-N= 7.677883002195D+02 E-N=-5.576945309865D+03  KE= 1.718865336667D+03
  Exact polarizability:      56.630      -0.361      55.858      -0.671       0.151      52.118
 Approx polarizability:      92.319       0.234      91.971      -1.396       0.133      84.637
                          Isotropic Fermi Contact Couplings
        Atom                 a.u.       MegaHertz       Gauss      10(-4) cm-1
     1  Fe(57)             0.22496       6.52576       2.32855       2.17676
     2  O(17)              0.11410     -13.83331      -4.93607      -4.61429
     3  H(1)               0.00239       2.13686       0.76248       0.71278
     4  O(17)              0.11774     -14.27435      -5.09344      -4.76141
     5  H(1)               0.00178       1.58815       0.56669       0.52975
     6  O(17)              0.12518     -15.17686      -5.41548      -5.06245
     7  H(1)               0.00157       1.40477       0.50126       0.46858
     8  O(17)              0.12266     -14.87102      -5.30635      -4.96044
     9  H(1)               0.00237       2.11585       0.75499       0.70577
    10  O(17)              0.11658     -14.13360      -5.04322      -4.71446
    11  H(1)               0.00282       2.52127       0.89965       0.84101
    12  O(17)              0.11280     -13.67563      -4.87981      -4.56170
    13  H(1)               0.00242       2.16641       0.77303       0.72264
    14  H(1)               0.00195       1.74507       0.62268       0.58209
    15  H(1)               0.00247       2.21034       0.78870       0.73729
    16  H(1)               0.00174       1.55516       0.55492       0.51874
    17  H(1)               0.00183       1.63553       0.58360       0.54555
    18  H(1)               0.00254       2.27293       0.81104       0.75817
    19  H(1)               0.00151       1.35436       0.48327       0.45177
 --------------------------------------------------------
       Center         ----  Spin Dipole Couplings  ----
                      3XX-RR        3YY-RR        3ZZ-RR
 --------------------------------------------------------
     1   Atom        0.030286     -0.023549     -0.006737
     2   Atom       -0.401451      0.546294     -0.144842
     3   Atom        0.005478      0.012423     -0.017901
     4   Atom        0.024015     -0.247405      0.223390
     5   Atom        0.062369     -0.042327     -0.020042
     6   Atom        0.059339     -0.293475      0.234136
     7   Atom       -0.008785      0.018649     -0.009864
     8   Atom       -0.324241      0.304383      0.019858
     9   Atom       -0.036482      0.091919     -0.055437
    10   Atom        0.082118     -0.177896      0.095778
    11   Atom        0.074623     -0.037030     -0.037594
    12   Atom        0.274570     -0.257522     -0.017049
    13   Atom       -0.029702     -0.039174      0.068876
    14   Atom        0.022854     -0.019410     -0.003444
    15   Atom        0.015665      0.024225     -0.039891
    16   Atom       -0.030205      0.038967     -0.008761
    17   Atom       -0.033197      0.009085      0.024112
    18   Atom        0.091902     -0.059570     -0.032333
    19   Atom        0.001109      0.053169     -0.054278
 --------------------------------------------------------
                        XY            XZ            YZ
 --------------------------------------------------------
     1   Atom       -0.041489      0.021317     -0.019709
     2   Atom        0.171333      0.025029      0.080554
     3   Atom        0.049116      0.060839      0.053295
     4   Atom       -0.188436      0.281349     -0.248837
     5   Atom        0.022242      0.073325      0.002012
     6   Atom        0.096928     -0.377592     -0.010436
     7   Atom        0.050945     -0.056269     -0.052159
     8   Atom        0.118865      0.076293      0.319539
     9   Atom       -0.041976      0.004940      0.023864
    10   Atom       -0.132393      0.427159     -0.061232
    11   Atom       -0.065725      0.018642     -0.011017
    12   Atom        0.300546     -0.317532     -0.041497
    13   Atom        0.010841     -0.036898     -0.064613
    14   Atom       -0.041377     -0.078633      0.032829
    15   Atom       -0.080778      0.031219     -0.015337
    16   Atom       -0.031485     -0.040457      0.074243
[...]
    19  H   -0.000001  -0.000001  -0.000001   0.000000  -0.000057  -0.000057
              19
     1  Fe  -0.011232
     2  O   -0.000507
     3  H    0.000000
     4  O    0.000983
     5  H   -0.000057
     6  O    0.002760
     7  H   -0.000057
     8  O    0.302297
     9  H   -0.013570
    10  O    0.000979
    11  H   -0.000001
    12  O    0.001121
    13  H   -0.000001
    14  H   -0.000001
    15  H   -0.000001
    16  H    0.000000
    17  H   -0.000057
    18  H   -0.000057
    19  H    0.285939
          Atomic-Atomic Spin Densities.
               1          2          3          4          5          6
     1  Fe   4.566237  -0.087498   0.003372  -0.087484   0.003368  -0.087447
     2  O   -0.087498   0.292266  -0.006726  -0.015624   0.000240  -0.015571
     3  H    0.003372  -0.006726   0.002571   0.000592  -0.000002   0.000239
     4  O   -0.087484  -0.015624   0.000592   0.292273  -0.006719  -0.015602
     5  H    0.003368   0.000240  -0.000002  -0.006719   0.002570   0.000592
     6  O   -0.087447  -0.015571   0.000239  -0.015602   0.000592   0.292201
     7  H    0.003367   0.000590  -0.000002   0.000240  -0.000002  -0.006715
     8  O   -0.087484   0.014247  -0.000206  -0.015641   0.001234  -0.015552
     9  H    0.003370  -0.000205   0.000000   0.000592  -0.000027   0.000239
    10  O   -0.087450  -0.015601   0.000591   0.014241  -0.000205  -0.015623
    11  H    0.003368   0.001229  -0.000027  -0.000205   0.000000   0.000593
    12  O   -0.087381  -0.015621   0.001235  -0.015540   0.000588   0.014226
    13  H    0.003367   0.000593  -0.000028   0.001225  -0.000027  -0.000205
    14  H    0.003367   0.000593  -0.000028   0.000239  -0.000002  -0.000205
    15  H    0.003370   0.001233  -0.000027  -0.006721   0.000954   0.000592
    16  H    0.003371  -0.006722   0.000955   0.000593  -0.000002   0.001228
    17  H    0.003369   0.000240  -0.000002  -0.000205   0.000000   0.000593
    18  H    0.003368   0.000591  -0.000002   0.001232  -0.000027  -0.006716
    19  H    0.003373  -0.000205   0.000000   0.000594  -0.000028   0.001227
               7          8          9         10         11         12
     1  Fe   0.003367  -0.087484   0.003370  -0.087450   0.003368  -0.087381
     2  O    0.000590   0.014247  -0.000205  -0.015601   0.001229  -0.015621
     3  H   -0.000002  -0.000206   0.000000   0.000591  -0.000027   0.001235
     4  O    0.000240  -0.015641   0.000592   0.014241  -0.000205  -0.015540
     5  H   -0.000002   0.001234  -0.000027  -0.000205   0.000000   0.000588
     6  O   -0.006715  -0.015552   0.000239  -0.015623   0.000593   0.014226
     7  H    0.002569   0.000589  -0.000002   0.001234  -0.000028  -0.000205
     8  O    0.000589   0.292188  -0.006721  -0.015611   0.000240  -0.015613
     9  H   -0.000002  -0.006721   0.002571   0.000591  -0.000002   0.001233
    10  O    0.001234  -0.015611   0.000591   0.292111  -0.006718  -0.015570
    11  H   -0.000028   0.000240  -0.000002  -0.006718   0.002576   0.000590
    12  O   -0.000205  -0.015613   0.001233  -0.015570   0.000590   0.291845
    13  H    0.000000   0.000593  -0.000028   0.000240  -0.000002  -0.006715
    14  H    0.000000   0.000593  -0.000027   0.001229  -0.000027  -0.006715
    15  H   -0.000002   0.000240  -0.000002  -0.000205   0.000000   0.000589
    16  H   -0.000027  -0.000205   0.000000   0.000591  -0.000027   0.000240
    17  H   -0.000028   0.001231  -0.000027  -0.006720   0.000955   0.000591
    18  H    0.000954   0.000590  -0.000002   0.000240  -0.000002  -0.000205
    19  H   -0.000027  -0.006727   0.000955   0.000593  -0.000002   0.000240
              13         14         15         16         17         18
     1  Fe   0.003367   0.003367   0.003370   0.003371   0.003369   0.003368
     2  O    0.000593   0.000593   0.001233  -0.006722   0.000240   0.000591
     3  H   -0.000028  -0.000028  -0.000027   0.000955  -0.000002  -0.000002
     4  O    0.001225   0.000239  -0.006721   0.000593  -0.000205   0.001232
     5  H   -0.000027  -0.000002   0.000954  -0.000002   0.000000  -0.000027
     6  O   -0.000205  -0.000205   0.000592   0.001228   0.000593  -0.006716
     7  H    0.000000   0.000000  -0.000002  -0.000027  -0.000028   0.000954
     8  O    0.000593   0.000593   0.000240  -0.000205   0.001231   0.000590
     9  H   -0.000028  -0.000027  -0.000002   0.000000  -0.000027  -0.000002
    10  O    0.000240   0.001229  -0.000205   0.000591  -0.006720   0.000240
    11  H   -0.000002  -0.000027   0.000000  -0.000027   0.000955  -0.000002
    12  O   -0.006715  -0.006715   0.000589   0.000240   0.000591  -0.000205
    13  H    0.002583   0.000954  -0.000027  -0.000002  -0.000002   0.000000
    14  H    0.000954   0.002573  -0.000002  -0.000002  -0.000027   0.000000
    15  H   -0.000027  -0.000002   0.002572  -0.000027   0.000000  -0.000027
    16  H   -0.000002  -0.000002  -0.000027   0.002578  -0.000002  -0.000027
    17  H   -0.000002  -0.000027   0.000000  -0.000002   0.002574  -0.000002
    18  H    0.000000   0.000000  -0.000027  -0.000027  -0.000002   0.002569
    19  H   -0.000002  -0.000002  -0.000002   0.000000  -0.000027  -0.000027
              19
     1  Fe   0.003373
     2  O   -0.000205
     3  H    0.000000
     4  O    0.000594
     5  H   -0.000028
     6  O    0.001227
     7  H   -0.000027
     8  O   -0.006727
     9  H    0.000955
    10  O    0.000593
    11  H   -0.000002
    12  O    0.000240
    13  H   -0.000002
    14  H   -0.000002
    15  H   -0.000002
    16  H    0.000000
    17  H   -0.000027
    18  H   -0.000027
    19  H    0.002583
 Mulliken charges and spin densities:
               1          2
     1  Fe   1.134363   4.081921
     2  O   -0.551959   0.148049
     3  H    0.431420   0.002505
     4  O   -0.551970   0.148078
     5  H    0.431464   0.002505
     6  O   -0.552014   0.148094
     7  H    0.431527   0.002505
     8  O   -0.552022   0.147986
     9  H    0.431495   0.002507
    10  O   -0.552101   0.147956
    11  H    0.431466   0.002510
    12  O   -0.552302   0.147813
    13  H    0.431532   0.002517
    14  H    0.431514   0.002509
    15  H    0.431530   0.002506
    16  H    0.431540   0.002512
    17  H    0.431511   0.002508
    18  H    0.431546   0.002503
    19  H    0.431460   0.002514
 Sum of Mulliken charges =   3.00000   5.00000
 Mulliken charges and spin densities with hydrogens summed into heavy atoms:
               1          2
     1  Fe   1.134363   4.081921
     2  O    0.311001   0.153066
     4  O    0.311024   0.153089
     6  O    0.311060   0.153102
     8  O    0.310932   0.153007
    10  O    0.310875   0.152975
    12  O    0.310744   0.152840
 Electronic spatial extent (au):  <R**2>=           1037.1429
 Charge=              3.0000 electrons
 Dipole moment (field-independent basis, Debye):
    X=              0.0008    Y=              0.0004    Z=             -0.0003  Tot=              0.0009
 Quadrupole moment (field-independent basis, Debye-Ang):
   XX=             -6.1154   YY=             -6.1319   ZZ=             -6.1206
   XY=              0.0012   XZ=             -0.0054   YZ=             -0.0096
 Traceless Quadrupole moment (field-independent basis, Debye-Ang):
   XX=              0.0072   YY=             -0.0092   ZZ=              0.0021
   XY=              0.0012   XZ=             -0.0054   YZ=             -0.0096
 Octapole moment (field-independent basis, Debye-Ang**2):
  XXX=              0.0425  YYY=              0.0974  ZZZ=              0.0349  XYY=             -0.0217
  XXY=             -0.0471  XXZ=              0.0086  XZZ=             -0.0052  YZZ=             -0.0457
  YYZ=             -0.0464  XYZ=             -0.0113
 Hexadecapole moment (field-independent basis, Debye-Ang**3):
 XXXX=           -151.7703 YYYY=           -156.9869 ZZZZ=            -68.3955 XXXY=             20.7582
 XXXZ=              9.2309 YYYX=            -11.1207 YYYZ=            -19.0790 ZZZX=            -23.0601
 ZZZY=             34.0865 XXYY=             10.8219 XXZZ=            -77.7219 YYZZ=            -72.4876
 XXYZ=            -15.0874 YYXZ=             13.7813 ZZXY=             -9.6074
 N-N= 6.866140168141D+02 E-N=-5.417351733284D+03  KE= 1.717220237266D+03
                          Isotropic Fermi Contact Couplings
        Atom                 a.u.       MegaHertz       Gauss      10(-4) cm-1
     1  Fe(57)             0.36431      10.56791       3.77089       3.52507
     2  O(17)              0.12340     -14.96049      -5.33827      -4.99028
     3  H(1)               0.00096       0.85596       0.30543       0.28552
     4  O(17)              0.12339     -14.95910      -5.33778      -4.98982
     5  H(1)               0.00096       0.85680       0.30573       0.28580
     6  O(17)              0.12331     -14.95027      -5.33463      -4.98687
     7  H(1)               0.00096       0.85641       0.30559       0.28567
     8  O(17)              0.12340     -14.96055      -5.33830      -4.99030
     9  H(1)               0.00096       0.85767       0.30604       0.28609
    10  O(17)              0.12339     -14.95973      -5.33800      -4.99003
    11  H(1)               0.00096       0.86040       0.30701       0.28700
    12  O(17)              0.12332     -14.95178      -5.33517      -4.98738
    13  H(1)               0.00097       0.86467       0.30854       0.28842
    14  H(1)               0.00096       0.85914       0.30656       0.28658
    15  H(1)               0.00096       0.85690       0.30576       0.28583
    16  H(1)               0.00096       0.86126       0.30732       0.28728
    17  H(1)               0.00096       0.85850       0.30633       0.28637
    18  H(1)               0.00096       0.85560       0.30530       0.28540
    19  H(1)               0.00096       0.86241       0.30773       0.28767
 --------------------------------------------------------
       Center         ----  Spin Dipole Couplings  ----
                      3XX-RR        3YY-RR        3ZZ-RR
 --------------------------------------------------------
     1   Atom        0.000248     -0.000336      0.000088
     2   Atom       -0.132852     -0.042349      0.175201
     3   Atom       -0.030396     -0.014821      0.045217
     4   Atom        0.169141      0.158643     -0.327783
     5   Atom       -0.012167     -0.002460      0.014627
     6   Atom       -0.036948     -0.115824      0.152772
     7   Atom       -0.017245      0.058861     -0.041617
     8   Atom       -0.132305     -0.042890      0.175195
     9   Atom       -0.012704     -0.036672      0.049376
    10   Atom        0.169579      0.158079     -0.327658
    11   Atom       -0.012286     -0.002285      0.014571
    12   Atom       -0.035864     -0.115783      0.151647
    13   Atom       -0.017154      0.058743     -0.041590
    14   Atom        0.070162     -0.027601     -0.042561
    15   Atom        0.002444      0.022689     -0.025134
    16   Atom       -0.012754     -0.036734      0.049488
    17   Atom        0.002363      0.022746     -0.025109
    18   Atom        0.070190     -0.027599     -0.042591
    19   Atom       -0.030462     -0.014926      0.045388
 --------------------------------------------------------
                        XY            XZ            YZ
 --------------------------------------------------------
     1   Atom        0.000316     -0.000026     -0.000145
     2   Atom       -0.263271      0.010653      0.007436
     3   Atom        0.018050      0.021207      0.045245
     4   Atom        0.015138      0.065798     -0.096958
     5   Atom       -0.036325      0.035878     -0.040302
     6   Atom        0.248377     -0.076109      0.089638
     7   Atom        0.037871     -0.003773     -0.014815
     8   Atom       -0.263272      0.009638      0.007079
     9   Atom        0.012576     -0.046455     -0.011273
    10   Atom        0.014663      0.066229     -0.096285
    11   Atom       -0.036319      0.035751     -0.040386
    12   Atom        0.248206     -0.076112      0.089493
    13   Atom        0.037941     -0.003774     -0.014774
    14   Atom        0.023489      0.010529     -0.000049
    15   Atom       -0.055617     -0.017264      0.021151
    16   Atom        0.012456     -0.046432     -0.011115
    17   Atom       -0.055586     -0.017264      0.021175
    18   Atom        0.023547      0.010454     -0.000053
    19   Atom        0.017936      0.021122      0.045179
 --------------------------------------------------------


 ---------------------------------------------------------------------------------
              Anisotropic Spin Dipole Couplings in Principal Axis System
 ---------------------------------------------------------------------------------

       Atom             a.u.   MegaHertz   Gauss  10(-4) cm-1        Axes

              Baa    -0.0005    -0.009    -0.003    -0.003 -0.3751  0.9038  0.2060
     1 Fe(57) Bbb     0.0001     0.002     0.001     0.001  0.3224 -0.0812  0.9431
              Bcc     0.0004     0.007     0.003     0.002  0.8691  0.4202 -0.2609
 
              Baa    -0.3550    25.691     9.167     8.570  0.7645  0.6442 -0.0244
     2 O(17)  Bbb     0.1752   -12.677    -4.523    -4.229 -0.1511  0.2158  0.9647
              Bcc     0.1799   -13.014    -4.644    -4.341 -0.6267  0.7338 -0.2623
 
              Baa    -0.0440   -23.471    -8.375    -7.829 -0.6322  0.7412 -0.2256
     3 H(1)   Bbb    -0.0325   -17.320    -6.180    -5.777  0.7342  0.4801 -0.4801
              Bcc     0.0765    40.790    14.555    13.606  0.2475  0.4692  0.8477
 
              Baa    -0.3551    25.693     9.168     8.570 -0.1277  0.1876  0.9739
     4 O(17)  Bbb     0.1751   -12.669    -4.521    -4.226 -0.6595  0.7174 -0.2246
              Bcc     0.1800   -13.025    -4.647    -4.345  0.7408  0.6709 -0.0321
 
              Baa    -0.0440   -23.461    -8.372    -7.826  0.7638  0.6450 -0.0240
     5 H(1)   Bbb    -0.0325   -17.321    -6.181    -5.778 -0.4106  0.5143  0.7530
              Bcc     0.0764    40.783    14.552    13.604  0.4980 -0.5652  0.6576
 
              Baa    -0.3551    25.695     9.169     8.571 -0.6325  0.7410 -0.2256
     6 O(17)  Bbb     0.1751   -12.669    -4.521    -4.226  0.7683  0.6371 -0.0614
              Bcc     0.1800   -13.026    -4.648    -4.345 -0.0982  0.2121  0.9723
 
              Baa    -0.0440   -23.462    -8.372    -7.826 -0.1283  0.1875  0.9738
     7 H(1)   Bbb    -0.0325   -17.321    -6.180    -5.778  0.9176 -0.3500  0.1883
              Bcc     0.0764    40.783    14.552    13.604  0.3761  0.9178 -0.1272
 
              Baa    -0.3549    25.681     9.164     8.566  0.7638  0.6450 -0.0225
     8 O(17)  Bbb     0.1753   -12.685    -4.526    -4.231 -0.1070  0.1610  0.9811
              Bcc     0.1796   -12.996    -4.637    -4.335 -0.6365  0.7470 -0.1920
 
              Baa    -0.0440   -23.466    -8.373    -7.827 -0.6326  0.7410 -0.2253
     9 H(1)   Bbb    -0.0325   -17.318    -6.180    -5.777  0.6133  0.6569  0.4386
              Bcc     0.0764    40.784    14.553    13.604 -0.4730 -0.1393  0.8700
 
              Baa    -0.3548    25.674     9.161     8.564 -0.1282  0.1865  0.9740
    10 O(17)  Bbb     0.1752   -12.680    -4.524    -4.229 -0.5286  0.8181 -0.2263
              Bcc     0.1796   -12.994    -4.637    -4.334  0.8391  0.5439  0.0063
 
              Baa    -0.0440   -23.453    -8.369    -7.823  0.7640  0.6448 -0.0218
    11 H(1)   Bbb    -0.0325   -17.318    -6.180    -5.777 -0.4115  0.5130  0.7533
              Bcc     0.0764    40.771    14.548    13.600  0.4969 -0.5666  0.6573
 
              Baa    -0.3545    25.651     9.153     8.556 -0.6317  0.7415 -0.2261
    12 O(17)  Bbb     0.1756   -12.705    -4.533    -4.238  0.7650  0.6434 -0.0271
              Bcc     0.1789   -12.946    -4.620    -4.318 -0.1254  0.1901  0.9737
 
              Baa    -0.0439   -23.443    -8.365    -7.820 -0.1286  0.1876  0.9738
    13 H(1)   Bbb    -0.0325   -17.314    -6.178    -5.775  0.9172 -0.3510  0.1887
              Bcc     0.0764    40.758    14.543    13.595  0.3772  0.9174 -0.1269
 
              Baa    -0.0440   -23.454    -8.369    -7.824 -0.1284  0.1873  0.9739
    14 H(1)   Bbb    -0.0324   -17.308    -6.176    -5.773 -0.1976  0.9575 -0.2102
              Bcc     0.0764    40.762    14.545    13.597  0.9718  0.2195  0.0859
 
              Baa    -0.0440   -23.461    -8.371    -7.826  0.7638  0.6449 -0.0241
    15 H(1)   Bbb    -0.0325   -17.322    -6.181    -5.778  0.1853 -0.1834  0.9654
              Bcc     0.0764    40.783    14.552    13.604 -0.6182  0.7419  0.2596
 
              Baa    -0.0440   -23.456    -8.370    -7.824 -0.6318  0.7416 -0.2257
    16 H(1)   Bbb    -0.0325   -17.328    -6.183    -5.780  0.6146  0.6566  0.4372
              Bcc     0.0764    40.785    14.553    13.604 -0.4724 -0.1375  0.8706
 
              Baa    -0.0440   -23.458    -8.370    -7.825  0.7643  0.6444 -0.0239
    17 H(1)   Bbb    -0.0325   -17.316    -6.179    -5.776  0.1852 -0.1838  0.9654
              Bcc     0.0764    40.773    14.549    13.600 -0.6177  0.7422  0.2598
 
              Baa    -0.0440   -23.461    -8.372    -7.826 -0.1277  0.1869  0.9740
    18 H(1)   Bbb    -0.0325   -17.321    -6.181    -5.778 -0.1983  0.9575 -0.2097
              Bcc     0.0764    40.783    14.552    13.604  0.9718  0.2199  0.0853
 
              Baa    -0.0440   -23.455    -8.369    -7.824 -0.6323  0.7412 -0.2253
    19 H(1)   Bbb    -0.0325   -17.325    -6.182    -5.779  0.7345  0.4812 -0.4785
              Bcc     0.0764    40.780    14.551    13.603  0.2462  0.4680  0.8487
 

 ---------------------------------------------------------------------------------

 No NMR shielding tensors so no spin-rotation constants.
 Leave Link  601 at Wed Mar  5 21:15:08 2025, MaxMem= 13421772800 cpu:              29.6 elap:               0.4
 (Enter /gpfs/fs1/soft/improv/software/custom-built/gaussian/g16/l9999.exe)

 Test job not archived.
 1\1\GINC-I299\SP\UN12\Gen\Fe1H12O6(3+,6)\HHARB\05-Mar-2025\0\\#p n12 s
 crf=(cpcm,solvent=water) geom=allcheck guess=read chkbasis IOp(3/174=1
 000000) IOp(3/175=2391600) IOp(3/176=1349300)\\Title\\3,6\Fe,-0.784723
 3124,0.7130470363,0.0320154779\O,-1.3097202109,2.6477743022,-0.2942225
 833\H,-1.423027776,3.0707459635,-1.1557927109\O,1.175298487,1.24610163
 64,0.0374216429\H,1.9280194468,0.6532564884,0.1638933005\O,-0.87440211
 16,1.0254708728,2.0370666188\H,-1.652039057,0.9089636083,2.5989870095\
 O,-0.2585598525,-1.2219401833,0.355107567\H,-0.0764364173,-1.884922690
 1,-0.3240924929\O,-2.7447836553,0.179651871,0.0289920398\H,-3.49793499
 7,0.772374366,-0.0954690834\O,-0.6966270533,0.4007604305,-1.9733656261
 \H,0.0804107878,0.5167411876,-2.5362225061\H,-1.4245737938,0.108762920
 7,-2.5380487157\H,1.5247612966,2.1386316029,-0.086309414\H,-1.49140872
 67,3.3127546334,0.3831426278\H,-3.0937426228,-0.7130562987,0.15284607\
 H,-0.1473595623,1.3181059659,2.6025914256\H,-0.1446684394,-1.647143943
 9,1.2155047627\\Version=ES64L-G16RevC.02\State=6-A\HF=-1721.9181024\S2
 =8.754201\S2-1=0.\S2A=8.750006\RMSD=2.945e-09\Dipole=0.0000083,0.00020
 72,0.0003025\Quadrupole=0.0005173,0.0007404,-0.0012577,-0.0034258,0.00
 20322,0.0094578\PG=C01 [X(Fe1H12O6)]\\@


            THE IRISH PIG
 'TWAS AN EVENING IN NOVEMBER,
 AS I VERY WELL REMEMBER
 I WAS STROLLING DOWN THE STREET IN DRUNKEN PRIDE,
 BUT MY KNEES WERE ALL A'FLUTTER
 SO I LANDED IN THE GUTTER,
 AND A PIG CAME UP AND LAY DOWN BY MY SIDE.

 YES, I LAY THERE IN THE GUTTER
 THINKING THOUGHTS I COULD NOT UTTER
 WHEN A COLLEEN PASSING BY DID SOFTLY SAY,
 'YE CAN TELL A MAN THAT BOOZES
 BY THE COMPANY THAT HE CHOOSES.' -
 AT THAT, THE PIG GOT UP AND WALKED AWAY!
     -- THE ECONOMIST, AUGUST 23, 1986
 Job cpu time:       0 days  1 hours 40 minutes  2.8 seconds.
 Elapsed time:       0 days  0 hours  0 minutes 50.7 seconds.
 File lengths (MBytes):  RWF=    118 Int=      0 D2E=      0 Chk=    268 Scr=      1
 Normal termination of Gaussian 16 at Wed Mar  5 21:15:08 2025.
