 Entering Gaussian System, Link 0=g16
 Input=Fe_2_HSE06.com
 Output=Fe_2_HSE06.log
 Initial command:
 /gpfs/fs1/soft/improv/software/custom-built/gaussian/g16/l1.exe "/scratch/Gau-2977479.inp" -scrdir="/scratch/"
 Default CPUs for threads: 0-127
 Default linda workers: i593.lcrc.anl.gov
 Default is to use 128 SMP processors on each worker.
 Entering Link 1 = /gpfs/fs1/soft/improv/software/custom-built/gaussian/g16/l1.exe PID=   2977480.
  
 Copyright (c) 1988-2021, Gaussian, Inc.  All Rights Reserved.
  
 This is part of the Gaussian(R) 16 program.  It is based on
 the Gaussian(R) 09 system (copyright 2009, Gaussian, Inc.),
 the Gaussian(R) 03 system (copyright 2003, Gaussian, Inc.),
 the Gaussian(R) 98 system (copyright 1998, Gaussian, Inc.),
 the Gaussian(R) 94 system (copyright 1995, Gaussian, Inc.),
 the Gaussian 92(TM) system (copyright 1992, Gaussian, Inc.),
 the Gaussian 90(TM) system (copyright 1990, Gaussian, Inc.),
 the Gaussian 88(TM) system (copyright 1988, Gaussian, Inc.),
 the Gaussian 86(TM) system (copyright 1986, Carnegie Mellon
 University), and the Gaussian 82(TM) system (copyright 1983,
 Carnegie Mellon University). Gaussian is a federally registered
 trademark of Gaussian, Inc.
  
 This software contains proprietary and confidential information,
 including trade secrets, belonging to Gaussian, Inc.
  
 This software is provided under written license and may be
 used, copied, transmitted, or stored only in accord with that
 written license.
  
 The following legend is applicable only to US Government
 contracts under FAR:
  
                    RESTRICTED RIGHTS LEGEND
  
 Use, reproduction and disclosure by the US Government is
 subject to restrictions as set forth in subparagraphs (a)
 and (c) of the Commercial Computer Software - Restricted
 Rights clause in FAR 52.227-19.
  
 Gaussian, Inc.
 340 Quinnipiac St., Bldg. 40, Wallingford CT 06492
  
  
 ---------------------------------------------------------------
 Warning -- This program may not be used in any manner that
 competes with the business of Gaussian, Inc. or will provide
 assistance to any competitor of Gaussian, Inc.  The licensee
 of this program is prohibited from giving any competitor of
 Gaussian, Inc. access to this program.  By using this program,
 the user acknowledges that Gaussian, Inc. is engaged in the
 business of creating and licensing software in the field of
 computational chemistry and represents and warrants to the
 licensee that it is not a competitor of Gaussian, Inc. and that
 it will not use this program in any manner prohibited above.
 ---------------------------------------------------------------
  

 Cite this work as:
 Gaussian 16, Revision C.02,
 M. J. Frisch, G. W. Trucks, H. B. Schlegel, G. E. Scuseria, 
 M. A. Robb, J. R. Cheeseman, G. Scalmani, V. Barone, 
 G. A. Petersson, H. Nakatsuji, X. Li, M. Caricato, A. V. Marenich, 
 J. Bloino, B. G. Janesko, R. Gomperts, B. Mennucci, H. P. Hratchian, 
 J. V. Ortiz, A. F. Izmaylov, J. L. Sonnenberg, D. Williams-Young, 
 F. Ding, F. Lipparini, F. Egidi, J. Goings, B. Peng, A. Petrone, 
 T. Henderson, D. Ranasinghe, V. G. Zakrzewski, J. Gao, N. Rega, 
 G. Zheng, W. Liang, M. Hada, M. Ehara, K. Toyota, R. Fukuda, 
 J. Hasegawa, M. Ishida, T. Nakajima, Y. Honda, O. Kitao, H. Nakai, 
 T. Vreven, K. Throssell, J. A. Montgomery, Jr., J. E. Peralta, 
 F. Ogliaro, M. J. Bearpark, J. J. Heyd, E. N. Brothers, K. N. Kudin, 
 V. N. Staroverov, T. A. Keith, R. Kobayashi, J. Normand, 
 K. Raghavachari, A. P. Rendell, J. C. Burant, S. S. Iyengar, 
 J. Tomasi, M. Cossi, J. M. Millam, M. Klene, C. Adamo, R. Cammi, 
 J. W. Ochterski, R. L. Martin, K. Morokuma, O. Farkas, 
 J. B. Foresman, and D. J. Fox, Gaussian, Inc., Wallingford CT, 2019.
 
 ******************************************
 Gaussian 16:  ES64L-G16RevC.02  7-Dec-2021
                 5-Mar-2025 
 ******************************************
 %chk=Fe_2_HSE06.chk
 SetSPE:  set environment variable "OMP_PROC_BIND" = "true"
 SetSPE:  set environment variable "OMP_PLACES" = "{0},{1},{2},{3},{4},{5},{6},{7},{8},{9},{10},{11},{12},{13},{14},{15},{16},{17},{18},{19},{20},{21},{22},{23},{24},{25},{26},{27},{28},{29},{30},{31},{32},{33},{34},{35},{36},{37},{38},{39},{40},{41},{42},{43},{44},{45},{46},{47},{48},{49},{50},{51},{52},{53},{54},{55},{56},{57},{58},{59},{60},{61},{62},{63},{64},{65},{66},{67},{68},{69},{70},{71},{72},{73},{74},{75},{76},{77},{78},{79},{80},{81},{82},{83},{84},{85},{86},{87},{88},{89},{90},{91},{92},{93},{94},{95},{96},{97},{98},{99},{100},{101},{102},{103},{104},{105},{106},{107},{108},{109},{110},{111},{112},{113},{114},{115},{116},{117},{118},{119},{120},{121},{122},{123},{124},{125},{126},{127}"
 SetLPE:    new flags="-opt 'Tsnet.Node.lindarsharg: ssh'  -nodelist 'i593.lcrc.anl.gov' -env GAUSS_MDEF=13421772800 -env GAUSS_EXEDIR="/gpfs/fs1/soft/improv/software/custom-built/gaussian/g16/bsd:/gpfs/fs1/soft/improv/software/custom-built/gaussian/g16" -env "OMP_PROC_BIND=true" -env "OMP_PLACES={0},{1},{2},{3},{4},{5},{6},{7},{8},{9},{10},{11},{12},{13},{14},{15},{16},{17},{18},{19},{20},{21},{22},{23},{24},{25},{26},{27},{28},{29},{30},{31},{32},{33},{34},{35},{36},{37},{38},{39},{40},{41},{42},{43},{44},{45},{46},{47},{48},{49},{50},{51},{52},{53},{54},{55},{56},{57},{58},{59},{60},{61},{62},{63},{64},{65},{66},{67},{68},{69},{70},{71},{72},{73},{74},{75},{76},{77},{78},{79},{80},{81},{82},{83},{84},{85},{86},{87},{88},{89},{90},{91},{92},{93},{94},{95},{96},{97},{98},{99},{100},{101},{102},{103},{104},{105},{106},{107},{108},{109},{110},{111},{112},{113},{114},{115},{116},{117},{118},{119},{120},{121},{122},{123},{124},{125},{126},{127}" -env GAUSS_ADEF="0,1,2,3,4,5,6,7,8,9,10,11,12,13,14,15,16,17,18,19,20,21,22,23,24,25,26,27,28,29,30,31,32,33,34,35,36,37,38,39,40,41,42,43,44,45,46,47,48,49,50,51,52,53,54,55,56,57,58,59,60,61,62,63,64,65,66,67,68,69,70,71,72,73,74,75,76,77,78,79,80,81,82,83,84,85,86,87,88,89,90,91,92,93,94,95,96,97,98,99,100,101,102,103,104,105,106,107,108,109,110,111,112,113,114,115,116,117,118,119,120,121,122,123,124,125,126,127""
 Will use up to    1 processors via Linda.
 ----------------------------------------------------------------------
 #p HSEH1PBE 6-31+G(2df,p) opt=(cartesian,calcall,maxcycles=500) freq s
 cf=(maxcycles=500,xqc,maxconventional=50) IOp(3/174=1000000) IOp(3/175
 =109000) IOp(3/176=1129000)
 ----------------------------------------------------------------------
 1/6=500,10=4,18=10,26=3,38=1/1,3;
 2/12=2,17=6,18=5,29=2,40=1/2;
 3/5=1,6=6,7=114,11=2,25=1,30=1,71=2,74=-51,140=1,174=1000000,175=109000,176=1129000/1,2,3;
 4//1;
 5/5=2,7=500,8=3,13=1,38=5,85=50/2,8;
 8/6=4,10=90,11=11/1;
 11/6=1,8=1,9=11,15=111,16=1/1,2,10;
 10/6=1/2;
 6/7=2,8=2,9=2,10=2,18=1,28=1/1;
 7/7=1,10=1,25=1/1,2,3,16;
 1/6=500,10=4,18=10,26=3/3(3);
 2/29=1/2;
 7/7=1,8=1,9=1,25=1,44=-1/16;
 99/12=1/99;
 2/29=1/2;
 3/5=1,6=6,7=114,11=2,25=1,30=1,71=2,74=-51,140=1,174=1000000,175=109000,176=1129000/1,2,3;
 4/5=5,16=3,69=1/1;
 5/5=2,7=500,8=3,13=1,38=5,85=50/2,8;
 8/6=4,10=90,11=11/1;
 11/6=1,8=1,9=11,15=111,16=1/1,2,10;
 10/6=1/2;
 7/7=1,10=1,25=1/1,2,3,16;
 1/6=500,10=4,18=10,26=3/3(-8);
 2/29=1/2;
 6/7=2,8=2,9=2,10=2,18=1,19=2,28=1/1;
 7/7=1,8=1,9=1,25=1,44=-1/16;
 99/12=1/99;
 Leave Link    1 at Wed Mar  5 18:42:52 2025, MaxMem=           0 cpu:               2.2 elap:               0.0
 (Enter /gpfs/fs1/soft/improv/software/custom-built/gaussian/g16/l101.exe)
 -----
 Title
 -----
 Symbolic Z-matrix:
 Charge =  3 Multiplicity = 6
 Fe                   -0.79304   0.81881  -0.09491 
 O                    -1.20497   2.57394  -0.35687 
 H                    -2.12106   2.64974  -0.63312 
 O                     0.99012   1.19063  -0.05794 
 H                     1.42696   0.5998    0.55971 
 O                    -0.81752   1.03069   1.71365 
 H                    -1.02108   0.1906    2.13133 
 O                    -0.38507  -0.93351   0.17118 
 H                    -1.15682  -1.47369  -0.01433 
 O                    -2.57341   0.45178  -0.12186 
 H                    -2.77756  -0.08744  -0.88929 
 O                    -0.76966   0.60461  -1.90111 
 H                     0.09872   0.83457  -2.23949 
 H                    -0.96534  -0.30999  -2.11742 
 H                     1.12208   2.09943   0.22124 
 H                    -1.07671   3.0584    0.46184 
 H                    -2.81407  -0.02398   0.6765 
 H                     0.0422    1.33615   2.01181 
 H                    -0.11532  -1.06446   1.08312 
 
 ITRead=  0  0  0  0  0  0  0  0  0  0  0  0  0  0  0  0  0  0  0
 MicOpt= -1 -1 -1 -1 -1 -1 -1 -1 -1 -1 -1 -1 -1 -1 -1 -1 -1 -1 -1
 NAtoms=     19 NQM=       19 NQMF=       0 NMMI=      0 NMMIF=      0
                NMic=       0 NMicF=      0.
                    Isotopes and Nuclear Properties:
 (Nuclear quadrupole moments (NQMom) in fm**2, nuclear magnetic moments (NMagM)
  in nuclear magnetons)

  Atom         1           2           3           4           5           6           7           8           9          10
 IAtWgt=          56          16           1          16           1          16           1          16           1          16
 AtmWgt=  55.9349393  15.9949146   1.0078250  15.9949146   1.0078250  15.9949146   1.0078250  15.9949146   1.0078250  15.9949146
 NucSpn=           0           0           1           0           1           0           1           0           1           0
 AtZEff=  -0.0000000  -0.0000000  -0.0000000  -0.0000000  -0.0000000  -0.0000000  -0.0000000  -0.0000000  -0.0000000  -0.0000000
 NQMom=    0.0000000   0.0000000   0.0000000   0.0000000   0.0000000   0.0000000   0.0000000   0.0000000   0.0000000   0.0000000
 NMagM=    0.0000000   0.0000000   2.7928460   0.0000000   2.7928460   0.0000000   2.7928460   0.0000000   2.7928460   0.0000000
 AtZNuc=  26.0000000   8.0000000   1.0000000   8.0000000   1.0000000   8.0000000   1.0000000   8.0000000   1.0000000   8.0000000

  Atom        11          12          13          14          15          16          17          18          19
 IAtWgt=           1          16           1           1           1           1           1           1           1
 AtmWgt=   1.0078250  15.9949146   1.0078250   1.0078250   1.0078250   1.0078250   1.0078250   1.0078250   1.0078250
 NucSpn=           1           0           1           1           1           1           1           1           1
 AtZEff=  -0.0000000  -0.0000000  -0.0000000  -0.0000000  -0.0000000  -0.0000000  -0.0000000  -0.0000000  -0.0000000
 NQMom=    0.0000000   0.0000000   0.0000000   0.0000000   0.0000000   0.0000000   0.0000000   0.0000000   0.0000000
 NMagM=    2.7928460   0.0000000   2.7928460   2.7928460   2.7928460   2.7928460   2.7928460   2.7928460   2.7928460
 AtZNuc=   1.0000000   8.0000000   1.0000000   1.0000000   1.0000000   1.0000000   1.0000000   1.0000000   1.0000000
 Leave Link  101 at Wed Mar  5 18:42:52 2025, MaxMem= 13421772800 cpu:               0.4 elap:               0.1
 (Enter /gpfs/fs1/soft/improv/software/custom-built/gaussian/g16/l103.exe)

 GradGradGradGradGradGradGradGradGradGradGradGradGradGradGradGradGradGrad
 Berny optimization.
 Initialization pass.
 No Z-matrix variables, so optimization will use Cartesian coordinates.
 Trust Radius=3.00D-01 FncErr=1.00D-07 GrdErr=1.00D-06 EigMax=2.50D+02 EigMin=1.00D-04
 Number of steps in this run=    114 maximum allowed number of steps=    114.
 GradGradGradGradGradGradGradGradGradGradGradGradGradGradGradGradGradGrad

 Leave Link  103 at Wed Mar  5 18:42:53 2025, MaxMem= 13421772800 cpu:               0.4 elap:               0.1
 (Enter /gpfs/fs1/soft/improv/software/custom-built/gaussian/g16/l202.exe)
 ---------------------------------------------------------------------------------------------------
                            Z-MATRIX (ANGSTROMS AND DEGREES)
   CD    Cent   Atom    N1       Length/X        N2       Alpha/Y        N3        Beta/Z          J
 ---------------------------------------------------------------------------------------------------
      1      1  Fe       0  -0.793037          0.818805         -0.094905
      2      2  O        0  -1.204971          2.573941         -0.356874
      3      3  H        0  -2.121063          2.649743         -0.633122
      4      4  O        0   0.990122          1.190635         -0.057941
      5      5  H        0   1.426962          0.599798          0.559707
      6      6  O        0  -0.817519          1.030691          1.713650
      7      7  H        0  -1.021079          0.190602          2.131326
      8      8  O        0  -0.385068         -0.933506          0.171177
      9      9  H        0  -1.156817         -1.473692         -0.014327
     10     10  O        0  -2.573405          0.451778         -0.121857
     11     11  H        0  -2.777557         -0.087440         -0.889285
     12     12  O        0  -0.769659          0.604612         -1.901109
     13     13  H        0   0.098725          0.834573         -2.239490
     14     14  H        0  -0.965336         -0.309994         -2.117418
     15     15  H        0   1.122081          2.099426          0.221242
     16     16  H        0  -1.076711          3.058396          0.461841
     17     17  H        0  -2.814074         -0.023981          0.676500
     18     18  H        0   0.042204          1.336153          2.011809
     19     19  H        0  -0.115315         -1.064459          1.083123
 ---------------------------------------------------------------------------------------------------
                         Z-Matrix orientation:                         
 ---------------------------------------------------------------------
 Center     Atomic      Atomic             Coordinates (Angstroms)
 Number     Number       Type             X           Y           Z
 ---------------------------------------------------------------------
      1         26           0       -0.793037    0.818805   -0.094905
      2          8           0       -1.204971    2.573941   -0.356874
      3          1           0       -2.121063    2.649743   -0.633122
      4          8           0        0.990122    1.190635   -0.057941
      5          1           0        1.426962    0.599798    0.559707
      6          8           0       -0.817519    1.030691    1.713650
      7          1           0       -1.021079    0.190602    2.131326
      8          8           0       -0.385068   -0.933506    0.171177
      9          1           0       -1.156817   -1.473692   -0.014327
     10          8           0       -2.573405    0.451778   -0.121857
     11          1           0       -2.777557   -0.087440   -0.889285
     12          8           0       -0.769659    0.604612   -1.901109
     13          1           0        0.098725    0.834573   -2.239490
     14          1           0       -0.965336   -0.309994   -2.117418
     15          1           0        1.122081    2.099426    0.221242
     16          1           0       -1.076711    3.058396    0.461841
     17          1           0       -2.814074   -0.023981    0.676500
     18          1           0        0.042204    1.336153    2.011809
     19          1           0       -0.115315   -1.064459    1.083123
 ---------------------------------------------------------------------
                    Distance matrix (angstroms):
                    1          2          3          4          5
     1  Fe   0.000000
     2  O    1.821762   0.000000
     3  H    2.325008   0.959835   0.000000
     4  O    1.821889   2.611767   3.484150   0.000000
     5  H    2.324839   3.415322   4.267739   0.959899   0.000000
     6  O    1.821090   2.611285   3.134947   2.536076   2.560263
     7  H    2.324381   3.450400   3.859988   3.136540   2.937743
     8  O    1.818745   3.640503   4.062050   2.540791   2.405292
     9  H    2.322579   4.062387   4.279649   3.421971   3.362259
    10  O    1.818006   2.536025   2.301533   3.639880   4.060711
    11  H    2.321775   3.136788   2.826442   4.064482   4.499984
    12  O    1.819010   2.540161   2.759827   2.614866   3.298603
    13  H    2.322657   2.875634   3.286750   2.383386   3.107223
    14  H    2.322591   3.387332   3.506977   3.212032   3.703756
    15  H    2.325429   2.444290   3.398642   0.959822   1.567289
    16  H    2.325125   0.959918   1.567358   2.833814   3.510364
    17  H    2.321626   3.225876   3.056824   4.060370   4.288255
    18  H    2.324547   2.949275   3.660724   2.281137   2.137375
    19  H    2.322443   4.061883   4.556733   2.758526   2.328591
                    6          7          8          9         10
     6  O    0.000000
     7  H    0.960021   0.000000
     8  O    2.534622   2.347406   0.000000
     9  H    3.061530   2.718847   0.960108   0.000000
    10  O    2.605257   2.748593   2.606473   2.392848   0.000000
    11  H    3.444886   3.505227   2.750347   2.305222   0.959885
    12  O    3.640099   4.061422   2.609231   2.833582   2.538227
    13  H    4.062670   4.557707   3.028445   3.443229   3.430916
    14  H    4.061572   4.278496   2.441955   2.411193   2.673658
    15  H    2.670492   3.447487   3.387136   4.244531   4.060675
    16  H    2.397039   3.318813   4.061790   4.557738   3.061904
    17  H    2.484803   2.318921   2.642472   2.307685   0.960023
    18  H    0.959858   1.567527   2.953276   3.665802   3.489421
    19  H    2.297892   1.869309   0.959980   1.567353   3.129403
                   11         12         13         14         15
    11  H    0.000000
    12  O    2.352526   0.000000
    13  H    3.308498   0.959935   0.000000
    14  H    2.200452   0.959991   1.567533   0.000000
    15  H    4.606825   3.212091   2.949969   3.953725   0.000000
    16  H    3.822919   3.420362   3.691102   4.243941   2.410850
    17  H    1.567497   3.349453   4.210050   3.362383   4.495491
    18  H    4.288824   4.062660   4.281159   4.558009   2.225950
    19  H    3.454344   3.481323   3.833001   3.396353   3.504877
                   16         17         18         19
    16  H    0.000000
    17  H    3.544793   0.000000
    18  H    2.573032   3.433851   0.000000
    19  H    4.278809   2.920828   2.578800   0.000000
 Stoichiometry    FeH12O6(3+,6)
 Framework group  C1[X(FeH12O6)]
 Deg. of freedom    51
 Full point group                 C1      NOp   1
 Largest Abelian subgroup         C1      NOp   1
 Largest concise Abelian subgroup C1      NOp   1
                         Standard orientation:                         
 ---------------------------------------------------------------------
 Center     Atomic      Atomic             Coordinates (Angstroms)
 Number     Number       Type             X           Y           Z
 ---------------------------------------------------------------------
      1         26           0       -0.020212   -0.029769    0.009758
      2          8           0       -0.320773   -1.687164   -0.684161
      3          1           0       -1.136997   -1.679346   -1.189137
      4          8           0        1.254785   -0.678144    1.138153
      5          1           0        1.943573   -0.019708    1.254074
      6          8           0        1.298505    0.294488   -1.203590
      7          1           0        1.382461    1.241149   -1.339326
      8          8           0        0.280919    1.626834    0.697379
      9          1           0       -0.430846    2.216032    0.436526
     10          8           0       -1.285567    0.616476   -1.124434
     11          1           0       -2.034473    0.939301   -0.618170
     12          8           0       -1.338192   -0.350985    1.221594
     13          1           0       -0.971642   -0.815184    1.977660
     14          1           0       -1.717006    0.482356    1.510774
     15          1           0        1.635434   -1.476912    0.766219
     16          1           0        0.408530   -1.930525   -1.258908
     17          1           0       -0.914804    1.335716   -1.641030
     18          1           0        2.129249   -0.056449   -0.874904
     19          1           0        1.114608    1.965515    0.362985
 ---------------------------------------------------------------------
 Rotational constants (GHZ):           2.0396930           1.9739388           1.9252729
 Leave Link  202 at Wed Mar  5 18:42:53 2025, MaxMem= 13421772800 cpu:               2.7 elap:               0.1
 (Enter /gpfs/fs1/soft/improv/software/custom-built/gaussian/g16/l301.exe)
 Standard basis: 6-31+G(2df,p) (6D, 7F)
 Ernie: Thresh=  0.10000D-02 Tol=  0.10000D-05 Strict=F.
 There are   347 symmetry adapted cartesian basis functions of A   symmetry.
 There are   317 symmetry adapted basis functions of A   symmetry.
   317 basis functions,   514 primitive gaussians,   347 cartesian basis functions
    44 alpha electrons       39 beta electrons
       nuclear repulsion energy       767.7883002195 Hartrees.
 IExCor= 3909 DFT=T Ex+Corr=HSEH1PBE ExCW=0 ScaHFX=  0.250000
 ScaDFX=  1.000000  1.000000  1.000000  1.000000 ScalE2=  1.000000  1.000000
 IRadAn=      5 IRanWt=     -1 IRanGd=            0 ICorTp=0 IEmpDi=  4
 HFx  wShort=  0.110000 wLong=  0.000000 cFull=  0.000000 cShort=  1.000000 cLong=  0.000000
 DFx  wShort=  0.110000 wLong=  0.000000 cFull=  0.000000 cShort= -0.250000 cLong=  1.000000
 NAtoms=   19 NActive=   19 NUniq=   19 SFac= 1.00D+00 NAtFMM=   60 NAOKFM=F Big=F
 Integral buffers will be    131072 words long.
 Raffenetti 2 integral format.
 Two-electron integral symmetry is turned on.
 R6DIni: Non-standard D2/D3 S6 parameter, value=     1.000000
 R6DIni: Non-standard D2/D3 S8 parameter, value=     0.109000
 R6DIni: Non-standard D2/D3 SR6 parameter, value=     1.129000
 Leave Link  301 at Wed Mar  5 18:42:53 2025, MaxMem= 13421772800 cpu:               0.4 elap:               0.1
 (Enter /gpfs/fs1/soft/improv/software/custom-built/gaussian/g16/l302.exe)
 NPDir=0 NMtPBC=     1 NCelOv=     1 NCel=       1 NClECP=     1 NCelD=      1
         NCelK=      1 NCelE2=     1 NClLst=     1 CellRange=     0.0.
 One-electron integrals computed using PRISM.
 One-electron integral symmetry used in STVInt
 NBasis=   317 RedAO= T EigKep=  1.64D-06  NBF=   317
 NBsUse=   317 1.00D-06 EigRej= -1.00D+00 NBFU=   317
 Precomputing XC quadrature grid using
 IXCGrd= 4 IRadAn=           5 IRanWt=          -1 IRanGd=           0 AccXCQ= 0.00D+00.
 Generated NRdTot=       0 NPtTot=           0 NUsed=           0 NTot=          32
 NSgBfM=   347   346   347   347   347 MxSgAt=    19 MxSgA2=    19.
 Leave Link  302 at Wed Mar  5 18:42:54 2025, MaxMem= 13421772800 cpu:              22.2 elap:               0.3
 (Enter /gpfs/fs1/soft/improv/software/custom-built/gaussian/g16/l303.exe)
 DipDrv:  MaxL=1.
 Leave Link  303 at Wed Mar  5 18:42:54 2025, MaxMem= 13421772800 cpu:               1.1 elap:               0.0
 (Enter /gpfs/fs1/soft/improv/software/custom-built/gaussian/g16/l401.exe)
 ExpMin= 1.26D-02 ExpMax= 6.11D+04 ExpMxC= 9.18D+03 IAcc=3 IRadAn=         5 AccDes= 0.00D+00
 Harris functional with IExCor= 1009 and IRadAn=       5 diagonalized for initial guess.
 HarFok:  IExCor= 1009 AccDes= 0.00D+00 IRadAn=         5 IDoV= 1 UseB2=F ITyADJ=14
 ICtDFT=  3500011 ScaDFX=  1.000000  1.000000  1.000000  1.000000
 FoFCou: FMM=F IPFlag=           0 FMFlag=      100000 FMFlg1=           0
         NFxFlg=           0 DoJE=T BraDBF=F KetDBF=T FulRan=T
         wScrn=  0.000000 ICntrl=       500 IOpCl=  0 I1Cent=   200000004 NGrid=           0
         NMat0=    1 NMatS0=      1 NMatT0=    0 NMatD0=    1 NMtDS0=    0 NMtDT0=    0
 Petite list used in FoFCou.
 Harris En= -1720.83105260979    
 JPrj=0 DoOrth=F DoCkMO=F.
 Initial guess <Sx>= 0.0000 <Sy>= 0.0000 <Sz>= 2.5000 <S**2>= 8.7500 S= 2.5000
 Leave Link  401 at Wed Mar  5 18:42:55 2025, MaxMem= 13421772800 cpu:              38.8 elap:               0.6
 (Enter /gpfs/fs1/soft/improv/software/custom-built/gaussian/g16/l502.exe)
 Integral symmetry usage will be decided dynamically.
 UHF open shell SCF:
 Using DIIS extrapolation, IDIIS=  1040.
 NGot= 13421772800 LenX= 13421483807 LenY= 13421362957
 Requested convergence on RMS density matrix=1.00D-08 within  50 cycles.
 Requested convergence on MAX density matrix=1.00D-06.
 Requested convergence on             energy=1.00D-06.
 No special actions if energy rises.
 Fock matrices will be formed incrementally for  20 cycles.

 Cycle   1  Pass 1  IDiag  1:
 FoFJK:  IHMeth= 1 ICntrl=       0 DoSepK=T KAlg= 0 I1Cent=           0 FoldK=F
 IRaf=         1 NMat=       1 IRICut=       1 DoRegI=T DoRafI=F ISym2E= 0 IDoP0=0 IntGTp=1.
 FoFCou: FMM=F IPFlag=           0 FMFlag=      100000 FMFlg1=           0
         NFxFlg=           0 DoJE=T BraDBF=F KetDBF=F FulRan=T
         wScrn=  0.000000 ICntrl=       500 IOpCl=  0 I1Cent=           0 NGrid=           0
         NMat0=    1 NMatS0=      1 NMatT0=    0 NMatD0=    1 NMtDS0=    0 NMtDT0=    0
 Symmetry not used in FoFCou.
 E= -1719.93543001070    
 DIIS: error= 3.00D-02 at cycle   1 NSaved=   1.
 NSaved= 1 IEnMin= 1 EnMin= -1719.93543001070     IErMin= 1 ErrMin= 3.00D-02
 ErrMax= 3.00D-02  0.00D+00 EMaxC= 1.00D-01 BMatC= 2.67D+00 BMatP= 2.67D+00
 IDIUse=3 WtCom= 7.00D-01 WtEn= 3.00D-01
 Coeff-Com:  0.100D+01
 Coeff-En:   0.100D+01
 Coeff:      0.100D+01
 Gap=     0.511 Goal=   None    Shift=    0.000
 Gap=    -0.102 Goal=   None    Shift=    0.000
 GapD=   -0.102 DampG=0.250 DampE=0.250 DampFc=0.1250 IDamp=-1.
 Damping current iteration by 1.25D-01
 RMSDP=6.02D-02 MaxDP=7.76D+00              OVMax= 6.64D-01

 Cycle   2  Pass 1  IDiag  1:
 RMSU=  4.54D-03    CP:  1.07D+00
 E= -1719.98610709508     Delta-E=       -0.050677084384 Rises=F Damp=T
 DIIS: error= 1.81D-02 at cycle   2 NSaved=   2.
 NSaved= 2 IEnMin= 2 EnMin= -1719.98610709508     IErMin= 2 ErrMin= 1.81D-02
 ErrMax= 1.81D-02  0.00D+00 EMaxC= 1.00D-01 BMatC= 7.97D-01 BMatP= 2.67D+00
 IDIUse=3 WtCom= 8.19D-01 WtEn= 1.81D-01
 Coeff-Com: -0.627D+00 0.163D+01
 Coeff-En:   0.255D+00 0.745D+00
 Coeff:     -0.467D+00 0.147D+01
 Gap=     0.302 Goal=   None    Shift=    0.000
 Gap=    -0.039 Goal=   None    Shift=    0.000
 RMSDP=2.00D-02 MaxDP=1.87D+00 DE=-5.07D-02 OVMax= 9.48D-01

 Cycle   3  Pass 1  IDiag  1:
 RMSU=  1.32D-02    CP:  8.96D-01  1.45D+00
 E= -1720.11866960233     Delta-E=       -0.132562507249 Rises=F Damp=F
 DIIS: error= 2.25D-02 at cycle   3 NSaved=   3.
 NSaved= 3 IEnMin= 3 EnMin= -1720.11866960233     IErMin= 2 ErrMin= 1.81D-02
 ErrMax= 2.25D-02  0.00D+00 EMaxC= 1.00D-01 BMatC= 1.09D+00 BMatP= 7.97D-01
 IDIUse=2 WtCom= 0.00D+00 WtEn= 1.00D+00
 Coeff-En:   0.000D+00 0.182D+00 0.818D+00
 Coeff:      0.000D+00 0.182D+00 0.818D+00
 Gap=     0.467 Goal=   None    Shift=    0.000
 Gap=     0.067 Goal=   None    Shift=    0.000
 RMSDP=3.73D-02 MaxDP=3.94D+00 DE=-1.33D-01 OVMax= 5.27D-01

 Cycle   4  Pass 1  IDiag  1:
 RMSU=  1.06D-02    CP:  1.26D+00  3.00D+00 -1.01D-01
 E= -1719.22622409759     Delta-E=        0.892445504741 Rises=F Damp=F
 DIIS: error= 7.57D-02 at cycle   4 NSaved=   4.
 NSaved= 4 IEnMin= 3 EnMin= -1720.11866960233     IErMin= 2 ErrMin= 1.81D-02
 ErrMax= 7.57D-02  0.00D+00 EMaxC= 1.00D-01 BMatC= 7.87D+00 BMatP= 7.97D-01
 IDIUse=2 WtCom= 0.00D+00 WtEn= 1.00D+00
 EnCoef did     2 forward-backward iterations
 Coeff-En:   0.746D-01 0.000D+00 0.745D+00 0.180D+00
 Coeff:      0.746D-01 0.000D+00 0.745D+00 0.180D+00
 Gap=     0.350 Goal=   None    Shift=    0.000
 Gap=     0.126 Goal=   None    Shift=    0.000
 RMSDP=2.29D-02 MaxDP=2.56D+00 DE= 8.92D-01 OVMax= 4.51D-01

 Cycle   5  Pass 1  IDiag  1:
 RMSU=  3.97D-03    CP:  1.02D+00  2.22D+00  3.14D-01  5.64D-01
 E= -1720.24479558417     Delta-E=       -1.018571486584 Rises=F Damp=F
 DIIS: error= 8.95D-03 at cycle   5 NSaved=   5.
 NSaved= 5 IEnMin= 5 EnMin= -1720.24479558417     IErMin= 5 ErrMin= 8.95D-03
 ErrMax= 8.95D-03  0.00D+00 EMaxC= 1.00D-01 BMatC= 2.88D-01 BMatP= 7.97D-01
 IDIUse=3 WtCom= 9.11D-01 WtEn= 8.95D-02
 Coeff-Com: -0.225D+00 0.270D+00 0.344D+00-0.426D-01 0.653D+00
 Coeff-En:   0.000D+00 0.000D+00 0.234D+00 0.000D+00 0.766D+00
 Coeff:     -0.205D+00 0.246D+00 0.334D+00-0.387D-01 0.663D+00
 Gap=     0.251 Goal=   None    Shift=    0.000
 Gap=     0.222 Goal=   None    Shift=    0.000
 RMSDP=6.68D-03 MaxDP=5.99D-01 DE=-1.02D+00 OVMax= 5.62D-02

 Cycle   6  Pass 1  IDiag  1:
 RMSU=  1.28D-03    CP:  9.65D-01  1.89D+00  5.84D-01  3.60D-01  7.17D-01
 E= -1720.29092978782     Delta-E=       -0.046134203645 Rises=F Damp=F
 DIIS: error= 2.93D-03 at cycle   6 NSaved=   6.
 NSaved= 6 IEnMin= 6 EnMin= -1720.29092978782     IErMin= 6 ErrMin= 2.93D-03
 ErrMax= 2.93D-03  0.00D+00 EMaxC= 1.00D-01 BMatC= 1.27D-02 BMatP= 2.88D-01
 IDIUse=3 WtCom= 9.71D-01 WtEn= 2.93D-02
 Coeff-Com: -0.152D+00 0.175D+00 0.128D+00-0.244D-01 0.303D+00 0.571D+00
 Coeff-En:   0.000D+00 0.000D+00 0.000D+00 0.000D+00 0.000D+00 0.100D+01
 Coeff:     -0.148D+00 0.170D+00 0.124D+00-0.237D-01 0.294D+00 0.584D+00
 Gap=     0.258 Goal=   None    Shift=    0.000
 Gap=     0.221 Goal=   None    Shift=    0.000
 RMSDP=9.71D-04 MaxDP=1.15D-01 DE=-4.61D-02 OVMax= 7.40D-03

 Cycle   7  Pass 1  IDiag  1:
 RMSU=  4.52D-04    CP:  9.73D-01  1.97D+00  5.67D-01  3.56D-01  7.55D-01
                    CP:  8.26D-01
 E= -1720.29213913091     Delta-E=       -0.001209343096 Rises=F Damp=F
 DIIS: error= 1.44D-03 at cycle   7 NSaved=   7.
 NSaved= 7 IEnMin= 7 EnMin= -1720.29213913091     IErMin= 7 ErrMin= 1.44D-03
 ErrMax= 1.44D-03  0.00D+00 EMaxC= 1.00D-01 BMatC= 3.79D-03 BMatP= 1.27D-02
 IDIUse=3 WtCom= 9.86D-01 WtEn= 1.44D-02
 Coeff-Com: -0.619D-01 0.697D-01-0.228D-01 0.182D-03-0.344D-02 0.292D+00
 Coeff-Com:  0.727D+00
 Coeff-En:   0.000D+00 0.000D+00 0.000D+00 0.000D+00 0.000D+00 0.000D+00
 Coeff-En:   0.100D+01
 Coeff:     -0.610D-01 0.687D-01-0.225D-01 0.179D-03-0.339D-02 0.287D+00
 Coeff:      0.731D+00
 Gap=     0.259 Goal=   None    Shift=    0.000
 Gap=     0.219 Goal=   None    Shift=    0.000
 RMSDP=5.10D-04 MaxDP=5.23D-02 DE=-1.21D-03 OVMax= 3.06D-03

 Cycle   8  Pass 1  IDiag  1:
 RMSU=  1.46D-04    CP:  9.79D-01  1.99D+00  5.60D-01  3.62D-01  7.49D-01
                    CP:  8.78D-01  8.84D-01
 E= -1720.29258919316     Delta-E=       -0.000450062248 Rises=F Damp=F
 DIIS: error= 7.30D-04 at cycle   8 NSaved=   8.
 NSaved= 8 IEnMin= 8 EnMin= -1720.29258919316     IErMin= 8 ErrMin= 7.30D-04
 ErrMax= 7.30D-04  0.00D+00 EMaxC= 1.00D-01 BMatC= 8.15D-04 BMatP= 3.79D-03
 IDIUse=3 WtCom= 9.93D-01 WtEn= 7.30D-03
 Coeff-Com: -0.179D-01 0.219D-01-0.116D-01 0.152D-02-0.146D-01-0.582D-01
 Coeff-Com: -0.775D-01 0.116D+01
 Coeff-En:   0.000D+00 0.000D+00 0.000D+00 0.000D+00 0.000D+00 0.000D+00
 Coeff-En:   0.000D+00 0.100D+01
 Coeff:     -0.178D-01 0.218D-01-0.116D-01 0.151D-02-0.145D-01-0.578D-01
 Coeff:     -0.769D-01 0.116D+01
 Gap=     0.261 Goal=   None    Shift=    0.000
 Gap=     0.218 Goal=   None    Shift=    0.000
 RMSDP=4.13D-04 MaxDP=4.51D-02 DE=-4.50D-04 OVMax= 2.27D-03

 Cycle   9  Pass 1  IDiag  1:
 RMSU=  5.86D-05    CP:  9.83D-01  2.02D+00  5.55D-01  3.63D-01  7.49D-01
                    CP:  9.02D-01  9.82D-01  1.34D+00
 E= -1720.29270518714     Delta-E=       -0.000115993982 Rises=F Damp=F
 DIIS: error= 1.95D-04 at cycle   9 NSaved=   9.
 NSaved= 9 IEnMin= 9 EnMin= -1720.29270518714     IErMin= 9 ErrMin= 1.95D-04
 ErrMax= 1.95D-04  0.00D+00 EMaxC= 1.00D-01 BMatC= 5.47D-05 BMatP= 8.15D-04
 IDIUse=3 WtCom= 9.98D-01 WtEn= 1.95D-03
 Coeff-Com: -0.223D-02 0.300D-02 0.147D-02 0.160D-03 0.185D-02-0.612D-01
 Coeff-Com: -0.157D+00 0.357D+00 0.857D+00
 Coeff-En:   0.000D+00 0.000D+00 0.000D+00 0.000D+00 0.000D+00 0.000D+00
 Coeff-En:   0.000D+00 0.000D+00 0.100D+01
 Coeff:     -0.222D-02 0.299D-02 0.147D-02 0.159D-03 0.185D-02-0.610D-01
 Coeff:     -0.157D+00 0.356D+00 0.858D+00
 Gap=     0.261 Goal=   None    Shift=    0.000
 Gap=     0.218 Goal=   None    Shift=    0.000
 RMSDP=1.36D-04 MaxDP=1.31D-02 DE=-1.16D-04 OVMax= 7.24D-04

 Cycle  10  Pass 1  IDiag  1:
 RMSU=  1.92D-05    CP:  9.85D-01  2.02D+00  5.53D-01  3.64D-01  7.48D-01
                    CP:  9.07D-01  9.81D-01  1.55D+00  9.17D-01
 E= -1720.29271263420     Delta-E=       -0.000007447052 Rises=F Damp=F
 DIIS: error= 1.42D-05 at cycle  10 NSaved=  10.
 NSaved=10 IEnMin=10 EnMin= -1720.29271263420     IErMin=10 ErrMin= 1.42D-05
 ErrMax= 1.42D-05  0.00D+00 EMaxC= 1.00D-01 BMatC= 1.05D-06 BMatP= 5.47D-05
 IDIUse=1 WtCom= 1.00D+00 WtEn= 0.00D+00
 Coeff-Com: -0.729D-03 0.990D-03 0.128D-02-0.207D-04 0.177D-02-0.241D-01
 Coeff-Com: -0.634D-01 0.101D+00 0.384D+00 0.599D+00
 Coeff:     -0.729D-03 0.990D-03 0.128D-02-0.207D-04 0.177D-02-0.241D-01
 Coeff:     -0.634D-01 0.101D+00 0.384D+00 0.599D+00
 Gap=     0.261 Goal=   None    Shift=    0.000
 Gap=     0.218 Goal=   None    Shift=    0.000
 RMSDP=1.34D-05 MaxDP=2.07D-03 DE=-7.45D-06 OVMax= 1.03D-04

 Cycle  11  Pass 1  IDiag  1:
 RMSU=  7.30D-06    CP:  9.85D-01  2.02D+00  5.53D-01  3.64D-01  7.48D-01
                    CP:  9.04D-01  9.90D-01  1.56D+00  9.27D-01  8.29D-01
 E= -1720.29271278704     Delta-E=       -0.000000152843 Rises=F Damp=F
 DIIS: error= 7.22D-06 at cycle  11 NSaved=  11.
 NSaved=11 IEnMin=11 EnMin= -1720.29271278704     IErMin=11 ErrMin= 7.22D-06
 ErrMax= 7.22D-06  0.00D+00 EMaxC= 1.00D-01 BMatC= 1.72D-07 BMatP= 1.05D-06
 IDIUse=1 WtCom= 1.00D+00 WtEn= 0.00D+00
 Coeff-Com: -0.723D-04 0.108D-03 0.327D-03-0.315D-04 0.416D-03-0.101D-02
 Coeff-Com: -0.160D-02-0.150D-01 0.284D-01 0.308D+00 0.681D+00
 Coeff:     -0.723D-04 0.108D-03 0.327D-03-0.315D-04 0.416D-03-0.101D-02
 Coeff:     -0.160D-02-0.150D-01 0.284D-01 0.308D+00 0.681D+00
 Gap=     0.261 Goal=   None    Shift=    0.000
 Gap=     0.218 Goal=   None    Shift=    0.000
 RMSDP=3.87D-06 MaxDP=4.42D-04 DE=-1.53D-07 OVMax= 4.98D-05

 Cycle  12  Pass 1  IDiag  1:
 RMSU=  2.36D-06    CP:  9.85D-01  2.02D+00  5.53D-01  3.64D-01  7.48D-01
                    CP:  9.05D-01  9.93D-01  1.56D+00  9.30D-01  8.97D-01
                    CP:  7.54D-01
 E= -1720.29271281927     Delta-E=       -0.000000032234 Rises=F Damp=F
 DIIS: error= 9.02D-07 at cycle  12 NSaved=  12.
 NSaved=12 IEnMin=12 EnMin= -1720.29271281927     IErMin=12 ErrMin= 9.02D-07
 ErrMax= 9.02D-07  0.00D+00 EMaxC= 1.00D-01 BMatC= 3.49D-09 BMatP= 1.72D-07
 IDIUse=1 WtCom= 1.00D+00 WtEn= 0.00D+00
 Coeff-Com:  0.539D-04-0.629D-04-0.522D-04-0.196D-05-0.805D-04 0.156D-02
 Coeff-Com:  0.403D-02-0.981D-02-0.220D-01 0.338D-02 0.105D+00 0.918D+00
 Coeff:      0.539D-04-0.629D-04-0.522D-04-0.196D-05-0.805D-04 0.156D-02
 Coeff:      0.403D-02-0.981D-02-0.220D-01 0.338D-02 0.105D+00 0.918D+00
 Gap=     0.261 Goal=   None    Shift=    0.000
 Gap=     0.218 Goal=   None    Shift=    0.000
 RMSDP=9.42D-07 MaxDP=1.35D-04 DE=-3.22D-08 OVMax= 1.37D-05

 Cycle  13  Pass 1  IDiag  1:
 RMSU=  4.77D-07    CP:  9.85D-01  2.02D+00  5.53D-01  3.64D-01  7.48D-01
                    CP:  9.04D-01  9.93D-01  1.57D+00  9.28D-01  9.10D-01
                    CP:  8.24D-01  9.65D-01
 E= -1720.29271281995     Delta-E=       -0.000000000674 Rises=F Damp=F
 DIIS: error= 6.86D-07 at cycle  13 NSaved=  13.
 NSaved=13 IEnMin=13 EnMin= -1720.29271281995     IErMin=13 ErrMin= 6.86D-07
 ErrMax= 6.86D-07  0.00D+00 EMaxC= 1.00D-01 BMatC= 1.66D-09 BMatP= 3.49D-09
 IDIUse=1 WtCom= 1.00D+00 WtEn= 0.00D+00
 Coeff-Com:  0.337D-04-0.410D-04-0.506D-04 0.113D-05-0.689D-04 0.821D-03
 Coeff-Com:  0.192D-02-0.309D-02-0.117D-01-0.215D-01-0.511D-02 0.419D+00
 Coeff-Com:  0.620D+00
 Coeff:      0.337D-04-0.410D-04-0.506D-04 0.113D-05-0.689D-04 0.821D-03
 Coeff:      0.192D-02-0.309D-02-0.117D-01-0.215D-01-0.511D-02 0.419D+00
 Coeff:      0.620D+00
 Gap=     0.261 Goal=   None    Shift=    0.000
 Gap=     0.218 Goal=   None    Shift=    0.000
 RMSDP=3.05D-07 MaxDP=3.30D-05 DE=-6.74D-10 OVMax= 4.12D-06

 Cycle  14  Pass 1  IDiag  1:
 RMSU=  1.35D-07    CP:  9.85D-01  2.02D+00  5.53D-01  3.64D-01  7.48D-01
                    CP:  9.05D-01  9.93D-01  1.57D+00  9.28D-01  9.14D-01
                    CP:  8.05D-01  1.02D+00  8.46D-01
 E= -1720.29271282018     Delta-E=       -0.000000000228 Rises=F Damp=F
 DIIS: error= 3.14D-07 at cycle  14 NSaved=  14.
 NSaved=14 IEnMin=14 EnMin= -1720.29271282018     IErMin=14 ErrMin= 3.14D-07
 ErrMax= 3.14D-07  0.00D+00 EMaxC= 1.00D-01 BMatC= 3.41D-10 BMatP= 1.66D-09
 IDIUse=1 WtCom= 1.00D+00 WtEn= 0.00D+00
 Coeff-Com:  0.121D-04-0.147D-04-0.187D-04 0.763D-06-0.254D-04 0.196D-03
 Coeff-Com:  0.371D-03-0.339D-04-0.251D-02-0.109D-01-0.171D-01 0.800D-01
 Coeff-Com:  0.324D+00 0.626D+00
 Coeff:      0.121D-04-0.147D-04-0.187D-04 0.763D-06-0.254D-04 0.196D-03
 Coeff:      0.371D-03-0.339D-04-0.251D-02-0.109D-01-0.171D-01 0.800D-01
 Coeff:      0.324D+00 0.626D+00
 Gap=     0.261 Goal=   None    Shift=    0.000
 Gap=     0.218 Goal=   None    Shift=    0.000
 RMSDP=1.81D-07 MaxDP=2.11D-05 DE=-2.28D-10 OVMax= 1.41D-06

 Cycle  15  Pass 1  IDiag  1:
 RMSU=  6.39D-08    CP:  9.85D-01  2.02D+00  5.53D-01  3.64D-01  7.48D-01
                    CP:  9.05D-01  9.93D-01  1.57D+00  9.28D-01  9.12D-01
                    CP:  8.10D-01  1.02D+00  8.74D-01  6.65D-01
 E= -1720.29271282023     Delta-E=       -0.000000000051 Rises=F Damp=F
 DIIS: error= 9.99D-08 at cycle  15 NSaved=  15.
 NSaved=15 IEnMin=15 EnMin= -1720.29271282023     IErMin=15 ErrMin= 9.99D-08
 ErrMax= 9.99D-08  0.00D+00 EMaxC= 1.00D-01 BMatC= 2.20D-11 BMatP= 3.41D-10
 IDIUse=1 WtCom= 1.00D+00 WtEn= 0.00D+00
 Coeff-Com:  0.301D-06-0.958D-07 0.203D-06 0.118D-06-0.158D-05-0.405D-04
 Coeff-Com: -0.108D-03 0.373D-03 0.676D-03-0.531D-04-0.303D-02-0.277D-01
 Coeff-Com:  0.848D-02 0.155D+00 0.866D+00
 Coeff:      0.301D-06-0.958D-07 0.203D-06 0.118D-06-0.158D-05-0.405D-04
 Coeff:     -0.108D-03 0.373D-03 0.676D-03-0.531D-04-0.303D-02-0.277D-01
 Coeff:      0.848D-02 0.155D+00 0.866D+00
 Gap=     0.261 Goal=   None    Shift=    0.000
 Gap=     0.218 Goal=   None    Shift=    0.000
 RMSDP=1.03D-07 MaxDP=1.15D-05 DE=-5.09D-11 OVMax= 5.38D-07

 Cycle  16  Pass 1  IDiag  1:
 RMSU=  1.56D-08    CP:  9.85D-01  2.02D+00  5.53D-01  3.64D-01  7.48D-01
                    CP:  9.05D-01  9.93D-01  1.57D+00  9.28D-01  9.12D-01
                    CP:  8.09D-01  1.02D+00  8.90D-01  7.13D-01  1.03D+00
 E= -1720.29271282023     Delta-E=       -0.000000000005 Rises=F Damp=F
 DIIS: error= 9.82D-09 at cycle  16 NSaved=  16.
 NSaved=16 IEnMin=16 EnMin= -1720.29271282023     IErMin=16 ErrMin= 9.82D-09
 ErrMax= 9.82D-09  0.00D+00 EMaxC= 1.00D-01 BMatC= 4.30D-13 BMatP= 2.20D-11
 IDIUse=1 WtCom= 1.00D+00 WtEn= 0.00D+00
 Coeff-Com: -0.775D-06 0.890D-06 0.146D-05-0.637D-07 0.178D-05-0.168D-04
 Coeff-Com: -0.337D-04 0.406D-04 0.240D-03 0.694D-03 0.655D-03-0.955D-02
 Coeff-Com: -0.205D-01-0.181D-01 0.136D+00 0.910D+00
 Coeff:     -0.775D-06 0.890D-06 0.146D-05-0.637D-07 0.178D-05-0.168D-04
 Coeff:     -0.337D-04 0.406D-04 0.240D-03 0.694D-03 0.655D-03-0.955D-02
 Coeff:     -0.205D-01-0.181D-01 0.136D+00 0.910D+00
 Gap=     0.261 Goal=   None    Shift=    0.000
 Gap=     0.218 Goal=   None    Shift=    0.000
 RMSDP=8.83D-09 MaxDP=6.60D-07 DE=-5.46D-12 OVMax= 8.84D-08

 SCF Done:  E(UHSEH1PBE) =  -1720.29271282     A.U. after   16 cycles
            NFock= 16  Conv=0.88D-08     -V/T= 2.0010
 <Sx>= 0.0000 <Sy>= 0.0000 <Sz>= 2.5000 <S**2>= 8.7537 S= 2.5006
 <L.S>=  0.00000000000    
 KE= 1.718638043853D+03 PE=-5.571970609640D+03 EE= 1.365251552747D+03
 Annihilation of the first spin contaminant:
 S**2 before annihilation     8.7537,   after     8.7500
 Leave Link  502 at Wed Mar  5 18:44:19 2025, MaxMem= 13421772800 cpu:            9951.7 elap:              83.3
 (Enter /gpfs/fs1/soft/improv/software/custom-built/gaussian/g16/l508.exe)
 QCSCF skips out because SCF is already converged.
 Leave Link  508 at Wed Mar  5 18:44:19 2025, MaxMem= 13421772800 cpu:               0.3 elap:               0.0
 (Enter /gpfs/fs1/soft/improv/software/custom-built/gaussian/g16/l801.exe)
 DoSCS=F DFT=T ScalE2(SS,OS)=  1.000000  1.000000
 Range of M.O.s used for correlation:     1   317
 NBasis=   317 NAE=    44 NBE=    39 NFC=     0 NFV=     0
 NROrb=    317 NOA=    44 NOB=    39 NVA=   273 NVB=   278

 **** Warning!!: The largest alpha MO coefficient is  0.23304492D+03


 **** Warning!!: The largest beta MO coefficient is  0.21365841D+03

 Leave Link  801 at Wed Mar  5 18:44:19 2025, MaxMem= 13421772800 cpu:               0.4 elap:               0.0
 (Enter /gpfs/fs1/soft/improv/software/custom-built/gaussian/g16/l1101.exe)
 Using compressed storage, NAtomX=    19.
 Will process     20 centers per pass.
 Leave Link 1101 at Wed Mar  5 18:44:19 2025, MaxMem= 13421772800 cpu:              51.3 elap:               0.5
 (Enter /gpfs/fs1/soft/improv/software/custom-built/gaussian/g16/l1102.exe)
 Symmetrizing basis deriv contribution to polar:
 IMax=3 JMax=2 DiffMx= 0.00D+00
 Leave Link 1102 at Wed Mar  5 18:44:20 2025, MaxMem= 13421772800 cpu:               1.0 elap:               0.0
 (Enter /gpfs/fs1/soft/improv/software/custom-built/gaussian/g16/l1110.exe)
 Forming Gx(P) for the SCF density, NAtomX=    19.
 Integral derivatives from FoFJK, PRISM(SPDF).
 Do as many integral derivatives as possible in FoFJK.
 G2DrvN: MDV=   13421770631.
 G2DrvN: will do    20 centers at a time, making    1 passes.
 Calling FoFCou, ICntrl=  3107 FMM=F I1Cent=   0 AccDes= 0.00D+00.
 FoFJK:  IHMeth= 1 ICntrl=    3107 DoSepK=T KAlg= 0 I1Cent=           0 FoldK=F
 IRaf=         1 NMat=       1 IRICut=       1 DoRegI=T DoRafI=F ISym2E= 0 IDoP0=0 IntGTp=1.
 FoFCou: FMM=F IPFlag=           0 FMFlag=      100000 FMFlg1=           0
         NFxFlg=           0 DoJE=F BraDBF=F KetDBF=F FulRan=T
         wScrn=  0.000000 ICntrl=      3507 IOpCl=  0 I1Cent=           0 NGrid=           0
         NMat0=    1 NMatS0=      1 NMatT0=    0 NMatD0=    1 NMtDS0=    0 NMtDT0=    0
 Symmetry not used in FoFCou.
 End of G2Drv F.D. properties file   721 does not exist.
 End of G2Drv F.D. properties file   722 does not exist.
 End of G2Drv F.D. properties file   788 does not exist.
 Leave Link 1110 at Wed Mar  5 18:44:39 2025, MaxMem= 13421772800 cpu:            2438.2 elap:              19.5
 (Enter /gpfs/fs1/soft/improv/software/custom-built/gaussian/g16/l1002.exe)
 Minotr:  UHF open shell wavefunction.
          IDoAtm=1111111111111111111
          Direct CPHF calculation.
          Differentiating once with respect to electric field.
                with respect to dipole field.
          Differentiating once with respect to nuclear coordinates.
          Requested convergence is 1.0D-08 RMS, and 1.0D-07 maximum.
          Secondary convergence is 1.0D-12 RMS, and 1.0D-12 maximum.
          NewPWx=T KeepS1=F KeepF1=F KeepIn=T MapXYZ=F SortEE=F KeepMc=T.
         6034 words used for storage of precomputed grid.
 Two-electron integrals replicated using symmetry.
          MDV=   13421772800 using IRadAn=       1.
          Solving linear equations simultaneously, MaxMat=     384.
 FoF2E skips out because all densities are zero.
 CalDSu exits because no D1Ps are significant.
 FoFJK:  IHMeth= 1 ICntrl=       0 DoSepK=T KAlg= 0 I1Cent=           0 FoldK=F
 IRaf=         1 NMat=      57 IRICut=       1 DoRegI=T DoRafI=F ISym2E= 2 IDoP0=3 IntGTp=2.
 FoFCou: FMM=F IPFlag=           0 FMFlag=      100000 FMFlg1=           0
         NFxFlg=           0 DoJE=F BraDBF=F KetDBF=F FulRan=T
         wScrn=  0.000000 ICntrl=       500 IOpCl=  0 I1Cent=           0 NGrid=           0
         NMat0=   57 NMatS0=     57 NMatT0=    0 NMatD0=   57 NMtDS0=    0 NMtDT0=    0
 Integrals replicated using symmetry in FoFCou.
          There are    60 degrees of freedom in the 1st order CPHF.  IDoFFX=6 NUNeed=     3.
     57 vectors produced by pass  0 Test12= 3.81D-14 1.67D-09 XBig12= 5.72D+01 1.94D+00.
 AX will form    57 AO Fock derivatives at one time.
     57 vectors produced by pass  1 Test12= 3.81D-14 1.67D-09 XBig12= 5.02D+00 3.06D-01.
     57 vectors produced by pass  2 Test12= 3.81D-14 1.67D-09 XBig12= 6.63D-02 3.89D-02.
     57 vectors produced by pass  3 Test12= 3.81D-14 1.67D-09 XBig12= 8.61D-04 5.50D-03.
     57 vectors produced by pass  4 Test12= 3.81D-14 1.67D-09 XBig12= 7.44D-06 2.91D-04.
     57 vectors produced by pass  5 Test12= 3.81D-14 1.67D-09 XBig12= 3.84D-08 2.28D-05.
     40 vectors produced by pass  6 Test12= 3.81D-14 1.67D-09 XBig12= 1.26D-10 9.01D-07.
      8 vectors produced by pass  7 Test12= 3.81D-14 1.67D-09 XBig12= 2.85D-13 6.16D-08.
      3 vectors produced by pass  8 Test12= 3.81D-14 1.67D-09 XBig12= 9.80D-16 2.04D-09.
 InvSVY:  IOpt=1 It=  1 EMax= 7.11D-15
 Solved reduced A of dimension   393 with    60 vectors.
 FullF1:  Do perturbations      1 to       3.
 Isotropic polarizability for W=    0.000000       49.26 Bohr**3.
 End of Minotr F.D. properties file   721 does not exist.
 End of Minotr F.D. properties file   722 does not exist.
 End of Minotr F.D. properties file   788 does not exist.
 Leave Link 1002 at Wed Mar  5 18:45:54 2025, MaxMem= 13421772800 cpu:            8848.4 elap:              74.1
 (Enter /gpfs/fs1/soft/improv/software/custom-built/gaussian/g16/l601.exe)
 Copying SCF densities to generalized density rwf, IOpCl= 1 IROHF=0.

 **********************************************************************

            Population analysis using the SCF Density.

 **********************************************************************

 Orbital symmetries:
 Alpha Orbitals:
       Occupied  (A) (A) (A) (A) (A) (A) (A) (A) (A) (A) (A) (A)
                 (A) (A) (A) (A) (A) (A) (A) (A) (A) (A) (A) (A)
                 (A) (A) (A) (A) (A) (A) (A) (A) (A) (A) (A) (A)
                 (A) (A) (A) (A) (A) (A) (A) (A)
       Virtual   (A) (A) (A) (A) (A) (A) (A) (A) (A) (A) (A) (A)
                 (A) (A) (A) (A) (A) (A) (A) (A) (A) (A) (A) (A)
                 (A) (A) (A) (A) (A) (A) (A) (A) (A) (A) (A) (A)
                 (A) (A) (A) (A) (A) (A) (A) (A) (A) (A) (A) (A)
                 (A) (A) (A) (A) (A) (A) (A) (A) (A) (A) (A) (A)
                 (A) (A) (A) (A) (A) (A) (A) (A) (A) (A) (A) (A)
                 (A) (A) (A) (A) (A) (A) (A) (A) (A) (A) (A) (A)
                 (A) (A) (A) (A) (A) (A) (A) (A) (A) (A) (A) (A)
                 (A) (A) (A) (A) (A) (A) (A) (A) (A) (A) (A) (A)
                 (A) (A) (A) (A) (A) (A) (A) (A) (A) (A) (A) (A)
                 (A) (A) (A) (A) (A) (A) (A) (A) (A) (A) (A) (A)
                 (A) (A) (A) (A) (A) (A) (A) (A) (A) (A) (A) (A)
                 (A) (A) (A) (A) (A) (A) (A) (A) (A) (A) (A) (A)
                 (A) (A) (A) (A) (A) (A) (A) (A) (A) (A) (A) (A)
                 (A) (A) (A) (A) (A) (A) (A) (A) (A) (A) (A) (A)
                 (A) (A) (A) (A) (A) (A) (A) (A) (A) (A) (A) (A)
                 (A) (A) (A) (A) (A) (A) (A) (A) (A) (A) (A) (A)
                 (A) (A) (A) (A) (A) (A) (A) (A) (A) (A) (A) (A)
                 (A) (A) (A) (A) (A) (A) (A) (A) (A) (A) (A) (A)
                 (A) (A) (A) (A) (A) (A) (A) (A) (A) (A) (A) (A)
                 (A) (A) (A) (A) (A) (A) (A) (A) (A) (A) (A) (A)
                 (A) (A) (A) (A) (A) (A) (A) (A) (A) (A) (A) (A)
                 (A) (A) (A) (A) (A) (A) (A) (A) (A)
 Beta  Orbitals:
       Occupied  (A) (A) (A) (A) (A) (A) (A) (A) (A) (A) (A) (A)
                 (A) (A) (A) (A) (A) (A) (A) (A) (A) (A) (A) (A)
                 (A) (A) (A) (A) (A) (A) (A) (A) (A) (A) (A) (A)
                 (A) (A) (A)
       Virtual   (A) (A) (A) (A) (A) (A) (A) (A) (A) (A) (A) (A)
                 (A) (A) (A) (A) (A) (A) (A) (A) (A) (A) (A) (A)
                 (A) (A) (A) (A) (A) (A) (A) (A) (A) (A) (A) (A)
                 (A) (A) (A) (A) (A) (A) (A) (A) (A) (A) (A) (A)
                 (A) (A) (A) (A) (A) (A) (A) (A) (A) (A) (A) (A)
                 (A) (A) (A) (A) (A) (A) (A) (A) (A) (A) (A) (A)
                 (A) (A) (A) (A) (A) (A) (A) (A) (A) (A) (A) (A)
                 (A) (A) (A) (A) (A) (A) (A) (A) (A) (A) (A) (A)
                 (A) (A) (A) (A) (A) (A) (A) (A) (A) (A) (A) (A)
                 (A) (A) (A) (A) (A) (A) (A) (A) (A) (A) (A) (A)
                 (A) (A) (A) (A) (A) (A) (A) (A) (A) (A) (A) (A)
                 (A) (A) (A) (A) (A) (A) (A) (A) (A) (A) (A) (A)
                 (A) (A) (A) (A) (A) (A) (A) (A) (A) (A) (A) (A)
                 (A) (A) (A) (A) (A) (A) (A) (A) (A) (A) (A) (A)
                 (A) (A) (A) (A) (A) (A) (A) (A) (A) (A) (A) (A)
                 (A) (A) (A) (A) (A) (A) (A) (A) (A) (A) (A) (A)
                 (A) (A) (A) (A) (A) (A) (A) (A) (A) (A) (A) (A)
                 (A) (A) (A) (A) (A) (A) (A) (A) (A) (A) (A) (A)
                 (A) (A) (A) (A) (A) (A) (A) (A) (A) (A) (A) (A)
                 (A) (A) (A) (A) (A) (A) (A) (A) (A) (A) (A) (A)
                 (A) (A) (A) (A) (A) (A) (A) (A) (A) (A) (A) (A)
                 (A) (A) (A) (A) (A) (A) (A) (A) (A) (A) (A) (A)
                 (A) (A) (A) (A) (A) (A) (A) (A) (A) (A) (A) (A)
                 (A) (A)
 The electronic state is 6-A.
 Alpha  occ. eigenvalues -- -257.03316 -30.87963 -26.69282 -26.69215 -26.69175
 Alpha  occ. eigenvalues --  -19.83797 -19.83775 -19.82842 -19.82529 -19.80486
 Alpha  occ. eigenvalues --  -19.79739  -4.30032  -3.06199  -3.05981  -3.05856
 Alpha  occ. eigenvalues --   -1.69520  -1.66906  -1.66333  -1.65792  -1.63928
 Alpha  occ. eigenvalues --   -1.63097  -1.20809  -1.19314  -1.16943  -1.16293
 Alpha  occ. eigenvalues --   -1.14980  -1.14341  -1.13954  -1.12869  -1.11434
 Alpha  occ. eigenvalues --   -1.08103  -1.05594  -1.03872  -1.03480  -1.01824
 Alpha  occ. eigenvalues --   -1.01715  -0.97405  -0.96855  -0.95545  -0.94177
 Alpha  occ. eigenvalues --   -0.91982  -0.91407  -0.82405  -0.82111
 Alpha virt. eigenvalues --   -0.56015  -0.50240  -0.48038  -0.46742  -0.43446
 Alpha virt. eigenvalues --   -0.42335  -0.40840  -0.40410  -0.37533  -0.35812
 Alpha virt. eigenvalues --   -0.35450  -0.34246  -0.32576  -0.31685  -0.30917
 Alpha virt. eigenvalues --   -0.29158  -0.28472  -0.28086  -0.27621  -0.27451
 Alpha virt. eigenvalues --   -0.25251  -0.24959  -0.24602  -0.23910  -0.22599
 Alpha virt. eigenvalues --   -0.22211  -0.20775  -0.20050  -0.19485  -0.18708
 Alpha virt. eigenvalues --   -0.18388  -0.17126  -0.15609  -0.14841  -0.14237
 Alpha virt. eigenvalues --   -0.13177  -0.12802  -0.11879  -0.11273  -0.10254
 Alpha virt. eigenvalues --   -0.08484  -0.08051  -0.07498  -0.06698  -0.05813
 Alpha virt. eigenvalues --   -0.05009  -0.01969  -0.01114   0.00558   0.05434
 Alpha virt. eigenvalues --    0.07397   0.09252   0.09899   0.20649   0.21782
 Alpha virt. eigenvalues --    0.23152   0.25414   0.28584   0.30449   0.31416
 Alpha virt. eigenvalues --    0.32742   0.33476   0.34409   0.35489   0.35662
 Alpha virt. eigenvalues --    0.38243   0.39938   0.40923   0.41972   0.43291
 Alpha virt. eigenvalues --    0.45128   0.45995   0.46655   0.47908   0.51016
 Alpha virt. eigenvalues --    0.52030   0.52272   0.53475   0.54185   0.54710
 Alpha virt. eigenvalues --    0.55810   0.57589   0.60092   0.61928   0.63019
 Alpha virt. eigenvalues --    0.64144   0.66962   0.68570   0.69430   0.72442
 Alpha virt. eigenvalues --    0.74061   0.75759   0.76582   0.78219   0.79371
 Alpha virt. eigenvalues --    0.80330   0.83953   0.85738   0.86478   0.87825
 Alpha virt. eigenvalues --    0.89948   0.91456   0.92173   1.06214   1.07430
 Alpha virt. eigenvalues --    1.13943   1.15045   1.18340   1.19868   1.21463
 Alpha virt. eigenvalues --    1.22662   1.23169   1.24672   1.27436   1.29436
 Alpha virt. eigenvalues --    1.33308   1.35568   1.37119   1.39970   1.42576
 Alpha virt. eigenvalues --    1.48550   1.53422   1.60102   1.68117   1.70124
 Alpha virt. eigenvalues --    1.71918   1.75095   1.75711   1.78559   1.83543
 Alpha virt. eigenvalues --    1.84942   1.85138   1.87995   1.88517   1.95507
 Alpha virt. eigenvalues --    1.97669   2.01321   2.04854   2.08263   2.11471
 Alpha virt. eigenvalues --    2.14140   2.14988   2.19402   2.22637   2.25891
 Alpha virt. eigenvalues --    2.27497   2.32232   2.33736   2.35866   2.38988
 Alpha virt. eigenvalues --    2.39762   2.40940   2.43166   2.43563   2.46239
 Alpha virt. eigenvalues --    2.46682   2.48220   2.49558   2.50450   2.52031
 Alpha virt. eigenvalues --    2.52602   2.53608   2.55387   2.56776   2.62096
 Alpha virt. eigenvalues --    2.67472   2.74826   2.77469   2.78556   2.80010
 Alpha virt. eigenvalues --    2.88900   3.14318   3.44111   3.45710   3.50755
 Alpha virt. eigenvalues --    3.54550   3.56465   3.61758   3.62647   3.63746
 Alpha virt. eigenvalues --    3.64861   3.67145   3.68342   3.69291   3.72309
 Alpha virt. eigenvalues --    3.72956   3.74383   3.74532   3.77595   3.78167
 Alpha virt. eigenvalues --    3.79241   3.81826   3.84627   3.84918   3.89370
 Alpha virt. eigenvalues --    3.92398   3.93279   3.95206   3.98003   3.99233
 Alpha virt. eigenvalues --    4.01211   4.03251   4.06570   4.09633   4.13789
 Alpha virt. eigenvalues --    4.18491   4.20801   4.21182   4.24793   4.26983
 Alpha virt. eigenvalues --    4.32133   4.36974   4.38029   4.41215   4.41908
 Alpha virt. eigenvalues --    4.43584   4.45538   4.49105   4.59960   4.64873
 Alpha virt. eigenvalues --    4.67487   4.68087   4.71503   4.74219   4.80955
 Alpha virt. eigenvalues --    4.85059   4.85784   4.87124   4.88108   4.88958
 Alpha virt. eigenvalues --    4.90987   4.91285   4.92038   4.93223   4.98192
 Alpha virt. eigenvalues --    4.98924   5.05359   5.06924   5.08452   5.10365
 Alpha virt. eigenvalues --    5.11829   5.15907   5.16766   5.18792   5.21989
 Alpha virt. eigenvalues --    5.25502   5.27882   5.29455   5.30665   5.32595
 Alpha virt. eigenvalues --    5.34906   5.36048   5.37714   5.38240   5.42395
 Alpha virt. eigenvalues --    5.46333   5.48060   5.60359   5.61496   6.00614
 Alpha virt. eigenvalues --    6.95984   6.98678   6.99988   7.08177   7.11190
 Alpha virt. eigenvalues --    7.25799  13.36187  13.38303  13.39299  13.94364
 Alpha virt. eigenvalues --   14.00094  14.05192  25.59866
  Beta  occ. eigenvalues -- -257.03232 -30.78452 -26.61274 -26.61208 -26.61171
  Beta  occ. eigenvalues --  -19.83430 -19.83405 -19.82449 -19.82130 -19.80042
  Beta  occ. eigenvalues --  -19.79289  -4.06156  -2.80743  -2.80583  -2.80462
  Beta  occ. eigenvalues --   -1.68657  -1.66022  -1.65390  -1.64864  -1.62870
  Beta  occ. eigenvalues --   -1.62014  -1.19507  -1.17941  -1.16378  -1.15469
  Beta  occ. eigenvalues --   -1.13634  -1.12270  -1.09642  -1.07183  -1.06145
  Beta  occ. eigenvalues --   -1.03409  -1.03098  -1.00612  -1.00124  -0.96506
  Beta  occ. eigenvalues --   -0.94929  -0.93435  -0.91730  -0.90472
  Beta virt. eigenvalues --   -0.68703  -0.68229  -0.67320  -0.57950  -0.57779
  Beta virt. eigenvalues --   -0.55724  -0.49971  -0.47725  -0.46488  -0.42964
  Beta virt. eigenvalues --   -0.41842  -0.40502  -0.40091  -0.37081  -0.35464
  Beta virt. eigenvalues --   -0.35060  -0.33772  -0.32247  -0.31487  -0.30586
  Beta virt. eigenvalues --   -0.28675  -0.28049  -0.27677  -0.27190  -0.26991
  Beta virt. eigenvalues --   -0.24886  -0.24367  -0.24209  -0.23220  -0.21759
  Beta virt. eigenvalues --   -0.21428  -0.20196  -0.19049  -0.18416  -0.18089
  Beta virt. eigenvalues --   -0.17371  -0.16669  -0.14894  -0.14351  -0.13362
  Beta virt. eigenvalues --   -0.12519  -0.12062  -0.10818  -0.10331  -0.09143
  Beta virt. eigenvalues --   -0.07877  -0.07305  -0.06873  -0.05322  -0.05060
  Beta virt. eigenvalues --   -0.04106  -0.01127  -0.00094   0.01850   0.07062
  Beta virt. eigenvalues --    0.08950   0.09507   0.10180   0.21157   0.22340
  Beta virt. eigenvalues --    0.23879   0.26298   0.29186   0.30974   0.32290
  Beta virt. eigenvalues --    0.33360   0.34297   0.34931   0.35836   0.36481
  Beta virt. eigenvalues --    0.38584   0.40689   0.41443   0.42548   0.43804
  Beta virt. eigenvalues --    0.45584   0.46424   0.47180   0.48458   0.51900
  Beta virt. eigenvalues --    0.52690   0.52921   0.53986   0.54925   0.55459
  Beta virt. eigenvalues --    0.56414   0.58370   0.60692   0.62698   0.63816
  Beta virt. eigenvalues --    0.64874   0.67875   0.69600   0.70887   0.73811
  Beta virt. eigenvalues --    0.75338   0.77082   0.78466   0.79471   0.80551
  Beta virt. eigenvalues --    0.81691   0.84842   0.87581   0.88714   0.90101
  Beta virt. eigenvalues --    0.91827   0.92773   0.93858   1.09151   1.09956
  Beta virt. eigenvalues --    1.17094   1.17460   1.20718   1.21816   1.24966
  Beta virt. eigenvalues --    1.25464   1.26817   1.27604   1.31915   1.32668
  Beta virt. eigenvalues --    1.36729   1.37839   1.39703   1.42749   1.44831
  Beta virt. eigenvalues --    1.49447   1.55327   1.61539   1.68536   1.70593
  Beta virt. eigenvalues --    1.72562   1.75774   1.76205   1.79261   1.84316
  Beta virt. eigenvalues --    1.85783   1.86205   1.88658   1.89000   1.96521
  Beta virt. eigenvalues --    1.99627   2.01857   2.05723   2.08902   2.12957
  Beta virt. eigenvalues --    2.15942   2.16016   2.20792   2.24860   2.27929
  Beta virt. eigenvalues --    2.29642   2.34345   2.36673   2.38684   2.39996
  Beta virt. eigenvalues --    2.40861   2.41975   2.44184   2.44344   2.47281
  Beta virt. eigenvalues --    2.47777   2.49083   2.51037   2.52749   2.53016
  Beta virt. eigenvalues --    2.54943   2.55222   2.57067   2.59002   2.62950
  Beta virt. eigenvalues --    2.68223   2.75987   2.78981   2.80618   2.82799
  Beta virt. eigenvalues --    2.91232   3.17687   3.47890   3.49422   3.51887
  Beta virt. eigenvalues --    3.55650   3.57356   3.62986   3.64032   3.65723
  Beta virt. eigenvalues --    3.68625   3.69611   3.70397   3.71713   3.75863
  Beta virt. eigenvalues --    3.77458   3.77754   3.78143   3.79945   3.83325
  Beta virt. eigenvalues --    3.85331   3.86008   3.88045   3.89455   3.93817
  Beta virt. eigenvalues --    3.94849   3.96573   3.97251   4.00335   4.03054
  Beta virt. eigenvalues --    4.03386   4.08923   4.15358   4.18935   4.20036
  Beta virt. eigenvalues --    4.23206   4.25968   4.26838   4.28527   4.29381
  Beta virt. eigenvalues --    4.35160   4.41443   4.41673   4.43591   4.44842
  Beta virt. eigenvalues --    4.46716   4.48908   4.53407   4.61313   4.66807
  Beta virt. eigenvalues --    4.69007   4.69538   4.72953   4.76048   4.82811
  Beta virt. eigenvalues --    4.85882   4.86869   4.87916   4.88667   4.90770
  Beta virt. eigenvalues --    4.91985   4.92751   4.93397   4.95159   5.00446
  Beta virt. eigenvalues --    5.01264   5.07179   5.08714   5.10099   5.12179
  Beta virt. eigenvalues --    5.14509   5.18253   5.19428   5.21004   5.24486
  Beta virt. eigenvalues --    5.26686   5.29102   5.31152   5.32492   5.34037
  Beta virt. eigenvalues --    5.36467   5.37584   5.39788   5.40102   5.43207
  Beta virt. eigenvalues --    5.47037   5.48806   5.61694   5.62716   6.03361
  Beta virt. eigenvalues --    6.96818   6.99520   7.00825   7.08927   7.11935
  Beta virt. eigenvalues --    7.26392  13.36623  13.38726  13.39723  13.94803
  Beta virt. eigenvalues --   14.00542  14.05631  25.69044
          Condensed to atoms (all electrons):
               1          2          3          4          5          6
     1  Fe  24.716550  -0.038546  -0.011352  -0.004190  -0.010037  -0.034710
     2  O   -0.038546   8.247497   0.314243  -0.057585   0.000105  -0.056862
     3  H   -0.011352   0.314243   0.241207   0.000336  -0.000017   0.001204
     4  O   -0.004190  -0.057585   0.000336   8.245474   0.308950  -0.058808
     5  H   -0.010037   0.000105  -0.000017   0.308950   0.267612   0.002768
     6  O   -0.034710  -0.056862   0.001204  -0.058808   0.002768   8.260710
     7  H   -0.006174  -0.000091  -0.000027  -0.000308  -0.000311   0.309149
     8  O   -0.047800   0.049742  -0.000815  -0.066650   0.004259  -0.070170
     9  H   -0.007213  -0.000675  -0.000001   0.000057   0.000032   0.000905
    10  O   -0.009450  -0.054208   0.001614   0.038241  -0.000988  -0.066225
    11  H   -0.002177   0.001472  -0.000264  -0.000620   0.000010  -0.000344
    12  O   -0.027650  -0.044693   0.000811  -0.052694  -0.000326   0.048681
    13  H   -0.012702  -0.000677  -0.000052   0.001782  -0.000021  -0.000722
    14  H    0.005092   0.000719  -0.000001   0.001120   0.000037  -0.001047
    15  H   -0.004429   0.001994   0.000026   0.311072  -0.021277  -0.006430
    16  H   -0.002907   0.305306  -0.013763  -0.000601  -0.000016  -0.000088
    17  H   -0.010949  -0.001077   0.000087  -0.000791  -0.000006   0.002880
    18  H   -0.010149  -0.000302   0.000022   0.001721  -0.001539   0.313216
    19  H   -0.009235  -0.001092   0.000007  -0.000080   0.000102   0.002823
               7          8          9         10         11         12
     1  Fe  -0.006174  -0.047800  -0.007213  -0.009450  -0.002177  -0.027650
     2  O   -0.000091   0.049742  -0.000675  -0.054208   0.001472  -0.044693
     3  H   -0.000027  -0.000815  -0.000001   0.001614  -0.000264   0.000811
     4  O   -0.000308  -0.066650   0.000057   0.038241  -0.000620  -0.052694
     5  H   -0.000311   0.004259   0.000032  -0.000988   0.000010  -0.000326
     6  O    0.309149  -0.070170   0.000905  -0.066225  -0.000344   0.048681
     7  H    0.274877   0.001038  -0.000399   0.001021   0.000051  -0.001342
     8  O    0.001038   8.260419   0.311208  -0.035744  -0.006359  -0.051507
     9  H   -0.000399   0.311208   0.257488  -0.000679   0.000084  -0.000719
    10  O    0.001021  -0.035744  -0.000679   8.249521   0.309114  -0.074799
    11  H    0.000051  -0.006359   0.000084   0.309114   0.259937   0.001977
    12  O   -0.001342  -0.051507  -0.000719  -0.074799   0.001977   8.248339
    13  H    0.000008   0.000986   0.000018   0.001229  -0.000020   0.313408
    14  H   -0.000008  -0.001464   0.000184  -0.002423   0.001161   0.300697
    15  H    0.000158  -0.000360  -0.000028  -0.000628  -0.000002   0.001686
    16  H    0.000012  -0.000955   0.000005   0.001827  -0.000010   0.000083
    17  H    0.000465   0.000136  -0.001385   0.312330  -0.020739   0.000428
    18  H   -0.016708   0.000841   0.000031  -0.000148  -0.000025  -0.000722
    19  H    0.001404   0.311659  -0.016147  -0.000894   0.000154   0.000460
              13         14         15         16         17         18
     1  Fe  -0.012702   0.005092  -0.004429  -0.002907  -0.010949  -0.010149
     2  O   -0.000677   0.000719   0.001994   0.305306  -0.001077  -0.000302
     3  H   -0.000052  -0.000001   0.000026  -0.013763   0.000087   0.000022
     4  O    0.001782   0.001120   0.311072  -0.000601  -0.000791   0.001721
     5  H   -0.000021   0.000037  -0.021277  -0.000016  -0.000006  -0.001539
     6  O   -0.000722  -0.001047  -0.006430  -0.000088   0.002880   0.313216
     7  H    0.000008  -0.000008   0.000158   0.000012   0.000465  -0.016708
     8  O    0.000986  -0.001464  -0.000360  -0.000955   0.000136   0.000841
     9  H    0.000018   0.000184  -0.000028   0.000005  -0.001385   0.000031
    10  O    0.001229  -0.002423  -0.000628   0.001827   0.312330  -0.000148
    11  H   -0.000020   0.001161  -0.000002  -0.000010  -0.020739  -0.000025
    12  O    0.313408   0.300697   0.001686   0.000083   0.000428  -0.000722
    13  H    0.237483  -0.014137  -0.000149   0.000006  -0.000023  -0.000002
    14  H   -0.014137   0.275771  -0.000013  -0.000025  -0.000052   0.000004
    15  H   -0.000149  -0.000013   0.253224   0.000036   0.000011  -0.000207
    16  H    0.000006  -0.000025   0.000036   0.264822   0.000052  -0.000225
    17  H   -0.000023  -0.000052   0.000011   0.000052   0.266176  -0.000014
    18  H   -0.000002   0.000004  -0.000207  -0.000225  -0.000014   0.254609
    19  H   -0.000030  -0.000016   0.000060  -0.000013  -0.000235  -0.000440
              19
     1  Fe  -0.009235
     2  O   -0.001092
     3  H    0.000007
     4  O   -0.000080
     5  H    0.000102
     6  O    0.002823
     7  H    0.001404
     8  O    0.311659
     9  H   -0.016147
    10  O   -0.000894
    11  H    0.000154
    12  O    0.000460
    13  H   -0.000030
    14  H   -0.000016
    15  H    0.000060
    16  H   -0.000013
    17  H   -0.000235
    18  H   -0.000440
    19  H    0.272505
          Atomic-Atomic Spin Densities.
               1          2          3          4          5          6
     1  Fe   4.961063  -0.090217   0.000333  -0.097038   0.000049  -0.111414
     2  O   -0.090217   0.272273  -0.004390  -0.022299   0.000267  -0.020766
     3  H    0.000333  -0.004390   0.004714   0.000340   0.000004   0.000890
     4  O   -0.097038  -0.022299   0.000340   0.258604  -0.003565  -0.023850
     5  H    0.000049   0.000267   0.000004  -0.003565   0.003996   0.002136
     6  O   -0.111414  -0.020766   0.000890  -0.023850   0.002136   0.269294
     7  H    0.001208   0.000284  -0.000007  -0.000128  -0.000038  -0.005838
     8  O   -0.111948   0.027471  -0.000534  -0.026689   0.001333  -0.027052
     9  H    0.002320  -0.000544   0.000001   0.000464  -0.000051  -0.000366
    10  O   -0.099964  -0.019372   0.002015   0.024769  -0.000529  -0.029743
    11  H    0.001607  -0.000017  -0.000020  -0.000295   0.000002   0.000396
    12  O   -0.090153  -0.029664   0.001807  -0.018018   0.000273   0.028386
    13  H    0.000463   0.001427  -0.000028   0.001825  -0.000034  -0.000496
    14  H   -0.000216   0.000452  -0.000025   0.000286  -0.000008  -0.000578
    15  H    0.001550   0.001434  -0.000046  -0.003813  -0.000245   0.000426
    16  H    0.000072  -0.003085   0.000012   0.001035  -0.000022   0.001173
    17  H    0.000385   0.000123  -0.000036  -0.000499   0.000002   0.001151
    18  H    0.002227   0.000252  -0.000007   0.004048  -0.000012  -0.006136
    19  H    0.001280  -0.000626   0.000004   0.000639   0.000082   0.004429
               7          8          9         10         11         12
     1  Fe   0.001208  -0.111948   0.002320  -0.099964   0.001607  -0.090153
     2  O    0.000284   0.027471  -0.000544  -0.019372  -0.000017  -0.029664
     3  H   -0.000007  -0.000534   0.000001   0.002015  -0.000020   0.001807
     4  O   -0.000128  -0.026689   0.000464   0.024769  -0.000295  -0.018018
     5  H   -0.000038   0.001333  -0.000051  -0.000529   0.000002   0.000273
     6  O   -0.005838  -0.027052  -0.000366  -0.029743   0.000396   0.028386
     7  H    0.004394   0.003726  -0.000077   0.001046  -0.000027  -0.000642
     8  O    0.003726   0.269970  -0.005404  -0.019898   0.000495  -0.026187
     9  H   -0.000077  -0.005404   0.004956   0.003225   0.000049   0.000498
    10  O    0.001046  -0.019898   0.003225   0.261674  -0.004263  -0.026503
    11  H   -0.000027   0.000495   0.000049  -0.004263   0.004992   0.001781
    12  O   -0.000642  -0.026187   0.000498  -0.026503   0.001781   0.276721
    13  H    0.000004   0.001040  -0.000017   0.000331  -0.000063  -0.004531
    14  H    0.000001   0.001254   0.000119   0.001383   0.000151  -0.003730
    15  H   -0.000005   0.000358   0.000004  -0.000282   0.000002  -0.000029
    16  H   -0.000054  -0.000509   0.000004   0.000306   0.000004   0.000324
    17  H    0.000099   0.001582  -0.000030  -0.002977  -0.000285   0.000270
    18  H    0.000077  -0.000076   0.000010   0.000495   0.000004  -0.000537
    19  H    0.000021  -0.006059   0.000080  -0.000129  -0.000005   0.000376
              13         14         15         16         17         18
     1  Fe   0.000463  -0.000216   0.001550   0.000072   0.000385   0.002227
     2  O    0.001427   0.000452   0.001434  -0.003085   0.000123   0.000252
     3  H   -0.000028  -0.000025  -0.000046   0.000012  -0.000036  -0.000007
     4  O    0.001825   0.000286  -0.003813   0.001035  -0.000499   0.004048
     5  H   -0.000034  -0.000008  -0.000245  -0.000022   0.000002  -0.000012
     6  O   -0.000496  -0.000578   0.000426   0.001173   0.001151  -0.006136
     7  H    0.000004   0.000001  -0.000005  -0.000054   0.000099   0.000077
     8  O    0.001040   0.001254   0.000358  -0.000509   0.001582  -0.000076
     9  H   -0.000017   0.000119   0.000004   0.000004  -0.000030   0.000010
    10  O    0.000331   0.001383  -0.000282   0.000306  -0.002977   0.000495
    11  H   -0.000063   0.000151   0.000002   0.000004  -0.000285   0.000004
    12  O   -0.004531  -0.003730  -0.000029   0.000324   0.000270  -0.000537
    13  H    0.005007  -0.000016  -0.000024  -0.000014   0.000005  -0.000001
    14  H   -0.000016   0.004874   0.000004   0.000005  -0.000033   0.000004
    15  H   -0.000024   0.000004   0.004485   0.000074   0.000002   0.000042
    16  H   -0.000014   0.000005   0.000074   0.004369  -0.000006   0.000055
    17  H    0.000005  -0.000033   0.000002  -0.000006   0.003703  -0.000046
    18  H   -0.000001   0.000004   0.000042   0.000055  -0.000046   0.005647
    19  H   -0.000008  -0.000056  -0.000021   0.000001  -0.000013  -0.000096
              19
     1  Fe   0.001280
     2  O   -0.000626
     3  H    0.000004
     4  O    0.000639
     5  H    0.000082
     6  O    0.004429
     7  H    0.000021
     8  O   -0.006059
     9  H    0.000080
    10  O   -0.000129
    11  H   -0.000005
    12  O    0.000376
    13  H   -0.000008
    14  H   -0.000056
    15  H   -0.000021
    16  H    0.000001
    17  H   -0.000013
    18  H   -0.000096
    19  H    0.004523
 Mulliken charges and spin densities:
               1          2
     1  Fe   1.528030   4.371607
     2  O   -0.665270   0.113003
     3  H    0.466736   0.005027
     4  O   -0.666427   0.095818
     5  H    0.450664   0.003641
     6  O   -0.646930   0.082043
     7  H    0.437184   0.004042
     8  O   -0.658465   0.082874
     9  H    0.457235   0.005241
    10  O   -0.668712   0.091583
    11  H    0.456598   0.004508
    12  O   -0.662116   0.110441
    13  H    0.473614   0.004870
    14  H    0.434402   0.003872
    15  H    0.465256   0.003915
    16  H    0.446454   0.003745
    17  H    0.452705   0.003396
    18  H    0.460036   0.005951
    19  H    0.439006   0.004423
 Sum of Mulliken charges =   3.00000   5.00000
 Mulliken charges and spin densities with hydrogens summed into heavy atoms:
               1          2
     1  Fe   1.528030   4.371607
     2  O    0.247920   0.121775
     4  O    0.249493   0.103373
     6  O    0.250290   0.092036
     8  O    0.237776   0.092538
    10  O    0.240591   0.099488
    12  O    0.245899   0.119183
 APT charges:
               1
     1  Fe   2.158276
     2  O   -0.643876
     3  H    0.412008
     4  O   -0.609385
     5  H    0.371250
     6  O   -0.611402
     7  H    0.361260
     8  O   -0.612878
     9  H    0.375444
    10  O   -0.605164
    11  H    0.379232
    12  O   -0.633183
    13  H    0.414698
    14  H    0.370943
    15  H    0.384771
    16  H    0.380777
    17  H    0.371446
    18  H    0.375530
    19  H    0.360254
 Sum of APT charges =   3.00000
 APT charges with hydrogens summed into heavy atoms:
               1
     1  Fe   2.158276
     2  O    0.148909
     4  O    0.146635
     6  O    0.125388
     8  O    0.122820
    10  O    0.145514
    12  O    0.152457
 Electronic spatial extent (au):  <R**2>=            838.4192
 Charge=              3.0000 electrons
 Dipole moment (field-independent basis, Debye):
    X=              2.3579    Y=              3.7583    Z=             -1.0152  Tot=              4.5514
 Quadrupole moment (field-independent basis, Debye-Ang):
   XX=            -11.6310   YY=            -15.4070   ZZ=            -26.2888
   XY=             -4.2746   XZ=             -1.6283   YZ=             -0.9842
 Traceless Quadrupole moment (field-independent basis, Debye-Ang):
   XX=              6.1446   YY=              2.3686   ZZ=             -8.5132
   XY=             -4.2746   XZ=             -1.6283   YZ=             -0.9842
 Octapole moment (field-independent basis, Debye-Ang**2):
  XXX=             18.6904  YYY=             17.7161  ZZZ=              5.0968  XYY=              4.2807
  XXY=              9.2698  XXZ=              3.2385  XZZ=             -8.1482  YZZ=             -3.3319
  YYZ=            -14.7572  XYZ=             -3.2606
 Hexadecapole moment (field-independent basis, Debye-Ang**3):
 XXXX=           -164.1701 YYYY=           -173.0472 ZZZZ=           -211.8320 XXXY=            -21.7097
 XXXZ=              2.3337 YYYX=             -8.9383 YYYZ=             11.0589 ZZZX=            -16.4885
 ZZZY=            -15.7257 XXYY=            -46.0370 XXZZ=            -52.8832 YYZZ=            -50.2481
 XXYZ=             -0.3531 YYXZ=              3.2877 ZZXY=              2.0872
 N-N= 7.677883002195D+02 E-N=-5.571970603169D+03  KE= 1.718638043853D+03
  Exact polarizability:      50.792      -0.466      50.027      -0.555      -0.001      46.961
 Approx polarizability:      68.856      -0.677      67.952      -0.963      -0.180      63.179
                          Isotropic Fermi Contact Couplings
        Atom                 a.u.       MegaHertz       Gauss      10(-4) cm-1
     1  Fe(57)             0.19447       5.64126       2.01294       1.88172
     2  O(17)              0.14929     -18.09993      -6.45851      -6.03749
     3  H(1)               0.00244       2.17840       0.77731       0.72664
     4  O(17)              0.14613     -17.71688      -6.32182      -5.90971
     5  H(1)               0.00200       1.78699       0.63764       0.59607
     6  O(17)              0.15045     -18.24031      -6.50860      -6.08431
     7  H(1)               0.00180       1.60987       0.57444       0.53700
     8  O(17)              0.14919     -18.08788      -6.45420      -6.03347
     9  H(1)               0.00235       2.09974       0.74924       0.70040
    10  O(17)              0.14485     -17.56139      -6.26634      -5.85785
    11  H(1)               0.00257       2.29448       0.81873       0.76536
    12  O(17)              0.14769     -17.90551      -6.38913      -5.97264
    13  H(1)               0.00243       2.17293       0.77536       0.72481
    14  H(1)               0.00222       1.98064       0.70674       0.66067
    15  H(1)               0.00235       2.10179       0.74997       0.70108
    16  H(1)               0.00209       1.86675       0.66610       0.62268
    17  H(1)               0.00202       1.80988       0.64581       0.60371
    18  H(1)               0.00249       2.23008       0.79575       0.74388
    19  H(1)               0.00178       1.59450       0.56896       0.53187
 --------------------------------------------------------
       Center         ----  Spin Dipole Couplings  ----
                      3XX-RR        3YY-RR        3ZZ-RR
 --------------------------------------------------------
     1   Atom        0.004542     -0.013351      0.008809
     2   Atom       -0.313842      0.450427     -0.136585
     3   Atom       -0.001499      0.018098     -0.016599
     4   Atom        0.048085     -0.196880      0.148795
     5   Atom        0.062961     -0.045934     -0.017027
     6   Atom        0.077014     -0.251471      0.174457
     7   Atom       -0.004825      0.012231     -0.007406
     8   Atom       -0.272997      0.297347     -0.024350
     9   Atom       -0.040239      0.095370     -0.055131
    10   Atom        0.085617     -0.160628      0.075011
    11   Atom        0.074085     -0.035071     -0.039014
    12   Atom        0.211009     -0.228763      0.017754
    13   Atom       -0.028580     -0.039079      0.067660
    14   Atom        0.025783     -0.027759      0.001976
    15   Atom        0.019573      0.019823     -0.039396
    16   Atom       -0.035961      0.044584     -0.008623
    17   Atom       -0.032041      0.006618      0.025423
    18   Atom        0.091511     -0.059136     -0.032374
    19   Atom       -0.003323      0.057949     -0.054626
 --------------------------------------------------------
                        XY            XZ            YZ
 --------------------------------------------------------
     1   Atom        0.000604      0.011977     -0.005102
     2   Atom        0.140523      0.030335      0.140523
     3   Atom        0.051118      0.055150      0.056532
     4   Atom       -0.173373      0.277274     -0.204402
     5   Atom        0.015783      0.075045      0.001128
     6   Atom        0.088994     -0.341614     -0.031002
     7   Atom        0.052246     -0.057991     -0.052909
     8   Atom        0.106965      0.062690      0.276249
     9   Atom       -0.038633      0.002511      0.026021
    10   Atom       -0.134565      0.366497     -0.087522
    11   Atom       -0.065131      0.024662     -0.013613
    12   Atom        0.210636     -0.312504     -0.055782
    13   Atom        0.014036     -0.044079     -0.060134
    14   Atom       -0.037068     -0.079875      0.029516
    15   Atom       -0.079512      0.034315     -0.020514
    16   Atom       -0.028877     -0.033282      0.075262
    17   Atom       -0.025376      0.037821     -0.079065
    18   Atom       -0.011157     -0.048448     -0.005326
    19   Atom        0.073637      0.001900      0.020369
 --------------------------------------------------------


 ---------------------------------------------------------------------------------
              Anisotropic Spin Dipole Couplings in Principal Axis System
 ---------------------------------------------------------------------------------

       Atom             a.u.   MegaHertz   Gauss  10(-4) cm-1        Axes

              Baa    -0.0152    -0.262    -0.094    -0.088 -0.2134  0.9284  0.3042
     1 Fe(57) Bbb    -0.0041    -0.070    -0.025    -0.023  0.7505  0.3551 -0.5574
              Bcc     0.0192     0.333     0.119     0.111  0.6255 -0.1094  0.7725
 
              Baa    -0.3390    24.531     8.753     8.183  0.9850 -0.1701 -0.0295
     2 O(17)  Bbb    -0.1685    12.191     4.350     4.066 -0.0086 -0.2195  0.9756
              Bcc     0.5075   -36.722   -13.103   -12.249  0.1724  0.9607  0.2177
 
              Baa    -0.0670   -35.770   -12.764   -11.932 -0.5037 -0.2472  0.8277
     3 H(1)   Bbb    -0.0425   -22.686    -8.095    -7.567 -0.6600  0.7283 -0.1842
              Bcc     0.1096    58.457    20.859    19.499  0.5574  0.6391  0.5300
 
              Baa    -0.3022    21.865     7.802     7.294  0.2469  0.9307  0.2700
     4 O(17)  Bbb    -0.1833    13.266     4.734     4.425  0.7630 -0.0150 -0.6462
              Bcc     0.4855   -35.132   -12.536   -11.719  0.5974 -0.3656  0.7138
 
              Baa    -0.0649   -34.648   -12.363   -11.557 -0.5035  0.3719  0.7799
     5 H(1)   Bbb    -0.0444   -23.664    -8.444    -7.893  0.1186  0.9238 -0.3639
              Bcc     0.1093    58.312    20.807    19.451  0.8558  0.0907  0.5093
 
              Baa    -0.2910    21.054     7.513     7.023 -0.4708  0.8332 -0.2900
     6 O(17)  Bbb    -0.1890    13.677     4.880     4.562  0.5890  0.5416  0.5998
              Bcc     0.4800   -34.731   -12.393   -11.585 -0.6568 -0.1115  0.7457
 
              Baa    -0.0642   -34.243   -12.219   -11.422  0.6776  0.0450  0.7340
     7 H(1)   Bbb    -0.0448   -23.919    -8.535    -7.978 -0.4723  0.7917  0.3875
              Bcc     0.1090    58.162    20.754    19.401  0.5637  0.6092 -0.5577
 
              Baa    -0.2935    21.238     7.578     7.084  0.9866 -0.1368 -0.0894
     8 O(17)  Bbb    -0.1832    13.253     4.729     4.421  0.0091 -0.4999  0.8660
              Bcc     0.4767   -34.491   -12.307   -11.505  0.1632  0.8552  0.4920
 
              Baa    -0.0645   -34.434   -12.287   -11.486 -0.4902 -0.2541  0.8338
     9 H(1)   Bbb    -0.0447   -23.867    -8.516    -7.961  0.8365  0.1319  0.5319
              Bcc     0.1093    58.301    20.803    19.447 -0.2451  0.9581  0.1479
 
              Baa    -0.2963    21.440     7.650     7.152  0.7135  0.2988 -0.6338
    10 O(17)  Bbb    -0.1889    13.671     4.878     4.560 -0.0514  0.9244  0.3779
              Bcc     0.4852   -35.111   -12.528   -11.712  0.6988 -0.2371  0.6749
 
              Baa    -0.0656   -35.019   -12.496   -11.681  0.4084  0.9087  0.0864
    11 H(1)   Bbb    -0.0442   -23.561    -8.407    -7.859 -0.2047 -0.0010  0.9788
              Bcc     0.1098    58.579    20.903    19.540  0.8896 -0.4174  0.1856
 
              Baa    -0.3344    24.199     8.635     8.072 -0.4904  0.8161 -0.3059
[...]
    15  H   -0.000048  -0.000000   0.266548  -0.000048  -0.000000  -0.000048
    16  H   -0.000000  -0.000000  -0.000048   0.266583  -0.000000  -0.000048
    17  H   -0.000000  -0.000048  -0.000000  -0.000000   0.266537  -0.000000
    18  H    0.000001  -0.000000  -0.000048  -0.000048  -0.000000   0.266556
    19  H   -0.000000  -0.000000  -0.000000   0.000001  -0.000048  -0.000048
              19
     1  Fe  -0.005722
     2  O   -0.000447
     3  H   -0.000000
     4  O    0.000660
     5  H   -0.000048
     6  O    0.002587
     7  H   -0.000048
     8  O    0.298321
     9  H   -0.012448
    10  O    0.000657
    11  H   -0.000000
    12  O    0.000926
    13  H   -0.000000
    14  H   -0.000000
    15  H   -0.000000
    16  H    0.000001
    17  H   -0.000048
    18  H   -0.000048
    19  H    0.266593
          Atomic-Atomic Spin Densities.
               1          2          3          4          5          6
     1  Fe   4.944227  -0.083242   0.002599  -0.083215   0.002599  -0.083227
     2  O   -0.083242   0.206638  -0.004526  -0.011720   0.000207  -0.011730
     3  H    0.002599  -0.004526   0.002576   0.000396  -0.000001   0.000207
     4  O   -0.083215  -0.011720   0.000396   0.206568  -0.004526  -0.011732
     5  H    0.002599   0.000207  -0.000001  -0.004526   0.002575   0.000396
     6  O   -0.083227  -0.011730   0.000207  -0.011732   0.000396   0.206595
     7  H    0.002600   0.000397  -0.000001   0.000207  -0.000001  -0.004527
     8  O   -0.083242   0.010990  -0.000159  -0.011721   0.000786  -0.011728
     9  H    0.002601  -0.000159   0.000000   0.000396  -0.000020   0.000207
    10  O   -0.083217  -0.011721   0.000396   0.010991  -0.000159  -0.011730
    11  H    0.002600   0.000786  -0.000020  -0.000159   0.000000   0.000396
    12  O   -0.083222  -0.011728   0.000786  -0.011733   0.000396   0.010995
    13  H    0.002600   0.000396  -0.000020   0.000786  -0.000020  -0.000159
    14  H    0.002599   0.000396  -0.000020   0.000207  -0.000001  -0.000159
    15  H    0.002599   0.000785  -0.000020  -0.004525   0.000643   0.000396
    16  H    0.002600  -0.004526   0.000643   0.000396  -0.000001   0.000786
    17  H    0.002599   0.000207  -0.000001  -0.000159   0.000000   0.000396
    18  H    0.002599   0.000396  -0.000001   0.000787  -0.000020  -0.004526
    19  H    0.002599  -0.000159   0.000000   0.000396  -0.000020   0.000786
               7          8          9         10         11         12
     1  Fe   0.002600  -0.083242   0.002601  -0.083217   0.002600  -0.083222
     2  O    0.000397   0.010990  -0.000159  -0.011721   0.000786  -0.011728
     3  H   -0.000001  -0.000159   0.000000   0.000396  -0.000020   0.000786
     4  O    0.000207  -0.011721   0.000396   0.010991  -0.000159  -0.011733
     5  H   -0.000001   0.000786  -0.000020  -0.000159   0.000000   0.000396
     6  O   -0.004527  -0.011728   0.000207  -0.011730   0.000396   0.010995
     7  H    0.002576   0.000396  -0.000001   0.000786  -0.000020  -0.000159
     8  O    0.000396   0.206642  -0.004527  -0.011721   0.000207  -0.011729
     9  H   -0.000001  -0.004527   0.002574   0.000396  -0.000001   0.000786
    10  O    0.000786  -0.011721   0.000396   0.206595  -0.004527  -0.011732
    11  H   -0.000020   0.000207  -0.000001  -0.004527   0.002575   0.000397
    12  O   -0.000159  -0.011729   0.000786  -0.011732   0.000397   0.206585
    13  H    0.000000   0.000397  -0.000020   0.000207  -0.000001  -0.004527
    14  H    0.000000   0.000396  -0.000020   0.000787  -0.000020  -0.004526
    15  H   -0.000001   0.000207  -0.000001  -0.000159   0.000000   0.000396
    16  H   -0.000020  -0.000159   0.000000   0.000396  -0.000020   0.000207
    17  H   -0.000020   0.000786  -0.000020  -0.004526   0.000643   0.000396
    18  H    0.000643   0.000396  -0.000001   0.000207  -0.000001  -0.000159
    19  H   -0.000020  -0.004526   0.000643   0.000396  -0.000001   0.000207
              13         14         15         16         17         18
     1  Fe   0.002600   0.002599   0.002599   0.002600   0.002599   0.002599
     2  O    0.000396   0.000396   0.000785  -0.004526   0.000207   0.000396
     3  H   -0.000020  -0.000020  -0.000020   0.000643  -0.000001  -0.000001
     4  O    0.000786   0.000207  -0.004525   0.000396  -0.000159   0.000787
     5  H   -0.000020  -0.000001   0.000643  -0.000001   0.000000  -0.000020
     6  O   -0.000159  -0.000159   0.000396   0.000786   0.000396  -0.004526
     7  H    0.000000   0.000000  -0.000001  -0.000020  -0.000020   0.000643
     8  O    0.000397   0.000396   0.000207  -0.000159   0.000786   0.000396
     9  H   -0.000020  -0.000020  -0.000001   0.000000  -0.000020  -0.000001
    10  O    0.000207   0.000787  -0.000159   0.000396  -0.004526   0.000207
    11  H   -0.000001  -0.000020   0.000000  -0.000020   0.000643  -0.000001
    12  O   -0.004527  -0.004526   0.000396   0.000207   0.000396  -0.000159
    13  H    0.002576   0.000644  -0.000020  -0.000001  -0.000001   0.000000
    14  H    0.000644   0.002575  -0.000001  -0.000001  -0.000020   0.000000
    15  H   -0.000020  -0.000001   0.002575  -0.000020   0.000000  -0.000020
    16  H   -0.000001  -0.000001  -0.000020   0.002574  -0.000001  -0.000020
    17  H   -0.000001  -0.000020   0.000000  -0.000001   0.002576  -0.000001
    18  H    0.000000   0.000000  -0.000020  -0.000020  -0.000001   0.002574
    19  H   -0.000001  -0.000001  -0.000001   0.000000  -0.000020  -0.000020
              19
     1  Fe   0.002599
     2  O   -0.000159
     3  H    0.000000
     4  O    0.000396
     5  H   -0.000020
     6  O    0.000786
     7  H   -0.000020
     8  O   -0.004526
     9  H    0.000643
    10  O    0.000396
    11  H   -0.000001
    12  O    0.000207
    13  H   -0.000001
    14  H   -0.000001
    15  H   -0.000001
    16  H    0.000000
    17  H   -0.000020
    18  H   -0.000020
    19  H    0.002577
 Mulliken charges and spin densities:
               1          2
     1  Fe   1.391085   4.476056
     2  O   -0.629904   0.081687
     3  H    0.449064   0.002834
     4  O   -0.630018   0.081637
     5  H    0.449068   0.002833
     6  O   -0.629998   0.081640
     7  H    0.449014   0.002834
     8  O   -0.629902   0.081689
     9  H    0.449036   0.002831
    10  O   -0.630023   0.081664
    11  H    0.449104   0.002833
    12  O   -0.630008   0.081634
    13  H    0.449013   0.002834
    14  H    0.449074   0.002833
    15  H    0.449089   0.002832
    16  H    0.449035   0.002831
    17  H    0.449131   0.002833
    18  H    0.449074   0.002832
    19  H    0.449067   0.002834
 Sum of Mulliken charges =   3.00000   5.00000
 Mulliken charges and spin densities with hydrogens summed into heavy atoms:
               1          2
     1  Fe   1.391085   4.476056
     2  O    0.268195   0.087352
     4  O    0.268139   0.087302
     6  O    0.268090   0.087306
     8  O    0.268200   0.087354
    10  O    0.268212   0.087330
    12  O    0.268079   0.087300
 Electronic spatial extent (au):  <R**2>=           1042.1388
 Charge=              3.0000 electrons
 Dipole moment (field-independent basis, Debye):
    X=             -0.0006    Y=             -0.0001    Z=             -0.0006  Tot=              0.0008
 Quadrupole moment (field-independent basis, Debye-Ang):
   XX=             -7.2470   YY=             -7.2504   ZZ=             -7.2659
   XY=              0.0040   XZ=             -0.0039   YZ=              0.0017
 Traceless Quadrupole moment (field-independent basis, Debye-Ang):
   XX=              0.0074   YY=              0.0040   ZZ=             -0.0115
   XY=              0.0040   XZ=             -0.0039   YZ=              0.0017
 Octapole moment (field-independent basis, Debye-Ang**2):
  XXX=             -0.0023  YYY=              0.0014  ZZZ=             -0.0032  XYY=             -0.0013
  XXY=              0.0007  XXZ=              0.0017  XZZ=             -0.0007  YZZ=             -0.0052
  YYZ=             -0.0048  XYZ=              0.0029
 Hexadecapole moment (field-independent basis, Debye-Ang**3):
 XXXX=           -166.9577 YYYY=           -151.7956 ZZZZ=           -185.5698 XXXY=            -10.2339
 XXXZ=             25.2000 YYYX=              5.1059 YYYZ=            -33.0659 ZZZX=             15.6892
 ZZZY=              2.6540 XXYY=            -43.8838 XXZZ=            -10.0985 YYZZ=            -25.2618
 XXYZ=             30.4202 YYXZ=            -40.9240 ZZXY=              5.1453
 N-N= 6.856783963097D+02 E-N=-5.409097795477D+03  KE= 1.716223054054D+03
                          Isotropic Fermi Contact Couplings
        Atom                 a.u.       MegaHertz       Gauss      10(-4) cm-1
     1  Fe(57)             0.35640      10.33852       3.68904       3.44856
     2  O(17)              0.14578     -17.67423      -6.30661      -5.89549
     3  H(1)               0.00159       1.42370       0.50801       0.47489
     4  O(17)              0.14575     -17.67008      -6.30512      -5.89410
     5  H(1)               0.00159       1.42247       0.50757       0.47449
     6  O(17)              0.14576     -17.67211      -6.30585      -5.89478
     7  H(1)               0.00159       1.42304       0.50778       0.47467
     8  O(17)              0.14578     -17.67438      -6.30666      -5.89554
     9  H(1)               0.00159       1.42213       0.50745       0.47437
    10  O(17)              0.14575     -17.67076      -6.30537      -5.89433
    11  H(1)               0.00159       1.42203       0.50742       0.47434
    12  O(17)              0.14576     -17.67209      -6.30584      -5.89478
    13  H(1)               0.00159       1.42314       0.50781       0.47471
    14  H(1)               0.00159       1.42241       0.50755       0.47446
    15  H(1)               0.00159       1.42265       0.50764       0.47455
    16  H(1)               0.00159       1.42204       0.50742       0.47434
    17  H(1)               0.00159       1.42271       0.50766       0.47456
    18  H(1)               0.00159       1.42248       0.50758       0.47449
    19  H(1)               0.00159       1.42376       0.50803       0.47492
 --------------------------------------------------------
       Center         ----  Spin Dipole Couplings  ----
                      3XX-RR        3YY-RR        3ZZ-RR
 --------------------------------------------------------
     1   Atom        0.000099      0.000059     -0.000157
     2   Atom       -0.106327      0.143380     -0.037053
     3   Atom       -0.035206      0.009475      0.025732
     4   Atom        0.078869     -0.078869     -0.000000
     5   Atom       -0.015775      0.044282     -0.028507
     6   Atom        0.027646     -0.064506      0.036860
     7   Atom       -0.013790     -0.021051      0.034842
     8   Atom       -0.106365      0.143360     -0.036995
     9   Atom       -0.002486      0.031224     -0.028737
    10   Atom        0.078854     -0.078818     -0.000036
    11   Atom       -0.015761      0.044276     -0.028515
    12   Atom        0.027608     -0.064445      0.036836
    13   Atom       -0.013795     -0.021060      0.034855
    14   Atom        0.055386     -0.037191     -0.018194
    15   Atom        0.011910     -0.026731      0.014821
    16   Atom       -0.002499      0.031239     -0.028739
    17   Atom        0.011891     -0.026730      0.014839
    18   Atom        0.055384     -0.037188     -0.018196
    19   Atom       -0.035203      0.009479      0.025724
 --------------------------------------------------------
                        XY            XZ            YZ
 --------------------------------------------------------
     1   Atom        0.000088      0.000103      0.000016
     2   Atom        0.010893     -0.165876     -0.120095
     3   Atom        0.001904      0.005263     -0.054646
     4   Atom       -0.138354     -0.022767      0.181058
     5   Atom       -0.041286     -0.017221      0.022377
     6   Atom        0.127394      0.188610     -0.060970
     7   Atom        0.015243      0.037362      0.038226
     8   Atom        0.010929     -0.165901     -0.120064
     9   Atom        0.050190     -0.010138     -0.022106
    10   Atom       -0.138243     -0.022783      0.181210
    11   Atom       -0.041308     -0.017214      0.022348
    12   Atom        0.127368      0.188642     -0.060946
    13   Atom        0.015237      0.037358      0.038221
    14   Atom       -0.009053      0.039223      0.001383
    15   Atom       -0.016973     -0.054483      0.014771
    16   Atom        0.050186     -0.010132     -0.022103
    17   Atom       -0.016969     -0.054482      0.014770
    18   Atom       -0.009063      0.039226      0.001380
    19   Atom        0.001901      0.005265     -0.054649
 --------------------------------------------------------


 ---------------------------------------------------------------------------------
              Anisotropic Spin Dipole Couplings in Principal Axis System
 ---------------------------------------------------------------------------------

       Atom             a.u.   MegaHertz   Gauss  10(-4) cm-1        Axes

              Baa    -0.0002    -0.003    -0.001    -0.001 -0.3460  0.0606  0.9363
     1 Fe(57) Bbb     0.0000     0.000     0.000     0.000 -0.4989  0.8333 -0.2383
              Bcc     0.0002     0.003     0.001     0.001  0.7946  0.5495  0.2581
 
              Baa    -0.2534    18.339     6.544     6.117  0.7301  0.1795  0.6593
     2 O(17)  Bbb     0.0242    -1.754    -0.626    -0.585  0.6179 -0.5855 -0.5248
              Bcc     0.2292   -16.584    -5.918    -5.532  0.2918  0.7905 -0.5384
 
              Baa    -0.0415   -22.131    -7.897    -7.382  0.6179 -0.5857 -0.5246
     3 H(1)   Bbb    -0.0314   -16.776    -5.986    -5.596  0.7858  0.4816  0.3880
              Bcc     0.0729    38.907    13.883    12.978  0.0254 -0.6520  0.7578
 
              Baa    -0.2534    18.335     6.542     6.116  0.2922  0.7903 -0.5385
     4 O(17)  Bbb     0.0242    -1.749    -0.624    -0.583  0.7296  0.1798  0.6598
              Bcc     0.2292   -16.585    -5.918    -5.532  0.6183 -0.5857 -0.5241
 
              Baa    -0.0415   -22.132    -7.897    -7.382  0.7298  0.1792  0.6598
     5 H(1)   Bbb    -0.0314   -16.774    -5.985    -5.595 -0.5158 -0.4891  0.7034
              Bcc     0.0729    38.906    13.883    12.978 -0.4487  0.8536  0.2645
 
              Baa    -0.2534    18.334     6.542     6.115  0.6177 -0.5860 -0.5245
     6 O(17)  Bbb     0.0241    -1.747    -0.623    -0.583  0.2918  0.7901 -0.5391
              Bcc     0.2292   -16.587    -5.919    -5.533  0.7303  0.1799  0.6590
 
              Baa    -0.0415   -22.131    -7.897    -7.382  0.2918  0.7903 -0.5387
     7 H(1)   Bbb    -0.0314   -16.775    -5.986    -5.596  0.8588 -0.4645 -0.2162
              Bcc     0.0729    38.906    13.883    12.978  0.4211  0.3995  0.8143
 
              Baa    -0.2534    18.339     6.544     6.117  0.7303  0.1794  0.6592
     8 O(17)  Bbb     0.0242    -1.755    -0.626    -0.585  0.6176 -0.5857 -0.5248
              Bcc     0.2292   -16.584    -5.918    -5.532  0.2920  0.7904 -0.5385
 
              Baa    -0.0415   -22.134    -7.898    -7.383  0.6175 -0.5858 -0.5248
     9 H(1)   Bbb    -0.0314   -16.776    -5.986    -5.596  0.5518 -0.1528  0.8198
              Bcc     0.0729    38.910    13.884    12.979  0.5605  0.7959 -0.2289
 
              Baa    -0.2534    18.339     6.544     6.117  0.2918  0.7902 -0.5389
    10 O(17)  Bbb     0.0242    -1.751    -0.625    -0.584  0.7301  0.1800  0.6593
              Bcc     0.2292   -16.587    -5.919    -5.533  0.6179 -0.5858 -0.5244
 
              Baa    -0.0415   -22.133    -7.897    -7.383  0.7301  0.1799  0.6593
    11 H(1)   Bbb    -0.0314   -16.773    -5.985    -5.595 -0.5152 -0.4889  0.7040
              Bcc     0.0729    38.906    13.883    12.978 -0.4489  0.8536  0.2643
 
              Baa    -0.2534    18.333     6.542     6.115  0.6178 -0.5858 -0.5246
    12 O(17)  Bbb     0.0241    -1.746    -0.623    -0.582  0.2916  0.7902 -0.5389
              Bcc     0.2292   -16.587    -5.919    -5.533  0.7303  0.1800  0.6590
 
              Baa    -0.0415   -22.131    -7.897    -7.382  0.2917  0.7905 -0.5386
    13 H(1)   Bbb    -0.0314   -16.775    -5.986    -5.595  0.8589 -0.4643 -0.2163
              Bcc     0.0729    38.905    13.882    12.977  0.4210  0.3995  0.8143
 
              Baa    -0.0415   -22.132    -7.897    -7.382  0.2920  0.7902 -0.5389
    14 H(1)   Bbb    -0.0314   -16.775    -5.986    -5.595 -0.2730  0.6088  0.7448
              Bcc     0.0729    38.907    13.883    12.978  0.9166 -0.0704  0.3935
 
              Baa    -0.0415   -22.130    -7.897    -7.382  0.7300  0.1798  0.6593
    15 H(1)   Bbb    -0.0314   -16.774    -5.985    -5.595  0.0195  0.9589 -0.2832
              Bcc     0.0729    38.904    13.882    12.977 -0.6831  0.2196  0.6965
 
              Baa    -0.0415   -22.134    -7.898    -7.383  0.6176 -0.5857 -0.5248
    16 H(1)   Bbb    -0.0314   -16.776    -5.986    -5.596  0.5518 -0.1527  0.8199
              Bcc     0.0729    38.910    13.884    12.979  0.5604  0.7960 -0.2289
 
              Baa    -0.0415   -22.130    -7.897    -7.382  0.7301  0.1799  0.6592
    17 H(1)   Bbb    -0.0314   -16.773    -5.985    -5.595  0.0194  0.9589 -0.2832
              Bcc     0.0729    38.903    13.881    12.977 -0.6830  0.2196  0.6966
 
              Baa    -0.0415   -22.133    -7.897    -7.383  0.2922  0.7900 -0.5390
    18 H(1)   Bbb    -0.0314   -16.775    -5.986    -5.596 -0.2729  0.6090  0.7447
              Bcc     0.0729    38.908    13.883    12.978  0.9166 -0.0705  0.3935
 
              Baa    -0.0415   -22.131    -7.897    -7.382  0.6177 -0.5858 -0.5247
    19 H(1)   Bbb    -0.0314   -16.776    -5.986    -5.596  0.7860  0.4814  0.3878
              Bcc     0.0729    38.907    13.883    12.978  0.0254 -0.6520  0.7578
 

 ---------------------------------------------------------------------------------

 No NMR shielding tensors so no spin-rotation constants.
 Leave Link  601 at Wed Mar  5 20:49:37 2025, MaxMem= 13421772800 cpu:              29.8 elap:               0.4
 (Enter /gpfs/fs1/soft/improv/software/custom-built/gaussian/g16/l9999.exe)

 Test job not archived.
 1\1\GINC-I593\SP\UHSEH1PBE\Gen\Fe1H12O6(3+,6)\HHARB\05-Mar-2025\0\\#p 
 HSEH1PBE scrf=(cpcm,solvent=water) geom=allcheck guess=read chkbasis I
 Op(3/174=1000000) IOp(3/175=109000) IOp(3/176=1129000)\\Title\\3,6\Fe,
 -0.7848112239,0.712945871,0.0318214392\O,-1.321603096,2.6472627135,-0.
 2844102791\H,-1.439881188,3.0796120263,-1.1481908263\O,1.1732744171,1.
 2568068398,0.0362098798\H,1.9361964147,0.6652557177,0.1589409794\O,-0.
 8733319542,1.0168585765,2.0391860066\H,-1.6534557147,0.8934775104,2.60
 77077435\O,-0.2481806529,-1.2214171204,0.3480086674\H,-0.0619799662,-1
 .8877878716,-0.3363281711\O,-2.7428921787,0.1690915272,0.0274761893\H,
 -3.5057591717,0.7607177256,-0.0959748301\O,-0.6962200949,0.409099111,-
 1.9755693856\H,0.0838540137,0.5326947544,-2.5441070143\H,-1.4261514476
 ,0.1132309664,-2.5471468507\H,1.5224795168,2.157096688,-0.0845375794\H
 ,-1.5079625604,3.31360123,0.3999092955\H,-3.0920749368,-0.7312797704,0
 .1484952307\H,-0.1433286155,1.312535866,2.6107678234\H,-0.129689131,-1
 .6537225912,1.2117870918\\Version=ES64L-G16RevC.02\State=6-A\HF=-1721.
 1670305\S2=8.754741\S2-1=0.\S2A=8.750007\RMSD=2.336e-09\Dipole=0.00002
 67,-0.0000289,-0.0003166\Quadrupole=0.0014447,0.0031974,-0.004642,-0.0
 005436,0.0016178,0.0074543\PG=C01 [X(Fe1H12O6)]\\@


 MY DESCRIPTION OF EXPERIENCE IS NOT WHAT HAPPENS
 TO A MAN.  EXPERIENCE IS WHAT A MAN DOES WITH WHAT
 HAPPENS TO HIM.
                         - CHUCK KNOX, SEATTLE SEAHAWKS, 1985
 Job cpu time:       0 days  2 hours 14 minutes 11.2 seconds.
 Elapsed time:       0 days  0 hours  1 minutes  8.1 seconds.
 File lengths (MBytes):  RWF=    118 Int=      0 D2E=      0 Chk=    268 Scr=      1
 Normal termination of Gaussian 16 at Wed Mar  5 20:49:37 2025.
