 Entering Gaussian System, Link 0=g16
 Input=Fe_2_M08-HX.com
 Output=Fe_2_M08-HX.log
 Initial command:
 /gpfs/fs1/soft/improv/software/custom-built/gaussian/g16/l1.exe "/scratch/Gau-4151692.inp" -scrdir="/scratch/"
 Default CPUs for threads: 0-127
 Default linda workers: i605.lcrc.anl.gov
 Default is to use 128 SMP processors on each worker.
 Entering Link 1 = /gpfs/fs1/soft/improv/software/custom-built/gaussian/g16/l1.exe PID=   4151693.
  
 Copyright (c) 1988-2021, Gaussian, Inc.  All Rights Reserved.
  
 This is part of the Gaussian(R) 16 program.  It is based on
 the Gaussian(R) 09 system (copyright 2009, Gaussian, Inc.),
 the Gaussian(R) 03 system (copyright 2003, Gaussian, Inc.),
 the Gaussian(R) 98 system (copyright 1998, Gaussian, Inc.),
 the Gaussian(R) 94 system (copyright 1995, Gaussian, Inc.),
 the Gaussian 92(TM) system (copyright 1992, Gaussian, Inc.),
 the Gaussian 90(TM) system (copyright 1990, Gaussian, Inc.),
 the Gaussian 88(TM) system (copyright 1988, Gaussian, Inc.),
 the Gaussian 86(TM) system (copyright 1986, Carnegie Mellon
 University), and the Gaussian 82(TM) system (copyright 1983,
 Carnegie Mellon University). Gaussian is a federally registered
 trademark of Gaussian, Inc.
  
 This software contains proprietary and confidential information,
 including trade secrets, belonging to Gaussian, Inc.
  
 This software is provided under written license and may be
 used, copied, transmitted, or stored only in accord with that
 written license.
  
 The following legend is applicable only to US Government
 contracts under FAR:
  
                    RESTRICTED RIGHTS LEGEND
  
 Use, reproduction and disclosure by the US Government is
 subject to restrictions as set forth in subparagraphs (a)
 and (c) of the Commercial Computer Software - Restricted
 Rights clause in FAR 52.227-19.
  
 Gaussian, Inc.
 340 Quinnipiac St., Bldg. 40, Wallingford CT 06492
  
  
 ---------------------------------------------------------------
 Warning -- This program may not be used in any manner that
 competes with the business of Gaussian, Inc. or will provide
 assistance to any competitor of Gaussian, Inc.  The licensee
 of this program is prohibited from giving any competitor of
 Gaussian, Inc. access to this program.  By using this program,
 the user acknowledges that Gaussian, Inc. is engaged in the
 business of creating and licensing software in the field of
 computational chemistry and represents and warrants to the
 licensee that it is not a competitor of Gaussian, Inc. and that
 it will not use this program in any manner prohibited above.
 ---------------------------------------------------------------
  

 Cite this work as:
 Gaussian 16, Revision C.02,
 M. J. Frisch, G. W. Trucks, H. B. Schlegel, G. E. Scuseria, 
 M. A. Robb, J. R. Cheeseman, G. Scalmani, V. Barone, 
 G. A. Petersson, H. Nakatsuji, X. Li, M. Caricato, A. V. Marenich, 
 J. Bloino, B. G. Janesko, R. Gomperts, B. Mennucci, H. P. Hratchian, 
 J. V. Ortiz, A. F. Izmaylov, J. L. Sonnenberg, D. Williams-Young, 
 F. Ding, F. Lipparini, F. Egidi, J. Goings, B. Peng, A. Petrone, 
 T. Henderson, D. Ranasinghe, V. G. Zakrzewski, J. Gao, N. Rega, 
 G. Zheng, W. Liang, M. Hada, M. Ehara, K. Toyota, R. Fukuda, 
 J. Hasegawa, M. Ishida, T. Nakajima, Y. Honda, O. Kitao, H. Nakai, 
 T. Vreven, K. Throssell, J. A. Montgomery, Jr., J. E. Peralta, 
 F. Ogliaro, M. J. Bearpark, J. J. Heyd, E. N. Brothers, K. N. Kudin, 
 V. N. Staroverov, T. A. Keith, R. Kobayashi, J. Normand, 
 K. Raghavachari, A. P. Rendell, J. C. Burant, S. S. Iyengar, 
 J. Tomasi, M. Cossi, J. M. Millam, M. Klene, C. Adamo, R. Cammi, 
 J. W. Ochterski, R. L. Martin, K. Morokuma, O. Farkas, 
 J. B. Foresman, and D. J. Fox, Gaussian, Inc., Wallingford CT, 2019.
 
 ******************************************
 Gaussian 16:  ES64L-G16RevC.02  7-Dec-2021
                 5-Mar-2025 
 ******************************************
 %chk=Fe_2_M08-HX.chk
 SetSPE:  set environment variable "OMP_PROC_BIND" = "true"
 SetSPE:  set environment variable "OMP_PLACES" = "{0},{1},{2},{3},{4},{5},{6},{7},{8},{9},{10},{11},{12},{13},{14},{15},{16},{17},{18},{19},{20},{21},{22},{23},{24},{25},{26},{27},{28},{29},{30},{31},{32},{33},{34},{35},{36},{37},{38},{39},{40},{41},{42},{43},{44},{45},{46},{47},{48},{49},{50},{51},{52},{53},{54},{55},{56},{57},{58},{59},{60},{61},{62},{63},{64},{65},{66},{67},{68},{69},{70},{71},{72},{73},{74},{75},{76},{77},{78},{79},{80},{81},{82},{83},{84},{85},{86},{87},{88},{89},{90},{91},{92},{93},{94},{95},{96},{97},{98},{99},{100},{101},{102},{103},{104},{105},{106},{107},{108},{109},{110},{111},{112},{113},{114},{115},{116},{117},{118},{119},{120},{121},{122},{123},{124},{125},{126},{127}"
 SetLPE:    new flags="-opt 'Tsnet.Node.lindarsharg: ssh'  -nodelist 'i605.lcrc.anl.gov' -env GAUSS_MDEF=13421772800 -env GAUSS_EXEDIR="/gpfs/fs1/soft/improv/software/custom-built/gaussian/g16/bsd:/gpfs/fs1/soft/improv/software/custom-built/gaussian/g16" -env "OMP_PROC_BIND=true" -env "OMP_PLACES={0},{1},{2},{3},{4},{5},{6},{7},{8},{9},{10},{11},{12},{13},{14},{15},{16},{17},{18},{19},{20},{21},{22},{23},{24},{25},{26},{27},{28},{29},{30},{31},{32},{33},{34},{35},{36},{37},{38},{39},{40},{41},{42},{43},{44},{45},{46},{47},{48},{49},{50},{51},{52},{53},{54},{55},{56},{57},{58},{59},{60},{61},{62},{63},{64},{65},{66},{67},{68},{69},{70},{71},{72},{73},{74},{75},{76},{77},{78},{79},{80},{81},{82},{83},{84},{85},{86},{87},{88},{89},{90},{91},{92},{93},{94},{95},{96},{97},{98},{99},{100},{101},{102},{103},{104},{105},{106},{107},{108},{109},{110},{111},{112},{113},{114},{115},{116},{117},{118},{119},{120},{121},{122},{123},{124},{125},{126},{127}" -env GAUSS_ADEF="0,1,2,3,4,5,6,7,8,9,10,11,12,13,14,15,16,17,18,19,20,21,22,23,24,25,26,27,28,29,30,31,32,33,34,35,36,37,38,39,40,41,42,43,44,45,46,47,48,49,50,51,52,53,54,55,56,57,58,59,60,61,62,63,64,65,66,67,68,69,70,71,72,73,74,75,76,77,78,79,80,81,82,83,84,85,86,87,88,89,90,91,92,93,94,95,96,97,98,99,100,101,102,103,104,105,106,107,108,109,110,111,112,113,114,115,116,117,118,119,120,121,122,123,124,125,126,127""
 Will use up to    1 processors via Linda.
 ----------------------------------------------------------------------
 #p M08HX 6-31+G(2df,p) opt=(cartesian,calcall,maxcycles=500,loose) fre
 q scf=(maxcycles=500,xqc,maxconventional=50) IOp(3/174=1000000) IOp(3/
 175=0) IOp(3/176=1624700)
 ----------------------------------------------------------------------
 1/6=500,7=-1,10=4,18=10,26=3,38=1/1,3;
 2/12=2,17=6,18=5,29=2,40=1/2;
 3/5=1,6=6,7=114,11=2,25=1,30=1,71=2,74=-74,140=1,174=1000000,176=1624700/1,2,3;
 4//1;
 5/5=2,7=500,8=3,13=1,38=5,85=50/2,8;
 8/6=4,10=90,11=11/1;
 11/6=1,8=1,9=11,15=111,16=1/1,2,10;
 10/6=1/2;
 6/7=2,8=2,9=2,10=2,18=1,28=1/1;
 7/7=1,10=1,25=1/1,2,3,16;
 1/6=500,7=-1,10=4,18=10,26=3/3(3);
 2/29=1/2;
 7/7=1,8=1,9=1,25=1,44=-1/16;
 99/12=1/99;
 2/29=1/2;
 3/5=1,6=6,7=114,11=2,25=1,30=1,71=2,74=-74,140=1,174=1000000,176=1624700/1,2,3;
 4/5=5,16=3,69=1/1;
 5/5=2,7=500,8=3,13=1,38=5,85=50/2,8;
 8/6=4,10=90,11=11/1;
 11/6=1,8=1,9=11,15=111,16=1/1,2,10;
 10/6=1/2;
 7/7=1,10=1,25=1/1,2,3,16;
 1/6=500,7=-1,10=4,18=10,26=3/3(-8);
 2/29=1/2;
 6/7=2,8=2,9=2,10=2,18=1,19=2,28=1/1;
 7/7=1,8=1,9=1,25=1,44=-1/16;
 99/12=1/99;
 Leave Link    1 at Wed Mar  5 18:42:52 2025, MaxMem=           0 cpu:               4.3 elap:               0.1
 (Enter /gpfs/fs1/soft/improv/software/custom-built/gaussian/g16/l101.exe)
 -----
 Title
 -----
 Symbolic Z-matrix:
 Charge =  3 Multiplicity = 6
 Fe                   -0.79304   0.81881  -0.09491 
 O                    -1.20497   2.57394  -0.35687 
 H                    -2.12106   2.64974  -0.63312 
 O                     0.99012   1.19063  -0.05794 
 H                     1.42696   0.5998    0.55971 
 O                    -0.81752   1.03069   1.71365 
 H                    -1.02108   0.1906    2.13133 
 O                    -0.38507  -0.93351   0.17118 
 H                    -1.15682  -1.47369  -0.01433 
 O                    -2.57341   0.45178  -0.12186 
 H                    -2.77756  -0.08744  -0.88929 
 O                    -0.76966   0.60461  -1.90111 
 H                     0.09872   0.83457  -2.23949 
 H                    -0.96534  -0.30999  -2.11742 
 H                     1.12208   2.09943   0.22124 
 H                    -1.07671   3.0584    0.46184 
 H                    -2.81407  -0.02398   0.6765 
 H                     0.0422    1.33615   2.01181 
 H                    -0.11532  -1.06446   1.08312 
 
 ITRead=  0  0  0  0  0  0  0  0  0  0  0  0  0  0  0  0  0  0  0
 MicOpt= -1 -1 -1 -1 -1 -1 -1 -1 -1 -1 -1 -1 -1 -1 -1 -1 -1 -1 -1
 NAtoms=     19 NQM=       19 NQMF=       0 NMMI=      0 NMMIF=      0
                NMic=       0 NMicF=      0.
                    Isotopes and Nuclear Properties:
 (Nuclear quadrupole moments (NQMom) in fm**2, nuclear magnetic moments (NMagM)
  in nuclear magnetons)

  Atom         1           2           3           4           5           6           7           8           9          10
 IAtWgt=          56          16           1          16           1          16           1          16           1          16
 AtmWgt=  55.9349393  15.9949146   1.0078250  15.9949146   1.0078250  15.9949146   1.0078250  15.9949146   1.0078250  15.9949146
 NucSpn=           0           0           1           0           1           0           1           0           1           0
 AtZEff=  -0.0000000  -0.0000000  -0.0000000  -0.0000000  -0.0000000  -0.0000000  -0.0000000  -0.0000000  -0.0000000  -0.0000000
 NQMom=    0.0000000   0.0000000   0.0000000   0.0000000   0.0000000   0.0000000   0.0000000   0.0000000   0.0000000   0.0000000
 NMagM=    0.0000000   0.0000000   2.7928460   0.0000000   2.7928460   0.0000000   2.7928460   0.0000000   2.7928460   0.0000000
 AtZNuc=  26.0000000   8.0000000   1.0000000   8.0000000   1.0000000   8.0000000   1.0000000   8.0000000   1.0000000   8.0000000

  Atom        11          12          13          14          15          16          17          18          19
 IAtWgt=           1          16           1           1           1           1           1           1           1
 AtmWgt=   1.0078250  15.9949146   1.0078250   1.0078250   1.0078250   1.0078250   1.0078250   1.0078250   1.0078250
 NucSpn=           1           0           1           1           1           1           1           1           1
 AtZEff=  -0.0000000  -0.0000000  -0.0000000  -0.0000000  -0.0000000  -0.0000000  -0.0000000  -0.0000000  -0.0000000
 NQMom=    0.0000000   0.0000000   0.0000000   0.0000000   0.0000000   0.0000000   0.0000000   0.0000000   0.0000000
 NMagM=    2.7928460   0.0000000   2.7928460   2.7928460   2.7928460   2.7928460   2.7928460   2.7928460   2.7928460
 AtZNuc=   1.0000000   8.0000000   1.0000000   1.0000000   1.0000000   1.0000000   1.0000000   1.0000000   1.0000000
 Leave Link  101 at Wed Mar  5 18:42:52 2025, MaxMem= 13421772800 cpu:               0.4 elap:               0.1
 (Enter /gpfs/fs1/soft/improv/software/custom-built/gaussian/g16/l103.exe)

 GradGradGradGradGradGradGradGradGradGradGradGradGradGradGradGradGradGrad
 Berny optimization.
 Initialization pass.
 No Z-matrix variables, so optimization will use Cartesian coordinates.
 Trust Radius=3.00D-01 FncErr=1.00D-07 GrdErr=1.00D-06 EigMax=2.50D+02 EigMin=1.00D-04
 Number of steps in this run=    114 maximum allowed number of steps=    114.
 GradGradGradGradGradGradGradGradGradGradGradGradGradGradGradGradGradGrad

 Leave Link  103 at Wed Mar  5 18:42:53 2025, MaxMem= 13421772800 cpu:               0.4 elap:               0.1
 (Enter /gpfs/fs1/soft/improv/software/custom-built/gaussian/g16/l202.exe)
 ---------------------------------------------------------------------------------------------------
                            Z-MATRIX (ANGSTROMS AND DEGREES)
   CD    Cent   Atom    N1       Length/X        N2       Alpha/Y        N3        Beta/Z          J
 ---------------------------------------------------------------------------------------------------
      1      1  Fe       0  -0.793037          0.818805         -0.094905
      2      2  O        0  -1.204971          2.573941         -0.356874
      3      3  H        0  -2.121063          2.649743         -0.633122
      4      4  O        0   0.990122          1.190635         -0.057941
      5      5  H        0   1.426962          0.599798          0.559707
      6      6  O        0  -0.817519          1.030691          1.713650
      7      7  H        0  -1.021079          0.190602          2.131326
      8      8  O        0  -0.385068         -0.933506          0.171177
      9      9  H        0  -1.156817         -1.473692         -0.014327
     10     10  O        0  -2.573405          0.451778         -0.121857
     11     11  H        0  -2.777557         -0.087440         -0.889285
     12     12  O        0  -0.769659          0.604612         -1.901109
     13     13  H        0   0.098725          0.834573         -2.239490
     14     14  H        0  -0.965336         -0.309994         -2.117418
     15     15  H        0   1.122081          2.099426          0.221242
     16     16  H        0  -1.076711          3.058396          0.461841
     17     17  H        0  -2.814074         -0.023981          0.676500
     18     18  H        0   0.042204          1.336153          2.011809
     19     19  H        0  -0.115315         -1.064459          1.083123
 ---------------------------------------------------------------------------------------------------
                         Z-Matrix orientation:                         
 ---------------------------------------------------------------------
 Center     Atomic      Atomic             Coordinates (Angstroms)
 Number     Number       Type             X           Y           Z
 ---------------------------------------------------------------------
      1         26           0       -0.793037    0.818805   -0.094905
      2          8           0       -1.204971    2.573941   -0.356874
      3          1           0       -2.121063    2.649743   -0.633122
      4          8           0        0.990122    1.190635   -0.057941
      5          1           0        1.426962    0.599798    0.559707
      6          8           0       -0.817519    1.030691    1.713650
      7          1           0       -1.021079    0.190602    2.131326
      8          8           0       -0.385068   -0.933506    0.171177
      9          1           0       -1.156817   -1.473692   -0.014327
     10          8           0       -2.573405    0.451778   -0.121857
     11          1           0       -2.777557   -0.087440   -0.889285
     12          8           0       -0.769659    0.604612   -1.901109
     13          1           0        0.098725    0.834573   -2.239490
     14          1           0       -0.965336   -0.309994   -2.117418
     15          1           0        1.122081    2.099426    0.221242
     16          1           0       -1.076711    3.058396    0.461841
     17          1           0       -2.814074   -0.023981    0.676500
     18          1           0        0.042204    1.336153    2.011809
     19          1           0       -0.115315   -1.064459    1.083123
 ---------------------------------------------------------------------
                    Distance matrix (angstroms):
                    1          2          3          4          5
     1  Fe   0.000000
     2  O    1.821762   0.000000
     3  H    2.325008   0.959835   0.000000
     4  O    1.821889   2.611767   3.484150   0.000000
     5  H    2.324839   3.415322   4.267739   0.959899   0.000000
     6  O    1.821090   2.611285   3.134947   2.536076   2.560263
     7  H    2.324381   3.450400   3.859988   3.136540   2.937743
     8  O    1.818745   3.640503   4.062050   2.540791   2.405292
     9  H    2.322579   4.062387   4.279649   3.421971   3.362259
    10  O    1.818006   2.536025   2.301533   3.639880   4.060711
    11  H    2.321775   3.136788   2.826442   4.064482   4.499984
    12  O    1.819010   2.540161   2.759827   2.614866   3.298603
    13  H    2.322657   2.875634   3.286750   2.383386   3.107223
    14  H    2.322591   3.387332   3.506977   3.212032   3.703756
    15  H    2.325429   2.444290   3.398642   0.959822   1.567289
    16  H    2.325125   0.959918   1.567358   2.833814   3.510364
    17  H    2.321626   3.225876   3.056824   4.060370   4.288255
    18  H    2.324547   2.949275   3.660724   2.281137   2.137375
    19  H    2.322443   4.061883   4.556733   2.758526   2.328591
                    6          7          8          9         10
     6  O    0.000000
     7  H    0.960021   0.000000
     8  O    2.534622   2.347406   0.000000
     9  H    3.061530   2.718847   0.960108   0.000000
    10  O    2.605257   2.748593   2.606473   2.392848   0.000000
    11  H    3.444886   3.505227   2.750347   2.305222   0.959885
    12  O    3.640099   4.061422   2.609231   2.833582   2.538227
    13  H    4.062670   4.557707   3.028445   3.443229   3.430916
    14  H    4.061572   4.278496   2.441955   2.411193   2.673658
    15  H    2.670492   3.447487   3.387136   4.244531   4.060675
    16  H    2.397039   3.318813   4.061790   4.557738   3.061904
    17  H    2.484803   2.318921   2.642472   2.307685   0.960023
    18  H    0.959858   1.567527   2.953276   3.665802   3.489421
    19  H    2.297892   1.869309   0.959980   1.567353   3.129403
                   11         12         13         14         15
    11  H    0.000000
    12  O    2.352526   0.000000
    13  H    3.308498   0.959935   0.000000
    14  H    2.200452   0.959991   1.567533   0.000000
    15  H    4.606825   3.212091   2.949969   3.953725   0.000000
    16  H    3.822919   3.420362   3.691102   4.243941   2.410850
    17  H    1.567497   3.349453   4.210050   3.362383   4.495491
    18  H    4.288824   4.062660   4.281159   4.558009   2.225950
    19  H    3.454344   3.481323   3.833001   3.396353   3.504877
                   16         17         18         19
    16  H    0.000000
    17  H    3.544793   0.000000
    18  H    2.573032   3.433851   0.000000
    19  H    4.278809   2.920828   2.578800   0.000000
 Stoichiometry    FeH12O6(3+,6)
 Framework group  C1[X(FeH12O6)]
 Deg. of freedom    51
 Full point group                 C1      NOp   1
 Largest Abelian subgroup         C1      NOp   1
 Largest concise Abelian subgroup C1      NOp   1
                         Standard orientation:                         
 ---------------------------------------------------------------------
 Center     Atomic      Atomic             Coordinates (Angstroms)
 Number     Number       Type             X           Y           Z
 ---------------------------------------------------------------------
      1         26           0       -0.020212   -0.029769    0.009758
      2          8           0       -0.320773   -1.687164   -0.684161
      3          1           0       -1.136997   -1.679346   -1.189137
      4          8           0        1.254785   -0.678144    1.138153
      5          1           0        1.943573   -0.019708    1.254074
      6          8           0        1.298505    0.294488   -1.203590
      7          1           0        1.382461    1.241149   -1.339326
      8          8           0        0.280919    1.626834    0.697379
      9          1           0       -0.430846    2.216032    0.436526
     10          8           0       -1.285567    0.616476   -1.124434
     11          1           0       -2.034473    0.939301   -0.618170
     12          8           0       -1.338192   -0.350985    1.221594
     13          1           0       -0.971642   -0.815184    1.977660
     14          1           0       -1.717006    0.482356    1.510774
     15          1           0        1.635434   -1.476912    0.766219
     16          1           0        0.408530   -1.930525   -1.258908
     17          1           0       -0.914804    1.335716   -1.641030
     18          1           0        2.129249   -0.056449   -0.874904
     19          1           0        1.114608    1.965515    0.362985
 ---------------------------------------------------------------------
 Rotational constants (GHZ):           2.0396930           1.9739388           1.9252729
 Leave Link  202 at Wed Mar  5 18:42:53 2025, MaxMem= 13421772800 cpu:               0.6 elap:               0.1
 (Enter /gpfs/fs1/soft/improv/software/custom-built/gaussian/g16/l301.exe)
 Standard basis: 6-31+G(2df,p) (6D, 7F)
 Ernie: Thresh=  0.10000D-02 Tol=  0.10000D-05 Strict=F.
 There are   347 symmetry adapted cartesian basis functions of A   symmetry.
 There are   317 symmetry adapted basis functions of A   symmetry.
   317 basis functions,   514 primitive gaussians,   347 cartesian basis functions
    44 alpha electrons       39 beta electrons
       nuclear repulsion energy       767.7883002195 Hartrees.
 IExCor= 7353 DFT=T Ex+Corr=M08HX ExCW=0 ScaHFX=  0.522300
 ScaDFX=  1.000000  1.000000  1.000000  1.000000 ScalE2=  1.000000  1.000000
 IRadAn=      5 IRanWt=     -1 IRanGd=            0 ICorTp=0 IEmpDi=  4
 NAtoms=   19 NActive=   19 NUniq=   19 SFac= 1.00D+00 NAtFMM=   60 NAOKFM=F Big=F
 Integral buffers will be    131072 words long.
 Raffenetti 2 integral format.
 Two-electron integral symmetry is turned on.
 R6DIni: Non-standard D2/D3 S6 parameter, value=     1.000000
 R6DIni: Non-standard D2/D3 SR6 parameter, value=     1.624700
 Leave Link  301 at Wed Mar  5 18:42:53 2025, MaxMem= 13421772800 cpu:               0.4 elap:               0.1
 (Enter /gpfs/fs1/soft/improv/software/custom-built/gaussian/g16/l302.exe)
 NPDir=0 NMtPBC=     1 NCelOv=     1 NCel=       1 NClECP=     1 NCelD=      1
         NCelK=      1 NCelE2=     1 NClLst=     1 CellRange=     0.0.
 One-electron integrals computed using PRISM.
 One-electron integral symmetry used in STVInt
 NBasis=   317 RedAO= T EigKep=  1.64D-06  NBF=   317
 NBsUse=   317 1.00D-06 EigRej= -1.00D+00 NBFU=   317
 Precomputing XC quadrature grid using
 IXCGrd= 4 IRadAn=           5 IRanWt=          -1 IRanGd=           0 AccXCQ= 0.00D+00.
 Generated NRdTot=       0 NPtTot=           0 NUsed=           0 NTot=          32
 NSgBfM=   347   346   347   347   347 MxSgAt=    19 MxSgA2=    19.
 Leave Link  302 at Wed Mar  5 18:42:54 2025, MaxMem= 13421772800 cpu:              22.0 elap:               0.3
 (Enter /gpfs/fs1/soft/improv/software/custom-built/gaussian/g16/l303.exe)
 DipDrv:  MaxL=1.
 Leave Link  303 at Wed Mar  5 18:42:54 2025, MaxMem= 13421772800 cpu:               1.2 elap:               0.0
 (Enter /gpfs/fs1/soft/improv/software/custom-built/gaussian/g16/l401.exe)
 ExpMin= 1.26D-02 ExpMax= 6.11D+04 ExpMxC= 9.18D+03 IAcc=3 IRadAn=         5 AccDes= 0.00D+00
 Harris functional with IExCor= 1009 and IRadAn=       5 diagonalized for initial guess.
 HarFok:  IExCor= 1009 AccDes= 0.00D+00 IRadAn=         5 IDoV= 1 UseB2=F ITyADJ=14
 ICtDFT=  3500011 ScaDFX=  1.000000  1.000000  1.000000  1.000000
 FoFCou: FMM=F IPFlag=           0 FMFlag=      100000 FMFlg1=           0
         NFxFlg=           0 DoJE=T BraDBF=F KetDBF=T FulRan=T
         wScrn=  0.000000 ICntrl=       500 IOpCl=  0 I1Cent=   200000004 NGrid=           0
         NMat0=    1 NMatS0=      1 NMatT0=    0 NMatD0=    1 NMtDS0=    0 NMtDT0=    0
 Petite list used in FoFCou.
 Harris En= -1720.83105260979    
 JPrj=0 DoOrth=F DoCkMO=F.
 Initial guess <Sx>= 0.0000 <Sy>= 0.0000 <Sz>= 2.5000 <S**2>= 8.7500 S= 2.5000
 Leave Link  401 at Wed Mar  5 18:42:55 2025, MaxMem= 13421772800 cpu:              39.4 elap:               0.5
 (Enter /gpfs/fs1/soft/improv/software/custom-built/gaussian/g16/l502.exe)
 Integral symmetry usage will be decided dynamically.
 UHF open shell SCF:
 Using DIIS extrapolation, IDIIS=  1040.
 NGot= 13421772800 LenX= 13421483807 LenY= 13421362957
 Requested convergence on RMS density matrix=1.00D-08 within  50 cycles.
 Requested convergence on MAX density matrix=1.00D-06.
 Requested convergence on             energy=1.00D-06.
 No special actions if energy rises.
 Fock matrices will be formed incrementally for  20 cycles.

 Cycle   1  Pass 1  IDiag  1:
 FoFJK:  IHMeth= 1 ICntrl=       0 DoSepK=F KAlg= 0 I1Cent=           0 FoldK=F
 IRaf= 990000000 NMat=       1 IRICut=       1 DoRegI=T DoRafI=F ISym2E= 0 IDoP0=0 IntGTp=1.
 FoFCou: FMM=F IPFlag=           0 FMFlag=      100000 FMFlg1=           0
         NFxFlg=           0 DoJE=F BraDBF=F KetDBF=F FulRan=T
         wScrn=  0.000000 ICntrl=         0 IOpCl=  1 I1Cent=           0 NGrid=           0
         NMat0=    1 NMatS0=      1 NMatT0=    0 NMatD0=    1 NMtDS0=    0 NMtDT0=    0
 Symmetry not used in FoFCou.
 E= -1720.32775557496    
 DIIS: error= 3.00D-02 at cycle   1 NSaved=   1.
 NSaved= 1 IEnMin= 1 EnMin= -1720.32775557496     IErMin= 1 ErrMin= 3.00D-02
 ErrMax= 3.00D-02  0.00D+00 EMaxC= 1.00D-01 BMatC= 2.63D+00 BMatP= 2.63D+00
 IDIUse=3 WtCom= 7.00D-01 WtEn= 3.00D-01
 Coeff-Com:  0.100D+01
 Coeff-En:   0.100D+01
 Coeff:      0.100D+01
 Gap=     0.625 Goal=   None    Shift=    0.000
 Gap=     0.088 Goal=   None    Shift=    0.000
 GapD=    0.088 DampG=0.500 DampE=0.250 DampFc=0.1250 IDamp=-1.
 Damping current iteration by 1.25D-01
 RMSDP=6.39D-02 MaxDP=7.17D+00              OVMax= 3.21D-01

 Cycle   2  Pass 1  IDiag  1:
 RMSU=  3.77D-03    CP:  1.08D+00
 E= -1720.40656998225     Delta-E=       -0.078814407294 Rises=F Damp=T
 DIIS: error= 2.01D-02 at cycle   2 NSaved=   2.
 NSaved= 2 IEnMin= 2 EnMin= -1720.40656998225     IErMin= 2 ErrMin= 2.01D-02
 ErrMax= 2.01D-02  0.00D+00 EMaxC= 1.00D-01 BMatC= 1.31D+00 BMatP= 2.63D+00
 IDIUse=3 WtCom= 7.99D-01 WtEn= 2.01D-01
 Coeff-Com: -0.210D+01 0.310D+01
 Coeff-En:   0.000D+00 0.100D+01
 Coeff:     -0.168D+01 0.268D+01
 Gap=     0.406 Goal=   None    Shift=    0.000
 Gap=     0.383 Goal=   None    Shift=    0.000
 RMSDP=1.37D-02 MaxDP=9.89D-01 DE=-7.88D-02 OVMax= 2.91D-01

 Cycle   3  Pass 1  IDiag  1:
 RMSU=  8.70D-03    CP:  1.14D+00  3.00D+00
 E= -1720.69283173372     Delta-E=       -0.286261751472 Rises=F Damp=F
 DIIS: error= 6.25D-03 at cycle   3 NSaved=   3.
 NSaved= 3 IEnMin= 3 EnMin= -1720.69283173372     IErMin= 3 ErrMin= 6.25D-03
 ErrMax= 6.25D-03  0.00D+00 EMaxC= 1.00D-01 BMatC= 1.20D-01 BMatP= 1.31D+00
 IDIUse=3 WtCom= 9.37D-01 WtEn= 6.25D-02
 Coeff-Com: -0.890D+00 0.130D+01 0.587D+00
 Coeff-En:   0.000D+00 0.000D+00 0.100D+01
 Coeff:     -0.835D+00 0.122D+01 0.612D+00
 Gap=     0.390 Goal=   None    Shift=    0.000
 Gap=     0.388 Goal=   None    Shift=    0.000
 RMSDP=3.36D-03 MaxDP=1.90D-01 DE=-2.86D-01 OVMax= 2.53D-02

 Cycle   4  Pass 1  IDiag  1:
 RMSU=  2.71D-03    CP:  1.14D+00  3.00D+00  7.74D-01
 E= -1720.71095349430     Delta-E=       -0.018121760574 Rises=F Damp=F
 DIIS: error= 2.95D-03 at cycle   4 NSaved=   4.
 NSaved= 4 IEnMin= 4 EnMin= -1720.71095349430     IErMin= 4 ErrMin= 2.95D-03
 ErrMax= 2.95D-03  0.00D+00 EMaxC= 1.00D-01 BMatC= 2.19D-02 BMatP= 1.20D-01
 IDIUse=3 WtCom= 9.70D-01 WtEn= 2.95D-02
 Coeff-Com: -0.190D+00 0.181D+00 0.158D+00 0.851D+00
 Coeff-En:   0.000D+00 0.000D+00 0.000D+00 0.100D+01
 Coeff:     -0.185D+00 0.176D+00 0.154D+00 0.856D+00
 Gap=     0.386 Goal=   None    Shift=    0.000
 Gap=     0.384 Goal=   None    Shift=    0.000
 RMSDP=1.55D-03 MaxDP=1.83D-01 DE=-1.81D-02 OVMax= 1.27D-02

 Cycle   5  Pass 1  IDiag  1:
 RMSU=  1.13D-03    CP:  1.15D+00  3.00D+00  8.33D-01  9.16D-01
 E= -1720.71508893496     Delta-E=       -0.004135440659 Rises=F Damp=F
 DIIS: error= 9.91D-04 at cycle   5 NSaved=   5.
 NSaved= 5 IEnMin= 5 EnMin= -1720.71508893496     IErMin= 5 ErrMin= 9.91D-04
 ErrMax= 9.91D-04  0.00D+00 EMaxC= 1.00D-01 BMatC= 1.06D-03 BMatP= 2.19D-02
 IDIUse=3 WtCom= 9.90D-01 WtEn= 9.91D-03
 Coeff-Com: -0.270D-01 0.236D-01-0.701D-01-0.395D-01 0.111D+01
 Coeff-En:   0.000D+00 0.000D+00 0.000D+00 0.000D+00 0.100D+01
 Coeff:     -0.267D-01 0.233D-01-0.694D-01-0.391D-01 0.111D+01
 Gap=     0.387 Goal=   None    Shift=    0.000
 Gap=     0.383 Goal=   None    Shift=    0.000
 RMSDP=9.11D-04 MaxDP=1.24D-01 DE=-4.14D-03 OVMax= 7.01D-03

 Cycle   6  Pass 1  IDiag  1:
 RMSU=  3.68D-04    CP:  1.15D+00  3.00D+00  8.21D-01  9.74D-01  1.35D+00
 E= -1720.71534452195     Delta-E=       -0.000255586991 Rises=F Damp=F
 DIIS: error= 2.34D-04 at cycle   6 NSaved=   6.
 NSaved= 6 IEnMin= 6 EnMin= -1720.71534452195     IErMin= 6 ErrMin= 2.34D-04
 ErrMax= 2.34D-04  0.00D+00 EMaxC= 1.00D-01 BMatC= 1.53D-04 BMatP= 1.06D-03
 IDIUse=3 WtCom= 9.98D-01 WtEn= 2.34D-03
 Coeff-Com: -0.127D-01 0.166D-01-0.412D-01-0.800D-01 0.366D+00 0.752D+00
 Coeff-En:   0.000D+00 0.000D+00 0.000D+00 0.000D+00 0.000D+00 0.100D+01
 Coeff:     -0.127D-01 0.165D-01-0.411D-01-0.798D-01 0.365D+00 0.752D+00
 Gap=     0.389 Goal=   None    Shift=    0.000
 Gap=     0.383 Goal=   None    Shift=    0.000
 RMSDP=2.93D-04 MaxDP=3.82D-02 DE=-2.56D-04 OVMax= 2.33D-03

 Cycle   7  Pass 1  IDiag  1:
 RMSU=  6.53D-05    CP:  1.16D+00  3.00D+00  8.16D-01  9.91D-01  1.46D+00
                    CP:  1.19D+00
 E= -1720.71537369466     Delta-E=       -0.000029172712 Rises=F Damp=F
 DIIS: error= 8.55D-05 at cycle   7 NSaved=   7.
 NSaved= 7 IEnMin= 7 EnMin= -1720.71537369466     IErMin= 7 ErrMin= 8.55D-05
 ErrMax= 8.55D-05  0.00D+00 EMaxC= 1.00D-01 BMatC= 2.36D-05 BMatP= 1.53D-04
 IDIUse=1 WtCom= 1.00D+00 WtEn= 0.00D+00
 Coeff-Com: -0.745D-02 0.105D-01-0.966D-02-0.261D-01 0.416D-02 0.307D+00
 Coeff-Com:  0.721D+00
 Coeff:     -0.745D-02 0.105D-01-0.966D-02-0.261D-01 0.416D-02 0.307D+00
 Coeff:      0.721D+00
 Gap=     0.388 Goal=   None    Shift=    0.000
 Gap=     0.382 Goal=   None    Shift=    0.000
 RMSDP=1.07D-04 MaxDP=1.47D-02 DE=-2.92D-05 OVMax= 7.17D-04

 Cycle   8  Pass 1  IDiag  1:
 RMSU=  2.51D-05    CP:  1.16D+00  3.00D+00  8.14D-01  9.97D-01  1.49D+00
                    CP:  1.28D+00  1.05D+00
 E= -1720.71537866206     Delta-E=       -0.000004967396 Rises=F Damp=F
 DIIS: error= 2.56D-05 at cycle   8 NSaved=   8.
 NSaved= 8 IEnMin= 8 EnMin= -1720.71537866206     IErMin= 8 ErrMin= 2.56D-05
 ErrMax= 2.56D-05  0.00D+00 EMaxC= 1.00D-01 BMatC= 1.47D-06 BMatP= 2.36D-05
 IDIUse=1 WtCom= 1.00D+00 WtEn= 0.00D+00
 Coeff-Com: -0.102D-02 0.108D-02 0.518D-02 0.114D-01-0.645D-01-0.787D-01
 Coeff-Com:  0.976D-01 0.103D+01
 Coeff:     -0.102D-02 0.108D-02 0.518D-02 0.114D-01-0.645D-01-0.787D-01
 Coeff:      0.976D-01 0.103D+01
 Gap=     0.388 Goal=   None    Shift=    0.000
 Gap=     0.382 Goal=   None    Shift=    0.000
 RMSDP=6.71D-05 MaxDP=8.55D-03 DE=-4.97D-06 OVMax= 5.89D-04

 Cycle   9  Pass 1  IDiag  1:
 RMSU=  9.78D-06    CP:  1.16D+00  3.00D+00  8.13D-01  9.98D-01  1.50D+00
                    CP:  1.35D+00  1.16D+00  1.05D+00
 E= -1720.71537919467     Delta-E=       -0.000000532608 Rises=F Damp=F
 DIIS: error= 3.42D-06 at cycle   9 NSaved=   9.
 NSaved= 9 IEnMin= 9 EnMin= -1720.71537919467     IErMin= 9 ErrMin= 3.42D-06
 ErrMax= 3.42D-06  0.00D+00 EMaxC= 1.00D-01 BMatC= 3.92D-08 BMatP= 1.47D-06
 IDIUse=1 WtCom= 1.00D+00 WtEn= 0.00D+00
 Coeff-Com:  0.201D-03-0.289D-03 0.101D-03 0.473D-03 0.219D-02-0.103D-01
 Coeff-Com: -0.394D-01-0.479D-01 0.110D+01
 Coeff:      0.201D-03-0.289D-03 0.101D-03 0.473D-03 0.219D-02-0.103D-01
 Coeff:     -0.394D-01-0.479D-01 0.110D+01
 Gap=     0.388 Goal=   None    Shift=    0.000
 Gap=     0.382 Goal=   None    Shift=    0.000
 RMSDP=4.45D-06 MaxDP=4.35D-04 DE=-5.33D-07 OVMax= 1.27D-04

 Cycle  10  Pass 1  IDiag  1:
 RMSU=  2.09D-06    CP:  1.16D+00  3.00D+00  8.13D-01  9.98D-01  1.50D+00
                    CP:  1.35D+00  1.17D+00  1.09D+00  1.22D+00
 E= -1720.71537921876     Delta-E=       -0.000000024098 Rises=F Damp=F
 DIIS: error= 8.72D-07 at cycle  10 NSaved=  10.
 NSaved=10 IEnMin=10 EnMin= -1720.71537921876     IErMin=10 ErrMin= 8.72D-07
 ErrMax= 8.72D-07  0.00D+00 EMaxC= 1.00D-01 BMatC= 3.69D-09 BMatP= 3.92D-08
 IDIUse=1 WtCom= 1.00D+00 WtEn= 0.00D+00
 Coeff-Com:  0.139D-03-0.161D-03-0.324D-03-0.710D-03 0.498D-02 0.451D-02
 Coeff-Com: -0.125D-01-0.751D-01 0.116D+00 0.963D+00
 Coeff:      0.139D-03-0.161D-03-0.324D-03-0.710D-03 0.498D-02 0.451D-02
 Coeff:     -0.125D-01-0.751D-01 0.116D+00 0.963D+00
 Gap=     0.388 Goal=   None    Shift=    0.000
 Gap=     0.382 Goal=   None    Shift=    0.000
 RMSDP=1.54D-06 MaxDP=2.34D-04 DE=-2.41D-08 OVMax= 2.82D-05

 Cycle  11  Pass 1  IDiag  1:
 RMSU=  6.28D-07    CP:  1.16D+00  3.00D+00  8.13D-01  9.98D-01  1.50D+00
                    CP:  1.35D+00  1.17D+00  1.10D+00  1.28D+00  1.07D+00
 E= -1720.71537922029     Delta-E=       -0.000000001524 Rises=F Damp=F
 DIIS: error= 4.76D-07 at cycle  11 NSaved=  11.
 NSaved=11 IEnMin=11 EnMin= -1720.71537922029     IErMin=11 ErrMin= 4.76D-07
 ErrMax= 4.76D-07  0.00D+00 EMaxC= 1.00D-01 BMatC= 8.95D-10 BMatP= 3.69D-09
 IDIUse=1 WtCom= 1.00D+00 WtEn= 0.00D+00
 Coeff-Com:  0.527D-04-0.568D-04-0.123D-03-0.303D-03 0.177D-02 0.249D-02
 Coeff-Com: -0.229D-02-0.242D-01-0.359D-01 0.373D+00 0.686D+00
 Coeff:      0.527D-04-0.568D-04-0.123D-03-0.303D-03 0.177D-02 0.249D-02
 Coeff:     -0.229D-02-0.242D-01-0.359D-01 0.373D+00 0.686D+00
 Gap=     0.388 Goal=   None    Shift=    0.000
 Gap=     0.382 Goal=   None    Shift=    0.000
 RMSDP=4.95D-07 MaxDP=8.19D-05 DE=-1.52D-09 OVMax= 5.56D-06

 Cycle  12  Pass 1  IDiag  1:
 RMSU=  2.47D-07    CP:  1.16D+00  3.00D+00  8.13D-01  9.98D-01  1.50D+00
                    CP:  1.35D+00  1.17D+00  1.10D+00  1.27D+00  1.13D+00
                    CP:  7.66D-01
 E= -1720.71537922048     Delta-E=       -0.000000000196 Rises=F Damp=F
 DIIS: error= 1.63D-07 at cycle  12 NSaved=  12.
 NSaved=12 IEnMin=12 EnMin= -1720.71537922048     IErMin=12 ErrMin= 1.63D-07
 ErrMax= 1.63D-07  0.00D+00 EMaxC= 1.00D-01 BMatC= 1.17D-10 BMatP= 8.95D-10
 IDIUse=1 WtCom= 1.00D+00 WtEn= 0.00D+00
 Coeff-Com: -0.670D-05 0.930D-05 0.320D-04 0.486D-04-0.483D-03-0.104D-03
 Coeff-Com:  0.187D-02 0.877D-02-0.405D-01-0.857D-01 0.239D+00 0.877D+00
 Coeff:     -0.670D-05 0.930D-05 0.320D-04 0.486D-04-0.483D-03-0.104D-03
 Coeff:      0.187D-02 0.877D-02-0.405D-01-0.857D-01 0.239D+00 0.877D+00
 Gap=     0.388 Goal=   None    Shift=    0.000
 Gap=     0.382 Goal=   None    Shift=    0.000
 RMSDP=1.68D-07 MaxDP=2.48D-05 DE=-1.96D-10 OVMax= 2.64D-06

 Cycle  13  Pass 1  IDiag  1:
 RMSU=  7.21D-08    CP:  1.16D+00  3.00D+00  8.13D-01  9.98D-01  1.50D+00
                    CP:  1.35D+00  1.17D+00  1.10D+00  1.28D+00  1.13D+00
                    CP:  8.90D-01  9.41D-01
 E= -1720.71537922051     Delta-E=       -0.000000000022 Rises=F Damp=F
 DIIS: error= 2.17D-08 at cycle  13 NSaved=  13.
 NSaved=13 IEnMin=13 EnMin= -1720.71537922051     IErMin=13 ErrMin= 2.17D-08
 ErrMax= 2.17D-08  0.00D+00 EMaxC= 1.00D-01 BMatC= 1.96D-12 BMatP= 1.17D-10
 IDIUse=1 WtCom= 1.00D+00 WtEn= 0.00D+00
 Coeff-Com: -0.370D-05 0.421D-05 0.698D-05 0.163D-04-0.111D-03-0.117D-03
 Coeff-Com:  0.249D-03 0.172D-02-0.177D-02-0.227D-01-0.122D-01 0.625D-01
 Coeff-Com:  0.973D+00
 Coeff:     -0.370D-05 0.421D-05 0.698D-05 0.163D-04-0.111D-03-0.117D-03
 Coeff:      0.249D-03 0.172D-02-0.177D-02-0.227D-01-0.122D-01 0.625D-01
 Coeff:      0.973D+00
 Gap=     0.388 Goal=   None    Shift=    0.000
 Gap=     0.382 Goal=   None    Shift=    0.000
 RMSDP=2.34D-08 MaxDP=2.13D-06 DE=-2.23D-11 OVMax= 4.49D-07

 Cycle  14  Pass 1  IDiag  1:
 RMSU=  1.14D-08    CP:  1.16D+00  3.00D+00  8.13D-01  9.98D-01  1.50D+00
                    CP:  1.35D+00  1.17D+00  1.10D+00  1.28D+00  1.13D+00
                    CP:  8.93D-01  9.75D-01  1.16D+00
 E= -1720.71537922050     Delta-E=        0.000000000007 Rises=F Damp=F
 DIIS: error= 1.12D-08 at cycle  14 NSaved=  14.
 NSaved=14 IEnMin=13 EnMin= -1720.71537922051     IErMin=14 ErrMin= 1.12D-08
 ErrMax= 1.12D-08  0.00D+00 EMaxC= 1.00D-01 BMatC= 3.74D-13 BMatP= 1.96D-12
 IDIUse=1 WtCom= 1.00D+00 WtEn= 0.00D+00
 Coeff-Com: -0.103D-05 0.106D-05-0.975D-06 0.653D-06 0.784D-05-0.238D-04
 Coeff-Com: -0.760D-04-0.225D-03 0.261D-02 0.998D-03-0.219D-01-0.545D-01
 Coeff-Com:  0.242D+00 0.832D+00
 Coeff:     -0.103D-05 0.106D-05-0.975D-06 0.653D-06 0.784D-05-0.238D-04
 Coeff:     -0.760D-04-0.225D-03 0.261D-02 0.998D-03-0.219D-01-0.545D-01
 Coeff:      0.242D+00 0.832D+00
 Gap=     0.388 Goal=   None    Shift=    0.000
 Gap=     0.382 Goal=   None    Shift=    0.000
 RMSDP=9.60D-09 MaxDP=1.07D-06 DE= 6.82D-12 OVMax= 1.18D-07

 Cycle  15  Pass 1  IDiag  1:
 RMSU=  5.26D-09    CP:  1.16D+00  3.00D+00  8.13D-01  9.98D-01  1.50D+00
                    CP:  1.35D+00  1.17D+00  1.10D+00  1.28D+00  1.13D+00
                    CP:  8.92D-01  9.82D-01  1.20D+00  9.95D-01
 E= -1720.71537922049     Delta-E=        0.000000000011 Rises=F Damp=F
 DIIS: error= 4.78D-09 at cycle  15 NSaved=  15.
 NSaved=15 IEnMin=13 EnMin= -1720.71537922051     IErMin=15 ErrMin= 4.78D-09
 ErrMax= 4.78D-09  0.00D+00 EMaxC= 1.00D-01 BMatC= 7.90D-14 BMatP= 3.74D-13
 IDIUse=1 WtCom= 1.00D+00 WtEn= 0.00D+00
 Coeff-Com: -0.183D-06 0.169D-06-0.125D-05-0.145D-05 0.149D-04 0.234D-05
 Coeff-Com: -0.596D-04-0.278D-03 0.132D-02 0.286D-02-0.829D-02-0.306D-01
 Coeff-Com:  0.271D-02 0.375D+00 0.658D+00
 Coeff:     -0.183D-06 0.169D-06-0.125D-05-0.145D-05 0.149D-04 0.234D-05
 Coeff:     -0.596D-04-0.278D-03 0.132D-02 0.286D-02-0.829D-02-0.306D-01
 Coeff:      0.271D-02 0.375D+00 0.658D+00
 Gap=     0.388 Goal=   None    Shift=    0.000
 Gap=     0.382 Goal=   None    Shift=    0.000
 RMSDP=3.16D-09 MaxDP=3.21D-07 DE= 1.09D-11 OVMax= 3.03D-08

 SCF Done:  E(UM08HX) =  -1720.71537922     A.U. after   15 cycles
            NFock= 15  Conv=0.32D-08     -V/T= 2.0016
 <Sx>= 0.0000 <Sy>= 0.0000 <Sz>= 2.5000 <S**2>= 8.7544 S= 2.5007
 <L.S>=  0.00000000000    
 KE= 1.718004997660D+03 PE=-5.570034701270D+03 EE= 1.363526024170D+03
 Annihilation of the first spin contaminant:
 S**2 before annihilation     8.7544,   after     8.7500
 Leave Link  502 at Wed Mar  5 18:43:23 2025, MaxMem= 13421772800 cpu:            3218.1 elap:              28.0
 (Enter /gpfs/fs1/soft/improv/software/custom-built/gaussian/g16/l508.exe)
 QCSCF skips out because SCF is already converged.
 Leave Link  508 at Wed Mar  5 18:43:23 2025, MaxMem= 13421772800 cpu:               0.3 elap:               0.0
 (Enter /gpfs/fs1/soft/improv/software/custom-built/gaussian/g16/l801.exe)
 DoSCS=F DFT=T ScalE2(SS,OS)=  1.000000  1.000000
 Range of M.O.s used for correlation:     1   317
 NBasis=   317 NAE=    44 NBE=    39 NFC=     0 NFV=     0
 NROrb=    317 NOA=    44 NOB=    39 NVA=   273 NVB=   278

 **** Warning!!: The largest alpha MO coefficient is  0.21107184D+03


 **** Warning!!: The largest beta MO coefficient is  0.20874232D+03

 Leave Link  801 at Wed Mar  5 18:43:24 2025, MaxMem= 13421772800 cpu:               0.4 elap:               0.0
 (Enter /gpfs/fs1/soft/improv/software/custom-built/gaussian/g16/l1101.exe)
 Using compressed storage, NAtomX=    19.
 Will process     20 centers per pass.
 Leave Link 1101 at Wed Mar  5 18:43:24 2025, MaxMem= 13421772800 cpu:              51.9 elap:               0.5
 (Enter /gpfs/fs1/soft/improv/software/custom-built/gaussian/g16/l1102.exe)
 Symmetrizing basis deriv contribution to polar:
 IMax=3 JMax=2 DiffMx= 0.00D+00
 Leave Link 1102 at Wed Mar  5 18:43:25 2025, MaxMem= 13421772800 cpu:               1.0 elap:               0.0
 (Enter /gpfs/fs1/soft/improv/software/custom-built/gaussian/g16/l1110.exe)
 Forming Gx(P) for the SCF density, NAtomX=    19.
 Integral derivatives from FoFJK, PRISM(SPDF).
 Do as many integral derivatives as possible in FoFJK.
 G2DrvN: MDV=   13421770631.
 G2DrvN: will do    20 centers at a time, making    1 passes.
 Calling FoFCou, ICntrl=  3107 FMM=F I1Cent=   0 AccDes= 0.00D+00.
 FoFJK:  IHMeth= 1 ICntrl=    3107 DoSepK=F KAlg= 0 I1Cent=           0 FoldK=F
 IRaf=         0 NMat=       1 IRICut=       1 DoRegI=T DoRafI=F ISym2E= 0 IDoP0=0 IntGTp=1.
 FoFCou: FMM=F IPFlag=           0 FMFlag=      100000 FMFlg1=           0
         NFxFlg=           0 DoJE=F BraDBF=F KetDBF=F FulRan=T
         wScrn=  0.000000 ICntrl=      3107 IOpCl=  1 I1Cent=           0 NGrid=           0
         NMat0=    1 NMatS0=      1 NMatT0=    0 NMatD0=    1 NMtDS0=    0 NMtDT0=    0
 Symmetry not used in FoFCou.
 End of G2Drv F.D. properties file   721 does not exist.
 End of G2Drv F.D. properties file   722 does not exist.
 End of G2Drv F.D. properties file   788 does not exist.
 Leave Link 1110 at Wed Mar  5 18:43:50 2025, MaxMem= 13421772800 cpu:            3144.9 elap:              24.9
 (Enter /gpfs/fs1/soft/improv/software/custom-built/gaussian/g16/l1002.exe)
 Minotr:  UHF open shell wavefunction.
          IDoAtm=1111111111111111111
          Direct CPHF calculation.
          Differentiating once with respect to electric field.
                with respect to dipole field.
          Differentiating once with respect to nuclear coordinates.
          Requested convergence is 1.0D-08 RMS, and 1.0D-07 maximum.
          Secondary convergence is 1.0D-12 RMS, and 1.0D-12 maximum.
          NewPWx=T KeepS1=F KeepF1=F KeepIn=T MapXYZ=F SortEE=F KeepMc=T.
         6034 words used for storage of precomputed grid.
 Two-electron integrals replicated using symmetry.
          MDV=   13421772800 using IRadAn=       1.
          Solving linear equations simultaneously, MaxMat=     384.
 FoF2E skips out because all densities are zero.
 CalDSu exits because no D1Ps are significant.
 FoFJK:  IHMeth= 1 ICntrl=       0 DoSepK=F KAlg= 0 I1Cent=           0 FoldK=F
 IRaf= 990000000 NMat=      57 IRICut=     142 DoRegI=T DoRafI=T ISym2E= 2 IDoP0=3 IntGTp=2.
 FoFCou: FMM=F IPFlag=           0 FMFlag=      100000 FMFlg1=           0
         NFxFlg=           0 DoJE=F BraDBF=F KetDBF=F FulRan=T
         wScrn=  0.000000 ICntrl=         0 IOpCl=  1 I1Cent=           0 NGrid=           0
         NMat0=   57 NMatS0=     57 NMatT0=    0 NMatD0=   57 NMtDS0=    0 NMtDT0=    0
 Integrals replicated using symmetry in FoFCou.
 Raff kept on since  98.46% of shell-pairs survive, threshold=   0.20 IRatSp=98.
          There are    60 degrees of freedom in the 1st order CPHF.  IDoFFX=6 NUNeed=     3.
     57 vectors produced by pass  0 Test12= 3.81D-14 1.67D-09 XBig12= 3.29D+01 1.08D+00.
 AX will form    57 AO Fock derivatives at one time.
     57 vectors produced by pass  1 Test12= 3.81D-14 1.67D-09 XBig12= 2.06D+00 1.88D-01.
     57 vectors produced by pass  2 Test12= 3.81D-14 1.67D-09 XBig12= 4.17D-02 3.26D-02.
     57 vectors produced by pass  3 Test12= 3.81D-14 1.67D-09 XBig12= 5.49D-04 4.07D-03.
     57 vectors produced by pass  4 Test12= 3.81D-14 1.67D-09 XBig12= 9.40D-06 3.86D-04.
     57 vectors produced by pass  5 Test12= 3.81D-14 1.67D-09 XBig12= 1.27D-07 3.80D-05.
     57 vectors produced by pass  6 Test12= 3.81D-14 1.67D-09 XBig12= 1.25D-09 4.01D-06.
     29 vectors produced by pass  7 Test12= 3.81D-14 1.67D-09 XBig12= 8.88D-12 3.24D-07.
      3 vectors produced by pass  8 Test12= 3.81D-14 1.67D-09 XBig12= 4.86D-14 2.40D-08.
      2 vectors produced by pass  9 Test12= 3.81D-14 1.67D-09 XBig12= 2.85D-16 2.37D-09.
 InvSVY:  IOpt=1 It=  1 EMax= 4.44D-15
 Solved reduced A of dimension   433 with    60 vectors.
 FullF1:  Do perturbations      1 to       3.
 Isotropic polarizability for W=    0.000000       46.40 Bohr**3.
 End of Minotr F.D. properties file   721 does not exist.
 End of Minotr F.D. properties file   722 does not exist.
 End of Minotr F.D. properties file   788 does not exist.
 Leave Link 1002 at Wed Mar  5 18:45:19 2025, MaxMem= 13421772800 cpu:           10934.0 elap:              89.6
 (Enter /gpfs/fs1/soft/improv/software/custom-built/gaussian/g16/l601.exe)
 Copying SCF densities to generalized density rwf, IOpCl= 1 IROHF=0.

 **********************************************************************

            Population analysis using the SCF Density.

 **********************************************************************

 Orbital symmetries:
 Alpha Orbitals:
       Occupied  (A) (A) (A) (A) (A) (A) (A) (A) (A) (A) (A) (A)
                 (A) (A) (A) (A) (A) (A) (A) (A) (A) (A) (A) (A)
                 (A) (A) (A) (A) (A) (A) (A) (A) (A) (A) (A) (A)
                 (A) (A) (A) (A) (A) (A) (A) (A)
       Virtual   (A) (A) (A) (A) (A) (A) (A) (A) (A) (A) (A) (A)
                 (A) (A) (A) (A) (A) (A) (A) (A) (A) (A) (A) (A)
                 (A) (A) (A) (A) (A) (A) (A) (A) (A) (A) (A) (A)
                 (A) (A) (A) (A) (A) (A) (A) (A) (A) (A) (A) (A)
                 (A) (A) (A) (A) (A) (A) (A) (A) (A) (A) (A) (A)
                 (A) (A) (A) (A) (A) (A) (A) (A) (A) (A) (A) (A)
                 (A) (A) (A) (A) (A) (A) (A) (A) (A) (A) (A) (A)
                 (A) (A) (A) (A) (A) (A) (A) (A) (A) (A) (A) (A)
                 (A) (A) (A) (A) (A) (A) (A) (A) (A) (A) (A) (A)
                 (A) (A) (A) (A) (A) (A) (A) (A) (A) (A) (A) (A)
                 (A) (A) (A) (A) (A) (A) (A) (A) (A) (A) (A) (A)
                 (A) (A) (A) (A) (A) (A) (A) (A) (A) (A) (A) (A)
                 (A) (A) (A) (A) (A) (A) (A) (A) (A) (A) (A) (A)
                 (A) (A) (A) (A) (A) (A) (A) (A) (A) (A) (A) (A)
                 (A) (A) (A) (A) (A) (A) (A) (A) (A) (A) (A) (A)
                 (A) (A) (A) (A) (A) (A) (A) (A) (A) (A) (A) (A)
                 (A) (A) (A) (A) (A) (A) (A) (A) (A) (A) (A) (A)
                 (A) (A) (A) (A) (A) (A) (A) (A) (A) (A) (A) (A)
                 (A) (A) (A) (A) (A) (A) (A) (A) (A) (A) (A) (A)
                 (A) (A) (A) (A) (A) (A) (A) (A) (A) (A) (A) (A)
                 (A) (A) (A) (A) (A) (A) (A) (A) (A) (A) (A) (A)
                 (A) (A) (A) (A) (A) (A) (A) (A) (A) (A) (A) (A)
                 (A) (A) (A) (A) (A) (A) (A) (A) (A)
 Beta  Orbitals:
       Occupied  (A) (A) (A) (A) (A) (A) (A) (A) (A) (A) (A) (A)
                 (A) (A) (A) (A) (A) (A) (A) (A) (A) (A) (A) (A)
                 (A) (A) (A) (A) (A) (A) (A) (A) (A) (A) (A) (A)
                 (A) (A) (A)
       Virtual   (A) (A) (A) (A) (A) (A) (A) (A) (A) (A) (A) (A)
                 (A) (A) (A) (A) (A) (A) (A) (A) (A) (A) (A) (A)
                 (A) (A) (A) (A) (A) (A) (A) (A) (A) (A) (A) (A)
                 (A) (A) (A) (A) (A) (A) (A) (A) (A) (A) (A) (A)
                 (A) (A) (A) (A) (A) (A) (A) (A) (A) (A) (A) (A)
                 (A) (A) (A) (A) (A) (A) (A) (A) (A) (A) (A) (A)
                 (A) (A) (A) (A) (A) (A) (A) (A) (A) (A) (A) (A)
                 (A) (A) (A) (A) (A) (A) (A) (A) (A) (A) (A) (A)
                 (A) (A) (A) (A) (A) (A) (A) (A) (A) (A) (A) (A)
                 (A) (A) (A) (A) (A) (A) (A) (A) (A) (A) (A) (A)
                 (A) (A) (A) (A) (A) (A) (A) (A) (A) (A) (A) (A)
                 (A) (A) (A) (A) (A) (A) (A) (A) (A) (A) (A) (A)
                 (A) (A) (A) (A) (A) (A) (A) (A) (A) (A) (A) (A)
                 (A) (A) (A) (A) (A) (A) (A) (A) (A) (A) (A) (A)
                 (A) (A) (A) (A) (A) (A) (A) (A) (A) (A) (A) (A)
                 (A) (A) (A) (A) (A) (A) (A) (A) (A) (A) (A) (A)
                 (A) (A) (A) (A) (A) (A) (A) (A) (A) (A) (A) (A)
                 (A) (A) (A) (A) (A) (A) (A) (A) (A) (A) (A) (A)
                 (A) (A) (A) (A) (A) (A) (A) (A) (A) (A) (A) (A)
                 (A) (A) (A) (A) (A) (A) (A) (A) (A) (A) (A) (A)
                 (A) (A) (A) (A) (A) (A) (A) (A) (A) (A) (A) (A)
                 (A) (A) (A) (A) (A) (A) (A) (A) (A) (A) (A) (A)
                 (A) (A) (A) (A) (A) (A) (A) (A) (A) (A) (A) (A)
                 (A) (A)
 The electronic state is 6-A.
 Alpha  occ. eigenvalues -- -258.56870 -31.34535 -27.23927 -27.23889 -27.23863
 Alpha  occ. eigenvalues --  -20.25489 -20.25481 -20.24435 -20.24075 -20.21863
 Alpha  occ. eigenvalues --  -20.21063  -4.50060  -3.27192  -3.27026  -3.26913
 Alpha  occ. eigenvalues --   -1.80303  -1.77641  -1.77020  -1.76406  -1.74379
 Alpha  occ. eigenvalues --   -1.73501  -1.30211  -1.28817  -1.27339  -1.27199
 Alpha  occ. eigenvalues --   -1.25512  -1.25211  -1.23221  -1.21339  -1.20666
 Alpha  occ. eigenvalues --   -1.19450  -1.16316  -1.15217  -1.14026  -1.12006
 Alpha  occ. eigenvalues --   -1.11137  -1.06829  -1.05777  -1.05232  -1.03053
 Alpha  occ. eigenvalues --   -1.00487  -0.99980  -0.93451  -0.93099
 Alpha virt. eigenvalues --   -0.54256  -0.49120  -0.46800  -0.45406  -0.41495
 Alpha virt. eigenvalues --   -0.40375  -0.39680  -0.39241  -0.36501  -0.34970
 Alpha virt. eigenvalues --   -0.34000  -0.32792  -0.32284  -0.31285  -0.30768
 Alpha virt. eigenvalues --   -0.29579  -0.28846  -0.28284  -0.27705  -0.27275
 Alpha virt. eigenvalues --   -0.25886  -0.24735  -0.24460  -0.24221  -0.21913
 Alpha virt. eigenvalues --   -0.21430  -0.20512  -0.19062  -0.18956  -0.17809
 Alpha virt. eigenvalues --   -0.17456  -0.16617  -0.14390  -0.14057  -0.13244
 Alpha virt. eigenvalues --   -0.12467  -0.11595  -0.10375  -0.09749  -0.09252
 Alpha virt. eigenvalues --   -0.08804  -0.07707  -0.07125  -0.05847  -0.05390
 Alpha virt. eigenvalues --   -0.04322  -0.01405  -0.00114   0.02007   0.06966
 Alpha virt. eigenvalues --    0.08738   0.09787   0.10570   0.23746   0.24914
 Alpha virt. eigenvalues --    0.26314   0.26753   0.31067   0.32437   0.33942
 Alpha virt. eigenvalues --    0.34964   0.36489   0.37173   0.37512   0.38150
 Alpha virt. eigenvalues --    0.40429   0.42539   0.43480   0.44104   0.45720
 Alpha virt. eigenvalues --    0.47648   0.48622   0.49490   0.51089   0.54274
 Alpha virt. eigenvalues --    0.55337   0.55565   0.56605   0.57772   0.57928
 Alpha virt. eigenvalues --    0.58673   0.60460   0.63859   0.64371   0.65638
 Alpha virt. eigenvalues --    0.66465   0.69766   0.70805   0.72426   0.75011
 Alpha virt. eigenvalues --    0.77144   0.78281   0.80078   0.82015   0.83557
 Alpha virt. eigenvalues --    0.84348   0.88325   0.88671   0.90777   0.91745
 Alpha virt. eigenvalues --    0.92722   0.94386   0.95184   1.09296   1.10715
 Alpha virt. eigenvalues --    1.17421   1.17530   1.21519   1.22234   1.24703
 Alpha virt. eigenvalues --    1.25849   1.26944   1.28630   1.31028   1.32756
 Alpha virt. eigenvalues --    1.36971   1.37826   1.39738   1.42428   1.43312
 Alpha virt. eigenvalues --    1.49404   1.55526   1.60815   1.71469   1.73124
 Alpha virt. eigenvalues --    1.75283   1.77793   1.79009   1.81053   1.85857
 Alpha virt. eigenvalues --    1.87036   1.87160   1.90134   1.90636   1.97638
 Alpha virt. eigenvalues --    1.98962   2.04138   2.07207   2.11401   2.14343
 Alpha virt. eigenvalues --    2.16653   2.17215   2.21674   2.25226   2.28514
 Alpha virt. eigenvalues --    2.30043   2.35174   2.36884   2.38930   2.42499
 Alpha virt. eigenvalues --    2.43322   2.44228   2.45413   2.46251   2.48095
 Alpha virt. eigenvalues --    2.50231   2.51536   2.52097   2.54283   2.54548
 Alpha virt. eigenvalues --    2.56046   2.56881   2.58714   2.59599   2.64732
 Alpha virt. eigenvalues --    2.69555   2.77506   2.79967   2.80583   2.82891
 Alpha virt. eigenvalues --    2.90981   3.12689   3.48794   3.50437   3.57529
 Alpha virt. eigenvalues --    3.60986   3.62988   3.67030   3.68709   3.69269
 Alpha virt. eigenvalues --    3.71139   3.72063   3.73668   3.74233   3.77226
 Alpha virt. eigenvalues --    3.77927   3.79154   3.79580   3.81823   3.82758
 Alpha virt. eigenvalues --    3.83383   3.86075   3.88817   3.89368   3.93013
 Alpha virt. eigenvalues --    3.96936   3.97457   3.99633   4.01499   4.03431
 Alpha virt. eigenvalues --    4.05023   4.07170   4.10449   4.14050   4.17963
 Alpha virt. eigenvalues --    4.22399   4.24695   4.25023   4.28525   4.30357
 Alpha virt. eigenvalues --    4.36017   4.39840   4.40997   4.44432   4.44917
 Alpha virt. eigenvalues --    4.46482   4.48432   4.51909   4.62375   4.67185
 Alpha virt. eigenvalues --    4.69606   4.70240   4.73644   4.76326   4.83109
 Alpha virt. eigenvalues --    4.86820   4.87669   4.89075   4.90233   4.91084
 Alpha virt. eigenvalues --    4.93032   4.93509   4.94125   4.95588   5.00319
 Alpha virt. eigenvalues --    5.00970   5.07661   5.09065   5.10576   5.12056
 Alpha virt. eigenvalues --    5.13425   5.17371   5.18102   5.20377   5.23657
 Alpha virt. eigenvalues --    5.25128   5.27609   5.29465   5.30547   5.31966
 Alpha virt. eigenvalues --    5.33507   5.35070   5.37421   5.38085   5.39774
 Alpha virt. eigenvalues --    5.43365   5.45539   5.58356   5.59217   6.00487
 Alpha virt. eigenvalues --    6.95816   6.98560   6.99897   7.09103   7.11780
 Alpha virt. eigenvalues --    7.25951  13.31139  13.33066  13.34200  13.87859
 Alpha virt. eigenvalues --   13.93571  13.98659  25.50014
  Beta  occ. eigenvalues -- -258.56980 -31.21171 -27.12949 -27.12897 -27.12864
  Beta  occ. eigenvalues --  -20.25108 -20.25098 -20.24032 -20.23668 -20.21417
  Beta  occ. eigenvalues --  -20.20613  -4.23998  -2.96585  -2.96437  -2.96320
  Beta  occ. eigenvalues --   -1.79465  -1.76707  -1.76023  -1.75459  -1.73306
  Beta  occ. eigenvalues --   -1.72396  -1.28109  -1.26498  -1.24876  -1.23890
  Beta  occ. eigenvalues --   -1.21959  -1.20525  -1.18362  -1.15616  -1.14262
  Beta  occ. eigenvalues --   -1.11797  -1.11442  -1.08744  -1.08602  -1.04868
  Beta  occ. eigenvalues --   -1.03113  -1.01566  -0.99770  -0.98584
  Beta virt. eigenvalues --   -0.60367  -0.59893  -0.59017  -0.54158  -0.50197
  Beta virt. eigenvalues --   -0.50092  -0.49068  -0.46694  -0.45407  -0.41154
  Beta virt. eigenvalues --   -0.40115  -0.39558  -0.39023  -0.36355  -0.34987
  Beta virt. eigenvalues --   -0.34021  -0.32940  -0.32456  -0.31262  -0.30676
  Beta virt. eigenvalues --   -0.29752  -0.28978  -0.28413  -0.27701  -0.27294
  Beta virt. eigenvalues --   -0.26042  -0.24945  -0.24045  -0.23808  -0.21784
  Beta virt. eigenvalues --   -0.20874  -0.20509  -0.18943  -0.18650  -0.17517
  Beta virt. eigenvalues --   -0.17239  -0.16539  -0.14453  -0.13984  -0.12975
  Beta virt. eigenvalues --   -0.12262  -0.11373  -0.09583  -0.09386  -0.09135
  Beta virt. eigenvalues --   -0.07808  -0.07431  -0.06516  -0.05311  -0.05088
  Beta virt. eigenvalues --   -0.02630  -0.01186   0.01304   0.03140   0.08236
  Beta virt. eigenvalues --    0.09228   0.09875   0.10941   0.23790   0.25021
  Beta virt. eigenvalues --    0.26561   0.27340   0.31619   0.32719   0.34704
  Beta virt. eigenvalues --    0.35363   0.36955   0.37395   0.38206   0.38730
  Beta virt. eigenvalues --    0.40499   0.42889   0.43981   0.44541   0.45966
  Beta virt. eigenvalues --    0.47807   0.48817   0.49695   0.51388   0.55026
  Beta virt. eigenvalues --    0.55713   0.56123   0.56856   0.58313   0.58467
  Beta virt. eigenvalues --    0.58990   0.61106   0.64262   0.64904   0.66208
  Beta virt. eigenvalues --    0.66921   0.70416   0.71553   0.73522   0.75997
  Beta virt. eigenvalues --    0.78103   0.79547   0.81325   0.83297   0.83869
  Beta virt. eigenvalues --    0.85034   0.88874   0.90149   0.92421   0.93721
  Beta virt. eigenvalues --    0.94333   0.95651   0.96765   1.12419   1.13216
  Beta virt. eigenvalues --    1.18738   1.19912   1.23292   1.24002   1.27557
  Beta virt. eigenvalues --    1.28288   1.29999   1.30781   1.35017   1.36078
  Beta virt. eigenvalues --    1.39425   1.40578   1.43954   1.44520   1.47086
  Beta virt. eigenvalues --    1.50401   1.57742   1.62679   1.71872   1.73656
  Beta virt. eigenvalues --    1.75990   1.78408   1.79545   1.81739   1.86684
  Beta virt. eigenvalues --    1.87822   1.88145   1.90718   1.91015   1.98729
  Beta virt. eigenvalues --    2.00994   2.04593   2.07917   2.11818   2.15853
  Beta virt. eigenvalues --    2.18076   2.18488   2.23145   2.27592   2.30584
  Beta virt. eigenvalues --    2.32279   2.37279   2.39898   2.41645   2.43486
  Beta virt. eigenvalues --    2.43795   2.45055   2.46576   2.46797   2.49392
  Beta virt. eigenvalues --    2.50852   2.52181   2.53280   2.54948   2.57058
  Beta virt. eigenvalues --    2.58483   2.58766   2.60644   2.61920   2.65474
  Beta virt. eigenvalues --    2.70212   2.78520   2.80654   2.84042   2.86416
  Beta virt. eigenvalues --    2.93924   3.14442   3.51810   3.53450   3.57708
  Beta virt. eigenvalues --    3.61181   3.62970   3.68113   3.69318   3.71144
  Beta virt. eigenvalues --    3.73106   3.74219   3.75161   3.76386   3.80070
  Beta virt. eigenvalues --    3.81060   3.81348   3.81832   3.84456   3.86977
  Beta virt. eigenvalues --    3.88263   3.89401   3.91611   3.92737   3.96805
  Beta virt. eigenvalues --    3.98449   3.99829   4.00792   4.02966   4.06015
  Beta virt. eigenvalues --    4.06058   4.11886   4.20727   4.22698   4.22991
  Beta virt. eigenvalues --    4.26465   4.29301   4.30910   4.32056   4.33027
  Beta virt. eigenvalues --    4.37663   4.44044   4.44205   4.45987   4.47274
  Beta virt. eigenvalues --    4.49101   4.51357   4.55831   4.62960   4.68357
  Beta virt. eigenvalues --    4.70398   4.70894   4.74277   4.77487   4.84114
  Beta virt. eigenvalues --    4.86924   4.87945   4.89177   4.90052   4.92207
  Beta virt. eigenvalues --    4.93499   4.94255   4.95194   4.96836   5.01990
  Beta virt. eigenvalues --    5.02698   5.08610   5.09841   5.10999   5.13122
  Beta virt. eigenvalues --    5.14980   5.18702   5.19711   5.21372   5.24546
  Beta virt. eigenvalues --    5.25968   5.27764   5.29984   5.30934   5.32368
  Beta virt. eigenvalues --    5.34097   5.35666   5.38442   5.39233   5.39912
  Beta virt. eigenvalues --    5.43341   5.45391   5.58252   5.59084   6.00675
  Beta virt. eigenvalues --    6.95212   6.97932   6.99293   7.08512   7.11171
  Beta virt. eigenvalues --    7.25342  13.31396  13.33298  13.34443  13.88018
  Beta virt. eigenvalues --   13.93938  13.99048  25.63064
          Condensed to atoms (all electrons):
               1          2          3          4          5          6
     1  Fe  24.805878  -0.009914  -0.009155   0.026548  -0.006440  -0.022922
     2  O   -0.009914   8.294217   0.309963  -0.067461   0.000665  -0.068896
     3  H   -0.009155   0.309963   0.222545   0.000304  -0.000016   0.001023
     4  O    0.026548  -0.067461   0.000304   8.302763   0.302454  -0.081758
     5  H   -0.006440   0.000665  -0.000016   0.302454   0.247960   0.001023
     6  O   -0.022922  -0.068896   0.001023  -0.081758   0.001023   8.326906
     7  H   -0.002252   0.000106  -0.000020  -0.000050  -0.000293   0.305792
     8  O   -0.038540   0.044489  -0.000563  -0.077556   0.002918  -0.082322
     9  H   -0.006120  -0.000476  -0.000001   0.000267   0.000065   0.000971
    10  O    0.017664  -0.070549   0.000463   0.033731  -0.000685  -0.076969
    11  H    0.001180   0.001337  -0.000325  -0.000346   0.000009   0.000094
    12  O    0.003720  -0.063314  -0.000675  -0.068305  -0.000682   0.043536
    13  H   -0.010863  -0.001730  -0.000040   0.001009   0.000002  -0.000446
    14  H    0.009020   0.001290  -0.000002   0.001372   0.000052  -0.000779
    15  H   -0.000784   0.001009   0.000063   0.302692  -0.020595  -0.007510
    16  H    0.000798   0.300243  -0.012703  -0.001990  -0.000001  -0.001728
    17  H   -0.007326  -0.001669   0.000133  -0.000478  -0.000007   0.001644
    18  H   -0.008887  -0.001188   0.000025   0.000199  -0.001812   0.310036
    19  H   -0.005559  -0.000829   0.000005  -0.001871  -0.000004   0.000553
               7          8          9         10         11         12
     1  Fe  -0.002252  -0.038540  -0.006120   0.017664   0.001180   0.003720
     2  O    0.000106   0.044489  -0.000476  -0.070549   0.001337  -0.063314
     3  H   -0.000020  -0.000563  -0.000001   0.000463  -0.000325  -0.000675
     4  O   -0.000050  -0.077556   0.000267   0.033731  -0.000346  -0.068305
     5  H   -0.000293   0.002918   0.000065  -0.000685   0.000009  -0.000682
     6  O    0.305792  -0.082322   0.000971  -0.076969   0.000094   0.043536
     7  H    0.254360  -0.001517  -0.000426  -0.000932   0.000055  -0.001013
     8  O   -0.001517   8.327486   0.307851  -0.053983  -0.007219  -0.061202
     9  H   -0.000426   0.307851   0.237453  -0.001823  -0.000076  -0.001720
    10  O   -0.000932  -0.053983  -0.001823   8.302658   0.302118  -0.084200
    11  H    0.000055  -0.007219  -0.000076   0.302118   0.240875   0.001015
    12  O   -0.001013  -0.061202  -0.001720  -0.084200   0.001015   8.287267
    13  H    0.000007   0.000451   0.000027   0.001254   0.000019   0.308679
    14  H   -0.000008  -0.003058   0.000061  -0.004507   0.001078   0.296522
    15  H    0.000166   0.000146  -0.000026  -0.000313  -0.000003   0.001620
    16  H    0.000041  -0.000723   0.000004   0.001824  -0.000020   0.000730
    17  H    0.000390  -0.001771  -0.001507   0.306238  -0.019986   0.001184
    18  H   -0.015862   0.000556   0.000028   0.000119  -0.000024  -0.000478
    19  H    0.000760   0.308224  -0.015100  -0.000705   0.000153   0.000821
              13         14         15         16         17         18
     1  Fe  -0.010863   0.009020  -0.000784   0.000798  -0.007326  -0.008887
     2  O   -0.001730   0.001290   0.001009   0.300243  -0.001669  -0.001188
     3  H   -0.000040  -0.000002   0.000063  -0.012703   0.000133   0.000025
     4  O    0.001009   0.001372   0.302692  -0.001990  -0.000478   0.000199
     5  H    0.000002   0.000052  -0.020595  -0.000001  -0.000007  -0.001812
     6  O   -0.000446  -0.000779  -0.007510  -0.001728   0.001644   0.310036
     7  H    0.000007  -0.000008   0.000166   0.000041   0.000390  -0.015862
     8  O    0.000451  -0.003058   0.000146  -0.000723  -0.001771   0.000556
     9  H    0.000027   0.000061  -0.000026   0.000004  -0.001507   0.000028
    10  O    0.001254  -0.004507  -0.000313   0.001824   0.306238   0.000119
    11  H    0.000019   0.001078  -0.000003  -0.000020  -0.019986  -0.000024
    12  O    0.308679   0.296522   0.001620   0.000730   0.001184  -0.000478
    13  H    0.218434  -0.013036  -0.000169   0.000005  -0.000022  -0.000001
    14  H   -0.013036   0.255576  -0.000021  -0.000024  -0.000035   0.000003
    15  H   -0.000169  -0.000021   0.234038   0.000005   0.000010  -0.000365
    16  H    0.000005  -0.000024   0.000005   0.244916   0.000070  -0.000287
    17  H   -0.000022  -0.000035   0.000010   0.000070   0.246107   0.000007
    18  H   -0.000001   0.000003  -0.000365  -0.000287   0.000007   0.234317
    19  H   -0.000028   0.000006   0.000064  -0.000012  -0.000210  -0.000525
              19
     1  Fe  -0.005559
     2  O   -0.000829
     3  H    0.000005
     4  O   -0.001871
     5  H   -0.000004
     6  O    0.000553
     7  H    0.000760
     8  O    0.308224
     9  H   -0.015100
    10  O   -0.000705
    11  H    0.000153
    12  O    0.000821
    13  H   -0.000028
    14  H    0.000006
    15  H    0.000064
    16  H   -0.000012
    17  H   -0.000210
    18  H   -0.000525
    19  H    0.251371
          Atomic-Atomic Spin Densities.
               1          2          3          4          5          6
     1  Fe   5.035711  -0.088287   0.000859  -0.096709   0.000559  -0.111204
     2  O   -0.088287   0.244716  -0.002879  -0.019835   0.000125  -0.019556
     3  H    0.000859  -0.002879   0.003517   0.000190   0.000003   0.000709
     4  O   -0.096709  -0.019835   0.000190   0.241561  -0.002312  -0.022871
     5  H    0.000559   0.000125   0.000003  -0.002312   0.003165   0.001526
     6  O   -0.111204  -0.019556   0.000709  -0.022871   0.001526   0.255303
     7  H    0.001489   0.000139  -0.000005  -0.000129  -0.000026  -0.004159
     8  O   -0.111854   0.023679  -0.000381  -0.024045   0.001207  -0.025379
     9  H    0.002808  -0.000387   0.000001   0.000324  -0.000033  -0.000318
    10  O   -0.099949  -0.018786   0.001462   0.021215  -0.000363  -0.026839
    11  H    0.001814   0.000006  -0.000007  -0.000198   0.000001   0.000228
    12  O   -0.088309  -0.025210   0.001360  -0.018362   0.000178   0.024440
    13  H    0.000889   0.001074  -0.000019   0.001333  -0.000016  -0.000351
    14  H    0.000110   0.000261  -0.000016   0.000244  -0.000005  -0.000435
    15  H    0.001652   0.001182  -0.000030  -0.002497  -0.000229   0.000323
    16  H    0.000345  -0.001557  -0.000080   0.000749  -0.000014   0.000883
    17  H    0.000712   0.000005  -0.000015  -0.000345   0.000001   0.001159
    18  H    0.002702   0.000269  -0.000006   0.003222  -0.000038  -0.004751
    19  H    0.001633  -0.000457   0.000003   0.000532   0.000042   0.003453
               7          8          9         10         11         12
     1  Fe   0.001489  -0.111854   0.002808  -0.099949   0.001814  -0.088309
     2  O    0.000139   0.023679  -0.000387  -0.018786   0.000006  -0.025210
     3  H   -0.000005  -0.000381   0.000001   0.001462  -0.000007   0.001360
     4  O   -0.000129  -0.024045   0.000324   0.021215  -0.000198  -0.018362
     5  H   -0.000026   0.001207  -0.000033  -0.000363   0.000001   0.000178
     6  O   -0.004159  -0.025379  -0.000318  -0.026839   0.000228   0.024440
     7  H    0.003307   0.002882  -0.000051   0.000922  -0.000019  -0.000469
     8  O    0.002882   0.255523  -0.004264  -0.019788   0.000380  -0.023787
     9  H   -0.000051  -0.004264   0.003541   0.002566   0.000020   0.000441
    10  O    0.000922  -0.019788   0.002566   0.246520  -0.003057  -0.023855
    11  H   -0.000019   0.000380   0.000020  -0.003057   0.003900   0.001486
    12  O   -0.000469  -0.023787   0.000441  -0.023855   0.001486   0.250211
    13  H    0.000003   0.000853  -0.000015   0.000166  -0.000041  -0.002995
    14  H    0.000001   0.001049   0.000079   0.000988   0.000124  -0.002158
    15  H   -0.000001   0.000170   0.000002  -0.000187   0.000001  -0.000005
    16  H   -0.000031  -0.000377   0.000003   0.000292   0.000003   0.000126
    17  H    0.000056   0.001073  -0.000053  -0.001821  -0.000283   0.000165
    18  H    0.000055  -0.000075   0.000008   0.000343   0.000002  -0.000376
    19  H   -0.000015  -0.004305   0.000040  -0.000078  -0.000003   0.000221
              13         14         15         16         17         18
     1  Fe   0.000889   0.000110   0.001652   0.000345   0.000712   0.002702
     2  O    0.001074   0.000261   0.001182  -0.001557   0.000005   0.000269
     3  H   -0.000019  -0.000016  -0.000030  -0.000080  -0.000015  -0.000006
     4  O    0.001333   0.000244  -0.002497   0.000749  -0.000345   0.003222
     5  H   -0.000016  -0.000005  -0.000229  -0.000014   0.000001  -0.000038
     6  O   -0.000351  -0.000435   0.000323   0.000883   0.001159  -0.004751
     7  H    0.000003   0.000001  -0.000001  -0.000031   0.000056   0.000055
     8  O    0.000853   0.001049   0.000170  -0.000377   0.001073  -0.000075
     9  H   -0.000015   0.000079   0.000002   0.000003  -0.000053   0.000008
    10  O    0.000166   0.000988  -0.000187   0.000292  -0.001821   0.000343
    11  H   -0.000041   0.000124   0.000001   0.000003  -0.000283   0.000002
    12  O   -0.002995  -0.002158  -0.000005   0.000126   0.000165  -0.000376
    13  H    0.003813  -0.000116  -0.000010  -0.000008   0.000004  -0.000000
    14  H   -0.000116   0.003921   0.000003   0.000004  -0.000024   0.000003
    15  H   -0.000010   0.000003   0.003548   0.000058   0.000001  -0.000003
    16  H   -0.000008   0.000004   0.000058   0.003476  -0.000004   0.000035
    17  H    0.000004  -0.000024   0.000001  -0.000004   0.002983  -0.000031
    18  H   -0.000000   0.000003  -0.000003   0.000035  -0.000031   0.003899
    19  H   -0.000005  -0.000034  -0.000014   0.000001  -0.000008  -0.000065
              19
     1  Fe   0.001633
     2  O   -0.000457
     3  H    0.000003
     4  O    0.000532
     5  H    0.000042
     6  O    0.003453
     7  H   -0.000015
     8  O   -0.004305
     9  H    0.000040
    10  O   -0.000078
    11  H   -0.000003
    12  O    0.000221
    13  H   -0.000005
    14  H   -0.000034
    15  H   -0.000014
    16  H    0.000001
    17  H   -0.000008
    18  H   -0.000065
    19  H    0.003294
 Mulliken charges and spin densities:
               1          2
     1  Fe   1.263954   4.454972
     2  O   -0.667292   0.094502
     3  H    0.488973   0.004666
     4  O   -0.671525   0.082068
     5  H    0.475385   0.003771
     6  O   -0.648249   0.072161
     7  H    0.460697   0.003948
     8  O   -0.663667   0.072561
     9  H    0.480547   0.004712
    10  O   -0.671403   0.079751
    11  H    0.480067   0.004356
    12  O   -0.663503   0.093102
    13  H    0.496448   0.004560
    14  H    0.456491   0.003999
    15  H    0.489974   0.003964
    16  H    0.468852   0.003903
    17  H    0.477228   0.003577
    18  H    0.484138   0.005193
    19  H    0.462884   0.004234
 Sum of Mulliken charges =   3.00000   5.00000
 Mulliken charges and spin densities with hydrogens summed into heavy atoms:
               1          2
     1  Fe   1.263954   4.454972
     2  O    0.290533   0.103071
     4  O    0.293834   0.089803
     6  O    0.296586   0.081302
     8  O    0.279764   0.081507
    10  O    0.285892   0.087684
    12  O    0.289436   0.101661
 APT charges:
               1
     1  Fe   2.174286
     2  O   -0.666445
     3  H    0.421886
     4  O   -0.633278
     5  H    0.382187
     6  O   -0.640300
     7  H    0.374303
     8  O   -0.641755
     9  H    0.388173
    10  O   -0.629816
    11  H    0.390742
    12  O   -0.656061
    13  H    0.425319
    14  H    0.379853
    15  H    0.396069
    16  H    0.389491
    17  H    0.382806
    18  H    0.388491
    19  H    0.374049
 Sum of APT charges =   3.00000
 APT charges with hydrogens summed into heavy atoms:
               1
     1  Fe   2.174286
     2  O    0.144931
     4  O    0.144978
     6  O    0.122495
     8  O    0.120467
    10  O    0.143732
    12  O    0.149111
 Electronic spatial extent (au):  <R**2>=            839.7251
 Charge=              3.0000 electrons
 Dipole moment (field-independent basis, Debye):
    X=              2.4470    Y=              3.8985    Z=             -1.0523  Tot=              4.7215
 Quadrupole moment (field-independent basis, Debye-Ang):
   XX=            -12.1420   YY=            -15.9622   ZZ=            -26.9791
   XY=             -4.3303   XZ=             -1.6452   YZ=             -1.0149
 Traceless Quadrupole moment (field-independent basis, Debye-Ang):
   XX=              6.2191   YY=              2.3989   ZZ=             -8.6180
   XY=             -4.3303   XZ=             -1.6452   YZ=             -1.0149
 Octapole moment (field-independent basis, Debye-Ang**2):
  XXX=             19.1994  YYY=             18.4254  ZZZ=              5.0629  XYY=              4.4157
  XXY=              9.5000  XXZ=              3.1479  XZZ=             -8.1595  YZZ=             -3.2748
  YYZ=            -14.8986  XYZ=             -3.3096
 Hexadecapole moment (field-independent basis, Debye-Ang**3):
 XXXX=           -166.3220 YYYY=           -175.5676 ZZZZ=           -214.9429 XXXY=            -21.9648
 XXXZ=              2.3775 YYYX=             -9.0994 YYYZ=             10.9404 ZZZX=            -16.6618
 ZZZY=            -15.8253 XXYY=            -46.6629 XXZZ=            -53.8240 YYZZ=            -51.0790
 XXYZ=             -0.3537 YYXZ=              3.2820 ZZXY=              2.0890
 N-N= 7.677883002195D+02 E-N=-5.570034702415D+03  KE= 1.718004997660D+03
  Exact polarizability:      47.782      -0.532      47.004      -0.432      -0.071      44.404
 Approx polarizability:      54.334      -0.795      53.487      -0.643      -0.256      50.051
                          Isotropic Fermi Contact Couplings
        Atom                 a.u.       MegaHertz       Gauss      10(-4) cm-1
     1  Fe(57)            -0.07325      -2.12481      -0.75819      -0.70876
     2  O(17)              0.13022     -15.78805      -5.63357      -5.26633
     3  H(1)               0.00253       2.26348       0.80767       0.75502
     4  O(17)              0.12841     -15.56826      -5.55514      -5.19301
     5  H(1)               0.00220       1.96307       0.70047       0.65481
     6  O(17)              0.13292     -16.11499      -5.75023      -5.37538
     7  H(1)               0.00200       1.78482       0.63687       0.59535
     8  O(17)              0.13157     -15.95201      -5.69207      -5.32102
     9  H(1)               0.00238       2.12862       0.75954       0.71003
    10  O(17)              0.12728     -15.43154      -5.50636      -5.14741
    11  H(1)               0.00256       2.29146       0.81765       0.76435
    12  O(17)              0.12877     -15.61210      -5.57079      -5.20764
    13  H(1)               0.00250       2.23850       0.79875       0.74668
    14  H(1)               0.00241       2.15646       0.76948       0.71932
    15  H(1)               0.00240       2.14836       0.76659       0.71662
    16  H(1)               0.00231       2.06553       0.73703       0.68899
    17  H(1)               0.00220       1.96442       0.70095       0.65526
    18  H(1)               0.00250       2.23147       0.79625       0.74434
    19  H(1)               0.00199       1.77591       0.63369       0.59238
 --------------------------------------------------------
       Center         ----  Spin Dipole Couplings  ----
                      3XX-RR        3YY-RR        3ZZ-RR
 --------------------------------------------------------
     1   Atom       -0.003416     -0.012095      0.015511
     2   Atom       -0.276537      0.398748     -0.122211
     3   Atom       -0.004337      0.019913     -0.015576
     4   Atom        0.060059     -0.177927      0.117868
     5   Atom        0.063827     -0.047951     -0.015876
     6   Atom        0.085017     -0.229011      0.143994
     7   Atom       -0.003274      0.009697     -0.006423
     8   Atom       -0.248998      0.289477     -0.040480
     9   Atom       -0.042192      0.097226     -0.055034
    10   Atom        0.081900     -0.144375      0.062475
    11   Atom        0.074309     -0.033923     -0.040386
    12   Atom        0.180284     -0.213021      0.032737
    13   Atom       -0.028891     -0.039043      0.067933
    14   Atom        0.027170     -0.031576      0.004406
    15   Atom        0.021477      0.018340     -0.039817
    16   Atom       -0.038815      0.046809     -0.007994
    17   Atom       -0.032315      0.006119      0.026197
    18   Atom        0.091996     -0.059094     -0.032902
    19   Atom       -0.005180      0.060060     -0.054880
 --------------------------------------------------------
                        XY            XZ            YZ
 --------------------------------------------------------
     1   Atom        0.012733      0.009674      0.001710
     2   Atom        0.125127      0.032223      0.155337
     3   Atom        0.052554      0.053185      0.058010
     4   Atom       -0.162924      0.262621     -0.182200
     5   Atom        0.013450      0.075777      0.001154
     6   Atom        0.087517     -0.316699     -0.036282
     7   Atom        0.053342     -0.058477     -0.053550
     8   Atom        0.100428      0.055307      0.248379
     9   Atom       -0.037624      0.001230      0.026608
    10   Atom       -0.133929      0.333692     -0.092773
    11   Atom       -0.065148      0.027083     -0.014561
    12   Atom        0.173498     -0.298836     -0.055574
    13   Atom        0.015675     -0.046981     -0.058449
    14   Atom       -0.035624     -0.080410      0.028821
    15   Atom       -0.079421      0.035207     -0.022867
    16   Atom       -0.028410     -0.030504      0.075891
    17   Atom       -0.027721      0.039326     -0.078493
    18   Atom       -0.009868     -0.050338     -0.004393
    19   Atom        0.073923      0.003550      0.020572
 --------------------------------------------------------


 ---------------------------------------------------------------------------------
              Anisotropic Spin Dipole Couplings in Principal Axis System
 ---------------------------------------------------------------------------------

       Atom             a.u.   MegaHertz   Gauss  10(-4) cm-1        Axes

              Baa    -0.0217    -0.376    -0.134    -0.125 -0.6093  0.7835  0.1223
     1 Fe(57) Bbb     0.0007     0.012     0.004     0.004  0.6492  0.5814 -0.4905
              Bcc     0.0211     0.364     0.130     0.122  0.4554  0.2194  0.8628
 
              Baa    -0.2991    21.643     7.723     7.219  0.9850 -0.1699 -0.0302
     2 O(17)  Bbb    -0.1650    11.938     4.260     3.982 -0.0156 -0.2624  0.9648
              Bcc     0.4641   -33.581   -11.982   -11.201  0.1718  0.9499  0.2611
 
              Baa    -0.0656   -34.980   -12.482   -11.668 -0.5013 -0.2533  0.8274
     3 H(1)   Bbb    -0.0451   -24.049    -8.581    -8.022 -0.6738  0.7142 -0.1896
              Bcc     0.1106    59.028    21.063    19.690  0.5429  0.6525  0.5287
 
              Baa    -0.2733    19.775     7.056     6.596  0.2408  0.9316  0.2722
     4 O(17)  Bbb    -0.1752    12.680     4.525     4.230  0.7454  0.0021 -0.6666
              Bcc     0.4485   -32.456   -11.581   -10.826  0.6216 -0.3635  0.6939
 
              Baa    -0.0640   -34.139   -12.182   -11.388 -0.5029  0.3655  0.7833
     5 H(1)   Bbb    -0.0465   -24.829    -8.859    -8.282  0.1278  0.9277 -0.3508
              Bcc     0.1105    58.968    21.041    19.670  0.8549  0.0763  0.5132
 
              Baa    -0.2656    19.222     6.859     6.412 -0.4691  0.8346 -0.2887
     6 O(17)  Bbb    -0.1779    12.873     4.594     4.294  0.5708  0.5360  0.6220
              Bcc     0.4436   -32.095   -11.452   -10.706 -0.6739 -0.1270  0.7278
 
              Baa    -0.0634   -33.828   -12.071   -11.284  0.6743  0.0478  0.7369
     7 H(1)   Bbb    -0.0470   -25.066    -8.944    -8.361 -0.4692  0.7983  0.3775
              Bcc     0.1104    58.894    21.015    19.645  0.5703  0.6003 -0.5607
 
              Baa    -0.2680    19.395     6.921     6.470  0.9864 -0.1380 -0.0891
     8 O(17)  Bbb    -0.1737    12.566     4.484     4.192  0.0131 -0.4748  0.8800
              Bcc     0.4417   -31.961   -11.405   -10.661  0.1637  0.8692  0.4665
 
              Baa    -0.0638   -34.025   -12.141   -11.349 -0.4871 -0.2520  0.8362
     9 H(1)   Bbb    -0.0469   -25.020    -8.928    -8.346  0.8411  0.1223  0.5268
              Bcc     0.1107    59.045    21.069    19.695 -0.2351  0.9600  0.1524
 
              Baa    -0.2699    19.527     6.968     6.513  0.7144  0.2925 -0.6357
    10 O(17)  Bbb    -0.1797    13.005     4.640     4.338 -0.0284  0.9198  0.3914
              Bcc     0.4496   -32.531   -11.608   -10.851  0.6992 -0.2616  0.6654
 
              Baa    -0.0646   -34.494   -12.308   -11.506  0.4085  0.9084  0.0892
    11 H(1)   Bbb    -0.0465   -24.789    -8.845    -8.269 -0.2177  0.0021  0.9760
              Bcc     0.1111    59.282    21.153    19.774  0.8864 -0.4181  0.1986
 
              Baa    -0.2962    21.434     7.648     7.150 -0.4897  0.8161 -0.3069
    12 O(17)  Bbb    -0.1620    11.722     4.183     3.910  0.3956  0.5216  0.7559
              Bcc     0.4582   -33.155   -11.831   -11.059  0.7770  0.2487 -0.5782
 
              Baa    -0.0658   -35.086   -12.520   -11.703  0.2073  0.8675  0.4521
    13 H(1)   Bbb    -0.0453   -24.173    -8.626    -8.063  0.9200 -0.3300  0.2114
              Bcc     0.1111    59.259    21.145    19.767 -0.3326 -0.3721  0.8665
 
              Baa    -0.0655   -34.972   -12.479   -11.665  0.6697  0.0756  0.7387
    14 H(1)   Bbb    -0.0461   -24.596    -8.777    -8.204  0.1780  0.9495 -0.2585
              Bcc     0.1116    59.568    21.255    19.870  0.7210 -0.3046 -0.6225
 
              Baa    -0.0644   -34.356   -12.259   -11.460  0.6894  0.5235 -0.5006
    15 H(1)   Bbb    -0.0462   -24.671    -8.803    -8.229  0.1949  0.5316  0.8243
              Bcc     0.1106    59.027    21.062    19.689  0.6976 -0.6659  0.2645
 
              Baa    -0.0657   -35.058   -12.509   -11.694  0.4532 -0.4170  0.7879
    16 H(1)   Bbb    -0.0455   -24.279    -8.663    -8.099  0.8517  0.4633 -0.2447
              Bcc     0.1112    59.337    21.173    19.793 -0.2630  0.7820  0.5651
 
              Baa    -0.0645   -34.402   -12.275   -11.475 -0.2777  0.6635  0.6948
    17 H(1)   Bbb    -0.0468   -24.954    -8.904    -8.324  0.9071  0.4193 -0.0378
              Bcc     0.1112    59.356    21.180    19.799  0.3164 -0.6197  0.7182
 
              Baa    -0.0637   -33.979   -12.124   -11.334  0.2017  0.8680  0.4538
[...]
    14  H   -0.010430   0.243729  -0.000000  -0.000000  -0.000027  -0.000000
    15  H   -0.000026  -0.000000   0.243749  -0.000026  -0.000000  -0.000026
    16  H   -0.000000  -0.000000  -0.000026   0.243664  -0.000000  -0.000026
    17  H   -0.000000  -0.000027  -0.000000  -0.000000   0.243747  -0.000000
    18  H    0.000000  -0.000000  -0.000026  -0.000026  -0.000000   0.243725
    19  H   -0.000000  -0.000000  -0.000000   0.000000  -0.000027  -0.000026
              19
     1  Fe  -0.003718
     2  O   -0.000336
     3  H   -0.000000
     4  O    0.000172
     5  H   -0.000026
     6  O    0.002214
     7  H   -0.000027
     8  O    0.294599
     9  H   -0.010423
    10  O    0.000173
    11  H   -0.000000
    12  O    0.000746
    13  H   -0.000000
    14  H   -0.000000
    15  H   -0.000000
    16  H    0.000000
    17  H   -0.000027
    18  H   -0.000026
    19  H    0.243710
          Atomic-Atomic Spin Densities.
               1          2          3          4          5          6
     1  Fe   4.956745  -0.077098   0.002522  -0.077104   0.002521  -0.077184
     2  O   -0.077098   0.192620  -0.003577  -0.011628   0.000137  -0.011648
     3  H    0.002522  -0.003577   0.001630   0.000306  -0.000001   0.000137
     4  O   -0.077104  -0.011628   0.000306   0.192596  -0.003576  -0.011643
     5  H    0.002521   0.000137  -0.000001  -0.003576   0.001631   0.000306
     6  O   -0.077184  -0.011648   0.000137  -0.011643   0.000306   0.192797
     7  H    0.002524   0.000306  -0.000001   0.000137  -0.000001  -0.003581
     8  O   -0.077100   0.010577  -0.000113  -0.011633   0.000542  -0.011646
     9  H    0.002521  -0.000113   0.000000   0.000306  -0.000011   0.000137
    10  O   -0.077096  -0.011630   0.000306   0.010577  -0.000113  -0.011645
    11  H    0.002521   0.000542  -0.000011  -0.000113   0.000000   0.000307
    12  O   -0.077182  -0.011646   0.000542  -0.011638   0.000306   0.010599
    13  H    0.002525   0.000306  -0.000011   0.000543  -0.000011  -0.000113
    14  H    0.002524   0.000307  -0.000011   0.000137  -0.000001  -0.000113
    15  H    0.002521   0.000542  -0.000011  -0.003576   0.000555   0.000306
    16  H    0.002521  -0.003577   0.000555   0.000306  -0.000001   0.000543
    17  H    0.002521   0.000137  -0.000001  -0.000113   0.000000   0.000306
    18  H    0.002525   0.000307  -0.000001   0.000543  -0.000011  -0.003580
    19  H    0.002522  -0.000113   0.000000   0.000306  -0.000011   0.000542
               7          8          9         10         11         12
     1  Fe   0.002524  -0.077100   0.002521  -0.077096   0.002521  -0.077182
     2  O    0.000306   0.010577  -0.000113  -0.011630   0.000542  -0.011646
     3  H   -0.000001  -0.000113   0.000000   0.000306  -0.000011   0.000542
     4  O    0.000137  -0.011633   0.000306   0.010577  -0.000113  -0.011638
     5  H   -0.000001   0.000542  -0.000011  -0.000113   0.000000   0.000306
     6  O   -0.003581  -0.011646   0.000137  -0.011645   0.000307   0.010599
     7  H    0.001630   0.000306  -0.000001   0.000543  -0.000011  -0.000113
     8  O    0.000306   0.192625  -0.003577  -0.011621   0.000137  -0.011651
     9  H   -0.000001  -0.003577   0.001631   0.000306  -0.000001   0.000543
    10  O    0.000543  -0.011621   0.000306   0.192580  -0.003577  -0.011648
    11  H   -0.000011   0.000137  -0.000001  -0.003577   0.001631   0.000306
    12  O   -0.000113  -0.011651   0.000543  -0.011648   0.000306   0.192790
    13  H    0.000000   0.000307  -0.000011   0.000138  -0.000001  -0.003581
    14  H    0.000000   0.000307  -0.000011   0.000543  -0.000011  -0.003580
    15  H   -0.000001   0.000137  -0.000001  -0.000113   0.000000   0.000306
    16  H   -0.000011  -0.000113   0.000000   0.000306  -0.000011   0.000137
    17  H   -0.000011   0.000541  -0.000011  -0.003577   0.000555   0.000307
    18  H    0.000555   0.000307  -0.000001   0.000137  -0.000001  -0.000113
    19  H   -0.000011  -0.003577   0.000555   0.000306  -0.000001   0.000137
              13         14         15         16         17         18
     1  Fe   0.002525   0.002524   0.002521   0.002521   0.002521   0.002525
     2  O    0.000306   0.000307   0.000542  -0.003577   0.000137   0.000307
     3  H   -0.000011  -0.000011  -0.000011   0.000555  -0.000001  -0.000001
     4  O    0.000543   0.000137  -0.003576   0.000306  -0.000113   0.000543
     5  H   -0.000011  -0.000001   0.000555  -0.000001   0.000000  -0.000011
     6  O   -0.000113  -0.000113   0.000306   0.000543   0.000306  -0.003580
     7  H    0.000000   0.000000  -0.000001  -0.000011  -0.000011   0.000555
     8  O    0.000307   0.000307   0.000137  -0.000113   0.000541   0.000307
     9  H   -0.000011  -0.000011  -0.000001   0.000000  -0.000011  -0.000001
    10  O    0.000138   0.000543  -0.000113   0.000306  -0.003577   0.000137
    11  H   -0.000001  -0.000011   0.000000  -0.000011   0.000555  -0.000001
    12  O   -0.003581  -0.003580   0.000306   0.000137   0.000307  -0.000113
    13  H    0.001631   0.000555  -0.000011  -0.000001  -0.000001   0.000000
    14  H    0.000555   0.001630  -0.000001  -0.000001  -0.000011   0.000000
    15  H   -0.000011  -0.000001   0.001630  -0.000011   0.000000  -0.000011
    16  H   -0.000001  -0.000001  -0.000011   0.001631  -0.000001  -0.000011
    17  H   -0.000001  -0.000011   0.000000  -0.000001   0.001631  -0.000001
    18  H    0.000000   0.000000  -0.000011  -0.000011  -0.000001   0.001631
    19  H   -0.000001  -0.000001  -0.000001   0.000000  -0.000011  -0.000011
              19
     1  Fe   0.002522
     2  O   -0.000113
     3  H    0.000000
     4  O    0.000306
     5  H   -0.000011
     6  O    0.000542
     7  H   -0.000011
     8  O   -0.003577
     9  H    0.000555
    10  O    0.000306
    11  H   -0.000001
    12  O    0.000137
    13  H   -0.000001
    14  H   -0.000001
    15  H   -0.000001
    16  H    0.000000
    17  H   -0.000011
    18  H   -0.000011
    19  H    0.001631
 Mulliken charges and spin densities:
               1          2
     1  Fe   1.184693   4.524251
     2  O   -0.643442   0.074752
     3  H    0.472968   0.002261
     4  O   -0.643138   0.074734
     5  H    0.472917   0.002261
     6  O   -0.643432   0.074828
     7  H    0.472954   0.002260
     8  O   -0.643435   0.074756
     9  H    0.472988   0.002260
    10  O   -0.643184   0.074724
    11  H    0.472947   0.002262
    12  O   -0.643442   0.074823
    13  H    0.472963   0.002261
    14  H    0.472916   0.002262
    15  H    0.472908   0.002260
    16  H    0.472990   0.002260
    17  H    0.472933   0.002262
    18  H    0.472927   0.002263
    19  H    0.472970   0.002261
 Sum of Mulliken charges =   3.00000   5.00000
 Mulliken charges and spin densities with hydrogens summed into heavy atoms:
               1          2
     1  Fe   1.184693   4.524251
     2  O    0.302517   0.079273
     4  O    0.302687   0.079256
     6  O    0.302448   0.079350
     8  O    0.302523   0.079277
    10  O    0.302696   0.079247
    12  O    0.302437   0.079346
 Electronic spatial extent (au):  <R**2>=           1047.5617
 Charge=              3.0000 electrons
 Dipole moment (field-independent basis, Debye):
    X=              0.0002    Y=             -0.0001    Z=             -0.0002  Tot=              0.0003
 Quadrupole moment (field-independent basis, Debye-Ang):
   XX=             -7.8188   YY=             -7.8117   ZZ=             -7.8533
   XY=             -0.0027   XZ=             -0.0043   YZ=              0.0016
 Traceless Quadrupole moment (field-independent basis, Debye-Ang):
   XX=              0.0092   YY=              0.0162   ZZ=             -0.0254
   XY=             -0.0027   XZ=             -0.0043   YZ=              0.0016
 Octapole moment (field-independent basis, Debye-Ang**2):
  XXX=             -0.0039  YYY=             -0.0056  ZZZ=             -0.0022  XYY=              0.0012
  XXY=             -0.0024  XXZ=             -0.0031  XZZ=              0.0032  YZZ=              0.0075
  YYZ=              0.0048  XYZ=             -0.0004
 Hexadecapole moment (field-independent basis, Debye-Ang**3):
 XXXX=           -163.1093 YYYY=           -172.4116 ZZZZ=           -187.6086 XXXY=              2.5207
 XXXZ=            -27.4655 YYYX=             10.5731 YYYZ=            -23.7252 ZZZX=             -4.4181
 ZZZY=            -17.1883 XXYY=            -38.8316 XXZZ=            -23.7673 YYZZ=            -14.3888
 XXYZ=             40.9655 YYXZ=             31.8478 ZZXY=            -13.1147
 N-N= 6.843487343710D+02 E-N=-5.404247075661D+03  KE= 1.715569622208D+03
                          Isotropic Fermi Contact Couplings
        Atom                 a.u.       MegaHertz       Gauss      10(-4) cm-1
     1  Fe(57)             0.21557       6.25316       2.23128       2.08583
     2  O(17)              0.12627     -15.30933      -5.46275      -5.10664
     3  H(1)               0.00169       1.51033       0.53892       0.50379
     4  O(17)              0.12628     -15.30963      -5.46286      -5.10674
     5  H(1)               0.00169       1.51078       0.53908       0.50394
     6  O(17)              0.12630     -15.31306      -5.46408      -5.10789
     7  H(1)               0.00169       1.50929       0.53855       0.50344
     8  O(17)              0.12628     -15.30959      -5.46284      -5.10673
     9  H(1)               0.00169       1.51037       0.53894       0.50380
    10  O(17)              0.12627     -15.30922      -5.46271      -5.10660
    11  H(1)               0.00169       1.51104       0.53918       0.50403
    12  O(17)              0.12630     -15.31297      -5.46405      -5.10786
    13  H(1)               0.00169       1.51002       0.53881       0.50369
    14  H(1)               0.00169       1.51145       0.53932       0.50417
    15  H(1)               0.00169       1.51008       0.53883       0.50371
    16  H(1)               0.00169       1.51062       0.53903       0.50389
    17  H(1)               0.00169       1.51052       0.53899       0.50385
    18  H(1)               0.00169       1.51203       0.53953       0.50436
    19  H(1)               0.00169       1.51040       0.53895       0.50382
 --------------------------------------------------------
       Center         ----  Spin Dipole Couplings  ----
                      3XX-RR        3YY-RR        3ZZ-RR
 --------------------------------------------------------
     1   Atom        0.000181     -0.000047     -0.000134
     2   Atom        0.068801     -0.019490     -0.049312
     3   Atom        0.008615     -0.022670      0.014056
     4   Atom        0.050947     -0.074500      0.023553
     5   Atom        0.057974     -0.036182     -0.021792
     6   Atom       -0.119723      0.093961      0.025761
     7   Atom       -0.034778     -0.003596      0.038374
     8   Atom        0.068842     -0.019413     -0.049429
     9   Atom       -0.011361      0.042573     -0.031212
    10   Atom        0.051051     -0.074700      0.023649
    11   Atom        0.057953     -0.036176     -0.021777
    12   Atom       -0.119720      0.094033      0.025687
    13   Atom       -0.034775     -0.003568      0.038343
    14   Atom       -0.010531      0.028220     -0.017690
    15   Atom       -0.009857     -0.008327      0.018184
    16   Atom       -0.011384      0.042589     -0.031205
    17   Atom       -0.009846     -0.008293      0.018139
    18   Atom       -0.010550      0.028223     -0.017672
    19   Atom        0.008600     -0.022666      0.014066
 --------------------------------------------------------
                        XY            XZ            YZ
 --------------------------------------------------------
     1   Atom        0.000014     -0.000029     -0.000096
     2   Atom        0.133116      0.048686      0.169039
     3   Atom        0.023539      0.050865      0.020987
     4   Atom       -0.135545     -0.172048     -0.010114
     5   Atom       -0.003551     -0.036824      0.005833
     6   Atom        0.002620      0.123368     -0.159068
     7   Atom        0.001145     -0.009000     -0.050464
     8   Atom        0.133051      0.048701      0.169066
     9   Atom        0.045781      0.013472      0.015453
    10   Atom       -0.135583     -0.171967     -0.010075
    11   Atom       -0.003513     -0.036845      0.005820
    12   Atom        0.002516      0.123409     -0.159022
    13   Atom        0.001141     -0.008987     -0.050474
    14   Atom       -0.042981      0.017725     -0.034700
    15   Atom       -0.023965     -0.036250      0.042874
    16   Atom        0.045759      0.013483      0.015480
    17   Atom       -0.023979     -0.036248      0.042874
    18   Atom       -0.042965      0.017727     -0.034713
    19   Atom        0.023545      0.050859      0.020995
 --------------------------------------------------------


 ---------------------------------------------------------------------------------
              Anisotropic Spin Dipole Couplings in Principal Axis System
 ---------------------------------------------------------------------------------

       Atom             a.u.   MegaHertz   Gauss  10(-4) cm-1        Axes

              Baa    -0.0002    -0.003    -0.001    -0.001  0.0456  0.5371  0.8423
     1 Fe(57) Bbb     0.0000     0.000     0.000     0.000 -0.1594  0.8363 -0.5246
              Bcc     0.0002     0.003     0.001     0.001  0.9862  0.1104 -0.1237
 
              Baa    -0.2164    15.660     5.588     5.224 -0.2219  0.7171 -0.6607
     2 O(17)  Bbb    -0.0233     1.689     0.603     0.563  0.7513 -0.3062 -0.5846
              Bcc     0.2398   -17.349    -6.191    -5.787  0.6216  0.6261  0.4708
 
              Baa    -0.0405   -21.587    -7.703    -7.201  0.7520 -0.3064 -0.5837
     3 H(1)   Bbb    -0.0322   -17.171    -6.127    -5.728  0.0267  0.8989 -0.4374
              Bcc     0.0726    38.758    13.830    12.928  0.6587  0.3133  0.6841
 
              Baa    -0.2165    15.663     5.589     5.224  0.6208  0.6264  0.4714
     4 O(17)  Bbb    -0.0232     1.682     0.600     0.561 -0.2219  0.7171 -0.6607
              Bcc     0.2397   -17.345    -6.189    -5.786  0.7519 -0.3056 -0.5842
 
              Baa    -0.0405   -21.587    -7.703    -7.201 -0.2213  0.7173 -0.6607
     5 H(1)   Bbb    -0.0322   -17.173    -6.128    -5.728  0.2952  0.6949  0.6557
              Bcc     0.0726    38.760    13.831    12.929  0.9295 -0.0499 -0.3655
 
              Baa    -0.2165    15.665     5.590     5.225  0.7524 -0.3054 -0.5837
     6 O(17)  Bbb    -0.0232     1.682     0.600     0.561  0.6204  0.6265  0.4718
              Bcc     0.2397   -17.347    -6.190    -5.786 -0.2216  0.7171 -0.6608
 
              Baa    -0.0405   -21.591    -7.704    -7.202  0.6204  0.6265  0.4718
     7 H(1)   Bbb    -0.0322   -17.175    -6.129    -5.729  0.7807 -0.5511 -0.2946
              Bcc     0.0727    38.767    13.833    12.931 -0.0755 -0.5511  0.8310
 
              Baa    -0.2164    15.661     5.588     5.224 -0.2215  0.7169 -0.6611
     8 O(17)  Bbb    -0.0233     1.688     0.602     0.563  0.7514 -0.3067 -0.5842
              Bcc     0.2398   -17.349    -6.191    -5.787  0.6216  0.6262  0.4707
 
              Baa    -0.0405   -21.585    -7.702    -7.200  0.7516 -0.3056 -0.5845
     9 H(1)   Bbb    -0.0322   -17.170    -6.127    -5.727  0.4380 -0.4313  0.7888
              Bcc     0.0726    38.755    13.829    12.927  0.4932  0.8489  0.1903
 
              Baa    -0.2164    15.661     5.588     5.224  0.6206  0.6271  0.4708
    10 O(17)  Bbb    -0.0233     1.686     0.602     0.562 -0.2225  0.7165 -0.6611
              Bcc     0.2397   -17.347    -6.190    -5.786  0.7519 -0.3055 -0.5842
 
              Baa    -0.0405   -21.586    -7.702    -7.200 -0.2219  0.7167 -0.6611
    11 H(1)   Bbb    -0.0322   -17.172    -6.127    -5.728  0.2949  0.6956  0.6551
              Bcc     0.0726    38.757    13.830    12.928  0.9294 -0.0496 -0.3657
 
              Baa    -0.2165    15.665     5.589     5.225  0.7524 -0.3051 -0.5838
    12 O(17)  Bbb    -0.0233     1.683     0.601     0.561  0.6202  0.6266  0.4720
              Bcc     0.2397   -17.348    -6.190    -5.787 -0.2218  0.7172 -0.6607
 
              Baa    -0.0405   -21.589    -7.703    -7.201  0.6202  0.6266  0.4720
    13 H(1)   Bbb    -0.0322   -17.174    -6.128    -5.729  0.7809 -0.5508 -0.2947
              Bcc     0.0727    38.763    13.832    12.930 -0.0754 -0.5513  0.8309
 
              Baa    -0.0405   -21.589    -7.704    -7.201  0.6202  0.6266  0.4720
    14 H(1)   Bbb    -0.0322   -17.174    -6.128    -5.729 -0.6151  0.0151  0.7883
              Bcc     0.0727    38.763    13.832    12.930 -0.4868  0.7792 -0.3948
 
              Baa    -0.0405   -21.587    -7.703    -7.201 -0.2219  0.7167 -0.6612
    15 H(1)   Bbb    -0.0322   -17.174    -6.128    -5.728  0.8567  0.4672  0.2188
              Bcc     0.0726    38.760    13.831    12.929 -0.4657  0.5178  0.7176
 
              Baa    -0.0405   -21.584    -7.702    -7.200  0.7515 -0.3051 -0.5849
    16 H(1)   Bbb    -0.0322   -17.170    -6.127    -5.727  0.4384 -0.4315  0.7884
              Bcc     0.0726    38.754    13.828    12.927  0.4929  0.8489  0.1906
 
              Baa    -0.0405   -21.585    -7.702    -7.200 -0.2225  0.7161 -0.6616
    17 H(1)   Bbb    -0.0322   -17.172    -6.127    -5.728  0.8564  0.4679  0.2183
              Bcc     0.0726    38.757    13.829    12.928 -0.4658  0.5180  0.7174
 
              Baa    -0.0405   -21.588    -7.703    -7.201  0.6203  0.6265  0.4718
    18 H(1)   Bbb    -0.0322   -17.173    -6.128    -5.728 -0.6151  0.0154  0.7883
              Bcc     0.0726    38.761    13.831    12.929 -0.4866  0.7792 -0.3950
 
              Baa    -0.0405   -21.586    -7.703    -7.200  0.7520 -0.3069 -0.5833
    19 H(1)   Bbb    -0.0322   -17.171    -6.127    -5.728  0.0271  0.8987 -0.4378
              Bcc     0.0726    38.758    13.830    12.928  0.6586  0.3134  0.6842
 

 ---------------------------------------------------------------------------------

 No NMR shielding tensors so no spin-rotation constants.
 Leave Link  601 at Wed Mar  5 19:55:03 2025, MaxMem= 13421772800 cpu:              29.6 elap:               0.4
 (Enter /gpfs/fs1/soft/improv/software/custom-built/gaussian/g16/l9999.exe)

 Test job not archived.
 1\1\GINC-I605\SP\UM08HX\Gen\Fe1H12O6(3+,6)\HHARB\05-Mar-2025\0\\#p M08
 HX scrf=(cpcm,solvent=water) geom=allcheck guess=read chkbasis IOp(3/1
 74=1000000) IOp(3/175=0) IOp(3/176=1624700)\\Title\\3,6\Fe,-0.78475674
 26,0.7129662605,0.0318116323\O,-1.3195778852,2.6524799524,-0.287411445
 4\H,-1.4362239647,3.0827493847,-1.1517350875\O,1.1788246028,1.25473646
 02,0.035848856\H,1.939539329,0.6617481909,0.1602106203\O,-0.8733217458
 ,1.0199511892,2.0435002979\H,-1.654126943,0.8987607557,2.6104946174\O,
 -0.2497420771,-1.2265066629,0.3509084046\H,-0.0647059967,-1.8928040342
 ,-0.3329335016\O,-2.748402684,0.1713003231,0.0278036337\H,-3.509138469
 3,0.7645755789,-0.0957225458\O,-0.6966141628,0.4057707303,-1.979875710
 7\H,0.0840390508,0.5266005959,-2.5471495025\H,-1.4274413062,0.11118759
 69,-2.5499076591\H,1.5282782017,2.1541609051,-0.0855033606\H,-1.504024
 6911,3.3190153132,0.396356578\H,-3.0978736549,-0.7282871679,0.14834492
 5\H,-0.1427682078,1.3146526451,2.6138213333\H,-0.133480223,-1.65697824
 71,1.2151833245\\Version=ES64L-G16RevC.02\State=6-A\HF=-1721.6051144\S
 2=8.755079\S2-1=0.\S2A=8.750008\RMSD=4.547e-09\Dipole=-0.0001075,-0.00
 00468,-0.0000176\Quadrupole=0.0043484,0.0021568,-0.0065051,-0.0029384,
 0.0088839,0.0130017\PG=C01 [X(Fe1H12O6)]\\@


 HICKORY, DICKORY, DOCK
 TWO MICE RAN UP THE CLOCK
 THE CLOCK STRUCK ONE...
 THE OTHER ESCAPED WITH MINOR INJURIES.
 Job cpu time:       0 days  0 hours 43 minutes 12.0 seconds.
 Elapsed time:       0 days  0 hours  0 minutes 23.4 seconds.
 File lengths (MBytes):  RWF=    119 Int=      0 D2E=      0 Chk=    268 Scr=      1
 Normal termination of Gaussian 16 at Wed Mar  5 19:55:03 2025.
