19
Fe_2_OLYP.log	Energy: -1080539.8384027
Fe         0.00001        0.00002       -0.00001
O         -1.86152        0.33187       -0.89441
H         -2.03598        0.85182       -1.70302
O         -0.25086        1.72179        1.16081
H          0.37652        2.07730        1.82008
O         -0.92069       -1.14053        1.49211
H         -1.08319       -2.10380        1.47327
O          1.86130       -0.33220        0.89472
H          2.72547        0.00254        0.58523
O          0.25100       -1.72152       -1.16117
H         -0.37647       -2.07708       -1.82032
O          0.92075        1.14057       -1.49205
H          1.08325        2.10383       -1.47316
H          1.27176        0.81371       -2.34327
H         -1.01823        2.32651        1.14950
H         -2.72552       -0.00295       -0.58453
H          1.01851       -2.32605       -1.15014
H         -1.27165       -0.81363        2.34335
H          2.03541       -0.85241        1.70324
