 Entering Gaussian System, Link 0=g16
 Input=Fe_2_OPBE.com
 Output=Fe_2_OPBE.log
 Initial command:
 /gpfs/fs1/soft/improv/software/custom-built/gaussian/g16/l1.exe "/scratch/Gau-3631062.inp" -scrdir="/scratch/"
 Default CPUs for threads: 0-127
 Default linda workers: i695.lcrc.anl.gov
 Default is to use 128 SMP processors on each worker.
 Entering Link 1 = /gpfs/fs1/soft/improv/software/custom-built/gaussian/g16/l1.exe PID=   3631063.
  
 Copyright (c) 1988-2021, Gaussian, Inc.  All Rights Reserved.
  
 This is part of the Gaussian(R) 16 program.  It is based on
 the Gaussian(R) 09 system (copyright 2009, Gaussian, Inc.),
 the Gaussian(R) 03 system (copyright 2003, Gaussian, Inc.),
 the Gaussian(R) 98 system (copyright 1998, Gaussian, Inc.),
 the Gaussian(R) 94 system (copyright 1995, Gaussian, Inc.),
 the Gaussian 92(TM) system (copyright 1992, Gaussian, Inc.),
 the Gaussian 90(TM) system (copyright 1990, Gaussian, Inc.),
 the Gaussian 88(TM) system (copyright 1988, Gaussian, Inc.),
 the Gaussian 86(TM) system (copyright 1986, Carnegie Mellon
 University), and the Gaussian 82(TM) system (copyright 1983,
 Carnegie Mellon University). Gaussian is a federally registered
 trademark of Gaussian, Inc.
  
 This software contains proprietary and confidential information,
 including trade secrets, belonging to Gaussian, Inc.
  
 This software is provided under written license and may be
 used, copied, transmitted, or stored only in accord with that
 written license.
  
 The following legend is applicable only to US Government
 contracts under FAR:
  
                    RESTRICTED RIGHTS LEGEND
  
 Use, reproduction and disclosure by the US Government is
 subject to restrictions as set forth in subparagraphs (a)
 and (c) of the Commercial Computer Software - Restricted
 Rights clause in FAR 52.227-19.
  
 Gaussian, Inc.
 340 Quinnipiac St., Bldg. 40, Wallingford CT 06492
  
  
 ---------------------------------------------------------------
 Warning -- This program may not be used in any manner that
 competes with the business of Gaussian, Inc. or will provide
 assistance to any competitor of Gaussian, Inc.  The licensee
 of this program is prohibited from giving any competitor of
 Gaussian, Inc. access to this program.  By using this program,
 the user acknowledges that Gaussian, Inc. is engaged in the
 business of creating and licensing software in the field of
 computational chemistry and represents and warrants to the
 licensee that it is not a competitor of Gaussian, Inc. and that
 it will not use this program in any manner prohibited above.
 ---------------------------------------------------------------
  

 Cite this work as:
 Gaussian 16, Revision C.02,
 M. J. Frisch, G. W. Trucks, H. B. Schlegel, G. E. Scuseria, 
 M. A. Robb, J. R. Cheeseman, G. Scalmani, V. Barone, 
 G. A. Petersson, H. Nakatsuji, X. Li, M. Caricato, A. V. Marenich, 
 J. Bloino, B. G. Janesko, R. Gomperts, B. Mennucci, H. P. Hratchian, 
 J. V. Ortiz, A. F. Izmaylov, J. L. Sonnenberg, D. Williams-Young, 
 F. Ding, F. Lipparini, F. Egidi, J. Goings, B. Peng, A. Petrone, 
 T. Henderson, D. Ranasinghe, V. G. Zakrzewski, J. Gao, N. Rega, 
 G. Zheng, W. Liang, M. Hada, M. Ehara, K. Toyota, R. Fukuda, 
 J. Hasegawa, M. Ishida, T. Nakajima, Y. Honda, O. Kitao, H. Nakai, 
 T. Vreven, K. Throssell, J. A. Montgomery, Jr., J. E. Peralta, 
 F. Ogliaro, M. J. Bearpark, J. J. Heyd, E. N. Brothers, K. N. Kudin, 
 V. N. Staroverov, T. A. Keith, R. Kobayashi, J. Normand, 
 K. Raghavachari, A. P. Rendell, J. C. Burant, S. S. Iyengar, 
 J. Tomasi, M. Cossi, J. M. Millam, M. Klene, C. Adamo, R. Cammi, 
 J. W. Ochterski, R. L. Martin, K. Morokuma, O. Farkas, 
 J. B. Foresman, and D. J. Fox, Gaussian, Inc., Wallingford CT, 2019.
 
 ******************************************
 Gaussian 16:  ES64L-G16RevC.02  7-Dec-2021
                 5-Mar-2025 
 ******************************************
 %chk=Fe_2_OPBE.chk
 SetSPE:  set environment variable "OMP_PROC_BIND" = "true"
 SetSPE:  set environment variable "OMP_PLACES" = "{0},{1},{2},{3},{4},{5},{6},{7},{8},{9},{10},{11},{12},{13},{14},{15},{16},{17},{18},{19},{20},{21},{22},{23},{24},{25},{26},{27},{28},{29},{30},{31},{32},{33},{34},{35},{36},{37},{38},{39},{40},{41},{42},{43},{44},{45},{46},{47},{48},{49},{50},{51},{52},{53},{54},{55},{56},{57},{58},{59},{60},{61},{62},{63},{64},{65},{66},{67},{68},{69},{70},{71},{72},{73},{74},{75},{76},{77},{78},{79},{80},{81},{82},{83},{84},{85},{86},{87},{88},{89},{90},{91},{92},{93},{94},{95},{96},{97},{98},{99},{100},{101},{102},{103},{104},{105},{106},{107},{108},{109},{110},{111},{112},{113},{114},{115},{116},{117},{118},{119},{120},{121},{122},{123},{124},{125},{126},{127}"
 SetLPE:    new flags="-opt 'Tsnet.Node.lindarsharg: ssh'  -nodelist 'i695.lcrc.anl.gov' -env GAUSS_MDEF=13421772800 -env GAUSS_EXEDIR="/gpfs/fs1/soft/improv/software/custom-built/gaussian/g16/bsd:/gpfs/fs1/soft/improv/software/custom-built/gaussian/g16" -env "OMP_PROC_BIND=true" -env "OMP_PLACES={0},{1},{2},{3},{4},{5},{6},{7},{8},{9},{10},{11},{12},{13},{14},{15},{16},{17},{18},{19},{20},{21},{22},{23},{24},{25},{26},{27},{28},{29},{30},{31},{32},{33},{34},{35},{36},{37},{38},{39},{40},{41},{42},{43},{44},{45},{46},{47},{48},{49},{50},{51},{52},{53},{54},{55},{56},{57},{58},{59},{60},{61},{62},{63},{64},{65},{66},{67},{68},{69},{70},{71},{72},{73},{74},{75},{76},{77},{78},{79},{80},{81},{82},{83},{84},{85},{86},{87},{88},{89},{90},{91},{92},{93},{94},{95},{96},{97},{98},{99},{100},{101},{102},{103},{104},{105},{106},{107},{108},{109},{110},{111},{112},{113},{114},{115},{116},{117},{118},{119},{120},{121},{122},{123},{124},{125},{126},{127}" -env GAUSS_ADEF="0,1,2,3,4,5,6,7,8,9,10,11,12,13,14,15,16,17,18,19,20,21,22,23,24,25,26,27,28,29,30,31,32,33,34,35,36,37,38,39,40,41,42,43,44,45,46,47,48,49,50,51,52,53,54,55,56,57,58,59,60,61,62,63,64,65,66,67,68,69,70,71,72,73,74,75,76,77,78,79,80,81,82,83,84,85,86,87,88,89,90,91,92,93,94,95,96,97,98,99,100,101,102,103,104,105,106,107,108,109,110,111,112,113,114,115,116,117,118,119,120,121,122,123,124,125,126,127""
 Will use up to    1 processors via Linda.
 ----------------------------------------------------------------------
 #p OPBE 6-31+G(2df,p) opt=(cartesian,calcall,maxcycles=500) freq scf=(
 maxcycles=500,xqc,maxconventional=50) IOp(3/174=1000000) IOp(3/175=205
 5000) IOp(3/176=837000)
 ----------------------------------------------------------------------
 1/6=500,10=4,18=10,26=3,38=1/1,3;
 2/12=2,17=6,18=5,29=2,40=1/2;
 3/5=1,6=6,7=114,11=2,25=1,30=1,71=2,74=2009,140=1,174=1000000,175=2055000,176=837000/1,2,3;
 4//1;
 5/5=2,7=500,8=3,13=1,38=5,85=50/2,8;
 8/6=4,10=90,11=11/1;
 11/6=1,8=1,9=11,15=111,16=1/1,2,10;
 10/6=1/2;
 6/7=2,8=2,9=2,10=2,18=1,28=1/1;
 7/7=1,10=1,25=1/1,2,3,16;
 1/6=500,10=4,18=10,26=3/3(3);
 2/29=1/2;
 7/7=1,8=1,9=1,25=1,44=-1/16;
 99/12=1/99;
 2/29=1/2;
 3/5=1,6=6,7=114,11=2,25=1,30=1,71=2,74=2009,140=1,174=1000000,175=2055000,176=837000/1,2,3;
 4/5=5,16=3,69=1/1;
 5/5=2,7=500,8=3,13=1,38=5,85=50/2,8;
 8/6=4,10=90,11=11/1;
 11/6=1,8=1,9=11,15=111,16=1/1,2,10;
 10/6=1/2;
 7/7=1,10=1,25=1/1,2,3,16;
 1/6=500,10=4,18=10,26=3/3(-8);
 2/29=1/2;
 6/7=2,8=2,9=2,10=2,18=1,19=2,28=1/1;
 7/7=1,8=1,9=1,25=1,44=-1/16;
 99/12=1/99;
 Leave Link    1 at Wed Mar  5 20:34:01 2025, MaxMem=           0 cpu:               1.8 elap:               0.0
 (Enter /gpfs/fs1/soft/improv/software/custom-built/gaussian/g16/l101.exe)
 -----
 Title
 -----
 Symbolic Z-matrix:
 Charge =  3 Multiplicity = 6
 Fe                   -0.79304   0.81881  -0.09491 
 O                    -1.20497   2.57394  -0.35687 
 H                    -2.12106   2.64974  -0.63312 
 O                     0.99012   1.19063  -0.05794 
 H                     1.42696   0.5998    0.55971 
 O                    -0.81752   1.03069   1.71365 
 H                    -1.02108   0.1906    2.13133 
 O                    -0.38507  -0.93351   0.17118 
 H                    -1.15682  -1.47369  -0.01433 
 O                    -2.57341   0.45178  -0.12186 
 H                    -2.77756  -0.08744  -0.88929 
 O                    -0.76966   0.60461  -1.90111 
 H                     0.09872   0.83457  -2.23949 
 H                    -0.96534  -0.30999  -2.11742 
 H                     1.12208   2.09943   0.22124 
 H                    -1.07671   3.0584    0.46184 
 H                    -2.81407  -0.02398   0.6765 
 H                     0.0422    1.33615   2.01181 
 H                    -0.11532  -1.06446   1.08312 
 
 ITRead=  0  0  0  0  0  0  0  0  0  0  0  0  0  0  0  0  0  0  0
 MicOpt= -1 -1 -1 -1 -1 -1 -1 -1 -1 -1 -1 -1 -1 -1 -1 -1 -1 -1 -1
 NAtoms=     19 NQM=       19 NQMF=       0 NMMI=      0 NMMIF=      0
                NMic=       0 NMicF=      0.
                    Isotopes and Nuclear Properties:
 (Nuclear quadrupole moments (NQMom) in fm**2, nuclear magnetic moments (NMagM)
  in nuclear magnetons)

  Atom         1           2           3           4           5           6           7           8           9          10
 IAtWgt=          56          16           1          16           1          16           1          16           1          16
 AtmWgt=  55.9349393  15.9949146   1.0078250  15.9949146   1.0078250  15.9949146   1.0078250  15.9949146   1.0078250  15.9949146
 NucSpn=           0           0           1           0           1           0           1           0           1           0
 AtZEff=  -0.0000000  -0.0000000  -0.0000000  -0.0000000  -0.0000000  -0.0000000  -0.0000000  -0.0000000  -0.0000000  -0.0000000
 NQMom=    0.0000000   0.0000000   0.0000000   0.0000000   0.0000000   0.0000000   0.0000000   0.0000000   0.0000000   0.0000000
 NMagM=    0.0000000   0.0000000   2.7928460   0.0000000   2.7928460   0.0000000   2.7928460   0.0000000   2.7928460   0.0000000
 AtZNuc=  26.0000000   8.0000000   1.0000000   8.0000000   1.0000000   8.0000000   1.0000000   8.0000000   1.0000000   8.0000000

  Atom        11          12          13          14          15          16          17          18          19
 IAtWgt=           1          16           1           1           1           1           1           1           1
 AtmWgt=   1.0078250  15.9949146   1.0078250   1.0078250   1.0078250   1.0078250   1.0078250   1.0078250   1.0078250
 NucSpn=           1           0           1           1           1           1           1           1           1
 AtZEff=  -0.0000000  -0.0000000  -0.0000000  -0.0000000  -0.0000000  -0.0000000  -0.0000000  -0.0000000  -0.0000000
 NQMom=    0.0000000   0.0000000   0.0000000   0.0000000   0.0000000   0.0000000   0.0000000   0.0000000   0.0000000
 NMagM=    2.7928460   0.0000000   2.7928460   2.7928460   2.7928460   2.7928460   2.7928460   2.7928460   2.7928460
 AtZNuc=   1.0000000   8.0000000   1.0000000   1.0000000   1.0000000   1.0000000   1.0000000   1.0000000   1.0000000
 Leave Link  101 at Wed Mar  5 20:34:02 2025, MaxMem= 13421772800 cpu:               0.5 elap:               0.1
 (Enter /gpfs/fs1/soft/improv/software/custom-built/gaussian/g16/l103.exe)

 GradGradGradGradGradGradGradGradGradGradGradGradGradGradGradGradGradGrad
 Berny optimization.
 Initialization pass.
 No Z-matrix variables, so optimization will use Cartesian coordinates.
 Trust Radius=3.00D-01 FncErr=1.00D-07 GrdErr=1.00D-06 EigMax=2.50D+02 EigMin=1.00D-04
 Number of steps in this run=    114 maximum allowed number of steps=    114.
 GradGradGradGradGradGradGradGradGradGradGradGradGradGradGradGradGradGrad

 Leave Link  103 at Wed Mar  5 20:34:02 2025, MaxMem= 13421772800 cpu:               0.4 elap:               0.1
 (Enter /gpfs/fs1/soft/improv/software/custom-built/gaussian/g16/l202.exe)
 ---------------------------------------------------------------------------------------------------
                            Z-MATRIX (ANGSTROMS AND DEGREES)
   CD    Cent   Atom    N1       Length/X        N2       Alpha/Y        N3        Beta/Z          J
 ---------------------------------------------------------------------------------------------------
      1      1  Fe       0  -0.793037          0.818805         -0.094905
      2      2  O        0  -1.204971          2.573941         -0.356874
      3      3  H        0  -2.121063          2.649743         -0.633122
      4      4  O        0   0.990122          1.190635         -0.057941
      5      5  H        0   1.426962          0.599798          0.559707
      6      6  O        0  -0.817519          1.030691          1.713650
      7      7  H        0  -1.021079          0.190602          2.131326
      8      8  O        0  -0.385068         -0.933506          0.171177
      9      9  H        0  -1.156817         -1.473692         -0.014327
     10     10  O        0  -2.573405          0.451778         -0.121857
     11     11  H        0  -2.777557         -0.087440         -0.889285
     12     12  O        0  -0.769659          0.604612         -1.901109
     13     13  H        0   0.098725          0.834573         -2.239490
     14     14  H        0  -0.965336         -0.309994         -2.117418
     15     15  H        0   1.122081          2.099426          0.221242
     16     16  H        0  -1.076711          3.058396          0.461841
     17     17  H        0  -2.814074         -0.023981          0.676500
     18     18  H        0   0.042204          1.336153          2.011809
     19     19  H        0  -0.115315         -1.064459          1.083123
 ---------------------------------------------------------------------------------------------------
                         Z-Matrix orientation:                         
 ---------------------------------------------------------------------
 Center     Atomic      Atomic             Coordinates (Angstroms)
 Number     Number       Type             X           Y           Z
 ---------------------------------------------------------------------
      1         26           0       -0.793037    0.818805   -0.094905
      2          8           0       -1.204971    2.573941   -0.356874
      3          1           0       -2.121063    2.649743   -0.633122
      4          8           0        0.990122    1.190635   -0.057941
      5          1           0        1.426962    0.599798    0.559707
      6          8           0       -0.817519    1.030691    1.713650
      7          1           0       -1.021079    0.190602    2.131326
      8          8           0       -0.385068   -0.933506    0.171177
      9          1           0       -1.156817   -1.473692   -0.014327
     10          8           0       -2.573405    0.451778   -0.121857
     11          1           0       -2.777557   -0.087440   -0.889285
     12          8           0       -0.769659    0.604612   -1.901109
     13          1           0        0.098725    0.834573   -2.239490
     14          1           0       -0.965336   -0.309994   -2.117418
     15          1           0        1.122081    2.099426    0.221242
     16          1           0       -1.076711    3.058396    0.461841
     17          1           0       -2.814074   -0.023981    0.676500
     18          1           0        0.042204    1.336153    2.011809
     19          1           0       -0.115315   -1.064459    1.083123
 ---------------------------------------------------------------------
                    Distance matrix (angstroms):
                    1          2          3          4          5
     1  Fe   0.000000
     2  O    1.821762   0.000000
     3  H    2.325008   0.959835   0.000000
     4  O    1.821889   2.611767   3.484150   0.000000
     5  H    2.324839   3.415322   4.267739   0.959899   0.000000
     6  O    1.821090   2.611285   3.134947   2.536076   2.560263
     7  H    2.324381   3.450400   3.859988   3.136540   2.937743
     8  O    1.818745   3.640503   4.062050   2.540791   2.405292
     9  H    2.322579   4.062387   4.279649   3.421971   3.362259
    10  O    1.818006   2.536025   2.301533   3.639880   4.060711
    11  H    2.321775   3.136788   2.826442   4.064482   4.499984
    12  O    1.819010   2.540161   2.759827   2.614866   3.298603
    13  H    2.322657   2.875634   3.286750   2.383386   3.107223
    14  H    2.322591   3.387332   3.506977   3.212032   3.703756
    15  H    2.325429   2.444290   3.398642   0.959822   1.567289
    16  H    2.325125   0.959918   1.567358   2.833814   3.510364
    17  H    2.321626   3.225876   3.056824   4.060370   4.288255
    18  H    2.324547   2.949275   3.660724   2.281137   2.137375
    19  H    2.322443   4.061883   4.556733   2.758526   2.328591
                    6          7          8          9         10
     6  O    0.000000
     7  H    0.960021   0.000000
     8  O    2.534622   2.347406   0.000000
     9  H    3.061530   2.718847   0.960108   0.000000
    10  O    2.605257   2.748593   2.606473   2.392848   0.000000
    11  H    3.444886   3.505227   2.750347   2.305222   0.959885
    12  O    3.640099   4.061422   2.609231   2.833582   2.538227
    13  H    4.062670   4.557707   3.028445   3.443229   3.430916
    14  H    4.061572   4.278496   2.441955   2.411193   2.673658
    15  H    2.670492   3.447487   3.387136   4.244531   4.060675
    16  H    2.397039   3.318813   4.061790   4.557738   3.061904
    17  H    2.484803   2.318921   2.642472   2.307685   0.960023
    18  H    0.959858   1.567527   2.953276   3.665802   3.489421
    19  H    2.297892   1.869309   0.959980   1.567353   3.129403
                   11         12         13         14         15
    11  H    0.000000
    12  O    2.352526   0.000000
    13  H    3.308498   0.959935   0.000000
    14  H    2.200452   0.959991   1.567533   0.000000
    15  H    4.606825   3.212091   2.949969   3.953725   0.000000
    16  H    3.822919   3.420362   3.691102   4.243941   2.410850
    17  H    1.567497   3.349453   4.210050   3.362383   4.495491
    18  H    4.288824   4.062660   4.281159   4.558009   2.225950
    19  H    3.454344   3.481323   3.833001   3.396353   3.504877
                   16         17         18         19
    16  H    0.000000
    17  H    3.544793   0.000000
    18  H    2.573032   3.433851   0.000000
    19  H    4.278809   2.920828   2.578800   0.000000
 Stoichiometry    FeH12O6(3+,6)
 Framework group  C1[X(FeH12O6)]
 Deg. of freedom    51
 Full point group                 C1      NOp   1
 Largest Abelian subgroup         C1      NOp   1
 Largest concise Abelian subgroup C1      NOp   1
                         Standard orientation:                         
 ---------------------------------------------------------------------
 Center     Atomic      Atomic             Coordinates (Angstroms)
 Number     Number       Type             X           Y           Z
 ---------------------------------------------------------------------
      1         26           0       -0.020212   -0.029769    0.009758
      2          8           0       -0.320773   -1.687164   -0.684161
      3          1           0       -1.136997   -1.679346   -1.189137
      4          8           0        1.254785   -0.678144    1.138153
      5          1           0        1.943573   -0.019708    1.254074
      6          8           0        1.298505    0.294488   -1.203590
      7          1           0        1.382461    1.241149   -1.339326
      8          8           0        0.280919    1.626834    0.697379
      9          1           0       -0.430846    2.216032    0.436526
     10          8           0       -1.285567    0.616476   -1.124434
     11          1           0       -2.034473    0.939301   -0.618170
     12          8           0       -1.338192   -0.350985    1.221594
     13          1           0       -0.971642   -0.815184    1.977660
     14          1           0       -1.717006    0.482356    1.510774
     15          1           0        1.635434   -1.476912    0.766219
     16          1           0        0.408530   -1.930525   -1.258908
     17          1           0       -0.914804    1.335716   -1.641030
     18          1           0        2.129249   -0.056449   -0.874904
     19          1           0        1.114608    1.965515    0.362985
 ---------------------------------------------------------------------
 Rotational constants (GHZ):           2.0396930           1.9739388           1.9252729
 Leave Link  202 at Wed Mar  5 20:34:03 2025, MaxMem= 13421772800 cpu:               0.5 elap:               0.1
 (Enter /gpfs/fs1/soft/improv/software/custom-built/gaussian/g16/l301.exe)
 Standard basis: 6-31+G(2df,p) (6D, 7F)
 Ernie: Thresh=  0.10000D-02 Tol=  0.10000D-05 Strict=F.
 There are   347 symmetry adapted cartesian basis functions of A   symmetry.
 There are   317 symmetry adapted basis functions of A   symmetry.
   317 basis functions,   514 primitive gaussians,   347 cartesian basis functions
    44 alpha electrons       39 beta electrons
       nuclear repulsion energy       767.7883002195 Hartrees.
 IExCor= 2009 DFT=T Ex=O Corr=PBE ExCW=0 ScaHFX=  0.000000
 ScaDFX=  1.000000  1.000000  1.000000  1.000000 ScalE2=  1.000000  1.000000
 IRadAn=      5 IRanWt=     -1 IRanGd=            0 ICorTp=0 IEmpDi=  4
 NAtoms=   19 NActive=   19 NUniq=   19 SFac= 1.00D+00 NAtFMM=   60 NAOKFM=F Big=F
 Integral buffers will be    131072 words long.
 Raffenetti 2 integral format.
 Two-electron integral symmetry is turned on.
 R6DIni: Non-standard D2/D3 S6 parameter, value=     1.000000
 R6DIni: Non-standard D2/D3 S8 parameter, value=     2.055000
 R6DIni: Non-standard D2/D3 SR6 parameter, value=     0.837000
 Leave Link  301 at Wed Mar  5 20:34:03 2025, MaxMem= 13421772800 cpu:               0.4 elap:               0.1
 (Enter /gpfs/fs1/soft/improv/software/custom-built/gaussian/g16/l302.exe)
 NPDir=0 NMtPBC=     1 NCelOv=     1 NCel=       1 NClECP=     1 NCelD=      1
         NCelK=      1 NCelE2=     1 NClLst=     1 CellRange=     0.0.
 One-electron integrals computed using PRISM.
 One-electron integral symmetry used in STVInt
 NBasis=   317 RedAO= T EigKep=  1.64D-06  NBF=   317
 NBsUse=   317 1.00D-06 EigRej= -1.00D+00 NBFU=   317
 Precomputing XC quadrature grid using
 IXCGrd= 4 IRadAn=           5 IRanWt=          -1 IRanGd=           0 AccXCQ= 0.00D+00.
 Generated NRdTot=       0 NPtTot=           0 NUsed=           0 NTot=          32
 NSgBfM=   347   346   347   347   347 MxSgAt=    19 MxSgA2=    19.
 Leave Link  302 at Wed Mar  5 20:34:04 2025, MaxMem= 13421772800 cpu:              22.4 elap:               0.3
 (Enter /gpfs/fs1/soft/improv/software/custom-built/gaussian/g16/l303.exe)
 DipDrv:  MaxL=1.
 Leave Link  303 at Wed Mar  5 20:34:04 2025, MaxMem= 13421772800 cpu:               1.3 elap:               0.0
 (Enter /gpfs/fs1/soft/improv/software/custom-built/gaussian/g16/l401.exe)
 ExpMin= 1.26D-02 ExpMax= 6.11D+04 ExpMxC= 9.18D+03 IAcc=3 IRadAn=         5 AccDes= 0.00D+00
 Harris functional with IExCor= 2009 and IRadAn=       5 diagonalized for initial guess.
 HarFok:  IExCor= 2009 AccDes= 0.00D+00 IRadAn=         5 IDoV= 1 UseB2=F ITyADJ=14
 ICtDFT=  3500011 ScaDFX=  1.000000  1.000000  1.000000  1.000000
 FoFCou: FMM=F IPFlag=           0 FMFlag=      100000 FMFlg1=           0
         NFxFlg=           0 DoJE=T BraDBF=F KetDBF=T FulRan=T
         wScrn=  0.000000 ICntrl=       500 IOpCl=  0 I1Cent=   200000004 NGrid=           0
         NMat0=    1 NMatS0=      1 NMatT0=    0 NMatD0=    1 NMtDS0=    0 NMtDT0=    0
 Petite list used in FoFCou.
 Harris En= -1721.40897461388    
 JPrj=0 DoOrth=F DoCkMO=F.
 Initial guess <Sx>= 0.0000 <Sy>= 0.0000 <Sz>= 2.5000 <S**2>= 8.7500 S= 2.5000
 Leave Link  401 at Wed Mar  5 20:34:05 2025, MaxMem= 13421772800 cpu:              40.3 elap:               0.5
 (Enter /gpfs/fs1/soft/improv/software/custom-built/gaussian/g16/l502.exe)
 Integral symmetry usage will be decided dynamically.
 UHF open shell SCF:
 Using DIIS extrapolation, IDIIS=  1040.
 NGot= 13421772800 LenX= 13421483807 LenY= 13421362957
 Requested convergence on RMS density matrix=1.00D-08 within  50 cycles.
 Requested convergence on MAX density matrix=1.00D-06.
 Requested convergence on             energy=1.00D-06.
 No special actions if energy rises.
 Fock matrices will be formed incrementally for  20 cycles.

 Cycle   1  Pass 1  IDiag  1:
 FoFJK:  IHMeth= 1 ICntrl=     500 DoSepK=F KAlg= 0 I1Cent=           0 FoldK=F
 IRaf= 990000000 NMat=       1 IRICut=       1 DoRegI=T DoRafI=F ISym2E= 0 IDoP0=0 IntGTp=1.
 FoFCou: FMM=F IPFlag=           0 FMFlag=      100000 FMFlg1=           0
         NFxFlg=           0 DoJE=T BraDBF=F KetDBF=F FulRan=T
         wScrn=  0.000000 ICntrl=       500 IOpCl=  0 I1Cent=           0 NGrid=           0
         NMat0=    1 NMatS0=      1 NMatT0=    0 NMatD0=    1 NMtDS0=    0 NMtDT0=    0
 Symmetry not used in FoFCou.
 E= -1720.66873752564    
 DIIS: error= 2.44D-02 at cycle   1 NSaved=   1.
 NSaved= 1 IEnMin= 1 EnMin= -1720.66873752564     IErMin= 1 ErrMin= 2.44D-02
 ErrMax= 2.44D-02  0.00D+00 EMaxC= 1.00D-01 BMatC= 2.03D+00 BMatP= 2.03D+00
 IDIUse=3 WtCom= 7.56D-01 WtEn= 2.44D-01
 Coeff-Com:  0.100D+01
 Coeff-En:   0.100D+01
 Coeff:      0.100D+01
 Gap=     0.373 Goal=   None    Shift=    0.000
 Gap=    -0.158 Goal=   None    Shift=    0.000
 GapD=   -0.158 DampG=0.250 DampE=0.250 DampFc=0.1250 IDamp=-1.
 Damping current iteration by 1.25D-01
 RMSDP=6.02D-02 MaxDP=8.35D+00              OVMax= 8.61D-01

 Cycle   2  Pass 1  IDiag  1:
 RMSU=  6.23D-03    CP:  1.04D+00
 E= -1720.71369872652     Delta-E=       -0.044961200875 Rises=F Damp=T
 DIIS: error= 1.51D-02 at cycle   2 NSaved=   2.
 NSaved= 2 IEnMin= 2 EnMin= -1720.71369872652     IErMin= 2 ErrMin= 1.51D-02
 ErrMax= 1.51D-02  0.00D+00 EMaxC= 1.00D-01 BMatC= 5.26D-01 BMatP= 2.03D+00
 IDIUse=3 WtCom= 8.49D-01 WtEn= 1.51D-01
 Coeff-Com: -0.364D+00 0.136D+01
 Coeff-En:   0.308D+00 0.692D+00
 Coeff:     -0.263D+00 0.126D+01
 Gap=     0.217 Goal=   None    Shift=    0.000
 Gap=    -0.008 Goal=   None    Shift=    0.000
 RMSDP=1.59D-02 MaxDP=8.90D-01 DE=-4.50D-02 OVMax= 9.53D-01

 Cycle   3  Pass 1  IDiag  1:
 RMSU=  1.57D-02    CP:  1.02D+00  1.03D+00
 E= -1720.68337931390     Delta-E=        0.030319412619 Rises=F Damp=F
 DIIS: error= 2.64D-02 at cycle   3 NSaved=   3.
 NSaved= 3 IEnMin= 2 EnMin= -1720.71369872652     IErMin= 2 ErrMin= 1.51D-02
 ErrMax= 2.64D-02  0.00D+00 EMaxC= 1.00D-01 BMatC= 1.60D+00 BMatP= 5.26D-01
 IDIUse=2 WtCom= 0.00D+00 WtEn= 1.00D+00
 EnCoef did     3 forward-backward iterations
 Coeff-En:   0.143D-01 0.534D+00 0.452D+00
 Coeff:      0.143D-01 0.534D+00 0.452D+00
 Gap=     0.292 Goal=   None    Shift=    0.000
 Gap=     0.016 Goal=   None    Shift=    0.000
 RMSDP=2.59D-02 MaxDP=2.51D+00 DE= 3.03D-02 OVMax= 6.19D-01

 Cycle   4  Pass 1  IDiag  1:
 RMSU=  1.41D-02    CP:  1.08D+00  3.00D+00  1.49D-01
 E= -1719.64507817423     Delta-E=        1.038301139662 Rises=F Damp=F
 DIIS: error= 8.59D-02 at cycle   4 NSaved=   4.
 NSaved= 4 IEnMin= 2 EnMin= -1720.71369872652     IErMin= 2 ErrMin= 1.51D-02
 ErrMax= 8.59D-02  0.00D+00 EMaxC= 1.00D-01 BMatC= 9.75D+00 BMatP= 5.26D-01
 IDIUse=2 WtCom= 0.00D+00 WtEn= 1.00D+00
 EnCoef did   100 forward-backward iterations
 Coeff-En:   0.339D+00 0.134D-01 0.447D+00 0.201D+00
 Coeff:      0.339D+00 0.134D-01 0.447D+00 0.201D+00
 Gap=     0.217 Goal=   None    Shift=    0.000
 Gap=     0.035 Goal=   None    Shift=    0.000
 RMSDP=1.50D-02 MaxDP=1.69D+00 DE= 1.04D+00 OVMax= 5.67D-01

 Cycle   5  Pass 1  IDiag  1:
 RMSU=  4.87D-03    CP:  1.02D+00  1.97D+00  4.34D-01  5.15D-01
 E= -1720.92335533451     Delta-E=       -1.278277160278 Rises=F Damp=F
 DIIS: error= 8.74D-03 at cycle   5 NSaved=   5.
 NSaved= 5 IEnMin= 5 EnMin= -1720.92335533451     IErMin= 5 ErrMin= 8.74D-03
 ErrMax= 8.74D-03  0.00D+00 EMaxC= 1.00D-01 BMatC= 1.62D-01 BMatP= 5.26D-01
 IDIUse=3 WtCom= 9.13D-01 WtEn= 8.74D-02
 Coeff-Com:  0.345D-01 0.673D-01 0.170D+00-0.249D-01 0.753D+00
 Coeff-En:   0.000D+00 0.000D+00 0.873D-01 0.000D+00 0.913D+00
 Coeff:      0.315D-01 0.614D-01 0.163D+00-0.227D-01 0.767D+00
 Gap=     0.170 Goal=   None    Shift=    0.000
 Gap=     0.134 Goal=   None    Shift=    0.000
 RMSDP=5.92D-03 MaxDP=6.94D-01 DE=-1.28D+00 OVMax= 7.73D-02

 Cycle   6  Pass 1  IDiag  1:
 RMSU=  2.05D-03    CP:  9.91D-01  1.45D+00  5.31D-01  3.48D-01  7.33D-01
 E= -1720.94067937961     Delta-E=       -0.017324045097 Rises=F Damp=F
 DIIS: error= 3.15D-03 at cycle   6 NSaved=   6.
 NSaved= 6 IEnMin= 6 EnMin= -1720.94067937961     IErMin= 6 ErrMin= 3.15D-03
 ErrMax= 3.15D-03  0.00D+00 EMaxC= 1.00D-01 BMatC= 3.89D-02 BMatP= 1.62D-01
 IDIUse=3 WtCom= 9.69D-01 WtEn= 3.15D-02
 Coeff-Com:  0.136D-01-0.286D-03 0.740D-01-0.220D-01 0.522D+00 0.413D+00
 Coeff-En:   0.000D+00 0.000D+00 0.000D+00 0.000D+00 0.248D+00 0.752D+00
 Coeff:      0.132D-01-0.277D-03 0.717D-01-0.213D-01 0.513D+00 0.423D+00
 Gap=     0.177 Goal=   None    Shift=    0.000
 Gap=     0.120 Goal=   None    Shift=    0.000
 RMSDP=1.40D-03 MaxDP=1.49D-01 DE=-1.73D-02 OVMax= 2.28D-02

 Cycle   7  Pass 1  IDiag  1:
 RMSU=  7.00D-04    CP:  9.99D-01  1.51D+00  5.20D-01  3.73D-01  8.12D-01
                    CP:  7.77D-01
 E= -1720.94706807854     Delta-E=       -0.006388698932 Rises=F Damp=F
 DIIS: error= 3.75D-04 at cycle   7 NSaved=   7.
 NSaved= 7 IEnMin= 7 EnMin= -1720.94706807854     IErMin= 7 ErrMin= 3.75D-04
 ErrMax= 3.75D-04  0.00D+00 EMaxC= 1.00D-01 BMatC= 5.06D-04 BMatP= 3.89D-02
 IDIUse=3 WtCom= 9.96D-01 WtEn= 3.75D-03
 Coeff-Com: -0.657D-02 0.593D-02 0.676D-03-0.201D-02 0.357D-01 0.130D+00
 Coeff-Com:  0.837D+00
 Coeff-En:   0.000D+00 0.000D+00 0.000D+00 0.000D+00 0.000D+00 0.000D+00
 Coeff-En:   0.100D+01
 Coeff:     -0.655D-02 0.591D-02 0.673D-03-0.201D-02 0.356D-01 0.129D+00
 Coeff:      0.837D+00
 Gap=     0.176 Goal=   None    Shift=    0.000
 Gap=     0.120 Goal=   None    Shift=    0.000
 RMSDP=3.74D-04 MaxDP=4.70D-02 DE=-6.39D-03 OVMax= 3.35D-03

 Cycle   8  Pass 1  IDiag  1:
 RMSU=  1.80D-04    CP:  9.97D-01  1.48D+00  5.23D-01  3.68D-01  8.17D-01
                    CP:  7.53D-01  9.59D-01
 E= -1720.94713372583     Delta-E=       -0.000065647287 Rises=F Damp=F
 DIIS: error= 1.79D-04 at cycle   8 NSaved=   8.
 NSaved= 8 IEnMin= 8 EnMin= -1720.94713372583     IErMin= 8 ErrMin= 1.79D-04
 ErrMax= 1.79D-04  0.00D+00 EMaxC= 1.00D-01 BMatC= 1.22D-04 BMatP= 5.06D-04
 IDIUse=3 WtCom= 9.98D-01 WtEn= 1.79D-03
 Coeff-Com: -0.769D-02 0.811D-02-0.242D-02-0.139D-03 0.205D-02 0.577D-01
 Coeff-Com:  0.424D+00 0.518D+00
 Coeff-En:   0.000D+00 0.000D+00 0.000D+00 0.000D+00 0.000D+00 0.000D+00
 Coeff-En:   0.925D-01 0.907D+00
 Coeff:     -0.768D-02 0.810D-02-0.242D-02-0.138D-03 0.205D-02 0.576D-01
 Coeff:      0.424D+00 0.519D+00
 Gap=     0.176 Goal=   None    Shift=    0.000
 Gap=     0.120 Goal=   None    Shift=    0.000
 RMSDP=8.05D-05 MaxDP=8.43D-03 DE=-6.56D-05 OVMax= 1.42D-03

 Cycle   9  Pass 1  IDiag  1:
 RMSU=  6.63D-05    CP:  9.97D-01  1.48D+00  5.23D-01  3.67D-01  8.16D-01
                    CP:  7.53D-01  9.81D-01  9.94D-01
 E= -1720.94714955880     Delta-E=       -0.000015832975 Rises=F Damp=F
 DIIS: error= 1.19D-04 at cycle   9 NSaved=   9.
 NSaved= 9 IEnMin= 9 EnMin= -1720.94714955880     IErMin= 9 ErrMin= 1.19D-04
 ErrMax= 1.19D-04  0.00D+00 EMaxC= 1.00D-01 BMatC= 3.90D-05 BMatP= 1.22D-04
 IDIUse=3 WtCom= 9.99D-01 WtEn= 1.19D-03
 Coeff-Com: -0.634D-02 0.719D-02-0.186D-02 0.223D-03-0.211D-02 0.215D-01
 Coeff-Com:  0.151D+00 0.310D+00 0.521D+00
 Coeff-En:   0.000D+00 0.000D+00 0.000D+00 0.000D+00 0.000D+00 0.000D+00
 Coeff-En:   0.000D+00 0.000D+00 0.100D+01
 Coeff:     -0.633D-02 0.718D-02-0.186D-02 0.223D-03-0.210D-02 0.215D-01
 Coeff:      0.150D+00 0.310D+00 0.521D+00
 Gap=     0.176 Goal=   None    Shift=    0.000
 Gap=     0.120 Goal=   None    Shift=    0.000
 RMSDP=4.57D-05 MaxDP=4.99D-03 DE=-1.58D-05 OVMax= 6.49D-04

 Cycle  10  Pass 1  IDiag  1:
 RMSU=  2.44D-05    CP:  9.98D-01  1.48D+00  5.23D-01  3.67D-01  8.15D-01
                    CP:  7.64D-01  9.80D-01  9.22D-01  7.18D-01
 E= -1720.94715456399     Delta-E=       -0.000005005182 Rises=F Damp=F
 DIIS: error= 8.58D-05 at cycle  10 NSaved=  10.
 NSaved=10 IEnMin=10 EnMin= -1720.94715456399     IErMin=10 ErrMin= 8.58D-05
 ErrMax= 8.58D-05  0.00D+00 EMaxC= 1.00D-01 BMatC= 1.13D-05 BMatP= 3.90D-05
 IDIUse=1 WtCom= 1.00D+00 WtEn= 0.00D+00
 Coeff-Com: -0.301D-02 0.347D-02-0.575D-03 0.117D-03 0.443D-03-0.152D-04
 Coeff-Com: -0.120D-01 0.835D-02 0.143D+00 0.860D+00
 Coeff:     -0.301D-02 0.347D-02-0.575D-03 0.117D-03 0.443D-03-0.152D-04
 Coeff:     -0.120D-01 0.835D-02 0.143D+00 0.860D+00
 Gap=     0.176 Goal=   None    Shift=    0.000
 Gap=     0.119 Goal=   None    Shift=    0.000
 RMSDP=2.55D-05 MaxDP=3.01D-03 DE=-5.01D-06 OVMax= 2.98D-04

 Cycle  11  Pass 1  IDiag  1:
 RMSU=  9.17D-06    CP:  9.98D-01  1.48D+00  5.23D-01  3.67D-01  8.15D-01
                    CP:  7.64D-01  9.90D-01  9.40D-01  8.02D-01  1.15D+00
 E= -1720.94715591121     Delta-E=       -0.000001347226 Rises=F Damp=F
 DIIS: error= 3.53D-05 at cycle  11 NSaved=  11.
 NSaved=11 IEnMin=11 EnMin= -1720.94715591121     IErMin=11 ErrMin= 3.53D-05
 ErrMax= 3.53D-05  0.00D+00 EMaxC= 1.00D-01 BMatC= 2.04D-06 BMatP= 1.13D-05
 IDIUse=1 WtCom= 1.00D+00 WtEn= 0.00D+00
 Coeff-Com: -0.971D-03 0.115D-02-0.860D-04 0.232D-04 0.758D-03-0.281D-02
 Coeff-Com: -0.209D-01-0.393D-01-0.332D-01 0.255D+00 0.841D+00
 Coeff:     -0.971D-03 0.115D-02-0.860D-04 0.232D-04 0.758D-03-0.281D-02
 Coeff:     -0.209D-01-0.393D-01-0.332D-01 0.255D+00 0.841D+00
 Gap=     0.177 Goal=   None    Shift=    0.000
 Gap=     0.119 Goal=   None    Shift=    0.000
 RMSDP=9.87D-06 MaxDP=1.32D-03 DE=-1.35D-06 OVMax= 1.09D-04

 Cycle  12  Pass 1  IDiag  1:
 RMSU=  3.50D-06    CP:  9.98D-01  1.48D+00  5.23D-01  3.67D-01  8.15D-01
                    CP:  7.65D-01  9.93D-01  9.51D-01  8.30D-01  1.31D+00
                    CP:  1.03D+00
 E= -1720.94715617160     Delta-E=       -0.000000260384 Rises=F Damp=F
 DIIS: error= 1.04D-05 at cycle  12 NSaved=  12.
 NSaved=12 IEnMin=12 EnMin= -1720.94715617160     IErMin=12 ErrMin= 1.04D-05
 ErrMax= 1.04D-05  0.00D+00 EMaxC= 1.00D-01 BMatC= 2.58D-07 BMatP= 2.04D-06
 IDIUse=1 WtCom= 1.00D+00 WtEn= 0.00D+00
 Coeff-Com: -0.276D-03 0.336D-03 0.155D-04-0.221D-05 0.517D-03-0.190D-02
 Coeff-Com: -0.119D-01-0.283D-01-0.488D-01 0.209D-01 0.546D+00 0.523D+00
 Coeff:     -0.276D-03 0.336D-03 0.155D-04-0.221D-05 0.517D-03-0.190D-02
 Coeff:     -0.119D-01-0.283D-01-0.488D-01 0.209D-01 0.546D+00 0.523D+00
 Gap=     0.177 Goal=   None    Shift=    0.000
 Gap=     0.119 Goal=   None    Shift=    0.000
 RMSDP=3.65D-06 MaxDP=3.90D-04 DE=-2.60D-07 OVMax= 7.20D-05

 Cycle  13  Pass 1  IDiag  1:
 RMSU=  1.12D-06    CP:  9.98D-01  1.48D+00  5.22D-01  3.67D-01  8.15D-01
                    CP:  7.65D-01  9.96D-01  9.52D-01  8.35D-01  1.34D+00
                    CP:  1.13D+00  9.12D-01
 E= -1720.94715621061     Delta-E=       -0.000000039012 Rises=F Damp=F
 DIIS: error= 3.10D-06 at cycle  13 NSaved=  13.
 NSaved=13 IEnMin=13 EnMin= -1720.94715621061     IErMin=13 ErrMin= 3.10D-06
 ErrMax= 3.10D-06  0.00D+00 EMaxC= 1.00D-01 BMatC= 1.87D-08 BMatP= 2.58D-07
 IDIUse=1 WtCom= 1.00D+00 WtEn= 0.00D+00
 Coeff-Com: -0.357D-04 0.441D-04 0.464D-05-0.235D-05 0.135D-03-0.420D-03
 Coeff-Com: -0.195D-02-0.702D-02-0.193D-01-0.338D-01 0.129D+00 0.273D+00
 Coeff-Com:  0.661D+00
 Coeff:     -0.357D-04 0.441D-04 0.464D-05-0.235D-05 0.135D-03-0.420D-03
 Coeff:     -0.195D-02-0.702D-02-0.193D-01-0.338D-01 0.129D+00 0.273D+00
 Coeff:      0.661D+00
 Gap=     0.177 Goal=   None    Shift=    0.000
 Gap=     0.119 Goal=   None    Shift=    0.000
 RMSDP=1.22D-06 MaxDP=1.34D-04 DE=-3.90D-08 OVMax= 1.39D-05

 Cycle  14  Pass 1  IDiag  1:
 RMSU=  4.08D-07    CP:  9.98D-01  1.48D+00  5.22D-01  3.67D-01  8.15D-01
                    CP:  7.65D-01  9.96D-01  9.53D-01  8.40D-01  1.36D+00
                    CP:  1.16D+00  9.90D-01  6.94D-01
 E= -1720.94715621348     Delta-E=       -0.000000002874 Rises=F Damp=F
 DIIS: error= 3.57D-07 at cycle  14 NSaved=  14.
 NSaved=14 IEnMin=14 EnMin= -1720.94715621348     IErMin=14 ErrMin= 3.57D-07
 ErrMax= 3.57D-07  0.00D+00 EMaxC= 1.00D-01 BMatC= 3.40D-10 BMatP= 1.87D-08
 IDIUse=1 WtCom= 1.00D+00 WtEn= 0.00D+00
 Coeff-Com:  0.551D-05-0.789D-05-0.297D-05-0.150D-06-0.528D-05 0.717D-04
 Coeff-Com:  0.513D-03 0.563D-03-0.105D-02-0.102D-01-0.134D-01 0.246D-01
 Coeff-Com:  0.169D+00 0.830D+00
 Coeff:      0.551D-05-0.789D-05-0.297D-05-0.150D-06-0.528D-05 0.717D-04
 Coeff:      0.513D-03 0.563D-03-0.105D-02-0.102D-01-0.134D-01 0.246D-01
 Coeff:      0.169D+00 0.830D+00
 Gap=     0.177 Goal=   None    Shift=    0.000
 Gap=     0.119 Goal=   None    Shift=    0.000
 RMSDP=4.06D-07 MaxDP=4.88D-05 DE=-2.87D-09 OVMax= 3.59D-06

 Cycle  15  Pass 1  IDiag  1:
 RMSU=  1.02D-07    CP:  9.98D-01  1.48D+00  5.22D-01  3.67D-01  8.15D-01
                    CP:  7.65D-01  9.96D-01  9.53D-01  8.39D-01  1.36D+00
                    CP:  1.17D+00  1.01D+00  7.32D-01  9.98D-01
 E= -1720.94715621354     Delta-E=       -0.000000000055 Rises=F Damp=F
 DIIS: error= 6.53D-08 at cycle  15 NSaved=  15.
 NSaved=15 IEnMin=15 EnMin= -1720.94715621354     IErMin=15 ErrMin= 6.53D-08
 ErrMax= 6.53D-08  0.00D+00 EMaxC= 1.00D-01 BMatC= 1.94D-11 BMatP= 3.40D-10
 IDIUse=1 WtCom= 1.00D+00 WtEn= 0.00D+00
 Coeff-Com:  0.328D-05-0.426D-05-0.128D-05 0.952D-07-0.933D-05 0.423D-04
 Coeff-Com:  0.261D-03 0.489D-03 0.436D-03-0.238D-02-0.100D-01-0.166D-02
 Coeff-Com:  0.380D-01 0.326D+00 0.649D+00
 Coeff:      0.328D-05-0.426D-05-0.128D-05 0.952D-07-0.933D-05 0.423D-04
 Coeff:      0.261D-03 0.489D-03 0.436D-03-0.238D-02-0.100D-01-0.166D-02
 Coeff:      0.380D-01 0.326D+00 0.649D+00
 Gap=     0.177 Goal=   None    Shift=    0.000
 Gap=     0.119 Goal=   None    Shift=    0.000
 RMSDP=4.79D-08 MaxDP=7.47D-06 DE=-5.46D-11 OVMax= 6.75D-07

 Cycle  16  Pass 1  IDiag  1:
 RMSU=  2.65D-08    CP:  9.98D-01  1.48D+00  5.22D-01  3.67D-01  8.15D-01
                    CP:  7.65D-01  9.96D-01  9.53D-01  8.39D-01  1.36D+00
                    CP:  1.17D+00  1.01D+00  7.43D-01  1.01D+00  9.34D-01
 E= -1720.94715621353     Delta-E=        0.000000000009 Rises=F Damp=F
 DIIS: error= 4.79D-08 at cycle  16 NSaved=  16.
 NSaved=16 IEnMin=15 EnMin= -1720.94715621354     IErMin=16 ErrMin= 4.79D-08
 ErrMax= 4.79D-08  0.00D+00 EMaxC= 1.00D-01 BMatC= 9.40D-12 BMatP= 1.94D-11
 IDIUse=1 WtCom= 1.00D+00 WtEn= 0.00D+00
 Coeff-Com:  0.160D-05-0.196D-05-0.391D-06 0.730D-07-0.574D-05 0.175D-04
 Coeff-Com:  0.100D-03 0.248D-03 0.435D-03-0.225D-03-0.461D-02-0.392D-02
 Coeff-Com:  0.385D-02 0.106D+00 0.400D+00 0.497D+00
 Coeff:      0.160D-05-0.196D-05-0.391D-06 0.730D-07-0.574D-05 0.175D-04
 Coeff:      0.100D-03 0.248D-03 0.435D-03-0.225D-03-0.461D-02-0.392D-02
 Coeff:      0.385D-02 0.106D+00 0.400D+00 0.497D+00
 Gap=     0.177 Goal=   None    Shift=    0.000
 Gap=     0.119 Goal=   None    Shift=    0.000
 RMSDP=2.70D-08 MaxDP=3.85D-06 DE= 9.09D-12 OVMax= 3.68D-07

 Cycle  17  Pass 1  IDiag  1:
 RMSU=  1.12D-08    CP:  9.98D-01  1.48D+00  5.22D-01  3.67D-01  8.15D-01
                    CP:  7.65D-01  9.96D-01  9.53D-01  8.39D-01  1.36D+00
                    CP:  1.17D+00  1.01D+00  7.43D-01  1.01D+00  9.49D-01
                    CP:  9.39D-01
 E= -1720.94715621352     Delta-E=        0.000000000011 Rises=F Damp=F
 DIIS: error= 2.59D-08 at cycle  17 NSaved=  17.
 NSaved=17 IEnMin=15 EnMin= -1720.94715621354     IErMin=17 ErrMin= 2.59D-08
 ErrMax= 2.59D-08  0.00D+00 EMaxC= 1.00D-01 BMatC= 1.58D-12 BMatP= 9.40D-12
 IDIUse=1 WtCom= 1.00D+00 WtEn= 0.00D+00
 Coeff-Com:  0.289D-06-0.379D-06 0.896D-07-0.118D-09-0.726D-06-0.823D-06
 Coeff-Com: -0.748D-05 0.167D-04 0.117D-03 0.399D-03 0.970D-04-0.115D-02
 Coeff-Com: -0.520D-02-0.159D-01 0.397D-01 0.191D+00 0.791D+00
 Coeff:      0.289D-06-0.379D-06 0.896D-07-0.118D-09-0.726D-06-0.823D-06
 Coeff:     -0.748D-05 0.167D-04 0.117D-03 0.399D-03 0.970D-04-0.115D-02
 Coeff:     -0.520D-02-0.159D-01 0.397D-01 0.191D+00 0.791D+00
 Gap=     0.177 Goal=   None    Shift=    0.000
 Gap=     0.119 Goal=   None    Shift=    0.000
 RMSDP=1.66D-08 MaxDP=1.98D-06 DE= 1.09D-11 OVMax= 1.27D-07

 Cycle  18  Pass 1  IDiag  1:
 RMSU=  4.82D-09    CP:  9.98D-01  1.48D+00  5.22D-01  3.67D-01  8.15D-01
                    CP:  7.65D-01  9.96D-01  9.53D-01  8.39D-01  1.36D+00
                    CP:  1.17D+00  1.01D+00  7.42D-01  1.02D+00  9.82D-01
                    CP:  9.66D-01  7.99D-01
 E= -1720.94715621354     Delta-E=       -0.000000000027 Rises=F Damp=F
 DIIS: error= 5.24D-09 at cycle  18 NSaved=  18.
 NSaved=18 IEnMin=18 EnMin= -1720.94715621354     IErMin=18 ErrMin= 5.24D-09
 ErrMax= 5.24D-09  0.00D+00 EMaxC= 1.00D-01 BMatC= 5.51D-14 BMatP= 1.58D-12
 IDIUse=1 WtCom= 1.00D+00 WtEn= 0.00D+00
 Coeff-Com:  0.386D-07-0.390D-07 0.542D-07-0.718D-08 0.160D-06-0.162D-05
 Coeff-Com: -0.951D-05-0.143D-04-0.483D-05 0.118D-03 0.352D-03 0.699D-04
 Coeff-Com: -0.149D-02-0.111D-01-0.204D-01 0.298D-02 0.163D+00 0.866D+00
 Coeff:      0.386D-07-0.390D-07 0.542D-07-0.718D-08 0.160D-06-0.162D-05
 Coeff:     -0.951D-05-0.143D-04-0.483D-05 0.118D-03 0.352D-03 0.699D-04
 Coeff:     -0.149D-02-0.111D-01-0.204D-01 0.298D-02 0.163D+00 0.866D+00
 Gap=     0.177 Goal=   None    Shift=    0.000
 Gap=     0.119 Goal=   None    Shift=    0.000
 RMSDP=4.21D-09 MaxDP=5.47D-07 DE=-2.73D-11 OVMax= 1.94D-08

 SCF Done:  E(UO-PBE) =  -1720.94715621     A.U. after   18 cycles
            NFock= 18  Conv=0.42D-08     -V/T= 2.0008
 <Sx>= 0.0000 <Sy>= 0.0000 <Sz>= 2.5000 <S**2>= 8.7530 S= 2.5005
 <L.S>=  0.00000000000    
 KE= 1.719539197485D+03 PE=-5.574683589736D+03 EE= 1.366408935818D+03
 Annihilation of the first spin contaminant:
 S**2 before annihilation     8.7530,   after     8.7500
 Leave Link  502 at Wed Mar  5 20:35:07 2025, MaxMem= 13421772800 cpu:            7408.5 elap:              61.7
 (Enter /gpfs/fs1/soft/improv/software/custom-built/gaussian/g16/l508.exe)
 QCSCF skips out because SCF is already converged.
 Leave Link  508 at Wed Mar  5 20:35:08 2025, MaxMem= 13421772800 cpu:               0.3 elap:               0.0
 (Enter /gpfs/fs1/soft/improv/software/custom-built/gaussian/g16/l801.exe)
 DoSCS=F DFT=T ScalE2(SS,OS)=  1.000000  1.000000
 Range of M.O.s used for correlation:     1   317
 NBasis=   317 NAE=    44 NBE=    39 NFC=     0 NFV=     0
 NROrb=    317 NOA=    44 NOB=    39 NVA=   273 NVB=   278

 **** Warning!!: The largest alpha MO coefficient is  0.23418234D+03


 **** Warning!!: The largest beta MO coefficient is  0.22106270D+03

 Leave Link  801 at Wed Mar  5 20:35:08 2025, MaxMem= 13421772800 cpu:               0.4 elap:               0.0
 (Enter /gpfs/fs1/soft/improv/software/custom-built/gaussian/g16/l1101.exe)
 Using compressed storage, NAtomX=    19.
 Will process     20 centers per pass.
 Leave Link 1101 at Wed Mar  5 20:35:09 2025, MaxMem= 13421772800 cpu:              51.6 elap:               0.5
 (Enter /gpfs/fs1/soft/improv/software/custom-built/gaussian/g16/l1102.exe)
 Symmetrizing basis deriv contribution to polar:
 IMax=3 JMax=2 DiffMx= 0.00D+00
 Leave Link 1102 at Wed Mar  5 20:35:09 2025, MaxMem= 13421772800 cpu:               1.0 elap:               0.0
 (Enter /gpfs/fs1/soft/improv/software/custom-built/gaussian/g16/l1110.exe)
 Forming Gx(P) for the SCF density, NAtomX=    19.
 Integral derivatives from FoFJK, PRISM(SPDF).
 Do as many integral derivatives as possible in FoFJK.
 G2DrvN: MDV=   13421770631.
 G2DrvN: will do    20 centers at a time, making    1 passes.
 Calling FoFCou, ICntrl=  3507 FMM=F I1Cent=   0 AccDes= 0.00D+00.
 FoFJK:  IHMeth= 1 ICntrl=    3507 DoSepK=F KAlg= 0 I1Cent=           0 FoldK=F
 IRaf=         0 NMat=       1 IRICut=       1 DoRegI=T DoRafI=F ISym2E= 0 IDoP0=0 IntGTp=1.
 FoFCou: FMM=F IPFlag=           0 FMFlag=      100000 FMFlg1=           0
         NFxFlg=           0 DoJE=F BraDBF=F KetDBF=F FulRan=T
         wScrn=  0.000000 ICntrl=      3507 IOpCl=  0 I1Cent=           0 NGrid=           0
         NMat0=    1 NMatS0=      1 NMatT0=    0 NMatD0=    1 NMtDS0=    0 NMtDT0=    0
 Symmetry not used in FoFCou.
 End of G2Drv F.D. properties file   721 does not exist.
 End of G2Drv F.D. properties file   722 does not exist.
 End of G2Drv F.D. properties file   788 does not exist.
 Leave Link 1110 at Wed Mar  5 20:35:24 2025, MaxMem= 13421772800 cpu:            1734.7 elap:              14.0
 (Enter /gpfs/fs1/soft/improv/software/custom-built/gaussian/g16/l1002.exe)
 Minotr:  UHF open shell wavefunction.
          IDoAtm=1111111111111111111
          Direct CPHF calculation.
          Differentiating once with respect to electric field.
                with respect to dipole field.
          Differentiating once with respect to nuclear coordinates.
          Requested convergence is 1.0D-08 RMS, and 1.0D-07 maximum.
          Secondary convergence is 1.0D-12 RMS, and 1.0D-12 maximum.
          NewPWx=T KeepS1=F KeepF1=F KeepIn=T MapXYZ=F SortEE=F KeepMc=T.
         6034 words used for storage of precomputed grid.
 Two-electron integrals replicated using symmetry.
          MDV=   13421772800 using IRadAn=       1.
          Solving linear equations simultaneously, MaxMat=     384.
 FoF2E skips out because all densities are zero.
 CalDSu exits because no D1Ps are significant.
 FoFJK:  IHMeth= 1 ICntrl=     500 DoSepK=F KAlg= 0 I1Cent=           0 FoldK=F
 IRaf= 990000000 NMat=      57 IRICut=       1 DoRegI=T DoRafI=F ISym2E= 2 IDoP0=3 IntGTp=2.
 FoFCou: FMM=F IPFlag=           0 FMFlag=      100000 FMFlg1=           0
         NFxFlg=           0 DoJE=F BraDBF=F KetDBF=F FulRan=T
         wScrn=  0.000000 ICntrl=       500 IOpCl=  0 I1Cent=           0 NGrid=           0
         NMat0=   57 NMatS0=     57 NMatT0=    0 NMatD0=   57 NMtDS0=    0 NMtDT0=    0
 Integrals replicated using symmetry in FoFCou.
          There are    60 degrees of freedom in the 1st order CPHF.  IDoFFX=6 NUNeed=     3.
     57 vectors produced by pass  0 Test12= 3.81D-14 1.67D-09 XBig12= 1.08D+02 3.56D+00.
 AX will form    57 AO Fock derivatives at one time.
     57 vectors produced by pass  1 Test12= 3.81D-14 1.67D-09 XBig12= 1.25D+01 4.33D-01.
     57 vectors produced by pass  2 Test12= 3.81D-14 1.67D-09 XBig12= 1.19D-01 4.31D-02.
     57 vectors produced by pass  3 Test12= 3.81D-14 1.67D-09 XBig12= 1.24D-03 4.13D-03.
     57 vectors produced by pass  4 Test12= 3.81D-14 1.67D-09 XBig12= 8.00D-06 3.10D-04.
     57 vectors produced by pass  5 Test12= 3.81D-14 1.67D-09 XBig12= 1.84D-08 8.64D-06.
     30 vectors produced by pass  6 Test12= 3.81D-14 1.67D-09 XBig12= 3.89D-11 4.64D-07.
      4 vectors produced by pass  7 Test12= 3.81D-14 1.67D-09 XBig12= 9.72D-14 3.29D-08.
 InvSVY:  IOpt=1 It=  1 EMax= 1.78D-15
 Solved reduced A of dimension   376 with    60 vectors.
 FullF1:  Do perturbations      1 to       3.
 Isotropic polarizability for W=    0.000000       53.48 Bohr**3.
 End of Minotr F.D. properties file   721 does not exist.
 End of Minotr F.D. properties file   722 does not exist.
 End of Minotr F.D. properties file   788 does not exist.
 Leave Link 1002 at Wed Mar  5 20:36:07 2025, MaxMem= 13421772800 cpu:            5043.0 elap:              42.5
 (Enter /gpfs/fs1/soft/improv/software/custom-built/gaussian/g16/l601.exe)
 Copying SCF densities to generalized density rwf, IOpCl= 1 IROHF=0.

 **********************************************************************

            Population analysis using the SCF Density.

 **********************************************************************

 Orbital symmetries:
 Alpha Orbitals:
       Occupied  (A) (A) (A) (A) (A) (A) (A) (A) (A) (A) (A) (A)
                 (A) (A) (A) (A) (A) (A) (A) (A) (A) (A) (A) (A)
                 (A) (A) (A) (A) (A) (A) (A) (A) (A) (A) (A) (A)
                 (A) (A) (A) (A) (A) (A) (A) (A)
       Virtual   (A) (A) (A) (A) (A) (A) (A) (A) (A) (A) (A) (A)
                 (A) (A) (A) (A) (A) (A) (A) (A) (A) (A) (A) (A)
                 (A) (A) (A) (A) (A) (A) (A) (A) (A) (A) (A) (A)
                 (A) (A) (A) (A) (A) (A) (A) (A) (A) (A) (A) (A)
                 (A) (A) (A) (A) (A) (A) (A) (A) (A) (A) (A) (A)
                 (A) (A) (A) (A) (A) (A) (A) (A) (A) (A) (A) (A)
                 (A) (A) (A) (A) (A) (A) (A) (A) (A) (A) (A) (A)
                 (A) (A) (A) (A) (A) (A) (A) (A) (A) (A) (A) (A)
                 (A) (A) (A) (A) (A) (A) (A) (A) (A) (A) (A) (A)
                 (A) (A) (A) (A) (A) (A) (A) (A) (A) (A) (A) (A)
                 (A) (A) (A) (A) (A) (A) (A) (A) (A) (A) (A) (A)
                 (A) (A) (A) (A) (A) (A) (A) (A) (A) (A) (A) (A)
                 (A) (A) (A) (A) (A) (A) (A) (A) (A) (A) (A) (A)
                 (A) (A) (A) (A) (A) (A) (A) (A) (A) (A) (A) (A)
                 (A) (A) (A) (A) (A) (A) (A) (A) (A) (A) (A) (A)
                 (A) (A) (A) (A) (A) (A) (A) (A) (A) (A) (A) (A)
                 (A) (A) (A) (A) (A) (A) (A) (A) (A) (A) (A) (A)
                 (A) (A) (A) (A) (A) (A) (A) (A) (A) (A) (A) (A)
                 (A) (A) (A) (A) (A) (A) (A) (A) (A) (A) (A) (A)
                 (A) (A) (A) (A) (A) (A) (A) (A) (A) (A) (A) (A)
                 (A) (A) (A) (A) (A) (A) (A) (A) (A) (A) (A) (A)
                 (A) (A) (A) (A) (A) (A) (A) (A) (A) (A) (A) (A)
                 (A) (A) (A) (A) (A) (A) (A) (A) (A)
 Beta  Orbitals:
       Occupied  (A) (A) (A) (A) (A) (A) (A) (A) (A) (A) (A) (A)
                 (A) (A) (A) (A) (A) (A) (A) (A) (A) (A) (A) (A)
                 (A) (A) (A) (A) (A) (A) (A) (A) (A) (A) (A) (A)
                 (A) (A) (A)
       Virtual   (A) (A) (A) (A) (A) (A) (A) (A) (A) (A) (A) (A)
                 (A) (A) (A) (A) (A) (A) (A) (A) (A) (A) (A) (A)
                 (A) (A) (A) (A) (A) (A) (A) (A) (A) (A) (A) (A)
                 (A) (A) (A) (A) (A) (A) (A) (A) (A) (A) (A) (A)
                 (A) (A) (A) (A) (A) (A) (A) (A) (A) (A) (A) (A)
                 (A) (A) (A) (A) (A) (A) (A) (A) (A) (A) (A) (A)
                 (A) (A) (A) (A) (A) (A) (A) (A) (A) (A) (A) (A)
                 (A) (A) (A) (A) (A) (A) (A) (A) (A) (A) (A) (A)
                 (A) (A) (A) (A) (A) (A) (A) (A) (A) (A) (A) (A)
                 (A) (A) (A) (A) (A) (A) (A) (A) (A) (A) (A) (A)
                 (A) (A) (A) (A) (A) (A) (A) (A) (A) (A) (A) (A)
                 (A) (A) (A) (A) (A) (A) (A) (A) (A) (A) (A) (A)
                 (A) (A) (A) (A) (A) (A) (A) (A) (A) (A) (A) (A)
                 (A) (A) (A) (A) (A) (A) (A) (A) (A) (A) (A) (A)
                 (A) (A) (A) (A) (A) (A) (A) (A) (A) (A) (A) (A)
                 (A) (A) (A) (A) (A) (A) (A) (A) (A) (A) (A) (A)
                 (A) (A) (A) (A) (A) (A) (A) (A) (A) (A) (A) (A)
                 (A) (A) (A) (A) (A) (A) (A) (A) (A) (A) (A) (A)
                 (A) (A) (A) (A) (A) (A) (A) (A) (A) (A) (A) (A)
                 (A) (A) (A) (A) (A) (A) (A) (A) (A) (A) (A) (A)
                 (A) (A) (A) (A) (A) (A) (A) (A) (A) (A) (A) (A)
                 (A) (A) (A) (A) (A) (A) (A) (A) (A) (A) (A) (A)
                 (A) (A) (A) (A) (A) (A) (A) (A) (A) (A) (A) (A)
                 (A) (A)
 The electronic state is 6-A.
 Alpha  occ. eigenvalues -- -255.29442 -30.30179 -26.23357 -26.23249 -26.23199
 Alpha  occ. eigenvalues --  -19.38981 -19.38932 -19.38165 -19.37946 -19.36130
 Alpha  occ. eigenvalues --  -19.35447  -4.05331  -2.86458  -2.86156  -2.86031
 Alpha  occ. eigenvalues --   -1.59911  -1.57502  -1.57012  -1.56577  -1.54945
 Alpha  occ. eigenvalues --   -1.54189  -1.14574  -1.13142  -1.11373  -1.10653
 Alpha  occ. eigenvalues --   -1.09138  -1.07753  -1.05798  -1.05667  -1.05095
 Alpha  occ. eigenvalues --   -1.00433  -0.99422  -0.97426  -0.96915  -0.94293
 Alpha  occ. eigenvalues --   -0.93161  -0.90878  -0.90577  -0.88387  -0.87742
 Alpha  occ. eigenvalues --   -0.86154  -0.85106  -0.74730  -0.74474
 Alpha virt. eigenvalues --   -0.56821  -0.51508  -0.49444  -0.48131  -0.45118
 Alpha virt. eigenvalues --   -0.44068  -0.42638  -0.42181  -0.39712  -0.38079
 Alpha virt. eigenvalues --   -0.37779  -0.36524  -0.33951  -0.33012  -0.32148
 Alpha virt. eigenvalues --   -0.30397  -0.29869  -0.29464  -0.29236  -0.28908
 Alpha virt. eigenvalues --   -0.26743  -0.26413  -0.25815  -0.25335  -0.24249
 Alpha virt. eigenvalues --   -0.23860  -0.22803  -0.21806  -0.21124  -0.20554
 Alpha virt. eigenvalues --   -0.19898  -0.18855  -0.17541  -0.16709  -0.15922
 Alpha virt. eigenvalues --   -0.14949  -0.14460  -0.13906  -0.12917  -0.12124
 Alpha virt. eigenvalues --   -0.10465  -0.09955  -0.09545  -0.08489  -0.07708
 Alpha virt. eigenvalues --   -0.06595  -0.03809  -0.02832  -0.01376   0.03969
 Alpha virt. eigenvalues --    0.05729   0.07366   0.07995   0.17583   0.18519
 Alpha virt. eigenvalues --    0.19798   0.22342   0.24999   0.26473   0.27676
 Alpha virt. eigenvalues --    0.28872   0.29624   0.30112   0.31498   0.31864
 Alpha virt. eigenvalues --    0.33789   0.36083   0.36942   0.37954   0.39473
 Alpha virt. eigenvalues --    0.40735   0.41749   0.42485   0.43997   0.46789
 Alpha virt. eigenvalues --    0.47824   0.48081   0.49205   0.49866   0.50338
 Alpha virt. eigenvalues --    0.51302   0.53065   0.55803   0.57823   0.58727
 Alpha virt. eigenvalues --    0.59784   0.62723   0.64549   0.65030   0.68495
 Alpha virt. eigenvalues --    0.69927   0.71865   0.72102   0.73816   0.74725
 Alpha virt. eigenvalues --    0.75912   0.78834   0.80563   0.81544   0.82867
 Alpha virt. eigenvalues --    0.86024   0.86993   0.87892   1.01296   1.02434
 Alpha virt. eigenvalues --    1.09196   1.11057   1.13687   1.15393   1.16902
 Alpha virt. eigenvalues --    1.17649   1.18320   1.19602   1.22290   1.24341
 Alpha virt. eigenvalues --    1.27627   1.30358   1.31515   1.34248   1.37408
 Alpha virt. eigenvalues --    1.43372   1.47610   1.54596   1.61133   1.63013
 Alpha virt. eigenvalues --    1.64807   1.68252   1.68471   1.71756   1.76578
 Alpha virt. eigenvalues --    1.77984   1.78187   1.80683   1.81327   1.88298
 Alpha virt. eigenvalues --    1.90704   1.94062   1.97613   2.00685   2.04092
 Alpha virt. eigenvalues --    2.06884   2.07848   2.12152   2.15397   2.18738
 Alpha virt. eigenvalues --    2.20460   2.24905   2.26355   2.28309   2.31670
 Alpha virt. eigenvalues --    2.32446   2.33716   2.36275   2.36466   2.39075
 Alpha virt. eigenvalues --    2.39613   2.40858   2.42333   2.42865   2.44759
 Alpha virt. eigenvalues --    2.45278   2.46222   2.47726   2.49631   2.54655
 Alpha virt. eigenvalues --    2.60148   2.67200   2.69934   2.71115   2.72376
 Alpha virt. eigenvalues --    2.81293   3.07962   3.34572   3.36141   3.39101
 Alpha virt. eigenvalues --    3.42810   3.44581   3.50099   3.51137   3.52679
 Alpha virt. eigenvalues --    3.54922   3.56443   3.57262   3.58575   3.61640
 Alpha virt. eigenvalues --    3.62794   3.63364   3.63709   3.66675   3.70020
 Alpha virt. eigenvalues --    3.71119   3.71323   3.74484   3.75631   3.79614
 Alpha virt. eigenvalues --    3.81385   3.82687   3.84038   3.87293   3.88194
 Alpha virt. eigenvalues --    3.89895   3.92281   3.95287   3.98735   4.02828
 Alpha virt. eigenvalues --    4.07389   4.09566   4.09880   4.13054   4.15286
 Alpha virt. eigenvalues --    4.20575   4.25601   4.26026   4.29160   4.29976
 Alpha virt. eigenvalues --    4.32123   4.34680   4.37743   4.47044   4.51849
 Alpha virt. eigenvalues --    4.54217   4.54873   4.58174   4.60829   4.67901
 Alpha virt. eigenvalues --    4.71851   4.72528   4.73798   4.74532   4.76110
 Alpha virt. eigenvalues --    4.77570   4.77706   4.78458   4.80239   4.85215
 Alpha virt. eigenvalues --    4.85918   4.92339   4.93888   4.95463   4.97215
 Alpha virt. eigenvalues --    4.98877   5.03231   5.04103   5.05943   5.09282
 Alpha virt. eigenvalues --    5.12429   5.14839   5.16259   5.17736   5.19680
 Alpha virt. eigenvalues --    5.21827   5.23132   5.24517   5.24905   5.29534
 Alpha virt. eigenvalues --    5.33521   5.35304   5.47301   5.48492   5.88762
 Alpha virt. eigenvalues --    6.82874   6.85582   6.86961   6.94936   6.97919
 Alpha virt. eigenvalues --    7.12888  13.21750  13.23870  13.24910  13.79886
 Alpha virt. eigenvalues --   13.85528  13.90607  25.38446
  Beta  occ. eigenvalues -- -255.29372 -30.21310 -26.16844 -26.16752 -26.16709
  Beta  occ. eigenvalues --  -19.38701 -19.38651 -19.37866 -19.37639 -19.35781
  Beta  occ. eigenvalues --  -19.35092  -3.85913  -2.67074  -2.66882  -2.66765
  Beta  occ. eigenvalues --   -1.59116  -1.56735  -1.56195  -1.55768  -1.54007
  Beta  occ. eigenvalues --   -1.53231  -1.13683  -1.12226  -1.10825  -1.10032
  Beta  occ. eigenvalues --   -1.08361  -1.07145  -1.03522  -1.01450  -1.00660
  Beta  occ. eigenvalues --   -0.97931  -0.97677  -0.95489  -0.94356  -0.90965
  Beta  occ. eigenvalues --   -0.89546  -0.88246  -0.86726  -0.85371
  Beta virt. eigenvalues --   -0.73435  -0.72843  -0.71740  -0.61852  -0.61624
  Beta virt. eigenvalues --   -0.56563  -0.51258  -0.49153  -0.47882  -0.44719
  Beta virt. eigenvalues --   -0.43659  -0.42309  -0.41858  -0.39310  -0.37704
  Beta virt. eigenvalues --   -0.37368  -0.36048  -0.33634  -0.32765  -0.31782
  Beta virt. eigenvalues --   -0.29933  -0.29438  -0.29132  -0.28762  -0.28452
  Beta virt. eigenvalues --   -0.26385  -0.25963  -0.25346  -0.24812  -0.23368
  Beta virt. eigenvalues --   -0.23018  -0.21888  -0.20732  -0.20182  -0.19683
  Beta virt. eigenvalues --   -0.18997  -0.18426  -0.16740  -0.16198  -0.14891
  Beta virt. eigenvalues --   -0.14357  -0.13553  -0.12934  -0.12066  -0.11256
  Beta virt. eigenvalues --   -0.09813  -0.09244  -0.08820  -0.07231  -0.06949
  Beta virt. eigenvalues --   -0.05686  -0.03147  -0.01602  -0.00074   0.05664
  Beta virt. eigenvalues --    0.07382   0.07648   0.08367   0.18261   0.19237
  Beta virt. eigenvalues --    0.20647   0.23335   0.25511   0.27022   0.28434
  Beta virt. eigenvalues --    0.29418   0.30339   0.30762   0.31852   0.32635
  Beta virt. eigenvalues --    0.34165   0.36757   0.37517   0.38565   0.40096
  Beta virt. eigenvalues --    0.41271   0.42263   0.43083   0.44683   0.47798
  Beta virt. eigenvalues --    0.48630   0.48901   0.49891   0.50774   0.51227
  Beta virt. eigenvalues --    0.52191   0.54027   0.56576   0.58724   0.59691
  Beta virt. eigenvalues --    0.60640   0.63764   0.65708   0.66695   0.69906
  Beta virt. eigenvalues --    0.71259   0.73175   0.74537   0.74758   0.76558
  Beta virt. eigenvalues --    0.77814   0.79985   0.82769   0.83757   0.84861
  Beta virt. eigenvalues --    0.87935   0.88470   0.90064   1.03912   1.04741
  Beta virt. eigenvalues --    1.12891   1.13934   1.16270   1.17307   1.20803
  Beta virt. eigenvalues --    1.20999   1.22558   1.23251   1.27032   1.27701
  Beta virt. eigenvalues --    1.31859   1.32467   1.33997   1.37136   1.39611
  Beta virt. eigenvalues --    1.44386   1.49727   1.55978   1.61676   1.63618
  Beta virt. eigenvalues --    1.65592   1.69089   1.69144   1.72616   1.77468
  Beta virt. eigenvalues --    1.79001   1.79361   1.81472   1.81961   1.89426
  Beta virt. eigenvalues --    1.93210   1.94819   1.98727   2.01588   2.05931
  Beta virt. eigenvalues --    2.09036   2.09159   2.13889   2.18173   2.21379
  Beta virt. eigenvalues --    2.23219   2.27402   2.30175   2.31625   2.32895
  Beta virt. eigenvalues --    2.33953   2.35124   2.37437   2.37578   2.40066
  Beta virt. eigenvalues --    2.41264   2.41960   2.44315   2.45712   2.46110
  Beta virt. eigenvalues --    2.47749   2.48250   2.49718   2.52153   2.55645
  Beta virt. eigenvalues --    2.61089   2.68715   2.71709   2.74261   2.76294
  Beta virt. eigenvalues --    2.84489   3.11990   3.38880   3.39348   3.41662
  Beta virt. eigenvalues --    3.44338   3.45813   3.51424   3.52762   3.54216
  Beta virt. eigenvalues --    3.58423   3.59508   3.60383   3.61076   3.65707
  Beta virt. eigenvalues --    3.66448   3.67143   3.69264   3.69526   3.72473
  Beta virt. eigenvalues --    3.77681   3.78582   3.80410   3.82341   3.84121
  Beta virt. eigenvalues --    3.86244   3.87559   3.88648   3.90879   3.91619
  Beta virt. eigenvalues --    3.93020   3.97755   4.05261   4.08627   4.10206
  Beta virt. eigenvalues --    4.11691   4.14892   4.16158   4.17150   4.18515
  Beta virt. eigenvalues --    4.24521   4.29773   4.30568   4.31923   4.33202
  Beta virt. eigenvalues --    4.35670   4.38219   4.42524   4.48753   4.54177
  Beta virt. eigenvalues --    4.55991   4.56715   4.60008   4.62964   4.70426
  Beta virt. eigenvalues --    4.72830   4.73738   4.74862   4.75372   4.77705
  Beta virt. eigenvalues --    4.78603   4.79820   4.80801   4.82914   4.87962
  Beta virt. eigenvalues --    4.88744   4.94579   4.96013   4.97448   4.99271
  Beta virt. eigenvalues --    5.01864   5.06244   5.07301   5.08912   5.12324
  Beta virt. eigenvalues --    5.14125   5.16410   5.18374   5.20037   5.21502
  Beta virt. eigenvalues --    5.23667   5.25010   5.26810   5.27049   5.30612
  Beta virt. eigenvalues --    5.34489   5.36290   5.49052   5.50088   5.92435
  Beta virt. eigenvalues --    6.84169   6.86881   6.88244   6.96224   6.99194
  Beta virt. eigenvalues --    7.13914  13.22532  13.24626  13.25656  13.80623
  Beta virt. eigenvalues --   13.86321  13.91385  25.50248
          Condensed to atoms (all electrons):
               1          2          3          4          5          6
     1  Fe  24.733436  -0.088086  -0.006572  -0.023384  -0.005446  -0.057451
     2  O   -0.088086   8.325078   0.310326  -0.068417   0.000564  -0.060925
     3  H   -0.006572   0.310326   0.248296   0.000883  -0.000015   0.001527
     4  O   -0.023384  -0.068417   0.000883   8.289747   0.304180  -0.070711
     5  H   -0.005446   0.000564  -0.000015   0.304180   0.274204   0.004471
     6  O   -0.057451  -0.060925   0.001527  -0.070711   0.004471   8.309839
     7  H   -0.000310   0.000817  -0.000040   0.000468  -0.000379   0.301697
     8  O   -0.066327   0.058437  -0.000876  -0.077268   0.003742  -0.077067
     9  H   -0.001802  -0.000668  -0.000003   0.000959   0.000006   0.001306
    10  O   -0.023628  -0.050871   0.001474   0.049562  -0.000952  -0.076704
    11  H    0.000949   0.001732  -0.000240  -0.000765   0.000008   0.000191
    12  O   -0.066648  -0.060189   0.001323  -0.051004   0.000058   0.058460
    13  H   -0.009230   0.000016  -0.000080   0.001348  -0.000022  -0.000842
    14  H    0.009891   0.001321  -0.000038   0.001033   0.000026  -0.001049
    15  H   -0.001509   0.002159   0.000017   0.309309  -0.020834  -0.006483
    16  H    0.001559   0.301251  -0.013019  -0.000454  -0.000048   0.000488
    17  H   -0.007575  -0.000692   0.000087  -0.000766  -0.000010   0.002286
    18  H   -0.005409  -0.001193   0.000015   0.001705  -0.001481   0.308795
    19  H   -0.003875  -0.001073   0.000006  -0.000842   0.000538   0.003973
               7          8          9         10         11         12
     1  Fe  -0.000310  -0.066327  -0.001802  -0.023628   0.000949  -0.066648
     2  O    0.000817   0.058437  -0.000668  -0.050871   0.001732  -0.060189
     3  H   -0.000040  -0.000876  -0.000003   0.001474  -0.000240   0.001323
     4  O    0.000468  -0.077268   0.000959   0.049562  -0.000765  -0.051004
     5  H   -0.000379   0.003742   0.000006  -0.000952   0.000008   0.000058
     6  O    0.301697  -0.077067   0.001306  -0.076704   0.000191   0.058460
     7  H    0.281190   0.002865  -0.000400   0.000219   0.000030  -0.001381
     8  O    0.002865   8.307540   0.306994  -0.049909  -0.006453  -0.060606
     9  H   -0.000400   0.306994   0.263680  -0.000602   0.000291  -0.002274
    10  O    0.000219  -0.049909  -0.000602   8.289081   0.307327  -0.087656
    11  H    0.000030  -0.006453   0.000291   0.307327   0.266120   0.001823
    12  O   -0.001381  -0.060606  -0.002274  -0.087656   0.001823   8.320988
    13  H    0.000008   0.001497   0.000009   0.001640  -0.000018   0.310696
    14  H   -0.000009  -0.001074   0.000437  -0.001774   0.001360   0.296009
    15  H    0.000115   0.000132  -0.000025  -0.000757  -0.000001   0.001903
    16  H   -0.000000  -0.000958   0.000005   0.001480  -0.000010   0.000673
    17  H    0.000911   0.001719  -0.001380   0.309421  -0.020214   0.000649
    18  H   -0.015633   0.000948   0.000008   0.000781  -0.000022  -0.000810
    19  H    0.001414   0.304723  -0.014981  -0.000598   0.000119   0.001756
              13         14         15         16         17         18
     1  Fe  -0.009230   0.009891  -0.001509   0.001559  -0.007575  -0.005409
     2  O    0.000016   0.001321   0.002159   0.301251  -0.000692  -0.001193
     3  H   -0.000080  -0.000038   0.000017  -0.013019   0.000087   0.000015
     4  O    0.001348   0.001033   0.309309  -0.000454  -0.000766   0.001705
     5  H   -0.000022   0.000026  -0.020834  -0.000048  -0.000010  -0.001481
     6  O   -0.000842  -0.001049  -0.006483   0.000488   0.002286   0.308795
     7  H    0.000008  -0.000009   0.000115  -0.000000   0.000911  -0.015633
     8  O    0.001497  -0.001074   0.000132  -0.000958   0.001719   0.000948
     9  H    0.000009   0.000437  -0.000025   0.000005  -0.001380   0.000008
    10  O    0.001640  -0.001774  -0.000757   0.001480   0.309421   0.000781
    11  H   -0.000018   0.001360  -0.000001  -0.000010  -0.020214  -0.000022
    12  O    0.310696   0.296009   0.001903   0.000673   0.000649  -0.000810
    13  H    0.244972  -0.013359  -0.000142  -0.000019  -0.000019  -0.000001
    14  H   -0.013359   0.281375  -0.000010  -0.000020  -0.000102   0.000004
    15  H   -0.000142  -0.000010   0.259797   0.000198   0.000008  -0.000073
    16  H   -0.000019  -0.000020   0.000198   0.270337   0.000046  -0.000073
    17  H   -0.000019  -0.000102   0.000008   0.000046   0.273158  -0.000035
    18  H   -0.000001   0.000004  -0.000073  -0.000073  -0.000035   0.259512
    19  H   -0.000048  -0.000034   0.000036  -0.000015  -0.000281  -0.000354
              19
     1  Fe  -0.003875
     2  O   -0.001073
     3  H    0.000006
     4  O   -0.000842
     5  H    0.000538
     6  O    0.003973
     7  H    0.001414
     8  O    0.304723
     9  H   -0.014981
    10  O   -0.000598
    11  H    0.000119
    12  O    0.001756
    13  H   -0.000048
    14  H   -0.000034
    15  H    0.000036
    16  H   -0.000015
    17  H   -0.000281
    18  H   -0.000354
    19  H    0.278014
          Atomic-Atomic Spin Densities.
               1          2          3          4          5          6
     1  Fe   4.873572  -0.095822  -0.000095  -0.101937  -0.000894  -0.118496
     2  O   -0.095822   0.311928  -0.005340  -0.025805   0.000302  -0.024536
     3  H   -0.000095  -0.005340   0.005109   0.000296   0.000006   0.001220
     4  O   -0.101937  -0.025805   0.000296   0.290241  -0.004051  -0.027428
     5  H   -0.000894   0.000302   0.000006  -0.004051   0.004060   0.002914
     6  O   -0.118496  -0.024536   0.001220  -0.027428   0.002914   0.302906
     7  H    0.000388   0.000345  -0.000011  -0.000157  -0.000052  -0.006756
     8  O   -0.118477   0.036359  -0.000691  -0.031479   0.001699  -0.031943
     9  H    0.002072  -0.000742   0.000000   0.000579  -0.000061  -0.000466
    10  O   -0.104392  -0.022750   0.002442   0.032993  -0.000702  -0.035853
    11  H    0.001291  -0.000019  -0.000027  -0.000342   0.000003   0.000412
    12  O   -0.094905  -0.034739   0.002358  -0.022268   0.000437   0.037772
    13  H    0.000411   0.001900  -0.000043   0.002195  -0.000050  -0.000652
    14  H   -0.001129   0.000525  -0.000033   0.000533  -0.000015  -0.000775
    15  H    0.001485   0.001666  -0.000051  -0.004399  -0.000221   0.000513
    16  H   -0.000603  -0.003372   0.000022   0.001377  -0.000028   0.001337
    17  H   -0.000298   0.000257  -0.000054  -0.000670   0.000002   0.001437
    18  H    0.001868   0.000322  -0.000009   0.005529  -0.000026  -0.007513
    19  H    0.000237  -0.000831   0.000005   0.000782   0.000112   0.005995
               7          8          9         10         11         12
     1  Fe   0.000388  -0.118477   0.002072  -0.104392   0.001291  -0.094905
     2  O    0.000345   0.036359  -0.000742  -0.022750  -0.000019  -0.034739
     3  H   -0.000011  -0.000691   0.000000   0.002442  -0.000027   0.002358
     4  O   -0.000157  -0.031479   0.000579   0.032993  -0.000342  -0.022268
     5  H   -0.000052   0.001699  -0.000061  -0.000702   0.000003   0.000437
     6  O   -0.006756  -0.031943  -0.000466  -0.035853   0.000412   0.037772
     7  H    0.004513   0.005128  -0.000100   0.001348  -0.000030  -0.000871
     8  O    0.005128   0.302616  -0.006666  -0.022122   0.000592  -0.031322
     9  H   -0.000100  -0.006666   0.005453   0.004314   0.000072   0.000720
    10  O    0.001348  -0.022122   0.004314   0.291094  -0.004836  -0.031365
    11  H   -0.000030   0.000592   0.000072  -0.004836   0.005627   0.002192
    12  O   -0.000871  -0.031322   0.000720  -0.031365   0.002192   0.317326
    13  H    0.000005   0.001447  -0.000025   0.000273  -0.000073  -0.005835
    14  H    0.000002   0.001424   0.000167   0.001895   0.000202  -0.004152
    15  H   -0.000009   0.000351   0.000005  -0.000342   0.000002   0.000052
    16  H   -0.000063  -0.000677   0.000005   0.000510   0.000005   0.000369
    17  H    0.000124   0.002239  -0.000045  -0.003436  -0.000272   0.000268
    18  H    0.000223  -0.000112   0.000010   0.000635   0.000005  -0.000720
    19  H   -0.000058  -0.006635   0.000194  -0.000166  -0.000009   0.000435
              13         14         15         16         17         18
     1  Fe   0.000411  -0.001129   0.001485  -0.000603  -0.000298   0.001868
     2  O    0.001900   0.000525   0.001666  -0.003372   0.000257   0.000322
     3  H   -0.000043  -0.000033  -0.000051   0.000022  -0.000054  -0.000009
     4  O    0.002195   0.000533  -0.004399   0.001377  -0.000670   0.005529
     5  H   -0.000050  -0.000015  -0.000221  -0.000028   0.000002  -0.000026
     6  O   -0.000652  -0.000775   0.000513   0.001337   0.001437  -0.007513
     7  H    0.000005   0.000002  -0.000009  -0.000063   0.000124   0.000223
     8  O    0.001447   0.001424   0.000351  -0.000677   0.002239  -0.000112
     9  H   -0.000025   0.000167   0.000005   0.000005  -0.000045   0.000010
    10  O    0.000273   0.001895  -0.000342   0.000510  -0.003436   0.000635
    11  H   -0.000073   0.000202   0.000002   0.000005  -0.000272   0.000005
    12  O   -0.005835  -0.004152   0.000052   0.000369   0.000268  -0.000720
    13  H    0.005557   0.000003  -0.000036  -0.000018   0.000007  -0.000001
    14  H    0.000003   0.005141   0.000005   0.000007  -0.000039   0.000005
    15  H   -0.000036   0.000005   0.004956   0.000102   0.000002   0.000054
    16  H   -0.000018   0.000007   0.000102   0.004468  -0.000014   0.000080
    17  H    0.000007  -0.000039   0.000002  -0.000014   0.003836  -0.000054
    18  H   -0.000001   0.000005   0.000054   0.000080  -0.000054   0.006065
    19  H   -0.000011  -0.000065  -0.000023   0.000001  -0.000022  -0.000125
              19
     1  Fe   0.000237
     2  O   -0.000831
     3  H    0.000005
     4  O    0.000782
     5  H    0.000112
     6  O    0.005995
     7  H   -0.000058
     8  O   -0.006635
     9  H    0.000194
    10  O   -0.000166
    11  H   -0.000009
    12  O    0.000435
    13  H   -0.000011
    14  H   -0.000065
    15  H   -0.000023
    16  H    0.000001
    17  H   -0.000022
    18  H   -0.000125
    19  H    0.004488
 Mulliken charges and spin densities:
               1          2
     1  Fe   1.621420   4.244277
     2  O   -0.669587   0.139647
     3  H    0.456929   0.005104
     4  O   -0.665584   0.115988
     5  H    0.441391   0.003436
     6  O   -0.641803   0.100090
     7  H    0.428418   0.003970
     8  O   -0.648059   0.101733
     9  H    0.448440   0.005485
    10  O   -0.667534   0.109541
    11  H    0.447772   0.004792
    12  O   -0.663771   0.135752
    13  H    0.463593   0.005055
    14  H    0.426010   0.003701
    15  H    0.456161   0.004114
    16  H    0.438578   0.003508
    17  H    0.442788   0.003268
    18  H    0.453316   0.006235
    19  H    0.431521   0.004304
 Sum of Mulliken charges =   3.00000   5.00000
 Mulliken charges and spin densities with hydrogens summed into heavy atoms:
               1          2
     1  Fe   1.621420   4.244277
     2  O    0.225920   0.148260
     4  O    0.231968   0.123538
     6  O    0.239932   0.110295
     8  O    0.231902   0.111521
    10  O    0.223025   0.117602
    12  O    0.225833   0.144507
 APT charges:
               1
     1  Fe   2.088668
     2  O   -0.588571
     3  H    0.389571
     4  O   -0.555963
     5  H    0.350203
     6  O   -0.550844
     7  H    0.337305
     8  O   -0.552576
     9  H    0.351531
    10  O   -0.551421
    11  H    0.357110
    12  O   -0.578111
    13  H    0.391203
    14  H    0.351939
    15  H    0.362654
    16  H    0.361111
    17  H    0.349245
    18  H    0.351239
    19  H    0.335707
 Sum of APT charges =   3.00000
 APT charges with hydrogens summed into heavy atoms:
               1
     1  Fe   2.088668
     2  O    0.162111
     4  O    0.156894
     6  O    0.137700
     8  O    0.134662
    10  O    0.154934
    12  O    0.165031
 Electronic spatial extent (au):  <R**2>=            837.0408
 Charge=              3.0000 electrons
 Dipole moment (field-independent basis, Debye):
    X=              2.2014    Y=              3.5032    Z=             -0.9449  Tot=              4.2440
 Quadrupole moment (field-independent basis, Debye-Ang):
   XX=            -11.1622   YY=            -14.8613   ZZ=            -25.4494
   XY=             -4.1362   XZ=             -1.5849   YZ=             -0.9426
 Traceless Quadrupole moment (field-independent basis, Debye-Ang):
   XX=              5.9954   YY=              2.2963   ZZ=             -8.2917
   XY=             -4.1362   XZ=             -1.5849   YZ=             -0.9426
 Octapole moment (field-independent basis, Debye-Ang**2):
  XXX=             17.7692  YYY=             16.5850  ZZZ=              5.0657  XYY=              4.0910
  XXY=              8.8723  XXZ=              3.3114  XZZ=             -7.9949  YZZ=             -3.3544
  YYZ=            -14.3662  XYZ=             -3.1656
 Hexadecapole moment (field-independent basis, Debye-Ang**3):
 XXXX=           -162.6740 YYYY=           -170.6776 ZZZZ=           -208.7209 XXXY=            -21.1990
 XXXZ=              2.1626 YYYX=             -8.5204 YYYZ=             11.3760 ZZZX=            -16.0884
 ZZZY=            -15.6867 XXYY=            -45.7565 XXZZ=            -51.7455 YYZZ=            -49.5735
 XXYZ=             -0.4649 YYXZ=              3.3053 ZZXY=              2.0399
 N-N= 7.677883002195D+02 E-N=-5.574683588045D+03  KE= 1.719539197485D+03
  Exact polarizability:      55.111      -0.339      54.356      -0.626       0.083      50.972
 Approx polarizability:      86.647      -0.190      85.970      -1.336      -0.041      79.442
                          Isotropic Fermi Contact Couplings
        Atom                 a.u.       MegaHertz       Gauss      10(-4) cm-1
     1  Fe(57)             0.29245       8.48338       3.02708       2.82975
     2  O(17)              0.13261     -16.07736      -5.73680      -5.36283
     3  H(1)               0.00253       2.26118       0.80684       0.75425
     4  O(17)              0.13159     -15.95446      -5.69295      -5.32184
     5  H(1)               0.00193       1.72286       0.61476       0.57468
     6  O(17)              0.13758     -16.68014      -5.95189      -5.56390
     7  H(1)               0.00174       1.55991       0.55662       0.52033
     8  O(17)              0.13644     -16.54209      -5.90263      -5.51785
     9  H(1)               0.00247       2.20522       0.78688       0.73558
    10  O(17)              0.13034     -15.80215      -5.63860      -5.27103
    11  H(1)               0.00285       2.54462       0.90798       0.84879
    12  O(17)              0.13133     -15.92241      -5.68151      -5.31114
    13  H(1)               0.00260       2.32384       0.82920       0.77515
    14  H(1)               0.00219       1.95928       0.69912       0.65354
    15  H(1)               0.00258       2.30831       0.82366       0.76997
    16  H(1)               0.00203       1.81601       0.64800       0.60576
    17  H(1)               0.00203       1.81140       0.64635       0.60422
    18  H(1)               0.00259       2.31684       0.82671       0.77282
    19  H(1)               0.00170       1.52304       0.54346       0.50803
 --------------------------------------------------------
       Center         ----  Spin Dipole Couplings  ----
                      3XX-RR        3YY-RR        3ZZ-RR
 --------------------------------------------------------
     1   Atom        0.023613     -0.019428     -0.004185
     2   Atom       -0.340364      0.477084     -0.136719
     3   Atom        0.001263      0.016029     -0.017293
     4   Atom        0.023441     -0.210354      0.186912
     5   Atom        0.061840     -0.044099     -0.017741
     6   Atom        0.052844     -0.262669      0.209825
     7   Atom       -0.006651      0.014718     -0.008066
     8   Atom       -0.287256      0.275836      0.011420
     9   Atom       -0.038388      0.093042     -0.054655
    10   Atom        0.077296     -0.161923      0.084627
    11   Atom        0.073577     -0.035795     -0.037783
    12   Atom        0.236275     -0.226447     -0.009828
    13   Atom       -0.028355     -0.038797      0.067151
    14   Atom        0.024658     -0.024055     -0.000603
    15   Atom        0.017534      0.021273     -0.038808
    16   Atom       -0.033323      0.042260     -0.008936
    17   Atom       -0.031995      0.007228      0.024767
    18   Atom        0.090696     -0.059035     -0.031661
    19   Atom       -0.001521      0.055362     -0.053841
 --------------------------------------------------------
                        XY            XZ            YZ
 --------------------------------------------------------
     1   Atom       -0.021846      0.016490     -0.008868
     2   Atom        0.147554      0.023343      0.089988
     3   Atom        0.049860      0.056912      0.054441
     4   Atom       -0.168789      0.260251     -0.218568
     5   Atom        0.018160      0.073790      0.001290
     6   Atom        0.083941     -0.342235     -0.013712
     7   Atom        0.051103     -0.057055     -0.052049
     8   Atom        0.106424      0.067934      0.290577
     9   Atom       -0.039654      0.003657      0.025280
    10   Atom       -0.119416      0.377777     -0.062906
    11   Atom       -0.064607      0.022287     -0.012489
    12   Atom        0.250257     -0.289769     -0.044405
    13   Atom        0.012768     -0.040749     -0.061480
    14   Atom       -0.038319     -0.078694      0.030485
    15   Atom       -0.079210      0.032986     -0.018350
    16   Atom       -0.029563     -0.036004      0.073947
    17   Atom       -0.023033      0.036191     -0.078962
    18   Atom       -0.012446     -0.046277     -0.005903
    19   Atom        0.073215      0.000373      0.019967
 --------------------------------------------------------


 ---------------------------------------------------------------------------------
              Anisotropic Spin Dipole Couplings in Principal Axis System
 ---------------------------------------------------------------------------------

       Atom             a.u.   MegaHertz   Gauss  10(-4) cm-1        Axes

              Baa    -0.0287    -0.498    -0.178    -0.166  0.3576  0.9290  0.0953
     1 Fe(57) Bbb    -0.0118    -0.204    -0.073    -0.068 -0.3925  0.0569  0.9180
              Bcc     0.0405     0.702     0.250     0.234  0.8474 -0.3657  0.3850
 
              Baa    -0.3664    26.515     9.461     8.845  0.9851 -0.1687 -0.0340
     2 O(17)  Bbb    -0.1496    10.826     3.863     3.611  0.0095 -0.1443  0.9895
              Bcc     0.5161   -37.342   -13.324   -12.456  0.1718  0.9750  0.1406
 
              Baa    -0.0679   -36.219   -12.924   -12.081 -0.5136 -0.2309  0.8263
     3 H(1)   Bbb    -0.0403   -21.502    -7.672    -7.172 -0.6382  0.7466 -0.1880
              Bcc     0.1082    57.721    20.596    19.254  0.5735  0.6239  0.5308
 
[...]
    14  H   -0.012250   0.277750  -0.000001  -0.000001  -0.000017  -0.000000
    15  H   -0.000017  -0.000001   0.277766  -0.000017  -0.000000  -0.000017
    16  H   -0.000001  -0.000001  -0.000017   0.277777  -0.000001  -0.000018
    17  H   -0.000001  -0.000017  -0.000000  -0.000001   0.277760  -0.000001
    18  H    0.000001  -0.000000  -0.000017  -0.000018  -0.000001   0.277754
    19  H   -0.000001  -0.000001  -0.000001   0.000001  -0.000018  -0.000017
              19
     1  Fe   0.004231
     2  O   -0.000388
     3  H   -0.000000
     4  O    0.000223
     5  H   -0.000017
     6  O    0.001390
     7  H   -0.000017
     8  O    0.291434
     9  H   -0.012241
    10  O    0.000225
    11  H   -0.000001
    12  O    0.000912
    13  H   -0.000001
    14  H   -0.000001
    15  H   -0.000001
    16  H    0.000001
    17  H   -0.000018
    18  H   -0.000017
    19  H    0.277679
          Atomic-Atomic Spin Densities.
               1          2          3          4          5          6
     1  Fe   4.800754  -0.089433   0.002794  -0.089435   0.002794  -0.089402
     2  O   -0.089433   0.238962  -0.004754  -0.009983   0.000223  -0.010010
     3  H    0.002794  -0.004754   0.001412   0.000388  -0.000001   0.000223
     4  O   -0.089435  -0.009983   0.000388   0.238985  -0.004754  -0.010001
     5  H    0.002794   0.000223  -0.000001  -0.004754   0.001410   0.000389
     6  O   -0.089402  -0.010010   0.000223  -0.010001   0.000389   0.238879
     7  H    0.002793   0.000389  -0.000001   0.000223  -0.000001  -0.004754
     8  O   -0.089442   0.010509  -0.000146  -0.009991   0.000659  -0.010013
     9  H    0.002795  -0.000146   0.000000   0.000388  -0.000019   0.000223
    10  O   -0.089460  -0.010007   0.000389   0.010504  -0.000146  -0.009986
    11  H    0.002796   0.000660  -0.000019  -0.000146   0.000000   0.000388
    12  O   -0.089423  -0.010001   0.000658  -0.010005   0.000389   0.010506
    13  H    0.002794   0.000388  -0.000019   0.000661  -0.000019  -0.000146
    14  H    0.002794   0.000388  -0.000019   0.000223  -0.000001  -0.000146
    15  H    0.002794   0.000659  -0.000019  -0.004755   0.000860   0.000389
    16  H    0.002794  -0.004756   0.000860   0.000388  -0.000001   0.000661
    17  H    0.002796   0.000223  -0.000001  -0.000146   0.000000   0.000388
    18  H    0.002793   0.000389  -0.000001   0.000660  -0.000019  -0.004755
    19  H    0.002795  -0.000146   0.000000   0.000388  -0.000019   0.000660
               7          8          9         10         11         12
     1  Fe   0.002793  -0.089442   0.002795  -0.089460   0.002796  -0.089423
     2  O    0.000389   0.010509  -0.000146  -0.010007   0.000660  -0.010001
     3  H   -0.000001  -0.000146   0.000000   0.000389  -0.000019   0.000658
     4  O    0.000223  -0.009991   0.000388   0.010504  -0.000146  -0.010005
     5  H   -0.000001   0.000659  -0.000019  -0.000146   0.000000   0.000389
     6  O   -0.004754  -0.010013   0.000223  -0.009986   0.000388   0.010506
     7  H    0.001413   0.000389  -0.000001   0.000658  -0.000019  -0.000146
     8  O    0.000389   0.238993  -0.004756  -0.009990   0.000223  -0.010006
     9  H   -0.000001  -0.004756   0.001412   0.000389  -0.000001   0.000661
    10  O    0.000658  -0.009990   0.000389   0.239073  -0.004755  -0.009998
    11  H   -0.000019   0.000223  -0.000001  -0.004755   0.001407   0.000388
    12  O   -0.000146  -0.010006   0.000661  -0.009998   0.000388   0.238949
    13  H    0.000000   0.000389  -0.000019   0.000223  -0.000001  -0.004755
    14  H    0.000000   0.000389  -0.000019   0.000660  -0.000019  -0.004756
    15  H   -0.000001   0.000223  -0.000001  -0.000146   0.000000   0.000389
    16  H   -0.000019  -0.000146   0.000000   0.000389  -0.000019   0.000223
    17  H   -0.000019   0.000660  -0.000019  -0.004755   0.000860   0.000389
    18  H    0.000860   0.000389  -0.000001   0.000223  -0.000001  -0.000146
    19  H   -0.000019  -0.004754   0.000860   0.000389  -0.000001   0.000223
              13         14         15         16         17         18
     1  Fe   0.002794   0.002794   0.002794   0.002794   0.002796   0.002793
     2  O    0.000388   0.000388   0.000659  -0.004756   0.000223   0.000389
     3  H   -0.000019  -0.000019  -0.000019   0.000860  -0.000001  -0.000001
     4  O    0.000661   0.000223  -0.004755   0.000388  -0.000146   0.000660
     5  H   -0.000019  -0.000001   0.000860  -0.000001   0.000000  -0.000019
     6  O   -0.000146  -0.000146   0.000389   0.000661   0.000388  -0.004755
     7  H    0.000000   0.000000  -0.000001  -0.000019  -0.000019   0.000860
     8  O    0.000389   0.000389   0.000223  -0.000146   0.000660   0.000389
     9  H   -0.000019  -0.000019  -0.000001   0.000000  -0.000019  -0.000001
    10  O    0.000223   0.000660  -0.000146   0.000389  -0.004755   0.000223
    11  H   -0.000001  -0.000019   0.000000  -0.000019   0.000860  -0.000001
    12  O   -0.004755  -0.004756   0.000389   0.000223   0.000389  -0.000146
    13  H    0.001409   0.000860  -0.000019  -0.000001  -0.000001   0.000000
    14  H    0.000860   0.001413  -0.000001  -0.000001  -0.000019   0.000000
    15  H   -0.000019  -0.000001   0.001410  -0.000019   0.000000  -0.000019
    16  H   -0.000001  -0.000001  -0.000019   0.001411  -0.000001  -0.000019
    17  H   -0.000001  -0.000019   0.000000  -0.000001   0.001409  -0.000001
    18  H    0.000000   0.000000  -0.000019  -0.000019  -0.000001   0.001412
    19  H   -0.000001  -0.000001  -0.000001   0.000000  -0.000019  -0.000019
              19
     1  Fe   0.002795
     2  O   -0.000146
     3  H    0.000000
     4  O    0.000388
     5  H   -0.000019
     6  O    0.000660
     7  H   -0.000019
     8  O   -0.004754
     9  H    0.000860
    10  O    0.000389
    11  H   -0.000001
    12  O    0.000223
    13  H   -0.000001
    14  H   -0.000001
    15  H   -0.000001
    16  H    0.000000
    17  H   -0.000019
    18  H   -0.000019
    19  H    0.001410
 Mulliken charges and spin densities:
               1          2
     1  Fe   1.395270   4.297692
     2  O   -0.605668   0.113555
     3  H    0.436617   0.001742
     4  O   -0.605549   0.113593
     5  H    0.436535   0.001741
     6  O   -0.605741   0.113492
     7  H    0.436545   0.001743
     8  O   -0.605651   0.113578
     9  H    0.436513   0.001743
    10  O   -0.605489   0.113653
    11  H    0.436528   0.001738
    12  O   -0.605695   0.113539
    13  H    0.436535   0.001740
    14  H    0.436550   0.001743
    15  H    0.436524   0.001741
    16  H    0.436505   0.001743
    17  H    0.436523   0.001740
    18  H    0.436539   0.001743
    19  H    0.436609   0.001740
 Sum of Mulliken charges =   3.00000   5.00000
 Mulliken charges and spin densities with hydrogens summed into heavy atoms:
               1          2
     1  Fe   1.395270   4.297692
     2  O    0.267454   0.117040
     4  O    0.267510   0.117076
     6  O    0.267343   0.116978
     8  O    0.267472   0.117061
    10  O    0.267561   0.117131
    12  O    0.267390   0.117022
 Electronic spatial extent (au):  <R**2>=           1080.6884
 Charge=              3.0000 electrons
 Dipole moment (field-independent basis, Debye):
    X=             -0.0006    Y=             -0.0001    Z=              0.0003  Tot=              0.0007
 Quadrupole moment (field-independent basis, Debye-Ang):
   XX=             -5.8682   YY=             -5.8628   ZZ=             -5.8525
   XY=              0.0055   XZ=             -0.0003   YZ=              0.0041
 Traceless Quadrupole moment (field-independent basis, Debye-Ang):
   XX=             -0.0070   YY=             -0.0016   ZZ=              0.0086
   XY=              0.0055   XZ=             -0.0003   YZ=              0.0041
 Octapole moment (field-independent basis, Debye-Ang**2):
  XXX=             -0.0188  YYY=              0.0226  ZZZ=              0.0256  XYY=              0.0089
  XXY=             -0.0043  XXZ=             -0.0048  XZZ=              0.0021  YZZ=             -0.0186
  YYZ=             -0.0176  XYZ=             -0.0087
 Hexadecapole moment (field-independent basis, Debye-Ang**3):
 XXXX=           -182.3415 YYYY=           -128.0301 ZZZZ=           -167.7023 XXXY=             20.9141
 XXXZ=              7.3227 YYYX=            -38.2006 YYYZ=             30.2766 ZZZX=             34.7111
 ZZZY=            -13.1540 XXYY=            -39.7503 XXZZ=              0.0709 YYZZ=            -54.1508
 XXYZ=            -17.0897 YYXZ=            -42.0326 ZZXY=             17.3283
 N-N= 6.727751855004D+02 E-N=-5.386950282633D+03  KE= 1.717339082874D+03
                          Isotropic Fermi Contact Couplings
        Atom                 a.u.       MegaHertz       Gauss      10(-4) cm-1
     1  Fe(57)             0.47038      13.64477       4.86879       4.55140
     2  O(17)              0.12801     -15.52032      -5.53804      -5.17702
     3  H(1)               0.00102       0.91405       0.32616       0.30490
     4  O(17)              0.12804     -15.52288      -5.53895      -5.17788
     5  H(1)               0.00102       0.91375       0.32605       0.30479
     6  O(17)              0.12804     -15.52331      -5.53910      -5.17802
     7  H(1)               0.00102       0.91487       0.32645       0.30517
     8  O(17)              0.12802     -15.52118      -5.53834      -5.17731
     9  H(1)               0.00102       0.91446       0.32630       0.30503
    10  O(17)              0.12806     -15.52538      -5.53984      -5.17871
    11  H(1)               0.00102       0.91227       0.32552       0.30430
    12  O(17)              0.12805     -15.52508      -5.53973      -5.17861
    13  H(1)               0.00102       0.91290       0.32575       0.30451
    14  H(1)               0.00102       0.91442       0.32629       0.30502
    15  H(1)               0.00102       0.91362       0.32600       0.30475
    16  H(1)               0.00102       0.91407       0.32616       0.30490
    17  H(1)               0.00102       0.91289       0.32574       0.30451
    18  H(1)               0.00102       0.91414       0.32619       0.30492
    19  H(1)               0.00102       0.91280       0.32571       0.30448
 --------------------------------------------------------
       Center         ----  Spin Dipole Couplings  ----
                      3XX-RR        3YY-RR        3ZZ-RR
 --------------------------------------------------------
     1   Atom       -0.000234     -0.000022      0.000256
     2   Atom        0.080128     -0.183433      0.103305
     3   Atom       -0.017286     -0.017396      0.034682
     4   Atom       -0.037499      0.142970     -0.105471
     5   Atom       -0.022839     -0.017506      0.040344
     6   Atom       -0.042231      0.040308      0.001923
     7   Atom       -0.034091      0.069899     -0.035808
     8   Atom        0.079723     -0.183236      0.103513
     9   Atom        0.023069     -0.019231     -0.003838
    10   Atom       -0.037500      0.143210     -0.105710
    11   Atom       -0.022843     -0.017568      0.040410
    12   Atom       -0.042493      0.040445      0.002048
    13   Atom       -0.034099      0.069917     -0.035818
    14   Atom        0.006382      0.000704     -0.007086
    15   Atom        0.044846     -0.016480     -0.028366
    16   Atom        0.023004     -0.019177     -0.003827
    17   Atom        0.044831     -0.016466     -0.028365
    18   Atom        0.006376      0.000666     -0.007042
    19   Atom       -0.017302     -0.017367      0.034669
 --------------------------------------------------------
                        XY            XZ            YZ
 --------------------------------------------------------
     1   Atom       -0.000075      0.000204      0.000139
     2   Atom        0.145463      0.059614     -0.118647
     3   Atom        0.013277      0.037766      0.035198
     4   Atom        0.000427     -0.218225     -0.007736
     5   Atom        0.016659     -0.024420     -0.040516
     6   Atom       -0.146000      0.158343      0.126522
     7   Atom       -0.006386     -0.004858      0.003563
     8   Atom        0.145614      0.059635     -0.118727
     9   Atom       -0.031131      0.044842     -0.017482
    10   Atom        0.000139     -0.218192     -0.007999
    11   Atom        0.016651     -0.024439     -0.040474
    12   Atom       -0.145921      0.158537      0.126457
    13   Atom       -0.006345     -0.004859      0.003528
    14   Atom       -0.035814     -0.038973      0.029928
    15   Atom        0.043372     -0.014301     -0.010675
    16   Atom       -0.031160      0.044836     -0.017521
    17   Atom        0.043390     -0.014308     -0.010678
    18   Atom       -0.035789     -0.038998      0.029925
    19   Atom        0.013284      0.037751      0.035229
 --------------------------------------------------------


 ---------------------------------------------------------------------------------
              Anisotropic Spin Dipole Couplings in Principal Axis System
 ---------------------------------------------------------------------------------

       Atom             a.u.   MegaHertz   Gauss  10(-4) cm-1        Axes

              Baa    -0.0004    -0.006    -0.002    -0.002  0.8602  0.3517 -0.3693
     1 Fe(57) Bbb    -0.0000    -0.000    -0.000    -0.000 -0.4257  0.8939 -0.1404
              Bcc     0.0004     0.006     0.002     0.002  0.2807  0.2780  0.9187
 
              Baa    -0.2924    21.158     7.550     7.057 -0.3886  0.8649  0.3179
     2 O(17)  Bbb     0.1399   -10.125    -3.613    -3.377  0.6421  0.5016 -0.5798
              Bcc     0.1525   -11.032    -3.937    -3.680  0.6609  0.0212  0.7502
 
              Baa    -0.0399   -21.292    -7.598    -7.102  0.6524  0.5024 -0.5674
     3 H(1)   Bbb    -0.0305   -16.292    -5.813    -5.435 -0.6353  0.7708 -0.0481
              Bcc     0.0704    37.585    13.411    12.537  0.4132  0.3919  0.8220
 
              Baa    -0.2924    21.159     7.550     7.058  0.6503  0.0129  0.7596
     4 O(17)  Bbb     0.1400   -10.129    -3.614    -3.379 -0.3838  0.8685  0.3138
              Bcc     0.1524   -11.030    -3.936    -3.679  0.6556  0.4956 -0.5697
 
              Baa    -0.0399   -21.292    -7.598    -7.102 -0.3886  0.8647  0.3183
     5 H(1)   Bbb    -0.0305   -16.291    -5.813    -5.434  0.8711  0.2321  0.4328
              Bcc     0.0704    37.583    13.411    12.536 -0.3004 -0.4455  0.8434
 
              Baa    -0.2923    21.148     7.546     7.054  0.6526  0.5023 -0.5673
     6 O(17)  Bbb     0.1397   -10.109    -3.607    -3.372  0.6456  0.0233  0.7633
              Bcc     0.1525   -11.038    -3.939    -3.682 -0.3966  0.8644  0.3091
 
              Baa    -0.0399   -21.289    -7.597    -7.101  0.6498  0.0131  0.7600
     7 H(1)   Bbb    -0.0305   -16.289    -5.812    -5.433  0.7575  0.0712 -0.6490
              Bcc     0.0704    37.578    13.409    12.535 -0.0626  0.9974  0.0363
 
              Baa    -0.2924    21.161     7.551     7.058 -0.3892  0.8646  0.3179
     8 O(17)  Bbb     0.1400   -10.131    -3.615    -3.379  0.6542  0.5024 -0.5654
              Bcc     0.1524   -11.030    -3.936    -3.679  0.6485  0.0121  0.7611
 
              Baa    -0.0399   -21.295    -7.598    -7.103  0.6524  0.5023 -0.5675
     9 H(1)   Bbb    -0.0305   -16.292    -5.813    -5.434 -0.0637  0.7825  0.6194
              Bcc     0.0704    37.587    13.412    12.538  0.7552 -0.3679  0.5425
 
              Baa    -0.2925    21.167     7.553     7.061  0.6500  0.0137  0.7598
    10 O(17)  Bbb     0.1402   -10.143    -3.619    -3.384 -0.3919  0.8627  0.3197
              Bcc     0.1523   -11.024    -3.934    -3.677  0.6510  0.5056 -0.5661
 
              Baa    -0.0399   -21.296    -7.599    -7.104 -0.3892  0.8648  0.3173
    11 H(1)   Bbb    -0.0305   -16.293    -5.814    -5.435  0.8708  0.2331  0.4329
              Bcc     0.0705    37.589    13.413    12.538 -0.3004 -0.4448  0.8437
 
              Baa    -0.2924    21.154     7.548     7.056  0.6530  0.5019 -0.5672
    12 O(17)  Bbb     0.1399   -10.121    -3.611    -3.376  0.6479  0.0177  0.7615
              Bcc     0.1525   -11.034    -3.937    -3.680 -0.3922  0.8648  0.3136
 
              Baa    -0.0399   -21.295    -7.598    -7.103  0.6497  0.0131  0.7600
    13 H(1)   Bbb    -0.0305   -16.289    -5.812    -5.433  0.7576  0.0707 -0.6489
              Bcc     0.0704    37.584    13.411    12.537 -0.0622  0.9974  0.0360
 
              Baa    -0.0399   -21.291    -7.597    -7.102  0.6501  0.0134  0.7598
    14 H(1)   Bbb    -0.0305   -16.290    -5.813    -5.434  0.4154  0.8309 -0.3701
              Bcc     0.0704    37.582    13.410    12.536  0.6363 -0.5562 -0.5346
 
              Baa    -0.0399   -21.294    -7.598    -7.103 -0.3889  0.8647  0.3179
    15 H(1)   Bbb    -0.0305   -16.290    -5.813    -5.434  0.2970 -0.2090  0.9317
              Bcc     0.0704    37.583    13.411    12.536  0.8721  0.4567 -0.1756
 
              Baa    -0.0399   -21.296    -7.599    -7.104  0.6529  0.5014 -0.5678
    16 H(1)   Bbb    -0.0305   -16.291    -5.813    -5.434 -0.0628  0.7828  0.6191
              Bcc     0.0704    37.586    13.412    12.537  0.7548 -0.3685  0.5426
 
              Baa    -0.0399   -21.295    -7.599    -7.103 -0.3892  0.8647  0.3174
    17 H(1)   Bbb    -0.0305   -16.292    -5.814    -5.435  0.2969 -0.2084  0.9319
              Bcc     0.0704    37.588    13.412    12.538  0.8720  0.4569 -0.1756
 
              Baa    -0.0399   -21.292    -7.598    -7.102  0.6504  0.0136  0.7595
    18 H(1)   Bbb    -0.0305   -16.287    -5.812    -5.433  0.4149  0.8312 -0.3702
              Bcc     0.0704    37.580    13.409    12.535  0.6363 -0.5559 -0.5350
 
              Baa    -0.0399   -21.296    -7.599    -7.103  0.6524  0.5024 -0.5675
    19 H(1)   Bbb    -0.0305   -16.292    -5.813    -5.434 -0.6355  0.7706 -0.0484
              Bcc     0.0704    37.588    13.412    12.538  0.4130  0.3922  0.8220
 

 ---------------------------------------------------------------------------------

 No NMR shielding tensors so no spin-rotation constants.
 Leave Link  601 at Wed Mar  5 21:38:09 2025, MaxMem= 13421772800 cpu:              29.2 elap:               0.3
 (Enter /gpfs/fs1/soft/improv/software/custom-built/gaussian/g16/l9999.exe)

 Test job not archived.
 1\1\GINC-I695\SP\UOPBE\Gen\Fe1H12O6(3+,6)\HHARB\05-Mar-2025\0\\#p OPBE
  scrf=(cpcm,solvent=water) geom=allcheck guess=read chkbasis IOp(3/174
 =1000000) IOp(3/175=2055000) IOp(3/176=837000)\\Title\\3,6\Fe,-0.78486
 29654,0.7129160098,0.0317455864\O,-1.33031295,2.6889431922,-0.29631739
 22\H,-1.4512642852,3.1234064868,-1.1596819387\O,1.2164288308,1.2651928
 819,0.0291546437\H,1.9825381666,0.6762365387,0.1515848493\O,-0.8695811
 653,1.0303643362,2.0816758586\H,-1.6463886611,0.9113284717,2.657165365
 9\O,-0.2400239219,-1.2631484324,0.3604770956\H,-0.055481817,-1.9363472
 638,-0.3188812728\O,-2.7861567024,0.160891107,0.0338263622\H,-3.552072
 9761,0.7498688859,-0.0896242679\O,-0.6992443621,0.3954669843,-2.018091
 4081\H,0.0778964017,0.5148167298,-2.5930640206\H,-1.4283320711,0.09862
 72654,-2.5917660114\H,1.5716607103,2.1636307643,-0.0949661424\H,-1.515
 5865592,3.3615629993,0.3834152126\H,-3.1416419284,-0.7373657263,0.1584
 340133\H,-0.1399714327,1.3268371545,2.6548788956\H,-0.1191198815,-1.69
 71486154,1.2240799809\\Version=ES64L-G16RevC.02\State=6-A\HF=-1721.827
 0407\S2=8.754175\S2-1=0.\S2A=8.750006\RMSD=3.249e-09\Dipole=-0.000195,
 -0.0001552,-0.0000943\Quadrupole=0.0018113,-0.0020568,0.0002456,-0.001
 7706,0.0022722,-0.006983\PG=C01 [X(Fe1H12O6)]\\@


 EVERYTHING'S GOT A MORAL, IF ONLY YOU CAN FIND IT.

                                    -- LEWIS CARROL, ALICE IN WONDERLAND
 Job cpu time:       0 days  1 hours 31 minutes 47.5 seconds.
 Elapsed time:       0 days  0 hours  0 minutes 46.6 seconds.
 File lengths (MBytes):  RWF=    119 Int=      0 D2E=      0 Chk=    268 Scr=      1
 Normal termination of Gaussian 16 at Wed Mar  5 21:38:09 2025.
