 Entering Gaussian System, Link 0=g16
 Input=Fe_2_B97D.com
 Output=Fe_2_B97D.log
 Initial command:
 /gpfs/fs1/soft/improv/software/custom-built/gaussian/g16/l1.exe "/scratch/Gau-3018496.inp" -scrdir="/scratch/"
 Default CPUs for threads: 0-127
 Default linda workers: i592.lcrc.anl.gov
 Default is to use 128 SMP processors on each worker.
 Entering Link 1 = /gpfs/fs1/soft/improv/software/custom-built/gaussian/g16/l1.exe PID=   3018497.
  
 Copyright (c) 1988-2021, Gaussian, Inc.  All Rights Reserved.
  
 This is part of the Gaussian(R) 16 program.  It is based on
 the Gaussian(R) 09 system (copyright 2009, Gaussian, Inc.),
 the Gaussian(R) 03 system (copyright 2003, Gaussian, Inc.),
 the Gaussian(R) 98 system (copyright 1998, Gaussian, Inc.),
 the Gaussian(R) 94 system (copyright 1995, Gaussian, Inc.),
 the Gaussian 92(TM) system (copyright 1992, Gaussian, Inc.),
 the Gaussian 90(TM) system (copyright 1990, Gaussian, Inc.),
 the Gaussian 88(TM) system (copyright 1988, Gaussian, Inc.),
 the Gaussian 86(TM) system (copyright 1986, Carnegie Mellon
 University), and the Gaussian 82(TM) system (copyright 1983,
 Carnegie Mellon University). Gaussian is a federally registered
 trademark of Gaussian, Inc.
  
 This software contains proprietary and confidential information,
 including trade secrets, belonging to Gaussian, Inc.
  
 This software is provided under written license and may be
 used, copied, transmitted, or stored only in accord with that
 written license.
  
 The following legend is applicable only to US Government
 contracts under FAR:
  
                    RESTRICTED RIGHTS LEGEND
  
 Use, reproduction and disclosure by the US Government is
 subject to restrictions as set forth in subparagraphs (a)
 and (c) of the Commercial Computer Software - Restricted
 Rights clause in FAR 52.227-19.
  
 Gaussian, Inc.
 340 Quinnipiac St., Bldg. 40, Wallingford CT 06492
  
  
 ---------------------------------------------------------------
 Warning -- This program may not be used in any manner that
 competes with the business of Gaussian, Inc. or will provide
 assistance to any competitor of Gaussian, Inc.  The licensee
 of this program is prohibited from giving any competitor of
 Gaussian, Inc. access to this program.  By using this program,
 the user acknowledges that Gaussian, Inc. is engaged in the
 business of creating and licensing software in the field of
 computational chemistry and represents and warrants to the
 licensee that it is not a competitor of Gaussian, Inc. and that
 it will not use this program in any manner prohibited above.
 ---------------------------------------------------------------
  

 Cite this work as:
 Gaussian 16, Revision C.02,
 M. J. Frisch, G. W. Trucks, H. B. Schlegel, G. E. Scuseria, 
 M. A. Robb, J. R. Cheeseman, G. Scalmani, V. Barone, 
 G. A. Petersson, H. Nakatsuji, X. Li, M. Caricato, A. V. Marenich, 
 J. Bloino, B. G. Janesko, R. Gomperts, B. Mennucci, H. P. Hratchian, 
 J. V. Ortiz, A. F. Izmaylov, J. L. Sonnenberg, D. Williams-Young, 
 F. Ding, F. Lipparini, F. Egidi, J. Goings, B. Peng, A. Petrone, 
 T. Henderson, D. Ranasinghe, V. G. Zakrzewski, J. Gao, N. Rega, 
 G. Zheng, W. Liang, M. Hada, M. Ehara, K. Toyota, R. Fukuda, 
 J. Hasegawa, M. Ishida, T. Nakajima, Y. Honda, O. Kitao, H. Nakai, 
 T. Vreven, K. Throssell, J. A. Montgomery, Jr., J. E. Peralta, 
 F. Ogliaro, M. J. Bearpark, J. J. Heyd, E. N. Brothers, K. N. Kudin, 
 V. N. Staroverov, T. A. Keith, R. Kobayashi, J. Normand, 
 K. Raghavachari, A. P. Rendell, J. C. Burant, S. S. Iyengar, 
 J. Tomasi, M. Cossi, J. M. Millam, M. Klene, C. Adamo, R. Cammi, 
 J. W. Ochterski, R. L. Martin, K. Morokuma, O. Farkas, 
 J. B. Foresman, and D. J. Fox, Gaussian, Inc., Wallingford CT, 2019.
 
 ******************************************
 Gaussian 16:  ES64L-G16RevC.02  7-Dec-2021
                 5-Mar-2025 
 ******************************************
 %chk=Fe_2_B97D.chk
 SetSPE:  set environment variable "OMP_PROC_BIND" = "true"
 SetSPE:  set environment variable "OMP_PLACES" = "{0},{1},{2},{3},{4},{5},{6},{7},{8},{9},{10},{11},{12},{13},{14},{15},{16},{17},{18},{19},{20},{21},{22},{23},{24},{25},{26},{27},{28},{29},{30},{31},{32},{33},{34},{35},{36},{37},{38},{39},{40},{41},{42},{43},{44},{45},{46},{47},{48},{49},{50},{51},{52},{53},{54},{55},{56},{57},{58},{59},{60},{61},{62},{63},{64},{65},{66},{67},{68},{69},{70},{71},{72},{73},{74},{75},{76},{77},{78},{79},{80},{81},{82},{83},{84},{85},{86},{87},{88},{89},{90},{91},{92},{93},{94},{95},{96},{97},{98},{99},{100},{101},{102},{103},{104},{105},{106},{107},{108},{109},{110},{111},{112},{113},{114},{115},{116},{117},{118},{119},{120},{121},{122},{123},{124},{125},{126},{127}"
 SetLPE:    new flags="-opt 'Tsnet.Node.lindarsharg: ssh'  -nodelist 'i592.lcrc.anl.gov' -env GAUSS_MDEF=13421772800 -env GAUSS_EXEDIR="/gpfs/fs1/soft/improv/software/custom-built/gaussian/g16/bsd:/gpfs/fs1/soft/improv/software/custom-built/gaussian/g16" -env "OMP_PROC_BIND=true" -env "OMP_PLACES={0},{1},{2},{3},{4},{5},{6},{7},{8},{9},{10},{11},{12},{13},{14},{15},{16},{17},{18},{19},{20},{21},{22},{23},{24},{25},{26},{27},{28},{29},{30},{31},{32},{33},{34},{35},{36},{37},{38},{39},{40},{41},{42},{43},{44},{45},{46},{47},{48},{49},{50},{51},{52},{53},{54},{55},{56},{57},{58},{59},{60},{61},{62},{63},{64},{65},{66},{67},{68},{69},{70},{71},{72},{73},{74},{75},{76},{77},{78},{79},{80},{81},{82},{83},{84},{85},{86},{87},{88},{89},{90},{91},{92},{93},{94},{95},{96},{97},{98},{99},{100},{101},{102},{103},{104},{105},{106},{107},{108},{109},{110},{111},{112},{113},{114},{115},{116},{117},{118},{119},{120},{121},{122},{123},{124},{125},{126},{127}" -env GAUSS_ADEF="0,1,2,3,4,5,6,7,8,9,10,11,12,13,14,15,16,17,18,19,20,21,22,23,24,25,26,27,28,29,30,31,32,33,34,35,36,37,38,39,40,41,42,43,44,45,46,47,48,49,50,51,52,53,54,55,56,57,58,59,60,61,62,63,64,65,66,67,68,69,70,71,72,73,74,75,76,77,78,79,80,81,82,83,84,85,86,87,88,89,90,91,92,93,94,95,96,97,98,99,100,101,102,103,104,105,106,107,108,109,110,111,112,113,114,115,116,117,118,119,120,121,122,123,124,125,126,127""
 Will use up to    1 processors via Linda.
 ----------------------------------------------------------------------
 #p B97D 6-31+G(2df,p) opt=(cartesian,calcall,maxcycles=500) freq scf=(
 maxcycles=500,xqc,maxconventional=50) IOp(3/174=1000000) IOp(3/175=909
 000) IOp(3/176=892000)
 ----------------------------------------------------------------------
 1/6=500,10=4,18=10,26=3,38=1/1,3;
 2/12=2,17=6,18=5,29=2,40=1/2;
 3/5=1,6=6,7=114,11=2,25=1,30=1,71=2,74=-42,140=1,174=1000000,175=909000,176=892000/1,2,3;
 4//1;
 5/5=2,7=500,8=3,13=1,38=5,85=50/2,8;
 8/6=4,10=90,11=11/1;
 11/6=1,8=1,9=11,15=111,16=1/1,2,10;
 10/6=1/2;
 6/7=2,8=2,9=2,10=2,18=1,28=1/1;
 7/7=1,10=1,25=1/1,2,3,16;
 1/6=500,10=4,18=10,26=3/3(3);
 2/29=1/2;
 7/7=1,8=1,9=1,25=1,44=-1/16;
 99/12=1/99;
 2/29=1/2;
 3/5=1,6=6,7=114,11=2,25=1,30=1,71=2,74=-42,140=1,174=1000000,175=909000,176=892000/1,2,3;
 4/5=5,16=3,69=1/1;
 5/5=2,7=500,8=3,13=1,38=5,85=50/2,8;
 8/6=4,10=90,11=11/1;
 11/6=1,8=1,9=11,15=111,16=1/1,2,10;
 10/6=1/2;
 7/7=1,10=1,25=1/1,2,3,16;
 1/6=500,10=4,18=10,26=3/3(-8);
 2/29=1/2;
 6/7=2,8=2,9=2,10=2,18=1,19=2,28=1/1;
 7/7=1,8=1,9=1,25=1,44=-1/16;
 99/12=1/99;
 Leave Link    1 at Wed Mar  5 18:42:52 2025, MaxMem=           0 cpu:               1.8 elap:               0.0
 (Enter /gpfs/fs1/soft/improv/software/custom-built/gaussian/g16/l101.exe)
 -----
 Title
 -----
 Symbolic Z-matrix:
 Charge =  3 Multiplicity = 6
 Fe                   -0.79304   0.81881  -0.09491 
 O                    -1.20497   2.57394  -0.35687 
 H                    -2.12106   2.64974  -0.63312 
 O                     0.99012   1.19063  -0.05794 
 H                     1.42696   0.5998    0.55971 
 O                    -0.81752   1.03069   1.71365 
 H                    -1.02108   0.1906    2.13133 
 O                    -0.38507  -0.93351   0.17118 
 H                    -1.15682  -1.47369  -0.01433 
 O                    -2.57341   0.45178  -0.12186 
 H                    -2.77756  -0.08744  -0.88929 
 O                    -0.76966   0.60461  -1.90111 
 H                     0.09872   0.83457  -2.23949 
 H                    -0.96534  -0.30999  -2.11742 
 H                     1.12208   2.09943   0.22124 
 H                    -1.07671   3.0584    0.46184 
 H                    -2.81407  -0.02398   0.6765 
 H                     0.0422    1.33615   2.01181 
 H                    -0.11532  -1.06446   1.08312 
 
 ITRead=  0  0  0  0  0  0  0  0  0  0  0  0  0  0  0  0  0  0  0
 MicOpt= -1 -1 -1 -1 -1 -1 -1 -1 -1 -1 -1 -1 -1 -1 -1 -1 -1 -1 -1
 NAtoms=     19 NQM=       19 NQMF=       0 NMMI=      0 NMMIF=      0
                NMic=       0 NMicF=      0.
                    Isotopes and Nuclear Properties:
 (Nuclear quadrupole moments (NQMom) in fm**2, nuclear magnetic moments (NMagM)
  in nuclear magnetons)

  Atom         1           2           3           4           5           6           7           8           9          10
 IAtWgt=          56          16           1          16           1          16           1          16           1          16
 AtmWgt=  55.9349393  15.9949146   1.0078250  15.9949146   1.0078250  15.9949146   1.0078250  15.9949146   1.0078250  15.9949146
 NucSpn=           0           0           1           0           1           0           1           0           1           0
 AtZEff=  -0.0000000  -0.0000000  -0.0000000  -0.0000000  -0.0000000  -0.0000000  -0.0000000  -0.0000000  -0.0000000  -0.0000000
 NQMom=    0.0000000   0.0000000   0.0000000   0.0000000   0.0000000   0.0000000   0.0000000   0.0000000   0.0000000   0.0000000
 NMagM=    0.0000000   0.0000000   2.7928460   0.0000000   2.7928460   0.0000000   2.7928460   0.0000000   2.7928460   0.0000000
 AtZNuc=  26.0000000   8.0000000   1.0000000   8.0000000   1.0000000   8.0000000   1.0000000   8.0000000   1.0000000   8.0000000

  Atom        11          12          13          14          15          16          17          18          19
 IAtWgt=           1          16           1           1           1           1           1           1           1
 AtmWgt=   1.0078250  15.9949146   1.0078250   1.0078250   1.0078250   1.0078250   1.0078250   1.0078250   1.0078250
 NucSpn=           1           0           1           1           1           1           1           1           1
 AtZEff=  -0.0000000  -0.0000000  -0.0000000  -0.0000000  -0.0000000  -0.0000000  -0.0000000  -0.0000000  -0.0000000
 NQMom=    0.0000000   0.0000000   0.0000000   0.0000000   0.0000000   0.0000000   0.0000000   0.0000000   0.0000000
 NMagM=    2.7928460   0.0000000   2.7928460   2.7928460   2.7928460   2.7928460   2.7928460   2.7928460   2.7928460
 AtZNuc=   1.0000000   8.0000000   1.0000000   1.0000000   1.0000000   1.0000000   1.0000000   1.0000000   1.0000000
 Leave Link  101 at Wed Mar  5 18:42:52 2025, MaxMem= 13421772800 cpu:               0.4 elap:               0.1
 (Enter /gpfs/fs1/soft/improv/software/custom-built/gaussian/g16/l103.exe)

 GradGradGradGradGradGradGradGradGradGradGradGradGradGradGradGradGradGrad
 Berny optimization.
 Initialization pass.
 No Z-matrix variables, so optimization will use Cartesian coordinates.
 Trust Radius=3.00D-01 FncErr=1.00D-07 GrdErr=1.00D-06 EigMax=2.50D+02 EigMin=1.00D-04
 Number of steps in this run=    114 maximum allowed number of steps=    114.
 GradGradGradGradGradGradGradGradGradGradGradGradGradGradGradGradGradGrad

 Leave Link  103 at Wed Mar  5 18:42:53 2025, MaxMem= 13421772800 cpu:               0.4 elap:               0.1
 (Enter /gpfs/fs1/soft/improv/software/custom-built/gaussian/g16/l202.exe)
 ---------------------------------------------------------------------------------------------------
                            Z-MATRIX (ANGSTROMS AND DEGREES)
   CD    Cent   Atom    N1       Length/X        N2       Alpha/Y        N3        Beta/Z          J
 ---------------------------------------------------------------------------------------------------
      1      1  Fe       0  -0.793037          0.818805         -0.094905
      2      2  O        0  -1.204971          2.573941         -0.356874
      3      3  H        0  -2.121063          2.649743         -0.633122
      4      4  O        0   0.990122          1.190635         -0.057941
      5      5  H        0   1.426962          0.599798          0.559707
      6      6  O        0  -0.817519          1.030691          1.713650
      7      7  H        0  -1.021079          0.190602          2.131326
      8      8  O        0  -0.385068         -0.933506          0.171177
      9      9  H        0  -1.156817         -1.473692         -0.014327
     10     10  O        0  -2.573405          0.451778         -0.121857
     11     11  H        0  -2.777557         -0.087440         -0.889285
     12     12  O        0  -0.769659          0.604612         -1.901109
     13     13  H        0   0.098725          0.834573         -2.239490
     14     14  H        0  -0.965336         -0.309994         -2.117418
     15     15  H        0   1.122081          2.099426          0.221242
     16     16  H        0  -1.076711          3.058396          0.461841
     17     17  H        0  -2.814074         -0.023981          0.676500
     18     18  H        0   0.042204          1.336153          2.011809
     19     19  H        0  -0.115315         -1.064459          1.083123
 ---------------------------------------------------------------------------------------------------
                         Z-Matrix orientation:                         
 ---------------------------------------------------------------------
 Center     Atomic      Atomic             Coordinates (Angstroms)
 Number     Number       Type             X           Y           Z
 ---------------------------------------------------------------------
      1         26           0       -0.793037    0.818805   -0.094905
      2          8           0       -1.204971    2.573941   -0.356874
      3          1           0       -2.121063    2.649743   -0.633122
      4          8           0        0.990122    1.190635   -0.057941
      5          1           0        1.426962    0.599798    0.559707
      6          8           0       -0.817519    1.030691    1.713650
      7          1           0       -1.021079    0.190602    2.131326
      8          8           0       -0.385068   -0.933506    0.171177
      9          1           0       -1.156817   -1.473692   -0.014327
     10          8           0       -2.573405    0.451778   -0.121857
     11          1           0       -2.777557   -0.087440   -0.889285
     12          8           0       -0.769659    0.604612   -1.901109
     13          1           0        0.098725    0.834573   -2.239490
     14          1           0       -0.965336   -0.309994   -2.117418
     15          1           0        1.122081    2.099426    0.221242
     16          1           0       -1.076711    3.058396    0.461841
     17          1           0       -2.814074   -0.023981    0.676500
     18          1           0        0.042204    1.336153    2.011809
     19          1           0       -0.115315   -1.064459    1.083123
 ---------------------------------------------------------------------
                    Distance matrix (angstroms):
                    1          2          3          4          5
     1  Fe   0.000000
     2  O    1.821762   0.000000
     3  H    2.325008   0.959835   0.000000
     4  O    1.821889   2.611767   3.484150   0.000000
     5  H    2.324839   3.415322   4.267739   0.959899   0.000000
     6  O    1.821090   2.611285   3.134947   2.536076   2.560263
     7  H    2.324381   3.450400   3.859988   3.136540   2.937743
     8  O    1.818745   3.640503   4.062050   2.540791   2.405292
     9  H    2.322579   4.062387   4.279649   3.421971   3.362259
    10  O    1.818006   2.536025   2.301533   3.639880   4.060711
    11  H    2.321775   3.136788   2.826442   4.064482   4.499984
    12  O    1.819010   2.540161   2.759827   2.614866   3.298603
    13  H    2.322657   2.875634   3.286750   2.383386   3.107223
    14  H    2.322591   3.387332   3.506977   3.212032   3.703756
    15  H    2.325429   2.444290   3.398642   0.959822   1.567289
    16  H    2.325125   0.959918   1.567358   2.833814   3.510364
    17  H    2.321626   3.225876   3.056824   4.060370   4.288255
    18  H    2.324547   2.949275   3.660724   2.281137   2.137375
    19  H    2.322443   4.061883   4.556733   2.758526   2.328591
                    6          7          8          9         10
     6  O    0.000000
     7  H    0.960021   0.000000
     8  O    2.534622   2.347406   0.000000
     9  H    3.061530   2.718847   0.960108   0.000000
    10  O    2.605257   2.748593   2.606473   2.392848   0.000000
    11  H    3.444886   3.505227   2.750347   2.305222   0.959885
    12  O    3.640099   4.061422   2.609231   2.833582   2.538227
    13  H    4.062670   4.557707   3.028445   3.443229   3.430916
    14  H    4.061572   4.278496   2.441955   2.411193   2.673658
    15  H    2.670492   3.447487   3.387136   4.244531   4.060675
    16  H    2.397039   3.318813   4.061790   4.557738   3.061904
    17  H    2.484803   2.318921   2.642472   2.307685   0.960023
    18  H    0.959858   1.567527   2.953276   3.665802   3.489421
    19  H    2.297892   1.869309   0.959980   1.567353   3.129403
                   11         12         13         14         15
    11  H    0.000000
    12  O    2.352526   0.000000
    13  H    3.308498   0.959935   0.000000
    14  H    2.200452   0.959991   1.567533   0.000000
    15  H    4.606825   3.212091   2.949969   3.953725   0.000000
    16  H    3.822919   3.420362   3.691102   4.243941   2.410850
    17  H    1.567497   3.349453   4.210050   3.362383   4.495491
    18  H    4.288824   4.062660   4.281159   4.558009   2.225950
    19  H    3.454344   3.481323   3.833001   3.396353   3.504877
                   16         17         18         19
    16  H    0.000000
    17  H    3.544793   0.000000
    18  H    2.573032   3.433851   0.000000
    19  H    4.278809   2.920828   2.578800   0.000000
 Stoichiometry    FeH12O6(3+,6)
 Framework group  C1[X(FeH12O6)]
 Deg. of freedom    51
 Full point group                 C1      NOp   1
 Largest Abelian subgroup         C1      NOp   1
 Largest concise Abelian subgroup C1      NOp   1
                         Standard orientation:                         
 ---------------------------------------------------------------------
 Center     Atomic      Atomic             Coordinates (Angstroms)
 Number     Number       Type             X           Y           Z
 ---------------------------------------------------------------------
      1         26           0       -0.020212   -0.029769    0.009758
      2          8           0       -0.320773   -1.687164   -0.684161
      3          1           0       -1.136997   -1.679346   -1.189137
      4          8           0        1.254785   -0.678144    1.138153
      5          1           0        1.943573   -0.019708    1.254074
      6          8           0        1.298505    0.294488   -1.203590
      7          1           0        1.382461    1.241149   -1.339326
      8          8           0        0.280919    1.626834    0.697379
      9          1           0       -0.430846    2.216032    0.436526
     10          8           0       -1.285567    0.616476   -1.124434
     11          1           0       -2.034473    0.939301   -0.618170
     12          8           0       -1.338192   -0.350985    1.221594
     13          1           0       -0.971642   -0.815184    1.977660
     14          1           0       -1.717006    0.482356    1.510774
     15          1           0        1.635434   -1.476912    0.766219
     16          1           0        0.408530   -1.930525   -1.258908
     17          1           0       -0.914804    1.335716   -1.641030
     18          1           0        2.129249   -0.056449   -0.874904
     19          1           0        1.114608    1.965515    0.362985
 ---------------------------------------------------------------------
 Rotational constants (GHZ):           2.0396930           1.9739388           1.9252729
 Leave Link  202 at Wed Mar  5 18:42:53 2025, MaxMem= 13421772800 cpu:               0.5 elap:               0.1
 (Enter /gpfs/fs1/soft/improv/software/custom-built/gaussian/g16/l301.exe)
 Standard basis: 6-31+G(2df,p) (6D, 7F)
 Ernie: Thresh=  0.10000D-02 Tol=  0.10000D-05 Strict=F.
 There are   347 symmetry adapted cartesian basis functions of A   symmetry.
 There are   317 symmetry adapted basis functions of A   symmetry.
   317 basis functions,   514 primitive gaussians,   347 cartesian basis functions
    44 alpha electrons       39 beta electrons
       nuclear repulsion energy       767.7883002195 Hartrees.
 IExCor= 3630 DFT=T Ex+Corr=B97D ExCW=0 ScaHFX=  0.000000
 ScaDFX=  1.000000  1.000000  1.000000  1.000000 ScalE2=  1.000000  1.000000
 IRadAn=      5 IRanWt=     -1 IRanGd=            0 ICorTp=0 IEmpDi=121
 NAtoms=   19 NActive=   19 NUniq=   19 SFac= 1.00D+00 NAtFMM=   60 NAOKFM=F Big=F
 Integral buffers will be    131072 words long.
 Raffenetti 2 integral format.
 Two-electron integral symmetry is turned on.
 R6DIni: Non-standard D2/D3 S6 parameter, value=     1.000000
 R6DIni: Non-standard D2/D3 S8 parameter, value=     0.909000
 R6DIni: Non-standard D2/D3 SR6 parameter, value=     0.892000
 R6Disp:  Grimme-D2 Dispersion energy=       -0.0732996224 Hartrees.
 Nuclear repulsion after empirical dispersion term =      767.7150005971 Hartrees.
 Leave Link  301 at Wed Mar  5 18:42:53 2025, MaxMem= 13421772800 cpu:               0.4 elap:               0.1
 (Enter /gpfs/fs1/soft/improv/software/custom-built/gaussian/g16/l302.exe)
 NPDir=0 NMtPBC=     1 NCelOv=     1 NCel=       1 NClECP=     1 NCelD=      1
         NCelK=      1 NCelE2=     1 NClLst=     1 CellRange=     0.0.
 One-electron integrals computed using PRISM.
 One-electron integral symmetry used in STVInt
 NBasis=   317 RedAO= T EigKep=  1.64D-06  NBF=   317
 NBsUse=   317 1.00D-06 EigRej= -1.00D+00 NBFU=   317
 Precomputing XC quadrature grid using
 IXCGrd= 4 IRadAn=           5 IRanWt=          -1 IRanGd=           0 AccXCQ= 0.00D+00.
 Generated NRdTot=       0 NPtTot=           0 NUsed=           0 NTot=          32
 NSgBfM=   347   346   347   347   347 MxSgAt=    19 MxSgA2=    19.
 Leave Link  302 at Wed Mar  5 18:42:54 2025, MaxMem= 13421772800 cpu:              22.3 elap:               0.3
 (Enter /gpfs/fs1/soft/improv/software/custom-built/gaussian/g16/l303.exe)
 DipDrv:  MaxL=1.
 Leave Link  303 at Wed Mar  5 18:42:54 2025, MaxMem= 13421772800 cpu:               1.1 elap:               0.0
 (Enter /gpfs/fs1/soft/improv/software/custom-built/gaussian/g16/l401.exe)
 ExpMin= 1.26D-02 ExpMax= 6.11D+04 ExpMxC= 9.18D+03 IAcc=3 IRadAn=         5 AccDes= 0.00D+00
 Harris functional with IExCor= 3630 and IRadAn=       5 diagonalized for initial guess.
 HarFok:  IExCor= 3630 AccDes= 0.00D+00 IRadAn=         5 IDoV= 1 UseB2=F ITyADJ=14
 ICtDFT=  3500011 ScaDFX=  1.000000  1.000000  1.000000  1.000000
 FoFCou: FMM=F IPFlag=           0 FMFlag=      100000 FMFlg1=           0
         NFxFlg=           0 DoJE=T BraDBF=F KetDBF=T FulRan=T
         wScrn=  0.000000 ICntrl=       500 IOpCl=  0 I1Cent=   200000004 NGrid=           0
         NMat0=    1 NMatS0=      1 NMatT0=    0 NMatD0=    1 NMtDS0=    0 NMtDT0=    0
 Petite list used in FoFCou.
 Harris En= -1721.79461852461    
 JPrj=0 DoOrth=F DoCkMO=F.
 Initial guess <Sx>= 0.0000 <Sy>= 0.0000 <Sz>= 2.5000 <S**2>= 8.7500 S= 2.5000
 Leave Link  401 at Wed Mar  5 18:42:55 2025, MaxMem= 13421772800 cpu:              39.9 elap:               0.6
 (Enter /gpfs/fs1/soft/improv/software/custom-built/gaussian/g16/l502.exe)
 Integral symmetry usage will be decided dynamically.
 UHF open shell SCF:
 Using DIIS extrapolation, IDIIS=  1040.
 NGot= 13421772800 LenX= 13421483807 LenY= 13421362957
 Requested convergence on RMS density matrix=1.00D-08 within  50 cycles.
 Requested convergence on MAX density matrix=1.00D-06.
 Requested convergence on             energy=1.00D-06.
 No special actions if energy rises.
 Fock matrices will be formed incrementally for  20 cycles.

 Cycle   1  Pass 1  IDiag  1:
 FoFJK:  IHMeth= 1 ICntrl=     500 DoSepK=F KAlg= 0 I1Cent=           0 FoldK=F
 IRaf= 990000000 NMat=       1 IRICut=       1 DoRegI=T DoRafI=F ISym2E= 0 IDoP0=0 IntGTp=1.
 FoFCou: FMM=F IPFlag=           0 FMFlag=      100000 FMFlg1=           0
         NFxFlg=           0 DoJE=T BraDBF=F KetDBF=F FulRan=T
         wScrn=  0.000000 ICntrl=       500 IOpCl=  0 I1Cent=           0 NGrid=           0
         NMat0=    1 NMatS0=      1 NMatT0=    0 NMatD0=    1 NMtDS0=    0 NMtDT0=    0
 Symmetry not used in FoFCou.
 E= -1720.87885631342    
 DIIS: error= 2.64D-02 at cycle   1 NSaved=   1.
 NSaved= 1 IEnMin= 1 EnMin= -1720.87885631342     IErMin= 1 ErrMin= 2.64D-02
 ErrMax= 2.64D-02  0.00D+00 EMaxC= 1.00D-01 BMatC= 2.24D+00 BMatP= 2.24D+00
 IDIUse=3 WtCom= 7.36D-01 WtEn= 2.64D-01
 Coeff-Com:  0.100D+01
 Coeff-En:   0.100D+01
 Coeff:      0.100D+01
 Gap=     0.357 Goal=   None    Shift=    0.000
 Gap=    -0.166 Goal=   None    Shift=    0.000
 GapD=   -0.166 DampG=0.250 DampE=0.250 DampFc=0.1250 IDamp=-1.
 Damping current iteration by 1.25D-01
 RMSDP=6.62D-02 MaxDP=8.95D+00              OVMax= 8.67D-01

 Cycle   2  Pass 1  IDiag  1:
 RMSU=  5.90D-03    CP:  1.06D+00
 E= -1720.93995363432     Delta-E=       -0.061097320900 Rises=F Damp=T
 DIIS: error= 1.64D-02 at cycle   2 NSaved=   2.
 NSaved= 2 IEnMin= 2 EnMin= -1720.93995363432     IErMin= 2 ErrMin= 1.64D-02
 ErrMax= 1.64D-02  0.00D+00 EMaxC= 1.00D-01 BMatC= 6.43D-01 BMatP= 2.24D+00
 IDIUse=3 WtCom= 8.36D-01 WtEn= 1.64D-01
 Coeff-Com: -0.409D+00 0.141D+01
 Coeff-En:   0.246D+00 0.754D+00
 Coeff:     -0.302D+00 0.130D+01
 Gap=     0.208 Goal=   None    Shift=    0.000
 Gap=    -0.009 Goal=   None    Shift=    0.000
 RMSDP=2.18D-02 MaxDP=2.16D+00 DE=-6.11D-02 OVMax= 9.48D-01

 Cycle   3  Pass 1  IDiag  1:
 RMSU=  1.40D-02    CP:  9.03D-01  2.35D+00
 E= -1720.86151525256     Delta-E=        0.078438381765 Rises=F Damp=F
 DIIS: error= 3.02D-02 at cycle   3 NSaved=   3.
 NSaved= 3 IEnMin= 2 EnMin= -1720.93995363432     IErMin= 2 ErrMin= 1.64D-02
 ErrMax= 3.02D-02  0.00D+00 EMaxC= 1.00D-01 BMatC= 2.15D+00 BMatP= 6.43D-01
 IDIUse=2 WtCom= 0.00D+00 WtEn= 1.00D+00
 EnCoef did     4 forward-backward iterations
 Coeff-En:   0.208D-01 0.567D+00 0.413D+00
 Coeff:      0.208D-01 0.567D+00 0.413D+00
 Gap=     0.290 Goal=   None    Shift=    0.000
 Gap=     0.017 Goal=   None    Shift=    0.000
 RMSDP=3.23D-02 MaxDP=3.77D+00 DE= 7.84D-02 OVMax= 6.35D-01

 Cycle   4  Pass 1  IDiag  1:
 RMSU=  1.20D-02    CP:  1.18D+00  3.00D+00  1.22D-02
 E= -1719.68904236516     Delta-E=        1.172472887391 Rises=F Damp=F
 DIIS: error= 9.32D-02 at cycle   4 NSaved=   4.
 NSaved= 4 IEnMin= 2 EnMin= -1720.93995363432     IErMin= 2 ErrMin= 1.64D-02
 ErrMax= 9.32D-02  0.00D+00 EMaxC= 1.00D-01 BMatC= 1.13D+01 BMatP= 6.43D-01
 IDIUse=2 WtCom= 0.00D+00 WtEn= 1.00D+00
 EnCoef did   100 forward-backward iterations
 Coeff-En:   0.375D+00 0.149D-01 0.412D+00 0.198D+00
 Coeff:      0.375D+00 0.149D-01 0.412D+00 0.198D+00
 Gap=     0.213 Goal=   None    Shift=    0.000
 Gap=     0.017 Goal=   None    Shift=    0.000
 RMSDP=1.68D-02 MaxDP=2.02D+00 DE= 1.17D+00 OVMax= 6.12D-01

 Cycle   5  Pass 1  IDiag  1:
 RMSU=  5.48D-03    CP:  1.03D+00  2.89D+00  3.41D-01  4.53D-01
 E= -1721.18972162493     Delta-E=       -1.500679259769 Rises=F Damp=F
 DIIS: error= 8.25D-03 at cycle   5 NSaved=   5.
 NSaved= 5 IEnMin= 5 EnMin= -1721.18972162493     IErMin= 5 ErrMin= 8.25D-03
 ErrMax= 8.25D-03  0.00D+00 EMaxC= 1.00D-01 BMatC= 1.45D-01 BMatP= 6.43D-01
 IDIUse=3 WtCom= 9.18D-01 WtEn= 8.25D-02
 Coeff-Com:  0.303D-01 0.126D+00 0.146D+00-0.159D-01 0.713D+00
 Coeff-En:   0.000D+00 0.000D+00 0.169D-01 0.000D+00 0.983D+00
 Coeff:      0.278D-01 0.116D+00 0.136D+00-0.146D-01 0.735D+00
 Gap=     0.169 Goal=   None    Shift=    0.000
 Gap=     0.137 Goal=   None    Shift=    0.000
 RMSDP=7.86D-03 MaxDP=9.63D-01 DE=-1.50D+00 OVMax= 8.65D-02

 Cycle   6  Pass 1  IDiag  1:
 RMSU=  2.54D-03    CP:  9.73D-01  2.20D+00  4.30D-01  3.04D-01  6.92D-01
 E= -1721.20043086333     Delta-E=       -0.010709238401 Rises=F Damp=F
 DIIS: error= 4.26D-03 at cycle   6 NSaved=   6.
 NSaved= 6 IEnMin= 6 EnMin= -1721.20043086333     IErMin= 6 ErrMin= 4.26D-03
 ErrMax= 4.26D-03  0.00D+00 EMaxC= 1.00D-01 BMatC= 6.60D-02 BMatP= 1.45D-01
 IDIUse=3 WtCom= 9.57D-01 WtEn= 4.26D-02
 Coeff-Com:  0.386D-01-0.299D-01 0.395D-01-0.161D-01 0.551D+00 0.417D+00
 Coeff-En:   0.000D+00 0.000D+00 0.000D+00 0.000D+00 0.373D+00 0.627D+00
 Coeff:      0.370D-01-0.286D-01 0.378D-01-0.154D-01 0.543D+00 0.426D+00
 Gap=     0.177 Goal=   None    Shift=    0.000
 Gap=     0.115 Goal=   None    Shift=    0.000
 RMSDP=2.37D-03 MaxDP=2.51D-01 DE=-1.07D-02 OVMax= 2.81D-02

 Cycle   7  Pass 1  IDiag  1:
 RMSU=  8.98D-04    CP:  9.94D-01  2.26D+00  3.87D-01  3.05D-01  7.38D-01
                    CP:  8.30D-01
 E= -1721.21123703545     Delta-E=       -0.010806172118 Rises=F Damp=F
 DIIS: error= 3.82D-04 at cycle   7 NSaved=   7.
 NSaved= 7 IEnMin= 7 EnMin= -1721.21123703545     IErMin= 7 ErrMin= 3.82D-04
 ErrMax= 3.82D-04  0.00D+00 EMaxC= 1.00D-01 BMatC= 5.01D-04 BMatP= 6.60D-02
 IDIUse=3 WtCom= 9.96D-01 WtEn= 3.82D-03
 Coeff-Com:  0.273D-03-0.123D-02-0.455D-03-0.198D-02 0.414D-01 0.102D+00
 Coeff-Com:  0.860D+00
 Coeff-En:   0.000D+00 0.000D+00 0.000D+00 0.000D+00 0.000D+00 0.000D+00
 Coeff-En:   0.100D+01
 Coeff:      0.272D-03-0.123D-02-0.453D-03-0.197D-02 0.412D-01 0.101D+00
 Coeff:      0.861D+00
 Gap=     0.177 Goal=   None    Shift=    0.000
 Gap=     0.115 Goal=   None    Shift=    0.000
 RMSDP=5.16D-04 MaxDP=5.94D-02 DE=-1.08D-02 OVMax= 5.38D-03

 Cycle   8  Pass 1  IDiag  1:
 RMSU=  2.54D-04    CP:  9.90D-01  2.24D+00  3.92D-01  3.07D-01  7.47D-01
                    CP:  7.60D-01  9.20D-01
 E= -1721.21129795939     Delta-E=       -0.000060923935 Rises=F Damp=F
 DIIS: error= 1.78D-04 at cycle   8 NSaved=   8.
 NSaved= 8 IEnMin= 8 EnMin= -1721.21129795939     IErMin= 8 ErrMin= 1.78D-04
 ErrMax= 1.78D-04  0.00D+00 EMaxC= 1.00D-01 BMatC= 1.47D-04 BMatP= 5.01D-04
 IDIUse=3 WtCom= 9.98D-01 WtEn= 1.78D-03
 Coeff-Com: -0.368D-02 0.337D-02-0.211D-02-0.291D-03 0.296D-03 0.443D-01
 Coeff-Com:  0.472D+00 0.487D+00
 Coeff-En:   0.000D+00 0.000D+00 0.000D+00 0.000D+00 0.000D+00 0.000D+00
 Coeff-En:   0.178D+00 0.822D+00
 Coeff:     -0.367D-02 0.337D-02-0.211D-02-0.290D-03 0.295D-03 0.443D-01
 Coeff:      0.471D+00 0.487D+00
 Gap=     0.177 Goal=   None    Shift=    0.000
 Gap=     0.115 Goal=   None    Shift=    0.000
 RMSDP=9.42D-05 MaxDP=1.18D-02 DE=-6.09D-05 OVMax= 1.79D-03

 Cycle   9  Pass 1  IDiag  1:
 RMSU=  7.69D-05    CP:  9.91D-01  2.25D+00  3.93D-01  3.05D-01  7.44D-01
                    CP:  7.58D-01  9.54D-01  9.44D-01
 E= -1721.21132049646     Delta-E=       -0.000022537075 Rises=F Damp=F
 DIIS: error= 7.91D-05 at cycle   9 NSaved=   9.
 NSaved= 9 IEnMin= 9 EnMin= -1721.21132049646     IErMin= 9 ErrMin= 7.91D-05
 ErrMax= 7.91D-05  0.00D+00 EMaxC= 1.00D-01 BMatC= 3.05D-05 BMatP= 1.47D-04
 IDIUse=1 WtCom= 1.00D+00 WtEn= 0.00D+00
 Coeff-Com: -0.428D-02 0.465D-02-0.146D-02 0.173D-03-0.548D-02 0.158D-01
 Coeff-Com:  0.162D+00 0.295D+00 0.534D+00
 Coeff:     -0.428D-02 0.465D-02-0.146D-02 0.173D-03-0.548D-02 0.158D-01
 Coeff:      0.162D+00 0.295D+00 0.534D+00
 Gap=     0.177 Goal=   None    Shift=    0.000
 Gap=     0.115 Goal=   None    Shift=    0.000
 RMSDP=5.52D-05 MaxDP=7.92D-03 DE=-2.25D-05 OVMax= 7.00D-04

 Cycle  10  Pass 1  IDiag  1:
 RMSU=  2.66D-05    CP:  9.91D-01  2.25D+00  3.92D-01  3.04D-01  7.43D-01
                    CP:  7.72D-01  9.41D-01  9.24D-01  7.08D-01
 E= -1721.21132513748     Delta-E=       -0.000004641022 Rises=F Damp=F
 DIIS: error= 6.03D-05 at cycle  10 NSaved=  10.
 NSaved=10 IEnMin=10 EnMin= -1721.21132513748     IErMin=10 ErrMin= 6.03D-05
 ErrMax= 6.03D-05  0.00D+00 EMaxC= 1.00D-01 BMatC= 6.18D-06 BMatP= 3.05D-05
 IDIUse=1 WtCom= 1.00D+00 WtEn= 0.00D+00
 Coeff-Com: -0.260D-02 0.297D-02-0.560D-03 0.116D-03-0.106D-02 0.242D-02
 Coeff-Com:  0.119D-01 0.470D-01 0.183D+00 0.756D+00
 Coeff:     -0.260D-02 0.297D-02-0.560D-03 0.116D-03-0.106D-02 0.242D-02
 Coeff:      0.119D-01 0.470D-01 0.183D+00 0.756D+00
 Gap=     0.177 Goal=   None    Shift=    0.000
 Gap=     0.115 Goal=   None    Shift=    0.000
 RMSDP=2.17D-05 MaxDP=2.98D-03 DE=-4.64D-06 OVMax= 2.39D-04

 Cycle  11  Pass 1  IDiag  1:
 RMSU=  1.02D-05    CP:  9.91D-01  2.25D+00  3.92D-01  3.04D-01  7.42D-01
                    CP:  7.72D-01  9.48D-01  9.17D-01  7.44D-01  8.65D-01
 E= -1721.21132583649     Delta-E=       -0.000000699005 Rises=F Damp=F
 DIIS: error= 3.22D-05 at cycle  11 NSaved=  11.
 NSaved=11 IEnMin=11 EnMin= -1721.21132583649     IErMin=11 ErrMin= 3.22D-05
 ErrMax= 3.22D-05  0.00D+00 EMaxC= 1.00D-01 BMatC= 1.67D-06 BMatP= 6.18D-06
 IDIUse=1 WtCom= 1.00D+00 WtEn= 0.00D+00
 Coeff-Com: -0.122D-02 0.145D-02-0.191D-03 0.418D-04 0.382D-03-0.895D-03
 Coeff-Com: -0.109D-01-0.148D-01 0.887D-02 0.284D+00 0.733D+00
 Coeff:     -0.122D-02 0.145D-02-0.191D-03 0.418D-04 0.382D-03-0.895D-03
 Coeff:     -0.109D-01-0.148D-01 0.887D-02 0.284D+00 0.733D+00
 Gap=     0.177 Goal=   None    Shift=    0.000
 Gap=     0.115 Goal=   None    Shift=    0.000
 RMSDP=9.85D-06 MaxDP=1.31D-03 DE=-6.99D-07 OVMax= 8.73D-05

 Cycle  12  Pass 1  IDiag  1:
 RMSU=  3.06D-06    CP:  9.91D-01  2.25D+00  3.91D-01  3.04D-01  7.42D-01
                    CP:  7.73D-01  9.51D-01  9.24D-01  7.53D-01  9.36D-01
                    CP:  9.76D-01
 E= -1721.21132601573     Delta-E=       -0.000000179242 Rises=F Damp=F
 DIIS: error= 1.37D-05 at cycle  12 NSaved=  12.
 NSaved=12 IEnMin=12 EnMin= -1721.21132601573     IErMin=12 ErrMin= 1.37D-05
 ErrMax= 1.37D-05  0.00D+00 EMaxC= 1.00D-01 BMatC= 4.26D-07 BMatP= 1.67D-06
 IDIUse=1 WtCom= 1.00D+00 WtEn= 0.00D+00
 Coeff-Com: -0.462D-03 0.571D-03-0.460D-04 0.795D-05 0.662D-03-0.128D-02
 Coeff-Com: -0.110D-01-0.224D-01-0.382D-01 0.244D-01 0.505D+00 0.542D+00
 Coeff:     -0.462D-03 0.571D-03-0.460D-04 0.795D-05 0.662D-03-0.128D-02
 Coeff:     -0.110D-01-0.224D-01-0.382D-01 0.244D-01 0.505D+00 0.542D+00
 Gap=     0.177 Goal=   None    Shift=    0.000
 Gap=     0.115 Goal=   None    Shift=    0.000
 RMSDP=4.94D-06 MaxDP=6.48D-04 DE=-1.79D-07 OVMax= 7.89D-05

 Cycle  13  Pass 1  IDiag  1:
 RMSU=  1.44D-06    CP:  9.91D-01  2.24D+00  3.91D-01  3.04D-01  7.42D-01
                    CP:  7.73D-01  9.52D-01  9.23D-01  7.52D-01  9.52D-01
                    CP:  1.12D+00  8.33D-01
 E= -1721.21132607681     Delta-E=       -0.000000061080 Rises=F Damp=F
 DIIS: error= 5.50D-06 at cycle  13 NSaved=  13.
 NSaved=13 IEnMin=13 EnMin= -1721.21132607681     IErMin=13 ErrMin= 5.50D-06
 ErrMax= 5.50D-06  0.00D+00 EMaxC= 1.00D-01 BMatC= 4.92D-08 BMatP= 4.26D-07
 IDIUse=1 WtCom= 1.00D+00 WtEn= 0.00D+00
 Coeff-Com: -0.734D-04 0.935D-04-0.103D-04-0.802D-06 0.242D-03-0.385D-03
 Coeff-Com: -0.222D-02-0.699D-02-0.204D-01-0.470D-01 0.780D-01 0.237D+00
 Coeff-Com:  0.762D+00
 Coeff:     -0.734D-04 0.935D-04-0.103D-04-0.802D-06 0.242D-03-0.385D-03
 Coeff:     -0.222D-02-0.699D-02-0.204D-01-0.470D-01 0.780D-01 0.237D+00
 Coeff:      0.762D+00
 Gap=     0.177 Goal=   None    Shift=    0.000
 Gap=     0.115 Goal=   None    Shift=    0.000
 RMSDP=2.44D-06 MaxDP=2.95D-04 DE=-6.11D-08 OVMax= 2.35D-05

 Cycle  14  Pass 1  IDiag  1:
 RMSU=  4.81D-07    CP:  9.91D-01  2.24D+00  3.91D-01  3.04D-01  7.42D-01
                    CP:  7.73D-01  9.53D-01  9.24D-01  7.54D-01  9.66D-01
                    CP:  1.16D+00  9.27D-01  8.19D-01
 E= -1721.21132608398     Delta-E=       -0.000000007167 Rises=F Damp=F
 DIIS: error= 8.43D-07 at cycle  14 NSaved=  14.
 NSaved=14 IEnMin=14 EnMin= -1721.21132608398     IErMin=14 ErrMin= 8.43D-07
 ErrMax= 8.43D-07  0.00D+00 EMaxC= 1.00D-01 BMatC= 1.31D-09 BMatP= 4.92D-08
 IDIUse=1 WtCom= 1.00D+00 WtEn= 0.00D+00
 Coeff-Com: -0.331D-05 0.294D-05-0.391D-05-0.934D-07 0.968D-05 0.347D-04
 Coeff-Com:  0.381D-03 0.702D-04-0.192D-02-0.118D-01-0.193D-01 0.483D-02
 Coeff-Com:  0.156D+00 0.872D+00
 Coeff:     -0.331D-05 0.294D-05-0.391D-05-0.934D-07 0.968D-05 0.347D-04
 Coeff:      0.381D-03 0.702D-04-0.192D-02-0.118D-01-0.193D-01 0.483D-02
 Coeff:      0.156D+00 0.872D+00
 Gap=     0.177 Goal=   None    Shift=    0.000
 Gap=     0.115 Goal=   None    Shift=    0.000
 RMSDP=5.65D-07 MaxDP=7.14D-05 DE=-7.17D-09 OVMax= 5.19D-06

 Cycle  15  Pass 1  IDiag  1:
 RMSU=  1.14D-07    CP:  9.91D-01  2.24D+00  3.91D-01  3.04D-01  7.42D-01
                    CP:  7.73D-01  9.53D-01  9.24D-01  7.53D-01  9.68D-01
                    CP:  1.17D+00  9.40D-01  8.80D-01  1.13D+00
 E= -1721.21132608415     Delta-E=       -0.000000000169 Rises=F Damp=F
 DIIS: error= 1.01D-07 at cycle  15 NSaved=  15.
 NSaved=15 IEnMin=15 EnMin= -1721.21132608415     IErMin=15 ErrMin= 1.01D-07
 ErrMax= 1.01D-07  0.00D+00 EMaxC= 1.00D-01 BMatC= 4.58D-11 BMatP= 1.31D-09
 IDIUse=1 WtCom= 1.00D+00 WtEn= 0.00D+00
 Coeff-Com:  0.124D-05-0.220D-05-0.138D-05 0.281D-07-0.717D-05 0.367D-04
 Coeff-Com:  0.277D-03 0.359D-03 0.116D-03-0.328D-02-0.136D-01-0.104D-01
 Coeff-Com:  0.360D-01 0.426D+00 0.564D+00
 Coeff:      0.124D-05-0.220D-05-0.138D-05 0.281D-07-0.717D-05 0.367D-04
 Coeff:      0.277D-03 0.359D-03 0.116D-03-0.328D-02-0.136D-01-0.104D-01
 Coeff:      0.360D-01 0.426D+00 0.564D+00
 Gap=     0.177 Goal=   None    Shift=    0.000
 Gap=     0.115 Goal=   None    Shift=    0.000
 RMSDP=6.69D-08 MaxDP=9.87D-06 DE=-1.69D-10 OVMax= 1.71D-06

 Cycle  16  Pass 1  IDiag  1:
 RMSU=  4.20D-08    CP:  9.91D-01  2.24D+00  3.91D-01  3.04D-01  7.42D-01
                    CP:  7.73D-01  9.53D-01  9.24D-01  7.53D-01  9.68D-01
                    CP:  1.17D+00  9.44D-01  8.82D-01  1.15D+00  8.96D-01
 E= -1721.21132608414     Delta-E=        0.000000000003 Rises=F Damp=F
 DIIS: error= 5.58D-08 at cycle  16 NSaved=  16.
 NSaved=16 IEnMin=15 EnMin= -1721.21132608415     IErMin=16 ErrMin= 5.58D-08
 ErrMax= 5.58D-08  0.00D+00 EMaxC= 1.00D-01 BMatC= 1.24D-11 BMatP= 4.58D-11
 IDIUse=1 WtCom= 1.00D+00 WtEn= 0.00D+00
 Coeff-Com:  0.923D-06-0.141D-05-0.289D-06 0.649D-07-0.749D-05 0.178D-04
 Coeff-Com:  0.122D-03 0.236D-03 0.461D-03-0.387D-04-0.520D-02-0.731D-02
 Coeff-Com: -0.433D-02 0.119D+00 0.376D+00 0.521D+00
 Coeff:      0.923D-06-0.141D-05-0.289D-06 0.649D-07-0.749D-05 0.178D-04
 Coeff:      0.122D-03 0.236D-03 0.461D-03-0.387D-04-0.520D-02-0.731D-02
 Coeff:     -0.433D-02 0.119D+00 0.376D+00 0.521D+00
 Gap=     0.177 Goal=   None    Shift=    0.000
 Gap=     0.115 Goal=   None    Shift=    0.000
 RMSDP=3.05D-08 MaxDP=3.89D-06 DE= 2.73D-12 OVMax= 5.26D-07

 Cycle  17  Pass 1  IDiag  1:
 RMSU=  1.59D-08    CP:  9.91D-01  2.24D+00  3.91D-01  3.04D-01  7.42D-01
                    CP:  7.73D-01  9.53D-01  9.24D-01  7.53D-01  9.68D-01
                    CP:  1.17D+00  9.45D-01  8.84D-01  1.16D+00  9.52D-01
                    CP:  8.71D-01
 E= -1721.21132608415     Delta-E=       -0.000000000005 Rises=F Damp=F
 DIIS: error= 1.72D-08 at cycle  17 NSaved=  17.
 NSaved=17 IEnMin=17 EnMin= -1721.21132608415     IErMin=17 ErrMin= 1.72D-08
 ErrMax= 1.72D-08  0.00D+00 EMaxC= 1.00D-01 BMatC= 9.13D-13 BMatP= 1.24D-11
 IDIUse=1 WtCom= 1.00D+00 WtEn= 0.00D+00
 Coeff-Com:  0.229D-06-0.362D-06 0.607D-07 0.693D-08-0.162D-05 0.154D-05
 Coeff-Com:  0.818D-05 0.402D-04 0.153D-03 0.382D-03-0.696D-04-0.102D-02
 Coeff-Com: -0.509D-02-0.597D-02 0.629D-01 0.172D+00 0.776D+00
 Coeff:      0.229D-06-0.362D-06 0.607D-07 0.693D-08-0.162D-05 0.154D-05
 Coeff:      0.818D-05 0.402D-04 0.153D-03 0.382D-03-0.696D-04-0.102D-02
 Coeff:     -0.509D-02-0.597D-02 0.629D-01 0.172D+00 0.776D+00
 Gap=     0.177 Goal=   None    Shift=    0.000
 Gap=     0.115 Goal=   None    Shift=    0.000
 RMSDP=1.55D-08 MaxDP=1.96D-06 DE=-5.00D-12 OVMax= 9.22D-08

 Cycle  18  Pass 1  IDiag  1:
 RMSU=  4.72D-09    CP:  9.91D-01  2.24D+00  3.91D-01  3.04D-01  7.42D-01
                    CP:  7.73D-01  9.53D-01  9.24D-01  7.53D-01  9.68D-01
                    CP:  1.17D+00  9.45D-01  8.84D-01  1.17D+00  9.80D-01
                    CP:  9.01D-01  8.26D-01
 E= -1721.21132608416     Delta-E=       -0.000000000013 Rises=F Damp=F
 DIIS: error= 5.15D-09 at cycle  18 NSaved=  18.
 NSaved=18 IEnMin=18 EnMin= -1721.21132608416     IErMin=18 ErrMin= 5.15D-09
 ErrMax= 5.15D-09  0.00D+00 EMaxC= 1.00D-01 BMatC= 6.27D-14 BMatP= 9.13D-13
 IDIUse=1 WtCom= 1.00D+00 WtEn= 0.00D+00
 Coeff-Com:  0.391D-07-0.433D-07 0.486D-07-0.614D-08 0.119D-06-0.124D-05
 Coeff-Com: -0.846D-05-0.889D-05 0.363D-06 0.120D-03 0.440D-03 0.411D-03
 Coeff-Com: -0.964D-03-0.118D-01-0.161D-01-0.331D-02 0.194D+00 0.837D+00
 Coeff:      0.391D-07-0.433D-07 0.486D-07-0.614D-08 0.119D-06-0.124D-05
 Coeff:     -0.846D-05-0.889D-05 0.363D-06 0.120D-03 0.440D-03 0.411D-03
 Coeff:     -0.964D-03-0.118D-01-0.161D-01-0.331D-02 0.194D+00 0.837D+00
 Gap=     0.177 Goal=   None    Shift=    0.000
 Gap=     0.115 Goal=   None    Shift=    0.000
 RMSDP=4.05D-09 MaxDP=5.56D-07 DE=-1.32D-11 OVMax= 2.11D-08

 SCF Done:  E(UB97D) =  -1721.21132608     A.U. after   18 cycles
            NFock= 18  Conv=0.41D-08     -V/T= 2.0009
 <Sx>= 0.0000 <Sy>= 0.0000 <Sz>= 2.5000 <S**2>= 8.7533 S= 2.5006
 <L.S>=  0.00000000000    
 KE= 1.719665413093D+03 PE=-5.575144417166D+03 EE= 1.366552677392D+03
 Annihilation of the first spin contaminant:
 S**2 before annihilation     8.7533,   after     8.7500
 Leave Link  502 at Wed Mar  5 18:43:57 2025, MaxMem= 13421772800 cpu:            7421.4 elap:              61.8
 (Enter /gpfs/fs1/soft/improv/software/custom-built/gaussian/g16/l508.exe)
 QCSCF skips out because SCF is already converged.
 Leave Link  508 at Wed Mar  5 18:43:57 2025, MaxMem= 13421772800 cpu:               0.2 elap:               0.0
 (Enter /gpfs/fs1/soft/improv/software/custom-built/gaussian/g16/l801.exe)
 DoSCS=F DFT=T ScalE2(SS,OS)=  1.000000  1.000000
 Range of M.O.s used for correlation:     1   317
 NBasis=   317 NAE=    44 NBE=    39 NFC=     0 NFV=     0
 NROrb=    317 NOA=    44 NOB=    39 NVA=   273 NVB=   278

 **** Warning!!: The largest alpha MO coefficient is  0.23764642D+03


 **** Warning!!: The largest beta MO coefficient is  0.22196835D+03

 Leave Link  801 at Wed Mar  5 18:43:57 2025, MaxMem= 13421772800 cpu:               0.4 elap:               0.0
 (Enter /gpfs/fs1/soft/improv/software/custom-built/gaussian/g16/l1101.exe)
 Using compressed storage, NAtomX=    19.
 Will process     20 centers per pass.
 R6Disp: Adding Grimme-D2 dispersion energy 1st derivatives to the gradient.
 Leave Link 1101 at Wed Mar  5 18:43:58 2025, MaxMem= 13421772800 cpu:              51.6 elap:               0.5
 (Enter /gpfs/fs1/soft/improv/software/custom-built/gaussian/g16/l1102.exe)
 Symmetrizing basis deriv contribution to polar:
 IMax=3 JMax=2 DiffMx= 0.00D+00
 Leave Link 1102 at Wed Mar  5 18:43:58 2025, MaxMem= 13421772800 cpu:               1.0 elap:               0.0
 (Enter /gpfs/fs1/soft/improv/software/custom-built/gaussian/g16/l1110.exe)
 Forming Gx(P) for the SCF density, NAtomX=    19.
 Integral derivatives from FoFJK, PRISM(SPDF).
 Do as many integral derivatives as possible in FoFJK.
 G2DrvN: MDV=   13421770631.
 G2DrvN: will do    20 centers at a time, making    1 passes.
 Calling FoFCou, ICntrl=  3507 FMM=F I1Cent=   0 AccDes= 0.00D+00.
 FoFJK:  IHMeth= 1 ICntrl=    3507 DoSepK=F KAlg= 0 I1Cent=           0 FoldK=F
 IRaf=         0 NMat=       1 IRICut=       1 DoRegI=T DoRafI=F ISym2E= 0 IDoP0=0 IntGTp=1.
 FoFCou: FMM=F IPFlag=           0 FMFlag=      100000 FMFlg1=           0
         NFxFlg=           0 DoJE=F BraDBF=F KetDBF=F FulRan=T
         wScrn=  0.000000 ICntrl=      3507 IOpCl=  0 I1Cent=           0 NGrid=           0
         NMat0=    1 NMatS0=      1 NMatT0=    0 NMatD0=    1 NMtDS0=    0 NMtDT0=    0
 Symmetry not used in FoFCou.
 End of G2Drv F.D. properties file   721 does not exist.
 End of G2Drv F.D. properties file   722 does not exist.
 End of G2Drv F.D. properties file   788 does not exist.
 Leave Link 1110 at Wed Mar  5 18:44:12 2025, MaxMem= 13421772800 cpu:            1763.3 elap:              14.1
 (Enter /gpfs/fs1/soft/improv/software/custom-built/gaussian/g16/l1002.exe)
 Minotr:  UHF open shell wavefunction.
          IDoAtm=1111111111111111111
          Direct CPHF calculation.
          Differentiating once with respect to electric field.
                with respect to dipole field.
          Differentiating once with respect to nuclear coordinates.
          Requested convergence is 1.0D-08 RMS, and 1.0D-07 maximum.
          Secondary convergence is 1.0D-12 RMS, and 1.0D-12 maximum.
          NewPWx=T KeepS1=F KeepF1=F KeepIn=T MapXYZ=F SortEE=F KeepMc=T.
         6034 words used for storage of precomputed grid.
 Two-electron integrals replicated using symmetry.
          MDV=   13421772800 using IRadAn=       1.
          Solving linear equations simultaneously, MaxMat=     384.
 FoF2E skips out because all densities are zero.
 CalDSu exits because no D1Ps are significant.
 FoFJK:  IHMeth= 1 ICntrl=     500 DoSepK=F KAlg= 0 I1Cent=           0 FoldK=F
 IRaf= 990000000 NMat=      57 IRICut=       1 DoRegI=T DoRafI=F ISym2E= 2 IDoP0=3 IntGTp=2.
 FoFCou: FMM=F IPFlag=           0 FMFlag=      100000 FMFlg1=           0
         NFxFlg=           0 DoJE=F BraDBF=F KetDBF=F FulRan=T
         wScrn=  0.000000 ICntrl=       500 IOpCl=  0 I1Cent=           0 NGrid=           0
         NMat0=   57 NMatS0=     57 NMatT0=    0 NMatD0=   57 NMtDS0=    0 NMtDT0=    0
 Integrals replicated using symmetry in FoFCou.
          There are    60 degrees of freedom in the 1st order CPHF.  IDoFFX=6 NUNeed=     3.
     57 vectors produced by pass  0 Test12= 3.81D-14 1.67D-09 XBig12= 1.13D+02 3.70D+00.
 AX will form    57 AO Fock derivatives at one time.
     57 vectors produced by pass  1 Test12= 3.81D-14 1.67D-09 XBig12= 1.34D+01 4.66D-01.
     57 vectors produced by pass  2 Test12= 3.81D-14 1.67D-09 XBig12= 1.10D-01 4.77D-02.
     57 vectors produced by pass  3 Test12= 3.81D-14 1.67D-09 XBig12= 1.25D-03 5.59D-03.
     57 vectors produced by pass  4 Test12= 3.81D-14 1.67D-09 XBig12= 7.52D-06 3.26D-04.
     57 vectors produced by pass  5 Test12= 3.81D-14 1.67D-09 XBig12= 2.09D-08 1.42D-05.
     26 vectors produced by pass  6 Test12= 3.81D-14 1.67D-09 XBig12= 4.76D-11 8.26D-07.
      4 vectors produced by pass  7 Test12= 3.81D-14 1.67D-09 XBig12= 1.20D-13 3.10D-08.
 InvSVY:  IOpt=1 It=  1 EMax= 3.55D-15
 Solved reduced A of dimension   372 with    60 vectors.
 FullF1:  Do perturbations      1 to       3.
 Isotropic polarizability for W=    0.000000       53.95 Bohr**3.
 End of Minotr F.D. properties file   721 does not exist.
 End of Minotr F.D. properties file   722 does not exist.
 End of Minotr F.D. properties file   788 does not exist.
 Leave Link 1002 at Wed Mar  5 18:44:55 2025, MaxMem= 13421772800 cpu:            5050.9 elap:              42.4
 (Enter /gpfs/fs1/soft/improv/software/custom-built/gaussian/g16/l601.exe)
 Copying SCF densities to generalized density rwf, IOpCl= 1 IROHF=0.

 **********************************************************************

            Population analysis using the SCF Density.

 **********************************************************************

 Orbital symmetries:
 Alpha Orbitals:
       Occupied  (A) (A) (A) (A) (A) (A) (A) (A) (A) (A) (A) (A)
                 (A) (A) (A) (A) (A) (A) (A) (A) (A) (A) (A) (A)
                 (A) (A) (A) (A) (A) (A) (A) (A) (A) (A) (A) (A)
                 (A) (A) (A) (A) (A) (A) (A) (A)
       Virtual   (A) (A) (A) (A) (A) (A) (A) (A) (A) (A) (A) (A)
                 (A) (A) (A) (A) (A) (A) (A) (A) (A) (A) (A) (A)
                 (A) (A) (A) (A) (A) (A) (A) (A) (A) (A) (A) (A)
                 (A) (A) (A) (A) (A) (A) (A) (A) (A) (A) (A) (A)
                 (A) (A) (A) (A) (A) (A) (A) (A) (A) (A) (A) (A)
                 (A) (A) (A) (A) (A) (A) (A) (A) (A) (A) (A) (A)
                 (A) (A) (A) (A) (A) (A) (A) (A) (A) (A) (A) (A)
                 (A) (A) (A) (A) (A) (A) (A) (A) (A) (A) (A) (A)
                 (A) (A) (A) (A) (A) (A) (A) (A) (A) (A) (A) (A)
                 (A) (A) (A) (A) (A) (A) (A) (A) (A) (A) (A) (A)
                 (A) (A) (A) (A) (A) (A) (A) (A) (A) (A) (A) (A)
                 (A) (A) (A) (A) (A) (A) (A) (A) (A) (A) (A) (A)
                 (A) (A) (A) (A) (A) (A) (A) (A) (A) (A) (A) (A)
                 (A) (A) (A) (A) (A) (A) (A) (A) (A) (A) (A) (A)
                 (A) (A) (A) (A) (A) (A) (A) (A) (A) (A) (A) (A)
                 (A) (A) (A) (A) (A) (A) (A) (A) (A) (A) (A) (A)
                 (A) (A) (A) (A) (A) (A) (A) (A) (A) (A) (A) (A)
                 (A) (A) (A) (A) (A) (A) (A) (A) (A) (A) (A) (A)
                 (A) (A) (A) (A) (A) (A) (A) (A) (A) (A) (A) (A)
                 (A) (A) (A) (A) (A) (A) (A) (A) (A) (A) (A) (A)
                 (A) (A) (A) (A) (A) (A) (A) (A) (A) (A) (A) (A)
                 (A) (A) (A) (A) (A) (A) (A) (A) (A) (A) (A) (A)
                 (A) (A) (A) (A) (A) (A) (A) (A) (A)
 Beta  Orbitals:
       Occupied  (A) (A) (A) (A) (A) (A) (A) (A) (A) (A) (A) (A)
                 (A) (A) (A) (A) (A) (A) (A) (A) (A) (A) (A) (A)
                 (A) (A) (A) (A) (A) (A) (A) (A) (A) (A) (A) (A)
                 (A) (A) (A)
       Virtual   (A) (A) (A) (A) (A) (A) (A) (A) (A) (A) (A) (A)
                 (A) (A) (A) (A) (A) (A) (A) (A) (A) (A) (A) (A)
                 (A) (A) (A) (A) (A) (A) (A) (A) (A) (A) (A) (A)
                 (A) (A) (A) (A) (A) (A) (A) (A) (A) (A) (A) (A)
                 (A) (A) (A) (A) (A) (A) (A) (A) (A) (A) (A) (A)
                 (A) (A) (A) (A) (A) (A) (A) (A) (A) (A) (A) (A)
                 (A) (A) (A) (A) (A) (A) (A) (A) (A) (A) (A) (A)
                 (A) (A) (A) (A) (A) (A) (A) (A) (A) (A) (A) (A)
                 (A) (A) (A) (A) (A) (A) (A) (A) (A) (A) (A) (A)
                 (A) (A) (A) (A) (A) (A) (A) (A) (A) (A) (A) (A)
                 (A) (A) (A) (A) (A) (A) (A) (A) (A) (A) (A) (A)
                 (A) (A) (A) (A) (A) (A) (A) (A) (A) (A) (A) (A)
                 (A) (A) (A) (A) (A) (A) (A) (A) (A) (A) (A) (A)
                 (A) (A) (A) (A) (A) (A) (A) (A) (A) (A) (A) (A)
                 (A) (A) (A) (A) (A) (A) (A) (A) (A) (A) (A) (A)
                 (A) (A) (A) (A) (A) (A) (A) (A) (A) (A) (A) (A)
                 (A) (A) (A) (A) (A) (A) (A) (A) (A) (A) (A) (A)
                 (A) (A) (A) (A) (A) (A) (A) (A) (A) (A) (A) (A)
                 (A) (A) (A) (A) (A) (A) (A) (A) (A) (A) (A) (A)
                 (A) (A) (A) (A) (A) (A) (A) (A) (A) (A) (A) (A)
                 (A) (A) (A) (A) (A) (A) (A) (A) (A) (A) (A) (A)
                 (A) (A) (A) (A) (A) (A) (A) (A) (A) (A) (A) (A)
                 (A) (A) (A) (A) (A) (A) (A) (A) (A) (A) (A) (A)
                 (A) (A)
 The electronic state is 6-A.
 Alpha  occ. eigenvalues -- -255.30524 -30.33425 -26.30117 -26.30006 -26.29956
 Alpha  occ. eigenvalues --  -19.39590 -19.39550 -19.38769 -19.38550 -19.36733
 Alpha  occ. eigenvalues --  -19.36052  -4.05278  -2.87042  -2.86723  -2.86596
 Alpha  occ. eigenvalues --   -1.59320  -1.56915  -1.56406  -1.55967  -1.54297
 Alpha  occ. eigenvalues --   -1.53539  -1.14595  -1.13157  -1.11363  -1.10644
 Alpha  occ. eigenvalues --   -1.09109  -1.07706  -1.05961  -1.05807  -1.04995
 Alpha  occ. eigenvalues --   -1.00540  -0.99428  -0.97468  -0.96951  -0.94517
 Alpha  occ. eigenvalues --   -0.93537  -0.91083  -0.90791  -0.88758  -0.88055
 Alpha  occ. eigenvalues --   -0.86385  -0.85464  -0.75441  -0.75176
 Alpha virt. eigenvalues --   -0.57464  -0.51939  -0.49861  -0.48558  -0.45609
 Alpha virt. eigenvalues --   -0.44538  -0.42935  -0.42452  -0.40036  -0.38302
 Alpha virt. eigenvalues --   -0.38040  -0.36864  -0.33850  -0.32897  -0.32019
 Alpha virt. eigenvalues --   -0.30356  -0.29783  -0.29396  -0.28966  -0.28809
 Alpha virt. eigenvalues --   -0.26557  -0.26378  -0.25926  -0.25169  -0.24187
 Alpha virt. eigenvalues --   -0.23686  -0.22625  -0.21757  -0.21060  -0.20415
 Alpha virt. eigenvalues --   -0.19808  -0.18700  -0.17465  -0.16461  -0.16122
 Alpha virt. eigenvalues --   -0.14807  -0.14309  -0.13771  -0.13044  -0.12175
 Alpha virt. eigenvalues --   -0.10029  -0.09787  -0.09269  -0.08551  -0.07408
 Alpha virt. eigenvalues --   -0.06533  -0.03865  -0.02953  -0.01393   0.03745
 Alpha virt. eigenvalues --    0.05501   0.07437   0.08044   0.17590   0.18759
 Alpha virt. eigenvalues --    0.20011   0.22878   0.25180   0.26569   0.27723
 Alpha virt. eigenvalues --    0.29089   0.29596   0.30058   0.31772   0.32013
 Alpha virt. eigenvalues --    0.34051   0.36137   0.37047   0.38114   0.39398
 Alpha virt. eigenvalues --    0.40608   0.41429   0.42036   0.43575   0.46357
 Alpha virt. eigenvalues --    0.47559   0.47701   0.48990   0.49621   0.50158
 Alpha virt. eigenvalues --    0.50926   0.53057   0.55022   0.57285   0.58165
 Alpha virt. eigenvalues --    0.59499   0.62210   0.63824   0.64821   0.67509
 Alpha virt. eigenvalues --    0.68903   0.71271   0.71366   0.72827   0.73800
 Alpha virt. eigenvalues --    0.75058   0.77952   0.79830   0.80902   0.82142
 Alpha virt. eigenvalues --    0.84880   0.86086   0.86903   1.00621   1.01826
 Alpha virt. eigenvalues --    1.09217   1.10520   1.13149   1.14634   1.16734
 Alpha virt. eigenvalues --    1.17333   1.18061   1.19331   1.21830   1.23980
 Alpha virt. eigenvalues --    1.27037   1.29844   1.30983   1.33738   1.36909
 Alpha virt. eigenvalues --    1.42647   1.46950   1.53899   1.61209   1.63036
 Alpha virt. eigenvalues --    1.64797   1.68063   1.68463   1.71693   1.76421
 Alpha virt. eigenvalues --    1.77581   1.77776   1.80302   1.80899   1.88087
 Alpha virt. eigenvalues --    1.90646   1.94215   1.97682   2.00852   2.04062
 Alpha virt. eigenvalues --    2.06599   2.07920   2.12191   2.15299   2.18496
 Alpha virt. eigenvalues --    2.20146   2.24386   2.25895   2.27769   2.30683
 Alpha virt. eigenvalues --    2.31703   2.32828   2.35773   2.35899   2.38217
 Alpha virt. eigenvalues --    2.39241   2.39960   2.41772   2.42209   2.44122
 Alpha virt. eigenvalues --    2.44665   2.45631   2.47258   2.49040   2.54089
 Alpha virt. eigenvalues --    2.59519   2.66413   2.69151   2.70380   2.71684
 Alpha virt. eigenvalues --    2.80561   3.07771   3.34537   3.36117   3.39644
 Alpha virt. eigenvalues --    3.43354   3.45147   3.50609   3.51600   3.53163
 Alpha virt. eigenvalues --    3.55302   3.56761   3.57612   3.58877   3.62017
 Alpha virt. eigenvalues --    3.62958   3.63582   3.63954   3.66981   3.69721
 Alpha virt. eigenvalues --    3.70721   3.71169   3.74487   3.75468   3.79488
 Alpha virt. eigenvalues --    3.81558   3.82779   3.84147   3.87517   3.88843
 Alpha virt. eigenvalues --    3.90196   3.92861   3.95662   3.99593   4.03376
 Alpha virt. eigenvalues --    4.08031   4.09859   4.10247   4.13261   4.15537
 Alpha virt. eigenvalues --    4.21124   4.26034   4.26849   4.29699   4.30788
 Alpha virt. eigenvalues --    4.32384   4.34634   4.37684   4.48467   4.53393
 Alpha virt. eigenvalues --    4.55861   4.56521   4.59805   4.62512   4.69220
 Alpha virt. eigenvalues --    4.73327   4.73984   4.75332   4.76121   4.77449
 Alpha virt. eigenvalues --    4.79084   4.79172   4.79985   4.81625   4.86499
 Alpha virt. eigenvalues --    4.87196   4.93673   4.95328   4.96833   4.98723
 Alpha virt. eigenvalues --    5.00276   5.04434   5.05334   5.07154   5.10467
 Alpha virt. eigenvalues --    5.13431   5.15859   5.17468   5.18742   5.20629
 Alpha virt. eigenvalues --    5.22848   5.24072   5.25922   5.26288   5.30176
 Alpha virt. eigenvalues --    5.34120   5.35885   5.47904   5.49038   5.89020
 Alpha virt. eigenvalues --    6.81585   6.84269   6.85632   6.93350   6.96351
 Alpha virt. eigenvalues --    7.11263  13.21556  13.23703  13.24737  13.79817
 Alpha virt. eigenvalues --   13.85384  13.90462  25.38148
  Beta  occ. eigenvalues -- -255.30406 -30.24576 -26.23577 -26.23482 -26.23439
  Beta  occ. eigenvalues --  -19.39359 -19.39318 -19.38522 -19.38296 -19.36443
  Beta  occ. eigenvalues --  -19.35757  -3.85091  -2.67045  -2.66847  -2.66721
  Beta  occ. eigenvalues --   -1.58523  -1.56135  -1.55571  -1.55136  -1.53327
  Beta  occ. eigenvalues --   -1.52545  -1.13709  -1.12240  -1.10808  -1.10010
  Beta  occ. eigenvalues --   -1.08311  -1.07077  -1.03498  -1.01499  -1.00699
  Beta  occ. eigenvalues --   -0.97957  -0.97682  -0.95473  -0.94378  -0.91054
  Beta  occ. eigenvalues --   -0.89666  -0.88389  -0.86853  -0.85507
  Beta virt. eigenvalues --   -0.74014  -0.73406  -0.72298  -0.62331  -0.62100
  Beta virt. eigenvalues --   -0.57266  -0.51725  -0.49603  -0.48329  -0.45313
  Beta virt. eigenvalues --   -0.44246  -0.42625  -0.42140  -0.39680  -0.37955
  Beta virt. eigenvalues --   -0.37688  -0.36494  -0.33357  -0.32355  -0.31164
  Beta virt. eigenvalues --   -0.29568  -0.29003  -0.28743  -0.28397  -0.27783
  Beta virt. eigenvalues --   -0.25983  -0.25805  -0.24951  -0.24466  -0.23198
  Beta virt. eigenvalues --   -0.22878  -0.21661  -0.20549  -0.19832  -0.19590
  Beta virt. eigenvalues --   -0.18708  -0.18076  -0.16550  -0.15760  -0.15117
  Beta virt. eigenvalues --   -0.13881  -0.13296  -0.12822  -0.12062  -0.11166
  Beta virt. eigenvalues --   -0.09058  -0.08916  -0.08290  -0.06908  -0.06422
  Beta virt. eigenvalues --   -0.05588  -0.02727  -0.01767  -0.00040   0.05441
  Beta virt. eigenvalues --    0.07223   0.07939   0.08562   0.18285   0.19465
  Beta virt. eigenvalues --    0.20869   0.23818   0.25764   0.27118   0.28464
  Beta virt. eigenvalues --    0.29736   0.30256   0.30869   0.32229   0.32895
  Beta virt. eigenvalues --    0.34385   0.36931   0.37598   0.38811   0.40183
  Beta virt. eigenvalues --    0.41191   0.41984   0.42712   0.44298   0.47365
  Beta virt. eigenvalues --    0.48258   0.48456   0.49656   0.50428   0.50901
  Beta virt. eigenvalues --    0.51779   0.53910   0.55748   0.58157   0.59029
  Beta virt. eigenvalues --    0.60335   0.63168   0.64906   0.66300   0.68922
  Beta virt. eigenvalues --    0.70162   0.72464   0.73408   0.73843   0.75467
  Beta virt. eigenvalues --    0.76770   0.78975   0.81936   0.83096   0.84128
  Beta virt. eigenvalues --    0.86763   0.87519   0.88823   1.03160   1.04034
  Beta virt. eigenvalues --    1.12384   1.12992   1.15246   1.16297   1.20208
  Beta virt. eigenvalues --    1.20552   1.21925   1.22632   1.26079   1.26990
  Beta virt. eigenvalues --    1.31062   1.31723   1.33224   1.36569   1.38856
  Beta virt. eigenvalues --    1.43562   1.48886   1.55209   1.61676   1.63536
  Beta virt. eigenvalues --    1.65475   1.68830   1.68997   1.72445   1.77284
  Beta virt. eigenvalues --    1.78454   1.78818   1.80999   1.81448   1.89132
  Beta virt. eigenvalues --    1.92912   1.94841   1.98733   2.01635   2.05661
  Beta virt. eigenvalues --    2.08609   2.09098   2.13694   2.17632   2.20769
  Beta virt. eigenvalues --    2.22469   2.26685   2.29256   2.30882   2.31817
  Beta virt. eigenvalues --    2.33080   2.34100   2.36699   2.37024   2.39105
  Beta virt. eigenvalues --    2.40532   2.41049   2.43627   2.45013   2.45321
  Beta virt. eigenvalues --    2.46785   2.47424   2.49062   2.51341   2.54971
  Beta virt. eigenvalues --    2.60280   2.67803   2.70901   2.73141   2.75280
  Beta virt. eigenvalues --    2.83573   3.11832   3.38606   3.39605   3.41542
  Beta virt. eigenvalues --    3.44774   3.46329   3.51944   3.53173   3.54718
  Beta virt. eigenvalues --    3.58737   3.59727   3.60649   3.61161   3.65983
  Beta virt. eigenvalues --    3.66750   3.67418   3.69057   3.69477   3.72673
  Beta virt. eigenvalues --    3.77262   3.77981   3.79248   3.81133   3.83980
  Beta virt. eigenvalues --    3.85553   3.86879   3.87468   3.90314   3.91827
  Beta virt. eigenvalues --    3.93010   3.97941   4.06098   4.09110   4.09989
  Beta virt. eigenvalues --    4.11948   4.15432   4.16322   4.17752   4.18675
  Beta virt. eigenvalues --    4.24705   4.30603   4.30830   4.32600   4.33769
  Beta virt. eigenvalues --    4.36047   4.38139   4.42966   4.50136   4.55647
  Beta virt. eigenvalues --    4.57633   4.58298   4.61583   4.64673   4.71583
  Beta virt. eigenvalues --    4.74354   4.75270   4.76401   4.76963   4.79248
  Beta virt. eigenvalues --    4.80219   4.81235   4.82064   4.84081   4.89133
  Beta virt. eigenvalues --    4.89904   4.95855   4.97421   4.98766   5.00781
  Beta virt. eigenvalues --    5.03271   5.07311   5.08459   5.09850   5.13289
  Beta virt. eigenvalues --    5.15154   5.17441   5.19597   5.20977   5.22482
  Beta virt. eigenvalues --    5.24721   5.25965   5.28239   5.28617   5.31281
  Beta virt. eigenvalues --    5.35132   5.36916   5.49636   5.50631   5.92554
  Beta virt. eigenvalues --    6.82901   6.85589   6.86927   6.94646   6.97637
  Beta virt. eigenvalues --    7.12291  13.22350  13.24464  13.25487  13.80573
  Beta virt. eigenvalues --   13.86183  13.91241  25.49957
          Condensed to atoms (all electrons):
               1          2          3          4          5          6
     1  Fe  24.903045  -0.073207  -0.011083  -0.039013  -0.009919  -0.068220
     2  O   -0.073207   8.227583   0.312966  -0.049571   0.000076  -0.049240
     3  H   -0.011083   0.312966   0.253935   0.000418  -0.000017   0.001199
     4  O   -0.039013  -0.049571   0.000418   8.227754   0.306983  -0.048845
     5  H   -0.009919   0.000076  -0.000017   0.306983   0.281889   0.002845
     6  O   -0.068220  -0.049240   0.001199  -0.048845   0.002845   8.243594
     7  H   -0.005799  -0.000030  -0.000032  -0.000386  -0.000336   0.306008
     8  O   -0.079591   0.051871  -0.000897  -0.056865   0.003625  -0.059579
     9  H   -0.006420  -0.000793  -0.000002   0.000065   0.000018   0.000777
    10  O   -0.040829  -0.045770   0.001231   0.040321  -0.001105  -0.057345
    11  H   -0.001874   0.001450  -0.000259  -0.000774   0.000010  -0.000380
    12  O   -0.059246  -0.039087   0.000946  -0.044624  -0.000388   0.050827
    13  H   -0.012829  -0.000605  -0.000055   0.001331  -0.000024  -0.000811
    14  H    0.005391   0.000781  -0.000012   0.000965   0.000036  -0.001171
    15  H   -0.004140   0.001451   0.000017   0.309544  -0.021857  -0.006828
    16  H   -0.002339   0.302609  -0.014114  -0.000793  -0.000026  -0.000341
    17  H   -0.011097  -0.001108   0.000086  -0.000906  -0.000007   0.002219
    18  H   -0.009074  -0.000725   0.000022   0.001353  -0.001435   0.310662
    19  H   -0.008875  -0.001197   0.000007  -0.000395   0.000260   0.002790
               7          8          9         10         11         12
     1  Fe  -0.005799  -0.079591  -0.006420  -0.040829  -0.001874  -0.059246
     2  O   -0.000030   0.051871  -0.000793  -0.045770   0.001450  -0.039087
     3  H   -0.000032  -0.000897  -0.000002   0.001231  -0.000259   0.000946
     4  O   -0.000386  -0.056865   0.000065   0.040321  -0.000774  -0.044624
     5  H   -0.000336   0.003625   0.000018  -0.001105   0.000010  -0.000388
     6  O    0.306008  -0.059579   0.000777  -0.057345  -0.000380   0.050827
     7  H    0.290256   0.001093  -0.000408   0.000728   0.000047  -0.001488
     8  O    0.001093   8.241257   0.309103  -0.027618  -0.006733  -0.044266
     9  H   -0.000408   0.309103   0.272261  -0.000997   0.000178  -0.001252
    10  O    0.000728  -0.027618  -0.000997   8.230927   0.307373  -0.065615
    11  H    0.000047  -0.006733   0.000178   0.307373   0.274253   0.001235
    12  O   -0.001488  -0.044266  -0.001252  -0.065615   0.001235   8.226616
    13  H    0.000009   0.000974   0.000021   0.001356  -0.000031   0.312422
    14  H   -0.000009  -0.001852   0.000276  -0.002529   0.001290   0.298212
    15  H    0.000156  -0.000386  -0.000028  -0.000785  -0.000001   0.001653
    16  H   -0.000002  -0.001072   0.000006   0.001615  -0.000009   0.000225
    17  H    0.000640   0.000220  -0.001337   0.310596  -0.021289   0.000339
    18  H   -0.017039   0.000585   0.000030  -0.000117  -0.000025  -0.000874
    19  H    0.001911   0.308579  -0.016478  -0.001110   0.000157   0.000567
              13         14         15         16         17         18
     1  Fe  -0.012829   0.005391  -0.004140  -0.002339  -0.011097  -0.009074
     2  O   -0.000605   0.000781   0.001451   0.302609  -0.001108  -0.000725
     3  H   -0.000055  -0.000012   0.000017  -0.014114   0.000086   0.000022
     4  O    0.001331   0.000965   0.309544  -0.000793  -0.000906   0.001353
     5  H   -0.000024   0.000036  -0.021857  -0.000026  -0.000007  -0.001435
     6  O   -0.000811  -0.001171  -0.006828  -0.000341   0.002219   0.310662
     7  H    0.000009  -0.000009   0.000156  -0.000002   0.000640  -0.017039
     8  O    0.000974  -0.001852  -0.000386  -0.001072   0.000220   0.000585
     9  H    0.000021   0.000276  -0.000028   0.000006  -0.001337   0.000030
    10  O    0.001356  -0.002529  -0.000785   0.001615   0.310596  -0.000117
    11  H   -0.000031   0.001290  -0.000001  -0.000009  -0.021289  -0.000025
    12  O    0.312422   0.298212   0.001653   0.000225   0.000339  -0.000874
    13  H    0.250117  -0.014495  -0.000148  -0.000002  -0.000024  -0.000002
    14  H   -0.014495   0.289738  -0.000012  -0.000025  -0.000068   0.000005
    15  H   -0.000148  -0.000012   0.267274   0.000089   0.000011  -0.000123
    16  H   -0.000002  -0.000025   0.000089   0.278473   0.000054  -0.000175
    17  H   -0.000024  -0.000068   0.000011   0.000054   0.280592  -0.000027
    18  H   -0.000002   0.000005  -0.000123  -0.000175  -0.000027   0.269438
    19  H   -0.000035  -0.000030   0.000057  -0.000015  -0.000251  -0.000411
              19
     1  Fe  -0.008875
     2  O   -0.001197
     3  H    0.000007
     4  O   -0.000395
     5  H    0.000260
     6  O    0.002790
     7  H    0.001911
     8  O    0.308579
     9  H   -0.016478
    10  O   -0.001110
    11  H    0.000157
    12  O    0.000567
    13  H   -0.000035
    14  H   -0.000030
    15  H    0.000057
    16  H   -0.000015
    17  H   -0.000251
    18  H   -0.000411
    19  H    0.288018
          Atomic-Atomic Spin Densities.
               1          2          3          4          5          6
     1  Fe   4.864042  -0.098539   0.000974  -0.104330   0.000872  -0.118445
     2  O   -0.098539   0.300378  -0.006059  -0.019227   0.000228  -0.017659
     3  H    0.000974  -0.006059   0.004094   0.000342   0.000005   0.000914
     4  O   -0.104330  -0.019227   0.000342   0.275810  -0.005005  -0.019899
     5  H    0.000872   0.000228   0.000005  -0.005005   0.003197   0.002323
     6  O   -0.118445  -0.017659   0.000914  -0.019899   0.002323   0.284182
     7  H    0.002100   0.000305  -0.000010  -0.000331  -0.000043  -0.007559
     8  O   -0.117796   0.029113  -0.000640  -0.023824   0.001445  -0.023097
     9  H    0.003315  -0.000695   0.000001   0.000508  -0.000062  -0.000583
    10  O   -0.105060  -0.014538   0.002284   0.025696  -0.000646  -0.028080
    11  H    0.002452  -0.000110  -0.000035  -0.000354   0.000003   0.000399
    12  O   -0.096202  -0.027935   0.002036  -0.013899   0.000227   0.030007
    13  H    0.001057   0.001586  -0.000039   0.002146  -0.000045  -0.000599
    14  H    0.000190   0.000488  -0.000032   0.000224  -0.000009  -0.000700
    15  H    0.002552   0.001589  -0.000055  -0.005381   0.000002   0.000337
    16  H    0.000599  -0.004223   0.000251   0.001037  -0.000026   0.001343
    17  H    0.001156   0.000068  -0.000047  -0.000628   0.000003   0.001220
    18  H    0.003438   0.000163  -0.000010   0.004635  -0.000014  -0.008495
    19  H    0.002164  -0.000767   0.000005   0.000517   0.000086   0.004983
               7          8          9         10         11         12
     1  Fe   0.002100  -0.117796   0.003315  -0.105060   0.002452  -0.096202
     2  O    0.000305   0.029113  -0.000695  -0.014538  -0.000110  -0.027935
     3  H   -0.000010  -0.000640   0.000001   0.002284  -0.000035   0.002036
     4  O   -0.000331  -0.023824   0.000508   0.025696  -0.000354  -0.013899
     5  H   -0.000043   0.001445  -0.000062  -0.000646   0.000003   0.000227
     6  O   -0.007559  -0.023097  -0.000583  -0.028080   0.000399   0.030007
     7  H    0.003680   0.004185  -0.000105   0.001064  -0.000033  -0.000790
     8  O    0.004185   0.283670  -0.007342  -0.016201   0.000477  -0.023978
     9  H   -0.000105  -0.007342   0.004370   0.003686   0.000048   0.000528
    10  O    0.001064  -0.016201   0.003686   0.274237  -0.005708  -0.023851
    11  H   -0.000033   0.000477   0.000048  -0.005708   0.004743   0.001939
    12  O   -0.000790  -0.023978   0.000528  -0.023851   0.001939   0.302442
    13  H    0.000005   0.001099  -0.000024   0.000346  -0.000077  -0.006240
    14  H    0.000002   0.001406   0.000128   0.001499   0.000170  -0.004876
    15  H   -0.000010   0.000331   0.000005  -0.000350   0.000003  -0.000105
    16  H   -0.000067  -0.000620   0.000005   0.000227   0.000004   0.000333
    17  H    0.000097   0.001764  -0.000036  -0.004190  -0.000090   0.000205
    18  H    0.000464  -0.000253   0.000009   0.000574   0.000005  -0.000681
    19  H   -0.000019  -0.007762   0.000441  -0.000307  -0.000010   0.000429
              13         14         15         16         17         18
     1  Fe   0.001057   0.000190   0.002552   0.000599   0.001156   0.003438
     2  O    0.001586   0.000488   0.001589  -0.004223   0.000068   0.000163
     3  H   -0.000039  -0.000032  -0.000055   0.000251  -0.000047  -0.000010
     4  O    0.002146   0.000224  -0.005381   0.001037  -0.000628   0.004635
     5  H   -0.000045  -0.000009   0.000002  -0.000026   0.000003  -0.000014
     6  O   -0.000599  -0.000700   0.000337   0.001343   0.001220  -0.008495
     7  H    0.000005   0.000002  -0.000010  -0.000067   0.000097   0.000464
     8  O    0.001099   0.001406   0.000331  -0.000620   0.001764  -0.000253
     9  H   -0.000024   0.000128   0.000005   0.000005  -0.000036   0.000009
    10  O    0.000346   0.001499  -0.000350   0.000227  -0.004190   0.000574
    11  H   -0.000077   0.000170   0.000003   0.000004  -0.000090   0.000005
    12  O   -0.006240  -0.004876  -0.000105   0.000333   0.000205  -0.000681
    13  H    0.004530   0.000212  -0.000037  -0.000018   0.000007  -0.000001
    14  H    0.000212   0.004253   0.000004   0.000007  -0.000038   0.000006
    15  H   -0.000037   0.000004   0.004201   0.000081   0.000003   0.000047
    16  H   -0.000018   0.000007   0.000081   0.003661  -0.000008   0.000063
    17  H    0.000007  -0.000038   0.000003  -0.000008   0.003019  -0.000057
    18  H   -0.000001   0.000006   0.000047   0.000063  -0.000057   0.004976
    19  H   -0.000011  -0.000071  -0.000025   0.000001  -0.000017  -0.000134
              19
     1  Fe   0.002164
     2  O   -0.000767
     3  H    0.000005
     4  O    0.000517
     5  H    0.000086
     6  O    0.004983
     7  H   -0.000019
     8  O   -0.007762
     9  H    0.000441
    10  O   -0.000307
    11  H   -0.000010
    12  O    0.000429
    13  H   -0.000011
    14  H   -0.000071
    15  H   -0.000025
    16  H    0.000001
    17  H   -0.000017
    18  H   -0.000134
    19  H    0.003665
 Mulliken charges and spin densities:
               1          2
     1  Fe   1.535119   4.244540
     2  O   -0.637453   0.144166
     3  H    0.455644   0.003978
     4  O   -0.646561   0.118038
     5  H    0.439373   0.002542
     6  O   -0.628160   0.100593
     7  H    0.424681   0.002935
     8  O   -0.638450   0.101978
     9  H    0.444980   0.004198
    10  O   -0.650327   0.110683
    11  H    0.445382   0.003827
    12  O   -0.636201   0.139589
    13  H    0.462831   0.003900
    14  H    0.423508   0.002861
    15  H    0.454056   0.003190
    16  H    0.435841   0.002651
    17  H    0.441356   0.002432
    18  H    0.447932   0.004733
    19  H    0.426451   0.003168
 Sum of Mulliken charges =   3.00000   5.00000
 Mulliken charges and spin densities with hydrogens summed into heavy atoms:
               1          2
     1  Fe   1.535119   4.244540
     2  O    0.254031   0.150794
     4  O    0.246868   0.123770
     6  O    0.244454   0.108260
     8  O    0.232980   0.109344
    10  O    0.236411   0.116941
    12  O    0.250138   0.146350
 APT charges:
               1
     1  Fe   2.095712
     2  O   -0.594147
     3  H    0.393302
     4  O   -0.561885
     5  H    0.352461
     6  O   -0.557858
     7  H    0.339223
     8  O   -0.560136
     9  H    0.353721
    10  O   -0.557965
    11  H    0.359781
    12  O   -0.583693
    13  H    0.394930
    14  H    0.354589
    15  H    0.365530
    16  H    0.364371
    17  H    0.351569
    18  H    0.353121
    19  H    0.337372
 Sum of APT charges =   3.00000
 APT charges with hydrogens summed into heavy atoms:
               1
     1  Fe   2.095712
     2  O    0.163527
     4  O    0.156106
     6  O    0.134486
     8  O    0.130957
    10  O    0.153385
    12  O    0.165826
 Electronic spatial extent (au):  <R**2>=            837.7729
 Charge=              3.0000 electrons
 Dipole moment (field-independent basis, Debye):
    X=              2.2309    Y=              3.5495    Z=             -0.9577  Tot=              4.3003
 Quadrupole moment (field-independent basis, Debye-Ang):
   XX=            -11.4706   YY=            -15.1733   ZZ=            -25.8138
   XY=             -4.1584   XZ=             -1.5929   YZ=             -0.9410
 Traceless Quadrupole moment (field-independent basis, Debye-Ang):
   XX=              6.0153   YY=              2.3126   ZZ=             -8.3279
   XY=             -4.1584   XZ=             -1.5929   YZ=             -0.9410
 Octapole moment (field-independent basis, Debye-Ang**2):
  XXX=             17.9584  YYY=             16.6759  ZZZ=              5.1586  XYY=              4.0514
  XXY=              8.8903  XXZ=              3.3476  XZZ=             -8.1235  YZZ=             -3.4343
  YYZ=            -14.5009  XYZ=             -3.1850
 Hexadecapole moment (field-independent basis, Debye-Ang**3):
 XXXX=           -165.2123 YYYY=           -173.1451 ZZZZ=           -210.9510 XXXY=            -21.2545
 XXXZ=              2.2109 YYYX=             -8.5373 YYYZ=             11.3280 ZZZX=            -16.2011
 ZZZY=            -15.5140 XXYY=            -46.6239 XXZZ=            -52.6694 YYZZ=            -50.4012
 XXYZ=             -0.5676 YYXZ=              3.3856 ZZXY=              2.0614
 N-N= 7.677150005971D+02 E-N=-5.575144415656D+03  KE= 1.719665413093D+03
  Exact polarizability:      55.613      -0.331      54.877      -0.655       0.104      51.365
 Approx polarizability:      88.119      -0.077      87.539      -1.388       0.017      80.724
                          Isotropic Fermi Contact Couplings
        Atom                 a.u.       MegaHertz       Gauss      10(-4) cm-1
     1  Fe(57)             0.39016      11.31769       4.03843       3.77517
     2  O(17)              0.13985     -16.95493      -6.04994      -5.65556
     3  H(1)               0.00231       2.06239       0.73591       0.68794
     4  O(17)              0.13767     -16.69100      -5.95576      -5.56752
     5  H(1)               0.00175       1.56146       0.55717       0.52085
     6  O(17)              0.14224     -17.24456      -6.15329      -5.75217
     7  H(1)               0.00155       1.38241       0.49328       0.46112
     8  O(17)              0.14084     -17.07552      -6.09297      -5.69578
     9  H(1)               0.00224       1.99875       0.71320       0.66671
    10  O(17)              0.13599     -16.48692      -5.88294      -5.49944
    11  H(1)               0.00266       2.37622       0.84789       0.79262
    12  O(17)              0.13803     -16.73499      -5.97146      -5.58219
    13  H(1)               0.00237       2.11606       0.75506       0.70584
    14  H(1)               0.00199       1.78064       0.63538       0.59396
    15  H(1)               0.00239       2.13223       0.76083       0.71123
    16  H(1)               0.00182       1.62511       0.57988       0.54208
    17  H(1)               0.00183       1.63950       0.58501       0.54688
    18  H(1)               0.00236       2.10968       0.75278       0.70371
    19  H(1)               0.00149       1.33538       0.47650       0.44544
 --------------------------------------------------------
       Center         ----  Spin Dipole Couplings  ----
                      3XX-RR        3YY-RR        3ZZ-RR
 --------------------------------------------------------
     1   Atom        0.024769     -0.018990     -0.005779
     2   Atom       -0.353163      0.490531     -0.137368
     3   Atom        0.002500      0.014901     -0.017401
     4   Atom        0.025924     -0.217716      0.191792
     5   Atom        0.062366     -0.043822     -0.018545
     6   Atom        0.055905     -0.267391      0.211487
     7   Atom       -0.007234      0.015951     -0.008717
     8   Atom       -0.293072      0.281888      0.011184
     9   Atom       -0.038032      0.093202     -0.055170
    10   Atom        0.078299     -0.164088      0.085788
    11   Atom        0.074229     -0.036206     -0.038024
    12   Atom        0.243718     -0.233481     -0.010237
    13   Atom       -0.029052     -0.039026      0.068078
    14   Atom        0.024192     -0.022891     -0.001301
    15   Atom        0.017196      0.022200     -0.039396
    16   Atom       -0.032634      0.041418     -0.008784
    17   Atom       -0.032537      0.007851      0.024687
    18   Atom        0.091604     -0.059407     -0.032197
    19   Atom       -0.000722      0.055002     -0.054280
 --------------------------------------------------------
                        XY            XZ            YZ
 --------------------------------------------------------
     1   Atom       -0.026802      0.016375     -0.011523
     2   Atom        0.152268      0.024130      0.089142
     3   Atom        0.049926      0.058306      0.054417
     4   Atom       -0.172794      0.264246     -0.223425
     5   Atom        0.019382      0.073968      0.001555
     6   Atom        0.086972     -0.347548     -0.014057
     7   Atom        0.051377     -0.056997     -0.052368
     8   Atom        0.108675      0.069044      0.293952
     9   Atom       -0.040575      0.003967      0.024859
    10   Atom       -0.123243      0.386359     -0.063654
    11   Atom       -0.065234      0.021343     -0.012126
    12   Atom        0.259676     -0.296058     -0.043695
    13   Atom        0.012294     -0.039846     -0.062604
    14   Atom       -0.039366     -0.079001      0.031357
    15   Atom       -0.080011      0.032582     -0.017613
    16   Atom       -0.030289     -0.037399      0.074392
    17   Atom       -0.022450      0.035694     -0.079871
    18   Atom       -0.013030     -0.045661     -0.006095
    19   Atom        0.073855     -0.000173      0.019606
 --------------------------------------------------------


 ---------------------------------------------------------------------------------
              Anisotropic Spin Dipole Couplings in Principal Axis System
 ---------------------------------------------------------------------------------

       Atom             a.u.   MegaHertz   Gauss  10(-4) cm-1        Axes

              Baa    -0.0323    -0.558    -0.199    -0.186  0.3819  0.9103  0.1600
     1 Fe(57) Bbb    -0.0129    -0.223    -0.080    -0.074 -0.3959  0.0047  0.9183
              Bcc     0.0452     0.782     0.279     0.261  0.8351 -0.4140  0.3621
 
              Baa    -0.3801    27.504     9.814     9.174  0.9850 -0.1686 -0.0360
     2 O(17)  Bbb    -0.1497    10.835     3.866     3.614  0.0121 -0.1407  0.9900
              Bcc     0.5298   -38.339   -13.680   -12.789  0.1720  0.9756  0.1366
 
              Baa    -0.0688   -36.734   -13.108   -12.253 -0.5139 -0.2305  0.8263
[...]
    14  H   -0.012352   0.281619  -0.000001  -0.000001  -0.000039  -0.000000
    15  H   -0.000039  -0.000001   0.281672  -0.000040  -0.000000  -0.000040
    16  H   -0.000001  -0.000001  -0.000040   0.281658  -0.000001  -0.000039
    17  H   -0.000001  -0.000039  -0.000000  -0.000001   0.281669  -0.000001
    18  H    0.000001  -0.000000  -0.000040  -0.000039  -0.000001   0.281627
    19  H   -0.000001  -0.000001  -0.000001   0.000001  -0.000039  -0.000040
              19
     1  Fe  -0.002535
     2  O   -0.000431
     3  H   -0.000000
     4  O    0.000434
     5  H   -0.000039
     6  O    0.002174
     7  H   -0.000039
     8  O    0.291782
     9  H   -0.012350
    10  O    0.000440
    11  H   -0.000001
    12  O    0.000835
    13  H   -0.000001
    14  H   -0.000001
    15  H   -0.000001
    16  H    0.000001
    17  H   -0.000039
    18  H   -0.000040
    19  H    0.281611
          Atomic-Atomic Spin Densities.
               1          2          3          4          5          6
     1  Fe   4.722403  -0.090905   0.003424  -0.090970   0.003424  -0.090929
     2  O   -0.090905   0.251107  -0.005713  -0.008523   0.000177  -0.008519
     3  H    0.003424  -0.005713   0.000836   0.000347  -0.000002   0.000177
     4  O   -0.090970  -0.008523   0.000347   0.251289  -0.005713  -0.008525
     5  H    0.003424   0.000177  -0.000002  -0.005713   0.000837   0.000346
     6  O   -0.090929  -0.008519   0.000177  -0.008525   0.000346   0.251208
     7  H    0.003422   0.000346  -0.000002   0.000177  -0.000002  -0.005709
     8  O   -0.090932   0.010606  -0.000160  -0.008523   0.000739  -0.008537
     9  H    0.003423  -0.000160   0.000000   0.000346  -0.000021   0.000178
    10  O   -0.090986  -0.008537   0.000347   0.010617  -0.000160  -0.008519
    11  H    0.003425   0.000741  -0.000021  -0.000160   0.000000   0.000345
    12  O   -0.090957  -0.008519   0.000739  -0.008534   0.000347   0.010610
    13  H    0.003424   0.000346  -0.000021   0.000741  -0.000021  -0.000160
    14  H    0.003425   0.000346  -0.000021   0.000178  -0.000002  -0.000160
    15  H    0.003425   0.000741  -0.000021  -0.005713   0.001139   0.000347
    16  H    0.003421  -0.005709   0.001139   0.000347  -0.000002   0.000740
    17  H    0.003426   0.000178  -0.000002  -0.000160   0.000000   0.000346
    18  H    0.003423   0.000346  -0.000002   0.000741  -0.000021  -0.005711
    19  H    0.003425  -0.000160   0.000000   0.000346  -0.000021   0.000741
               7          8          9         10         11         12
     1  Fe   0.003422  -0.090932   0.003423  -0.090986   0.003425  -0.090957
     2  O    0.000346   0.010606  -0.000160  -0.008537   0.000741  -0.008519
     3  H   -0.000002  -0.000160   0.000000   0.000347  -0.000021   0.000739
     4  O    0.000177  -0.008523   0.000346   0.010617  -0.000160  -0.008534
     5  H   -0.000002   0.000739  -0.000021  -0.000160   0.000000   0.000347
     6  O   -0.005709  -0.008537   0.000178  -0.008519   0.000345   0.010610
     7  H    0.000834   0.000347  -0.000002   0.000739  -0.000021  -0.000160
     8  O    0.000347   0.251205  -0.005711  -0.008521   0.000177  -0.008520
     9  H   -0.000002  -0.005711   0.000835   0.000347  -0.000002   0.000740
    10  O    0.000739  -0.008521   0.000347   0.251345  -0.005714  -0.008530
    11  H   -0.000021   0.000177  -0.000002  -0.005714   0.000834   0.000347
    12  O   -0.000160  -0.008520   0.000740  -0.008530   0.000347   0.251300
    13  H    0.000000   0.000345  -0.000021   0.000177  -0.000002  -0.005711
    14  H    0.000000   0.000346  -0.000021   0.000742  -0.000021  -0.005713
    15  H   -0.000002   0.000177  -0.000002  -0.000161   0.000000   0.000346
    16  H   -0.000021  -0.000160   0.000000   0.000347  -0.000021   0.000177
    17  H   -0.000021   0.000741  -0.000021  -0.005714   0.001139   0.000346
    18  H    0.001139   0.000347  -0.000002   0.000177  -0.000002  -0.000160
    19  H   -0.000021  -0.005714   0.001139   0.000346  -0.000002   0.000177
              13         14         15         16         17         18
     1  Fe   0.003424   0.003425   0.003425   0.003421   0.003426   0.003423
     2  O    0.000346   0.000346   0.000741  -0.005709   0.000178   0.000346
     3  H   -0.000021  -0.000021  -0.000021   0.001139  -0.000002  -0.000002
     4  O    0.000741   0.000178  -0.005713   0.000347  -0.000160   0.000741
     5  H   -0.000021  -0.000002   0.001139  -0.000002   0.000000  -0.000021
     6  O   -0.000160  -0.000160   0.000347   0.000740   0.000346  -0.005711
     7  H    0.000000   0.000000  -0.000002  -0.000021  -0.000021   0.001139
     8  O    0.000345   0.000346   0.000177  -0.000160   0.000741   0.000347
     9  H   -0.000021  -0.000021  -0.000002   0.000000  -0.000021  -0.000002
    10  O    0.000177   0.000742  -0.000161   0.000347  -0.005714   0.000177
    11  H   -0.000002  -0.000021   0.000000  -0.000021   0.001139  -0.000002
    12  O   -0.005711  -0.005713   0.000346   0.000177   0.000346  -0.000160
    13  H    0.000830   0.001139  -0.000021  -0.000002  -0.000002   0.000000
    14  H    0.001139   0.000833  -0.000002  -0.000002  -0.000021   0.000000
    15  H   -0.000021  -0.000002   0.000832  -0.000021   0.000000  -0.000021
    16  H   -0.000002  -0.000002  -0.000021   0.000835  -0.000002  -0.000021
    17  H   -0.000002  -0.000021   0.000000  -0.000002   0.000833  -0.000002
    18  H    0.000000   0.000000  -0.000021  -0.000021  -0.000002   0.000833
    19  H   -0.000002  -0.000002  -0.000002   0.000000  -0.000021  -0.000021
              19
     1  Fe   0.003425
     2  O   -0.000160
     3  H    0.000000
     4  O    0.000346
     5  H   -0.000021
     6  O    0.000741
     7  H   -0.000021
     8  O   -0.005714
     9  H    0.001139
    10  O    0.000346
    11  H   -0.000002
    12  O    0.000177
    13  H   -0.000002
    14  H   -0.000002
    15  H   -0.000002
    16  H    0.000000
    17  H   -0.000021
    18  H   -0.000021
    19  H    0.000832
 Mulliken charges and spin densities:
               1          2
     1  Fe   1.301843   4.217808
     2  O   -0.593487   0.128188
     3  H    0.438208   0.001045
     4  O   -0.593343   0.128304
     5  H    0.438258   0.001045
     6  O   -0.593485   0.128267
     7  H    0.438258   0.001043
     8  O   -0.593415   0.128252
     9  H    0.438200   0.001044
    10  O   -0.593305   0.128341
    11  H    0.438249   0.001042
    12  O   -0.593420   0.128326
    13  H    0.438255   0.001040
    14  H    0.438227   0.001043
    15  H    0.438168   0.001042
    16  H    0.438189   0.001045
    17  H    0.438180   0.001043
    18  H    0.438219   0.001043
    19  H    0.438200   0.001041
 Sum of Mulliken charges =   3.00000   5.00000
 Mulliken charges and spin densities with hydrogens summed into heavy atoms:
               1          2
     1  Fe   1.301843   4.217808
     2  O    0.282910   0.130277
     4  O    0.283084   0.130391
     6  O    0.282992   0.130353
     8  O    0.282985   0.130337
    10  O    0.283123   0.130426
    12  O    0.283062   0.130408
 Electronic spatial extent (au):  <R**2>=           1073.4178
 Charge=              3.0000 electrons
 Dipole moment (field-independent basis, Debye):
    X=              0.0004    Y=             -0.0001    Z=              0.0002  Tot=              0.0004
 Quadrupole moment (field-independent basis, Debye-Ang):
   XX=             -6.2694   YY=             -6.2609   ZZ=             -6.2698
   XY=              0.0088   XZ=             -0.0048   YZ=              0.0048
 Traceless Quadrupole moment (field-independent basis, Debye-Ang):
   XX=             -0.0027   YY=              0.0058   ZZ=             -0.0031
   XY=              0.0088   XZ=             -0.0048   YZ=              0.0048
 Octapole moment (field-independent basis, Debye-Ang**2):
  XXX=              0.0137  YYY=             -0.0158  ZZZ=              0.0190  XYY=             -0.0131
  XXY=             -0.0074  XXZ=             -0.0065  XZZ=              0.0052  YZZ=              0.0208
  YYZ=             -0.0097  XYZ=             -0.0114
 Hexadecapole moment (field-independent basis, Debye-Ang**3):
 XXXX=           -162.1193 YYYY=           -121.7894 ZZZZ=           -182.6977 XXXY=             17.1910
 XXXZ=              3.2171 YYYX=            -15.0100 YYYZ=            -56.6320 ZZZX=            -20.8517
 ZZZY=             18.2064 XXYY=            -64.0171 XXZZ=             -2.9596 YYZZ=            -43.1797
 XXYZ=             38.4458 YYXZ=             17.6199 ZZXY=             -2.1207
 N-N= 6.747898383250D+02 E-N=-5.391435015757D+03  KE= 1.717196219463D+03
                          Isotropic Fermi Contact Couplings
        Atom                 a.u.       MegaHertz       Gauss      10(-4) cm-1
     1  Fe(57)             0.54185      15.71797       5.60856       5.24295
     2  O(17)              0.13757     -16.67887      -5.95144      -5.56347
     3  H(1)               0.00088       0.79044       0.28205       0.26366
     4  O(17)              0.13758     -16.67987      -5.95179      -5.56381
     5  H(1)               0.00089       0.79134       0.28237       0.26396
     6  O(17)              0.13757     -16.67875      -5.95139      -5.56343
     7  H(1)               0.00088       0.78978       0.28181       0.26344
     8  O(17)              0.13759     -16.68116      -5.95225      -5.56424
     9  H(1)               0.00088       0.79054       0.28209       0.26370
    10  O(17)              0.13759     -16.68110      -5.95223      -5.56422
    11  H(1)               0.00088       0.78948       0.28171       0.26334
    12  O(17)              0.13759     -16.68109      -5.95223      -5.56421
    13  H(1)               0.00088       0.78797       0.28117       0.26284
    14  H(1)               0.00088       0.78914       0.28159       0.26323
    15  H(1)               0.00088       0.78880       0.28146       0.26312
    16  H(1)               0.00088       0.79055       0.28209       0.26370
    17  H(1)               0.00088       0.78939       0.28167       0.26331
    18  H(1)               0.00088       0.78948       0.28171       0.26334
    19  H(1)               0.00088       0.78831       0.28129       0.26295
 --------------------------------------------------------
       Center         ----  Spin Dipole Couplings  ----
                      3XX-RR        3YY-RR        3ZZ-RR
 --------------------------------------------------------
     1   Atom       -0.000090      0.000359     -0.000270
     2   Atom       -0.099388      0.096647      0.002740
     3   Atom       -0.030883      0.065558     -0.034675
     4   Atom        0.145137     -0.220372      0.075235
     5   Atom       -0.007793     -0.027831      0.035624
     6   Atom       -0.045012      0.124296     -0.079284
     7   Atom       -0.018249     -0.019425      0.037674
     8   Atom       -0.100206      0.096826      0.003380
     9   Atom       -0.013706      0.009229      0.004477
    10   Atom        0.145266     -0.221507      0.076241
    11   Atom       -0.007671     -0.027757      0.035428
    12   Atom       -0.045397      0.124296     -0.078899
    13   Atom       -0.018274     -0.019391      0.037665
    14   Atom        0.062886     -0.033676     -0.029210
    15   Atom        0.007813      0.006120     -0.013934
    16   Atom       -0.013767      0.009169      0.004598
    17   Atom        0.007693      0.006164     -0.013857
    18   Atom        0.062861     -0.033642     -0.029218
    19   Atom       -0.030839      0.065530     -0.034691
 --------------------------------------------------------
                        XY            XZ            YZ
 --------------------------------------------------------
     1   Atom        0.000233     -0.000355     -0.000128
     2   Atom       -0.128482     -0.187127     -0.105072
     3   Atom        0.022387      0.002582     -0.013103
     4   Atom        0.054435     -0.036758      0.174087
     5   Atom        0.008199     -0.049003     -0.019687
     6   Atom        0.074290      0.223834     -0.068805
     7   Atom        0.017142      0.029122      0.041237
     8   Atom       -0.128415     -0.187270     -0.104685
     9   Atom       -0.027965      0.034623     -0.042190
    10   Atom        0.053707     -0.036119      0.173547
    11   Atom        0.008309     -0.049069     -0.019755
    12   Atom        0.074758      0.223715     -0.069156
    13   Atom        0.017134      0.029094      0.041282
    14   Atom        0.024109      0.016967      0.008266
    15   Atom       -0.044080     -0.034218      0.025479
    16   Atom       -0.027908      0.034634     -0.042200
    17   Atom       -0.044021     -0.034258      0.025565
    18   Atom        0.024195      0.016901      0.008258
    19   Atom        0.022469      0.002571     -0.013125
 --------------------------------------------------------


 ---------------------------------------------------------------------------------
              Anisotropic Spin Dipole Couplings in Principal Axis System
 ---------------------------------------------------------------------------------

       Atom             a.u.   MegaHertz   Gauss  10(-4) cm-1        Axes

              Baa    -0.0005    -0.009    -0.003    -0.003  0.6277 -0.0513  0.7768
     1 Fe(57) Bbb    -0.0000    -0.000    -0.000    -0.000  0.6123 -0.5837 -0.5333
              Bcc     0.0006     0.010     0.003     0.003  0.4807  0.8104 -0.3350
 
              Baa    -0.3100    22.430     8.003     7.482  0.7331  0.3778  0.5656
     2 O(17)  Bbb     0.1443   -10.445    -3.727    -3.484 -0.6657  0.2280  0.7105
              Bcc     0.1656   -11.985    -4.277    -3.998 -0.1394  0.8974 -0.4187
 
              Baa    -0.0413   -22.019    -7.857    -7.345 -0.6655  0.2267  0.7111
     3 H(1)   Bbb    -0.0306   -16.349    -5.834    -5.454  0.7166 -0.0723  0.6937
              Bcc     0.0719    38.368    13.691    12.798  0.2087  0.9713 -0.1144
 
              Baa    -0.3102    22.444     8.009     7.487 -0.1411  0.8971 -0.4187
     4 O(17)  Bbb     0.1447   -10.468    -3.735    -3.492  0.7234  0.3821  0.5750
              Bcc     0.1655   -11.976    -4.273    -3.995 -0.6759  0.2218  0.7029
 
              Baa    -0.0413   -22.020    -7.857    -7.345  0.7332  0.3794  0.5644
     5 H(1)   Bbb    -0.0307   -16.357    -5.836    -5.456 -0.4289  0.9020 -0.0492
              Bcc     0.0719    38.377    13.694    12.801 -0.5277 -0.2060  0.8241
 
              Baa    -0.3101    22.439     8.007     7.485 -0.6646  0.2264  0.7120
     6 O(17)  Bbb     0.1446   -10.461    -3.733    -3.489 -0.1437  0.8964 -0.4192
              Bcc     0.1655   -11.979    -4.274    -3.996  0.7332  0.3810  0.5633
 
              Baa    -0.0413   -22.019    -7.857    -7.345 -0.1411  0.8979 -0.4170
     7 H(1)   Bbb    -0.0306   -16.352    -5.835    -5.455  0.9258 -0.0295 -0.3768
              Bcc     0.0719    38.371    13.692    12.799  0.3506  0.4392  0.8271
 
              Baa    -0.3101    22.439     8.007     7.485  0.7343  0.3770  0.5645
     8 O(17)  Bbb     0.1446   -10.460    -3.732    -3.489 -0.6650  0.2324  0.7098
              Bcc     0.1655   -11.979    -4.274    -3.996 -0.1363  0.8966 -0.4214
 
              Baa    -0.0413   -22.019    -7.857    -7.345 -0.6640  0.2274  0.7123
     9 H(1)   Bbb    -0.0306   -16.353    -5.835    -5.455  0.5901  0.7444  0.3125
              Bcc     0.0719    38.372    13.692    12.799  0.4592 -0.6278  0.6285
 
              Baa    -0.3102    22.449     8.011     7.488 -0.1390  0.8985 -0.4164
    10 O(17)  Bbb     0.1448   -10.478    -3.739    -3.495  0.7298  0.3772  0.5702
              Bcc     0.1654   -11.972    -4.272    -3.993 -0.6694  0.2247  0.7081
 
              Baa    -0.0413   -22.025    -7.859    -7.347  0.7334  0.3763  0.5661
    11 H(1)   Bbb    -0.0307   -16.357    -5.836    -5.456 -0.4270  0.9030 -0.0471
              Bcc     0.0719    38.382    13.696    12.803 -0.5289 -0.2072  0.8230
 
              Baa    -0.3102    22.448     8.010     7.488 -0.6651  0.2276  0.7112
    12 O(17)  Bbb     0.1448   -10.474    -3.737    -3.494 -0.1483  0.8932 -0.4245
              Bcc     0.1655   -11.973    -4.272    -3.994  0.7319  0.3878  0.5603
 
              Baa    -0.0413   -22.024    -7.859    -7.347 -0.1403  0.8977 -0.4177
    13 H(1)   Bbb    -0.0306   -16.353    -5.835    -5.455  0.9261 -0.0303 -0.3761
              Bcc     0.0719    38.378    13.694    12.801  0.3503  0.4396  0.8271
 
              Baa    -0.0413   -22.025    -7.859    -7.347 -0.1396  0.8975 -0.4185
    14 H(1)   Bbb    -0.0306   -16.353    -5.835    -5.455 -0.2582  0.3750  0.8903
              Bcc     0.0719    38.377    13.694    12.801  0.9560  0.2323  0.1794
 
              Baa    -0.0413   -22.029    -7.860    -7.348  0.7333  0.3781  0.5652
    15 H(1)   Bbb    -0.0306   -16.353    -5.835    -5.455 -0.1779 -0.6956  0.6961
              Bcc     0.0719    38.382    13.696    12.803  0.6563 -0.6109 -0.4428
 
              Baa    -0.0413   -22.019    -7.857    -7.345 -0.6654  0.2268  0.7112
    16 H(1)   Bbb    -0.0306   -16.349    -5.834    -5.454  0.5889  0.7450  0.3134
              Bcc     0.0719    38.368    13.691    12.798  0.4587 -0.6273  0.6293
 
              Baa    -0.0413   -22.027    -7.860    -7.347  0.7336  0.3755  0.5663
    17 H(1)   Bbb    -0.0307   -16.356    -5.836    -5.456  0.1795  0.6968 -0.6945
              Bcc     0.0719    38.383    13.696    12.803  0.6554 -0.6111 -0.4438
 
              Baa    -0.0413   -22.024    -7.859    -7.346 -0.1408  0.8977 -0.4174
    18 H(1)   Bbb    -0.0306   -16.350    -5.834    -5.454 -0.2578  0.3738  0.8910
              Bcc     0.0719    38.374    13.693    12.800  0.9559  0.2331  0.1788
 
              Baa    -0.0413   -22.025    -7.859    -7.347 -0.6644  0.2273  0.7120
    19 H(1)   Bbb    -0.0306   -16.350    -5.834    -5.454  0.7174 -0.0731  0.6928
              Bcc     0.0719    38.375    13.693    12.801  0.2095  0.9711 -0.1145
 

 ---------------------------------------------------------------------------------

 No NMR shielding tensors so no spin-rotation constants.
 Leave Link  601 at Wed Mar  5 19:54:21 2025, MaxMem= 13421772800 cpu:              29.6 elap:               0.4
 (Enter /gpfs/fs1/soft/improv/software/custom-built/gaussian/g16/l9999.exe)

 Test job not archived.
 1\1\GINC-I592\SP\UB97D\Gen\Fe1H12O6(3+,6)\HHARB\05-Mar-2025\0\\#p B97D
  scrf=(cpcm,solvent=water) geom=allcheck guess=read chkbasis IOp(3/174
 =1000000) IOp(3/175=909000) IOp(3/176=892000)\\Title\\3,6\Fe,-0.784839
 9839,0.7128697763,0.0317604589\O,-1.3224735094,2.6834996345,-0.2961427
 951\H,-1.4382186592,3.1067066016,-1.1715011803\O,1.2107779381,1.257592
 8967,0.0295247121\H,1.9696098833,0.6512737813,0.1532821039\O,-0.868373
 3861,1.0297792012,2.0744165016\H,-1.6583644143,0.9091891569,2.64021732
 51\O,-0.2475455537,-1.2576518234,0.3603803046\H,-0.0675274965,-1.92489
 20883,-0.3332634966\O,-2.7805941796,0.1688130494,0.0333084648\H,-3.538
 8788905,0.7751516873,-0.0936467779\O,-0.7007160683,0.3956063339,-2.010
 7437464\H,0.0892325846,0.5172511719,-2.5763760767\H,-1.4440151949,0.09
 8029755,-2.5743964471\H,1.5553771039,2.1654152664,-0.09642888\H,-1.503
 9764343,3.3498897617,0.3979282479\H,-3.1259116755,-0.7383936119,0.1617
 233897\H,-0.1244447521,1.3259230212,2.6379922591\H,-0.1306348816,-1.67
 99738016,1.2360110424\\Version=ES64L-G16RevC.02\State=6-A\HF=-1722.072
 1988\S2=8.754717\S2-1=0.\S2A=8.750007\RMSD=2.256e-09\Dipole=-0.0000128
 ,-0.0001159,-0.0001237\Quadrupole=0.001139,-0.0047908,0.0036518,-0.000
 0526,0.0015731,-0.0077813\PG=C01 [X(Fe1H12O6)]\\@


 There was a great rattling of the words for the fewness of ideas.
                   -- Charles Baxter in Gryphon
 Job cpu time:       0 days  1 hours 32 minutes 11.1 seconds.
 Elapsed time:       0 days  0 hours  0 minutes 46.8 seconds.
 File lengths (MBytes):  RWF=    119 Int=      0 D2E=      0 Chk=    268 Scr=      1
 Normal termination of Gaussian 16 at Wed Mar  5 19:54:21 2025.
