 Entering Gaussian System, Link 0=g16
 Input=Fe_2_OLYP.com
 Output=Fe_2_OLYP.log
 Initial command:
 /gpfs/fs1/soft/improv/software/custom-built/gaussian/g16/l1.exe "/scratch/Gau-3251623.inp" -scrdir="/scratch/"
 Default CPUs for threads: 0-127
 Default linda workers: i072.lcrc.anl.gov
 Default is to use 128 SMP processors on each worker.
 Entering Link 1 = /gpfs/fs1/soft/improv/software/custom-built/gaussian/g16/l1.exe PID=   3251624.
  
 Copyright (c) 1988-2021, Gaussian, Inc.  All Rights Reserved.
  
 This is part of the Gaussian(R) 16 program.  It is based on
 the Gaussian(R) 09 system (copyright 2009, Gaussian, Inc.),
 the Gaussian(R) 03 system (copyright 2003, Gaussian, Inc.),
 the Gaussian(R) 98 system (copyright 1998, Gaussian, Inc.),
 the Gaussian(R) 94 system (copyright 1995, Gaussian, Inc.),
 the Gaussian 92(TM) system (copyright 1992, Gaussian, Inc.),
 the Gaussian 90(TM) system (copyright 1990, Gaussian, Inc.),
 the Gaussian 88(TM) system (copyright 1988, Gaussian, Inc.),
 the Gaussian 86(TM) system (copyright 1986, Carnegie Mellon
 University), and the Gaussian 82(TM) system (copyright 1983,
 Carnegie Mellon University). Gaussian is a federally registered
 trademark of Gaussian, Inc.
  
 This software contains proprietary and confidential information,
 including trade secrets, belonging to Gaussian, Inc.
  
 This software is provided under written license and may be
 used, copied, transmitted, or stored only in accord with that
 written license.
  
 The following legend is applicable only to US Government
 contracts under FAR:
  
                    RESTRICTED RIGHTS LEGEND
  
 Use, reproduction and disclosure by the US Government is
 subject to restrictions as set forth in subparagraphs (a)
 and (c) of the Commercial Computer Software - Restricted
 Rights clause in FAR 52.227-19.
  
 Gaussian, Inc.
 340 Quinnipiac St., Bldg. 40, Wallingford CT 06492
  
  
 ---------------------------------------------------------------
 Warning -- This program may not be used in any manner that
 competes with the business of Gaussian, Inc. or will provide
 assistance to any competitor of Gaussian, Inc.  The licensee
 of this program is prohibited from giving any competitor of
 Gaussian, Inc. access to this program.  By using this program,
 the user acknowledges that Gaussian, Inc. is engaged in the
 business of creating and licensing software in the field of
 computational chemistry and represents and warrants to the
 licensee that it is not a competitor of Gaussian, Inc. and that
 it will not use this program in any manner prohibited above.
 ---------------------------------------------------------------
  

 Cite this work as:
 Gaussian 16, Revision C.02,
 M. J. Frisch, G. W. Trucks, H. B. Schlegel, G. E. Scuseria, 
 M. A. Robb, J. R. Cheeseman, G. Scalmani, V. Barone, 
 G. A. Petersson, H. Nakatsuji, X. Li, M. Caricato, A. V. Marenich, 
 J. Bloino, B. G. Janesko, R. Gomperts, B. Mennucci, H. P. Hratchian, 
 J. V. Ortiz, A. F. Izmaylov, J. L. Sonnenberg, D. Williams-Young, 
 F. Ding, F. Lipparini, F. Egidi, J. Goings, B. Peng, A. Petrone, 
 T. Henderson, D. Ranasinghe, V. G. Zakrzewski, J. Gao, N. Rega, 
 G. Zheng, W. Liang, M. Hada, M. Ehara, K. Toyota, R. Fukuda, 
 J. Hasegawa, M. Ishida, T. Nakajima, Y. Honda, O. Kitao, H. Nakai, 
 T. Vreven, K. Throssell, J. A. Montgomery, Jr., J. E. Peralta, 
 F. Ogliaro, M. J. Bearpark, J. J. Heyd, E. N. Brothers, K. N. Kudin, 
 V. N. Staroverov, T. A. Keith, R. Kobayashi, J. Normand, 
 K. Raghavachari, A. P. Rendell, J. C. Burant, S. S. Iyengar, 
 J. Tomasi, M. Cossi, J. M. Millam, M. Klene, C. Adamo, R. Cammi, 
 J. W. Ochterski, R. L. Martin, K. Morokuma, O. Farkas, 
 J. B. Foresman, and D. J. Fox, Gaussian, Inc., Wallingford CT, 2019.
 
 ******************************************
 Gaussian 16:  ES64L-G16RevC.02  7-Dec-2021
                 5-Mar-2025 
 ******************************************
 %chk=Fe_2_OLYP.chk
 SetSPE:  set environment variable "OMP_PROC_BIND" = "true"
 SetSPE:  set environment variable "OMP_PLACES" = "{0},{1},{2},{3},{4},{5},{6},{7},{8},{9},{10},{11},{12},{13},{14},{15},{16},{17},{18},{19},{20},{21},{22},{23},{24},{25},{26},{27},{28},{29},{30},{31},{32},{33},{34},{35},{36},{37},{38},{39},{40},{41},{42},{43},{44},{45},{46},{47},{48},{49},{50},{51},{52},{53},{54},{55},{56},{57},{58},{59},{60},{61},{62},{63},{64},{65},{66},{67},{68},{69},{70},{71},{72},{73},{74},{75},{76},{77},{78},{79},{80},{81},{82},{83},{84},{85},{86},{87},{88},{89},{90},{91},{92},{93},{94},{95},{96},{97},{98},{99},{100},{101},{102},{103},{104},{105},{106},{107},{108},{109},{110},{111},{112},{113},{114},{115},{116},{117},{118},{119},{120},{121},{122},{123},{124},{125},{126},{127}"
 SetLPE:    new flags="-opt 'Tsnet.Node.lindarsharg: ssh'  -nodelist 'i072.lcrc.anl.gov' -env GAUSS_MDEF=13421772800 -env GAUSS_EXEDIR="/gpfs/fs1/soft/improv/software/custom-built/gaussian/g16/bsd:/gpfs/fs1/soft/improv/software/custom-built/gaussian/g16" -env "OMP_PROC_BIND=true" -env "OMP_PLACES={0},{1},{2},{3},{4},{5},{6},{7},{8},{9},{10},{11},{12},{13},{14},{15},{16},{17},{18},{19},{20},{21},{22},{23},{24},{25},{26},{27},{28},{29},{30},{31},{32},{33},{34},{35},{36},{37},{38},{39},{40},{41},{42},{43},{44},{45},{46},{47},{48},{49},{50},{51},{52},{53},{54},{55},{56},{57},{58},{59},{60},{61},{62},{63},{64},{65},{66},{67},{68},{69},{70},{71},{72},{73},{74},{75},{76},{77},{78},{79},{80},{81},{82},{83},{84},{85},{86},{87},{88},{89},{90},{91},{92},{93},{94},{95},{96},{97},{98},{99},{100},{101},{102},{103},{104},{105},{106},{107},{108},{109},{110},{111},{112},{113},{114},{115},{116},{117},{118},{119},{120},{121},{122},{123},{124},{125},{126},{127}" -env GAUSS_ADEF="0,1,2,3,4,5,6,7,8,9,10,11,12,13,14,15,16,17,18,19,20,21,22,23,24,25,26,27,28,29,30,31,32,33,34,35,36,37,38,39,40,41,42,43,44,45,46,47,48,49,50,51,52,53,54,55,56,57,58,59,60,61,62,63,64,65,66,67,68,69,70,71,72,73,74,75,76,77,78,79,80,81,82,83,84,85,86,87,88,89,90,91,92,93,94,95,96,97,98,99,100,101,102,103,104,105,106,107,108,109,110,111,112,113,114,115,116,117,118,119,120,121,122,123,124,125,126,127""
 Will use up to    1 processors via Linda.
 ----------------------------------------------------------------------
 #p OLYP 6-31+G(2df,p) opt=(cartesian,calcall,maxcycles=500) freq scf=(
 maxcycles=500,xqc,maxconventional=50) IOp(3/174=1000000) IOp(3/175=176
 4000) IOp(3/176=806000)
 ----------------------------------------------------------------------
 1/6=500,10=4,18=10,26=3,38=1/1,3;
 2/12=2,17=6,18=5,29=2,40=1/2;
 3/5=1,6=6,7=114,11=2,25=1,30=1,71=2,74=2002,140=1,174=1000000,175=1764000,176=806000/1,2,3;
 4//1;
 5/5=2,7=500,8=3,13=1,38=5,85=50/2,8;
 8/6=4,10=90,11=11/1;
 11/6=1,8=1,9=11,15=111,16=1/1,2,10;
 10/6=1/2;
 6/7=2,8=2,9=2,10=2,18=1,28=1/1;
 7/7=1,10=1,25=1/1,2,3,16;
 1/6=500,10=4,18=10,26=3/3(3);
 2/29=1/2;
 7/7=1,8=1,9=1,25=1,44=-1/16;
 99/12=1/99;
 2/29=1/2;
 3/5=1,6=6,7=114,11=2,25=1,30=1,71=2,74=2002,140=1,174=1000000,175=1764000,176=806000/1,2,3;
 4/5=5,16=3,69=1/1;
 5/5=2,7=500,8=3,13=1,38=5,85=50/2,8;
 8/6=4,10=90,11=11/1;
 11/6=1,8=1,9=11,15=111,16=1/1,2,10;
 10/6=1/2;
 7/7=1,10=1,25=1/1,2,3,16;
 1/6=500,10=4,18=10,26=3/3(-8);
 2/29=1/2;
 6/7=2,8=2,9=2,10=2,18=1,19=2,28=1/1;
 7/7=1,8=1,9=1,25=1,44=-1/16;
 99/12=1/99;
 Leave Link    1 at Wed Mar  5 19:55:35 2025, MaxMem=           0 cpu:               1.7 elap:               0.0
 (Enter /gpfs/fs1/soft/improv/software/custom-built/gaussian/g16/l101.exe)
 -----
 Title
 -----
 Symbolic Z-matrix:
 Charge =  3 Multiplicity = 6
 Fe                   -0.79304   0.81881  -0.09491 
 O                    -1.20497   2.57394  -0.35687 
 H                    -2.12106   2.64974  -0.63312 
 O                     0.99012   1.19063  -0.05794 
 H                     1.42696   0.5998    0.55971 
 O                    -0.81752   1.03069   1.71365 
 H                    -1.02108   0.1906    2.13133 
 O                    -0.38507  -0.93351   0.17118 
 H                    -1.15682  -1.47369  -0.01433 
 O                    -2.57341   0.45178  -0.12186 
 H                    -2.77756  -0.08744  -0.88929 
 O                    -0.76966   0.60461  -1.90111 
 H                     0.09872   0.83457  -2.23949 
 H                    -0.96534  -0.30999  -2.11742 
 H                     1.12208   2.09943   0.22124 
 H                    -1.07671   3.0584    0.46184 
 H                    -2.81407  -0.02398   0.6765 
 H                     0.0422    1.33615   2.01181 
 H                    -0.11532  -1.06446   1.08312 
 
 ITRead=  0  0  0  0  0  0  0  0  0  0  0  0  0  0  0  0  0  0  0
 MicOpt= -1 -1 -1 -1 -1 -1 -1 -1 -1 -1 -1 -1 -1 -1 -1 -1 -1 -1 -1
 NAtoms=     19 NQM=       19 NQMF=       0 NMMI=      0 NMMIF=      0
                NMic=       0 NMicF=      0.
                    Isotopes and Nuclear Properties:
 (Nuclear quadrupole moments (NQMom) in fm**2, nuclear magnetic moments (NMagM)
  in nuclear magnetons)

  Atom         1           2           3           4           5           6           7           8           9          10
 IAtWgt=          56          16           1          16           1          16           1          16           1          16
 AtmWgt=  55.9349393  15.9949146   1.0078250  15.9949146   1.0078250  15.9949146   1.0078250  15.9949146   1.0078250  15.9949146
 NucSpn=           0           0           1           0           1           0           1           0           1           0
 AtZEff=  -0.0000000  -0.0000000  -0.0000000  -0.0000000  -0.0000000  -0.0000000  -0.0000000  -0.0000000  -0.0000000  -0.0000000
 NQMom=    0.0000000   0.0000000   0.0000000   0.0000000   0.0000000   0.0000000   0.0000000   0.0000000   0.0000000   0.0000000
 NMagM=    0.0000000   0.0000000   2.7928460   0.0000000   2.7928460   0.0000000   2.7928460   0.0000000   2.7928460   0.0000000
 AtZNuc=  26.0000000   8.0000000   1.0000000   8.0000000   1.0000000   8.0000000   1.0000000   8.0000000   1.0000000   8.0000000

  Atom        11          12          13          14          15          16          17          18          19
 IAtWgt=           1          16           1           1           1           1           1           1           1
 AtmWgt=   1.0078250  15.9949146   1.0078250   1.0078250   1.0078250   1.0078250   1.0078250   1.0078250   1.0078250
 NucSpn=           1           0           1           1           1           1           1           1           1
 AtZEff=  -0.0000000  -0.0000000  -0.0000000  -0.0000000  -0.0000000  -0.0000000  -0.0000000  -0.0000000  -0.0000000
 NQMom=    0.0000000   0.0000000   0.0000000   0.0000000   0.0000000   0.0000000   0.0000000   0.0000000   0.0000000
 NMagM=    2.7928460   0.0000000   2.7928460   2.7928460   2.7928460   2.7928460   2.7928460   2.7928460   2.7928460
 AtZNuc=   1.0000000   8.0000000   1.0000000   1.0000000   1.0000000   1.0000000   1.0000000   1.0000000   1.0000000
 Leave Link  101 at Wed Mar  5 19:55:35 2025, MaxMem= 13421772800 cpu:               0.4 elap:               0.1
 (Enter /gpfs/fs1/soft/improv/software/custom-built/gaussian/g16/l103.exe)

 GradGradGradGradGradGradGradGradGradGradGradGradGradGradGradGradGradGrad
 Berny optimization.
 Initialization pass.
 No Z-matrix variables, so optimization will use Cartesian coordinates.
 Trust Radius=3.00D-01 FncErr=1.00D-07 GrdErr=1.00D-06 EigMax=2.50D+02 EigMin=1.00D-04
 Number of steps in this run=    114 maximum allowed number of steps=    114.
 GradGradGradGradGradGradGradGradGradGradGradGradGradGradGradGradGradGrad

 Leave Link  103 at Wed Mar  5 19:55:36 2025, MaxMem= 13421772800 cpu:               0.4 elap:               0.0
 (Enter /gpfs/fs1/soft/improv/software/custom-built/gaussian/g16/l202.exe)
 ---------------------------------------------------------------------------------------------------
                            Z-MATRIX (ANGSTROMS AND DEGREES)
   CD    Cent   Atom    N1       Length/X        N2       Alpha/Y        N3        Beta/Z          J
 ---------------------------------------------------------------------------------------------------
      1      1  Fe       0  -0.793037          0.818805         -0.094905
      2      2  O        0  -1.204971          2.573941         -0.356874
      3      3  H        0  -2.121063          2.649743         -0.633122
      4      4  O        0   0.990122          1.190635         -0.057941
      5      5  H        0   1.426962          0.599798          0.559707
      6      6  O        0  -0.817519          1.030691          1.713650
      7      7  H        0  -1.021079          0.190602          2.131326
      8      8  O        0  -0.385068         -0.933506          0.171177
      9      9  H        0  -1.156817         -1.473692         -0.014327
     10     10  O        0  -2.573405          0.451778         -0.121857
     11     11  H        0  -2.777557         -0.087440         -0.889285
     12     12  O        0  -0.769659          0.604612         -1.901109
     13     13  H        0   0.098725          0.834573         -2.239490
     14     14  H        0  -0.965336         -0.309994         -2.117418
     15     15  H        0   1.122081          2.099426          0.221242
     16     16  H        0  -1.076711          3.058396          0.461841
     17     17  H        0  -2.814074         -0.023981          0.676500
     18     18  H        0   0.042204          1.336153          2.011809
     19     19  H        0  -0.115315         -1.064459          1.083123
 ---------------------------------------------------------------------------------------------------
                         Z-Matrix orientation:                         
 ---------------------------------------------------------------------
 Center     Atomic      Atomic             Coordinates (Angstroms)
 Number     Number       Type             X           Y           Z
 ---------------------------------------------------------------------
      1         26           0       -0.793037    0.818805   -0.094905
      2          8           0       -1.204971    2.573941   -0.356874
      3          1           0       -2.121063    2.649743   -0.633122
      4          8           0        0.990122    1.190635   -0.057941
      5          1           0        1.426962    0.599798    0.559707
      6          8           0       -0.817519    1.030691    1.713650
      7          1           0       -1.021079    0.190602    2.131326
      8          8           0       -0.385068   -0.933506    0.171177
      9          1           0       -1.156817   -1.473692   -0.014327
     10          8           0       -2.573405    0.451778   -0.121857
     11          1           0       -2.777557   -0.087440   -0.889285
     12          8           0       -0.769659    0.604612   -1.901109
     13          1           0        0.098725    0.834573   -2.239490
     14          1           0       -0.965336   -0.309994   -2.117418
     15          1           0        1.122081    2.099426    0.221242
     16          1           0       -1.076711    3.058396    0.461841
     17          1           0       -2.814074   -0.023981    0.676500
     18          1           0        0.042204    1.336153    2.011809
     19          1           0       -0.115315   -1.064459    1.083123
 ---------------------------------------------------------------------
                    Distance matrix (angstroms):
                    1          2          3          4          5
     1  Fe   0.000000
     2  O    1.821762   0.000000
     3  H    2.325008   0.959835   0.000000
     4  O    1.821889   2.611767   3.484150   0.000000
     5  H    2.324839   3.415322   4.267739   0.959899   0.000000
     6  O    1.821090   2.611285   3.134947   2.536076   2.560263
     7  H    2.324381   3.450400   3.859988   3.136540   2.937743
     8  O    1.818745   3.640503   4.062050   2.540791   2.405292
     9  H    2.322579   4.062387   4.279649   3.421971   3.362259
    10  O    1.818006   2.536025   2.301533   3.639880   4.060711
    11  H    2.321775   3.136788   2.826442   4.064482   4.499984
    12  O    1.819010   2.540161   2.759827   2.614866   3.298603
    13  H    2.322657   2.875634   3.286750   2.383386   3.107223
    14  H    2.322591   3.387332   3.506977   3.212032   3.703756
    15  H    2.325429   2.444290   3.398642   0.959822   1.567289
    16  H    2.325125   0.959918   1.567358   2.833814   3.510364
    17  H    2.321626   3.225876   3.056824   4.060370   4.288255
    18  H    2.324547   2.949275   3.660724   2.281137   2.137375
    19  H    2.322443   4.061883   4.556733   2.758526   2.328591
                    6          7          8          9         10
     6  O    0.000000
     7  H    0.960021   0.000000
     8  O    2.534622   2.347406   0.000000
     9  H    3.061530   2.718847   0.960108   0.000000
    10  O    2.605257   2.748593   2.606473   2.392848   0.000000
    11  H    3.444886   3.505227   2.750347   2.305222   0.959885
    12  O    3.640099   4.061422   2.609231   2.833582   2.538227
    13  H    4.062670   4.557707   3.028445   3.443229   3.430916
    14  H    4.061572   4.278496   2.441955   2.411193   2.673658
    15  H    2.670492   3.447487   3.387136   4.244531   4.060675
    16  H    2.397039   3.318813   4.061790   4.557738   3.061904
    17  H    2.484803   2.318921   2.642472   2.307685   0.960023
    18  H    0.959858   1.567527   2.953276   3.665802   3.489421
    19  H    2.297892   1.869309   0.959980   1.567353   3.129403
                   11         12         13         14         15
    11  H    0.000000
    12  O    2.352526   0.000000
    13  H    3.308498   0.959935   0.000000
    14  H    2.200452   0.959991   1.567533   0.000000
    15  H    4.606825   3.212091   2.949969   3.953725   0.000000
    16  H    3.822919   3.420362   3.691102   4.243941   2.410850
    17  H    1.567497   3.349453   4.210050   3.362383   4.495491
    18  H    4.288824   4.062660   4.281159   4.558009   2.225950
    19  H    3.454344   3.481323   3.833001   3.396353   3.504877
                   16         17         18         19
    16  H    0.000000
    17  H    3.544793   0.000000
    18  H    2.573032   3.433851   0.000000
    19  H    4.278809   2.920828   2.578800   0.000000
 Stoichiometry    FeH12O6(3+,6)
 Framework group  C1[X(FeH12O6)]
 Deg. of freedom    51
 Full point group                 C1      NOp   1
 Largest Abelian subgroup         C1      NOp   1
 Largest concise Abelian subgroup C1      NOp   1
                         Standard orientation:                         
 ---------------------------------------------------------------------
 Center     Atomic      Atomic             Coordinates (Angstroms)
 Number     Number       Type             X           Y           Z
 ---------------------------------------------------------------------
      1         26           0       -0.020212   -0.029769    0.009758
      2          8           0       -0.320773   -1.687164   -0.684161
      3          1           0       -1.136997   -1.679346   -1.189137
      4          8           0        1.254785   -0.678144    1.138153
      5          1           0        1.943573   -0.019708    1.254074
      6          8           0        1.298505    0.294488   -1.203590
      7          1           0        1.382461    1.241149   -1.339326
      8          8           0        0.280919    1.626834    0.697379
      9          1           0       -0.430846    2.216032    0.436526
     10          8           0       -1.285567    0.616476   -1.124434
     11          1           0       -2.034473    0.939301   -0.618170
     12          8           0       -1.338192   -0.350985    1.221594
     13          1           0       -0.971642   -0.815184    1.977660
     14          1           0       -1.717006    0.482356    1.510774
     15          1           0        1.635434   -1.476912    0.766219
     16          1           0        0.408530   -1.930525   -1.258908
     17          1           0       -0.914804    1.335716   -1.641030
     18          1           0        2.129249   -0.056449   -0.874904
     19          1           0        1.114608    1.965515    0.362985
 ---------------------------------------------------------------------
 Rotational constants (GHZ):           2.0396930           1.9739388           1.9252729
 Leave Link  202 at Wed Mar  5 19:55:36 2025, MaxMem= 13421772800 cpu:               0.5 elap:               0.0
 (Enter /gpfs/fs1/soft/improv/software/custom-built/gaussian/g16/l301.exe)
 Standard basis: 6-31+G(2df,p) (6D, 7F)
 Ernie: Thresh=  0.10000D-02 Tol=  0.10000D-05 Strict=F.
 There are   347 symmetry adapted cartesian basis functions of A   symmetry.
 There are   317 symmetry adapted basis functions of A   symmetry.
   317 basis functions,   514 primitive gaussians,   347 cartesian basis functions
    44 alpha electrons       39 beta electrons
       nuclear repulsion energy       767.7883002195 Hartrees.
 IExCor= 2002 DFT=T Ex=O Corr=LYP ExCW=0 ScaHFX=  0.000000
 ScaDFX=  1.000000  1.000000  1.000000  1.000000 ScalE2=  1.000000  1.000000
 IRadAn=      5 IRanWt=     -1 IRanGd=            0 ICorTp=0 IEmpDi=  4
 NAtoms=   19 NActive=   19 NUniq=   19 SFac= 1.00D+00 NAtFMM=   60 NAOKFM=F Big=F
 Integral buffers will be    131072 words long.
 Raffenetti 2 integral format.
 Two-electron integral symmetry is turned on.
 R6DIni: Non-standard D2/D3 S6 parameter, value=     1.000000
 R6DIni: Non-standard D2/D3 S8 parameter, value=     1.764000
 R6DIni: Non-standard D2/D3 SR6 parameter, value=     0.806000
 Leave Link  301 at Wed Mar  5 19:55:36 2025, MaxMem= 13421772800 cpu:               0.5 elap:               0.0
 (Enter /gpfs/fs1/soft/improv/software/custom-built/gaussian/g16/l302.exe)
 NPDir=0 NMtPBC=     1 NCelOv=     1 NCel=       1 NClECP=     1 NCelD=      1
         NCelK=      1 NCelE2=     1 NClLst=     1 CellRange=     0.0.
 One-electron integrals computed using PRISM.
 One-electron integral symmetry used in STVInt
 NBasis=   317 RedAO= T EigKep=  1.64D-06  NBF=   317
 NBsUse=   317 1.00D-06 EigRej= -1.00D+00 NBFU=   317
 Precomputing XC quadrature grid using
 IXCGrd= 4 IRadAn=           5 IRanWt=          -1 IRanGd=           0 AccXCQ= 0.00D+00.
 Generated NRdTot=       0 NPtTot=           0 NUsed=           0 NTot=          32
 NSgBfM=   347   346   347   347   347 MxSgAt=    19 MxSgA2=    19.
 Leave Link  302 at Wed Mar  5 19:55:36 2025, MaxMem= 13421772800 cpu:              22.2 elap:               0.3
 (Enter /gpfs/fs1/soft/improv/software/custom-built/gaussian/g16/l303.exe)
 DipDrv:  MaxL=1.
 Leave Link  303 at Wed Mar  5 19:55:36 2025, MaxMem= 13421772800 cpu:               1.1 elap:               0.0
 (Enter /gpfs/fs1/soft/improv/software/custom-built/gaussian/g16/l401.exe)
 ExpMin= 1.26D-02 ExpMax= 6.11D+04 ExpMxC= 9.18D+03 IAcc=3 IRadAn=         5 AccDes= 0.00D+00
 Harris functional with IExCor= 2002 and IRadAn=       5 diagonalized for initial guess.
 HarFok:  IExCor= 2002 AccDes= 0.00D+00 IRadAn=         5 IDoV= 1 UseB2=F ITyADJ=14
 ICtDFT=  3500011 ScaDFX=  1.000000  1.000000  1.000000  1.000000
 FoFCou: FMM=F IPFlag=           0 FMFlag=      100000 FMFlg1=           0
         NFxFlg=           0 DoJE=T BraDBF=F KetDBF=T FulRan=T
         wScrn=  0.000000 ICntrl=       500 IOpCl=  0 I1Cent=   200000004 NGrid=           0
         NMat0=    1 NMatS0=      1 NMatT0=    0 NMatD0=    1 NMtDS0=    0 NMtDT0=    0
 Petite list used in FoFCou.
 Harris En= -1721.60471908722    
 JPrj=0 DoOrth=F DoCkMO=F.
 Initial guess <Sx>= 0.0000 <Sy>= 0.0000 <Sz>= 2.5000 <S**2>= 8.7500 S= 2.5000
 Leave Link  401 at Wed Mar  5 19:55:37 2025, MaxMem= 13421772800 cpu:              40.8 elap:               0.5
 (Enter /gpfs/fs1/soft/improv/software/custom-built/gaussian/g16/l502.exe)
 Integral symmetry usage will be decided dynamically.
 UHF open shell SCF:
 Using DIIS extrapolation, IDIIS=  1040.
 NGot= 13421772800 LenX= 13421483807 LenY= 13421362957
 Requested convergence on RMS density matrix=1.00D-08 within  50 cycles.
 Requested convergence on MAX density matrix=1.00D-06.
 Requested convergence on             energy=1.00D-06.
 No special actions if energy rises.
 Fock matrices will be formed incrementally for  20 cycles.

 Cycle   1  Pass 1  IDiag  1:
 FoFJK:  IHMeth= 1 ICntrl=     500 DoSepK=F KAlg= 0 I1Cent=           0 FoldK=F
 IRaf= 990000000 NMat=       1 IRICut=       1 DoRegI=T DoRafI=F ISym2E= 0 IDoP0=0 IntGTp=1.
 FoFCou: FMM=F IPFlag=           0 FMFlag=      100000 FMFlg1=           0
         NFxFlg=           0 DoJE=T BraDBF=F KetDBF=F FulRan=T
         wScrn=  0.000000 ICntrl=       500 IOpCl=  0 I1Cent=           0 NGrid=           0
         NMat0=    1 NMatS0=      1 NMatT0=    0 NMatD0=    1 NMtDS0=    0 NMtDT0=    0
 Symmetry not used in FoFCou.
 E= -1720.73543418464    
 DIIS: error= 2.50D-02 at cycle   1 NSaved=   1.
 NSaved= 1 IEnMin= 1 EnMin= -1720.73543418464     IErMin= 1 ErrMin= 2.50D-02
 ErrMax= 2.50D-02  0.00D+00 EMaxC= 1.00D-01 BMatC= 2.23D+00 BMatP= 2.23D+00
 IDIUse=3 WtCom= 7.50D-01 WtEn= 2.50D-01
 Coeff-Com:  0.100D+01
 Coeff-En:   0.100D+01
 Coeff:      0.100D+01
 Gap=     0.375 Goal=   None    Shift=    0.000
 Gap=    -0.185 Goal=   None    Shift=    0.000
 GapD=   -0.185 DampG=0.250 DampE=0.250 DampFc=0.1250 IDamp=-1.
 Damping current iteration by 1.25D-01
 RMSDP=5.54D-02 MaxDP=7.87D+00              OVMax= 7.97D-01

 Cycle   2  Pass 1  IDiag  1:
 RMSU=  5.59D-03    CP:  1.04D+00
 E= -1720.79615123921     Delta-E=       -0.060717054570 Rises=F Damp=T
 DIIS: error= 1.48D-02 at cycle   2 NSaved=   2.
 NSaved= 2 IEnMin= 2 EnMin= -1720.79615123921     IErMin= 2 ErrMin= 1.48D-02
 ErrMax= 1.48D-02  0.00D+00 EMaxC= 1.00D-01 BMatC= 5.66D-01 BMatP= 2.23D+00
 IDIUse=3 WtCom= 8.52D-01 WtEn= 1.48D-01
 Coeff-Com: -0.387D+00 0.139D+01
 Coeff-En:   0.262D+00 0.738D+00
 Coeff:     -0.291D+00 0.129D+01
 Gap=     0.205 Goal=   None    Shift=    0.000
 Gap=    -0.005 Goal=   None    Shift=    0.000
 RMSDP=2.03D-02 MaxDP=1.59D+00 DE=-6.07D-02 OVMax= 9.49D-01

 Cycle   3  Pass 1  IDiag  1:
 RMSU=  1.66D-02    CP:  9.20D-01  1.38D+00
 E= -1720.74155785850     Delta-E=        0.054593380709 Rises=F Damp=F
 DIIS: error= 2.87D-02 at cycle   3 NSaved=   3.
 NSaved= 3 IEnMin= 2 EnMin= -1720.79615123921     IErMin= 2 ErrMin= 1.48D-02
 ErrMax= 2.87D-02  0.00D+00 EMaxC= 1.00D-01 BMatC= 1.88D+00 BMatP= 5.66D-01
 IDIUse=2 WtCom= 0.00D+00 WtEn= 1.00D+00
 EnCoef did     3 forward-backward iterations
 Coeff-En:   0.156D-01 0.556D+00 0.428D+00
 Coeff:      0.156D-01 0.556D+00 0.428D+00
 Gap=     0.278 Goal=   None    Shift=    0.000
 Gap=     0.013 Goal=   None    Shift=    0.000
 RMSDP=2.72D-02 MaxDP=2.99D+00 DE= 5.46D-02 OVMax= 6.41D-01

 Cycle   4  Pass 1  IDiag  1:
 RMSU=  1.08D-02    CP:  1.08D+00  3.00D+00  4.30D-02
 E= -1719.33196486861     Delta-E=        1.409592989893 Rises=F Damp=F
 DIIS: error= 9.82D-02 at cycle   4 NSaved=   4.
 NSaved= 4 IEnMin= 2 EnMin= -1720.79615123921     IErMin= 2 ErrMin= 1.48D-02
 ErrMax= 9.82D-02  0.00D+00 EMaxC= 1.00D-01 BMatC= 1.27D+01 BMatP= 5.66D-01
 IDIUse=2 WtCom= 0.00D+00 WtEn= 1.00D+00
 EnCoef did   100 forward-backward iterations
 Coeff-En:   0.369D+00 0.152D-01 0.431D+00 0.185D+00
 Coeff:      0.369D+00 0.152D-01 0.431D+00 0.185D+00
 Gap=     0.203 Goal=   None    Shift=    0.000
 Gap=     0.002 Goal=   None    Shift=    0.000
 RMSDP=1.43D-02 MaxDP=1.64D+00 DE= 1.41D+00 OVMax= 6.45D-01

 Cycle   5  Pass 1  IDiag  1:
 RMSU=  5.36D-03    CP:  9.90D-01  2.20D+00  3.67D-01  5.52D-01
 E= -1721.01320254265     Delta-E=       -1.681237674043 Rises=F Damp=F
 DIIS: error= 1.15D-02 at cycle   5 NSaved=   5.
 NSaved= 5 IEnMin= 5 EnMin= -1721.01320254265     IErMin= 5 ErrMin= 1.15D-02
 ErrMax= 1.15D-02  0.00D+00 EMaxC= 1.00D-01 BMatC= 2.60D-01 BMatP= 5.66D-01
 IDIUse=3 WtCom= 8.85D-01 WtEn= 1.15D-01
 EnCoef did     3 forward-backward iterations
 Coeff-Com: -0.430D-03 0.207D+00 0.193D+00-0.201D-01 0.621D+00
 Coeff-En:   0.888D-02 0.000D+00 0.120D+00 0.000D+00 0.872D+00
 Coeff:      0.639D-03 0.183D+00 0.184D+00-0.178D-01 0.649D+00
 Gap=     0.152 Goal=   None    Shift=    0.000
 Gap=     0.144 Goal=   None    Shift=    0.000
 RMSDP=8.25D-03 MaxDP=9.86D-01 DE=-1.68D+00 OVMax= 1.05D-01

 Cycle   6  Pass 1  IDiag  1:
 RMSU=  2.61D-03    CP:  9.24D-01  1.51D+00  4.81D-01  3.76D-01  6.98D-01
 E= -1721.03675248047     Delta-E=       -0.023549937816 Rises=F Damp=F
 DIIS: error= 5.65D-03 at cycle   6 NSaved=   6.
 NSaved= 6 IEnMin= 6 EnMin= -1721.03675248047     IErMin= 6 ErrMin= 5.65D-03
 ErrMax= 5.65D-03  0.00D+00 EMaxC= 1.00D-01 BMatC= 9.29D-02 BMatP= 2.60D-01
 IDIUse=3 WtCom= 9.44D-01 WtEn= 5.65D-02
 Coeff-Com:  0.425D-02 0.166D-01 0.616D-01-0.202D-01 0.492D+00 0.445D+00
 Coeff-En:   0.000D+00 0.000D+00 0.000D+00 0.000D+00 0.332D+00 0.668D+00
 Coeff:      0.401D-02 0.157D-01 0.581D-01-0.191D-01 0.483D+00 0.458D+00
 Gap=     0.160 Goal=   None    Shift=    0.000
 Gap=     0.119 Goal=   None    Shift=    0.000
 RMSDP=2.31D-03 MaxDP=2.28D-01 DE=-2.35D-02 OVMax= 3.20D-02

 Cycle   7  Pass 1  IDiag  1:
 RMSU=  1.01D-03    CP:  9.44D-01  1.63D+00  4.61D-01  4.02D-01  7.79D-01
                    CP:  7.88D-01
 E= -1721.05159040240     Delta-E=       -0.014837921928 Rises=F Damp=F
 DIIS: error= 5.84D-04 at cycle   7 NSaved=   7.
 NSaved= 7 IEnMin= 7 EnMin= -1721.05159040240     IErMin= 7 ErrMin= 5.84D-04
 ErrMax= 5.84D-04  0.00D+00 EMaxC= 1.00D-01 BMatC= 9.92D-04 BMatP= 9.29D-02
 IDIUse=3 WtCom= 9.94D-01 WtEn= 5.84D-03
 Coeff-Com: -0.251D-01 0.282D-01-0.267D-02-0.150D-02 0.372D-01 0.136D+00
 Coeff-Com:  0.827D+00
 Coeff-En:   0.000D+00 0.000D+00 0.000D+00 0.000D+00 0.000D+00 0.000D+00
 Coeff-En:   0.100D+01
 Coeff:     -0.249D-01 0.281D-01-0.266D-02-0.149D-02 0.370D-01 0.136D+00
 Coeff:      0.828D+00
 Gap=     0.160 Goal=   None    Shift=    0.000
 Gap=     0.117 Goal=   None    Shift=    0.000
 RMSDP=4.43D-04 MaxDP=5.13D-02 DE=-1.48D-02 OVMax= 4.19D-03

 Cycle   8  Pass 1  IDiag  1:
 RMSU=  2.96D-04    CP:  9.41D-01  1.60D+00  4.66D-01  3.97D-01  7.88D-01
                    CP:  7.41D-01  9.30D-01
 E= -1721.05168074027     Delta-E=       -0.000090337875 Rises=F Damp=F
 DIIS: error= 4.00D-04 at cycle   8 NSaved=   8.
 NSaved= 8 IEnMin= 8 EnMin= -1721.05168074027     IErMin= 8 ErrMin= 4.00D-04
 ErrMax= 4.00D-04  0.00D+00 EMaxC= 1.00D-01 BMatC= 4.20D-04 BMatP= 9.92D-04
 IDIUse=3 WtCom= 9.96D-01 WtEn= 4.00D-03
 Coeff-Com: -0.207D-01 0.232D-01-0.426D-02-0.206D-05 0.827D-02 0.679D-01
 Coeff-Com:  0.458D+00 0.468D+00
 Coeff-En:   0.000D+00 0.000D+00 0.000D+00 0.000D+00 0.000D+00 0.000D+00
 Coeff-En:   0.166D+00 0.834D+00
 Coeff:     -0.207D-01 0.231D-01-0.424D-02-0.206D-05 0.824D-02 0.677D-01
 Coeff:      0.456D+00 0.469D+00
 Gap=     0.160 Goal=   None    Shift=    0.000
 Gap=     0.117 Goal=   None    Shift=    0.000
 RMSDP=1.06D-04 MaxDP=1.11D-02 DE=-9.03D-05 OVMax= 2.02D-03

 Cycle   9  Pass 1  IDiag  1:
 RMSU=  5.92D-05    CP:  9.42D-01  1.61D+00  4.65D-01  3.96D-01  7.86D-01
                    CP:  7.47D-01  9.51D-01  9.02D-01
 E= -1721.05172817329     Delta-E=       -0.000047433021 Rises=F Damp=F
 DIIS: error= 2.89D-04 at cycle   9 NSaved=   9.
 NSaved= 9 IEnMin= 9 EnMin= -1721.05172817329     IErMin= 9 ErrMin= 2.89D-04
 ErrMax= 2.89D-04  0.00D+00 EMaxC= 1.00D-01 BMatC= 1.58D-04 BMatP= 4.20D-04
 IDIUse=3 WtCom= 9.97D-01 WtEn= 2.89D-03
 Coeff-Com: -0.136D-01 0.156D-01-0.278D-02 0.337D-03 0.196D-02 0.213D-01
 Coeff-Com:  0.128D+00 0.264D+00 0.586D+00
 Coeff-En:   0.000D+00 0.000D+00 0.000D+00 0.000D+00 0.000D+00 0.000D+00
 Coeff-En:   0.000D+00 0.000D+00 0.100D+01
 Coeff:     -0.136D-01 0.155D-01-0.277D-02 0.336D-03 0.196D-02 0.212D-01
 Coeff:      0.127D+00 0.263D+00 0.587D+00
 Gap=     0.160 Goal=   None    Shift=    0.000
 Gap=     0.116 Goal=   None    Shift=    0.000
 RMSDP=8.36D-05 MaxDP=1.14D-02 DE=-4.74D-05 OVMax= 8.71D-04

 Cycle  10  Pass 1  IDiag  1:
 RMSU=  3.85D-05    CP:  9.42D-01  1.61D+00  4.64D-01  3.96D-01  7.85D-01
                    CP:  7.60D-01  9.65D-01  8.11D-01  8.24D-01
 E= -1721.05174546128     Delta-E=       -0.000017287993 Rises=F Damp=F
 DIIS: error= 1.78D-04 at cycle  10 NSaved=  10.
 NSaved=10 IEnMin=10 EnMin= -1721.05174546128     IErMin=10 ErrMin= 1.78D-04
 ErrMax= 1.78D-04  0.00D+00 EMaxC= 1.00D-01 BMatC= 5.03D-05 BMatP= 1.58D-04
 IDIUse=3 WtCom= 9.98D-01 WtEn= 1.78D-03
 Coeff-Com: -0.408D-02 0.479D-02-0.660D-03 0.125D-03 0.249D-02-0.597D-02
 Coeff-Com: -0.529D-01-0.405D-01 0.152D+00 0.945D+00
 Coeff-En:   0.000D+00 0.000D+00 0.000D+00 0.000D+00 0.000D+00 0.000D+00
 Coeff-En:   0.000D+00 0.000D+00 0.000D+00 0.100D+01
 Coeff:     -0.408D-02 0.478D-02-0.659D-03 0.125D-03 0.248D-02-0.596D-02
 Coeff:     -0.529D-01-0.405D-01 0.152D+00 0.945D+00
 Gap=     0.161 Goal=   None    Shift=    0.000
 Gap=     0.116 Goal=   None    Shift=    0.000
 RMSDP=5.91D-05 MaxDP=6.08D-03 DE=-1.73D-05 OVMax= 7.85D-04

 Cycle  11  Pass 1  IDiag  1:
 RMSU=  1.35D-05    CP:  9.43D-01  1.61D+00  4.63D-01  3.96D-01  7.85D-01
                    CP:  7.58D-01  9.78D-01  8.30D-01  1.02D+00  1.21D+00
 E= -1721.05175225029     Delta-E=       -0.000006789011 Rises=F Damp=F
 DIIS: error= 4.98D-05 at cycle  11 NSaved=  11.
 NSaved=11 IEnMin=11 EnMin= -1721.05175225029     IErMin=11 ErrMin= 4.98D-05
 ErrMax= 4.98D-05  0.00D+00 EMaxC= 1.00D-01 BMatC= 4.14D-06 BMatP= 5.03D-05
 IDIUse=1 WtCom= 1.00D+00 WtEn= 0.00D+00
 Coeff-Com: -0.770D-03 0.954D-03-0.849D-04 0.145D-04 0.139D-02-0.545D-02
 Coeff-Com: -0.351D-01-0.509D-01-0.214D-01 0.385D+00 0.726D+00
 Coeff:     -0.770D-03 0.954D-03-0.849D-04 0.145D-04 0.139D-02-0.545D-02
 Coeff:     -0.351D-01-0.509D-01-0.214D-01 0.385D+00 0.726D+00
 Gap=     0.161 Goal=   None    Shift=    0.000
 Gap=     0.116 Goal=   None    Shift=    0.000
 RMSDP=1.80D-05 MaxDP=1.82D-03 DE=-6.79D-06 OVMax= 1.83D-04

 Cycle  12  Pass 1  IDiag  1:
 RMSU=  5.70D-06    CP:  9.43D-01  1.61D+00  4.63D-01  3.96D-01  7.86D-01
                    CP:  7.58D-01  9.83D-01  8.43D-01  1.07D+00  1.31D+00
                    CP:  9.81D-01
 E= -1721.05175280997     Delta-E=       -0.000000559673 Rises=F Damp=F
 DIIS: error= 8.63D-06 at cycle  12 NSaved=  12.
 NSaved=12 IEnMin=12 EnMin= -1721.05175280997     IErMin=12 ErrMin= 8.63D-06
 ErrMax= 8.63D-06  0.00D+00 EMaxC= 1.00D-01 BMatC= 3.15D-07 BMatP= 4.14D-06
 IDIUse=1 WtCom= 1.00D+00 WtEn= 0.00D+00
 Coeff-Com: -0.684D-04 0.115D-03 0.832D-05-0.526D-05 0.684D-03-0.294D-02
 Coeff-Com: -0.167D-01-0.283D-01-0.337D-01 0.134D+00 0.472D+00 0.475D+00
 Coeff:     -0.684D-04 0.115D-03 0.832D-05-0.526D-05 0.684D-03-0.294D-02
 Coeff:     -0.167D-01-0.283D-01-0.337D-01 0.134D+00 0.472D+00 0.475D+00
 Gap=     0.161 Goal=   None    Shift=    0.000
 Gap=     0.116 Goal=   None    Shift=    0.000
 RMSDP=3.76D-06 MaxDP=3.92D-04 DE=-5.60D-07 OVMax= 9.33D-05

 Cycle  13  Pass 1  IDiag  1:
 RMSU=  1.40D-06    CP:  9.43D-01  1.61D+00  4.63D-01  3.96D-01  7.86D-01
                    CP:  7.58D-01  9.85D-01  8.41D-01  1.07D+00  1.33D+00
                    CP:  1.01D+00  8.28D-01
 E= -1721.05175286357     Delta-E=       -0.000000053601 Rises=F Damp=F
 DIIS: error= 1.31D-06 at cycle  13 NSaved=  13.
 NSaved=13 IEnMin=13 EnMin= -1721.05175286357     IErMin=13 ErrMin= 1.31D-06
 ErrMax= 1.31D-06  0.00D+00 EMaxC= 1.00D-01 BMatC= 8.78D-09 BMatP= 3.15D-07
 IDIUse=1 WtCom= 1.00D+00 WtEn= 0.00D+00
 Coeff-Com:  0.274D-04-0.253D-04 0.125D-05-0.265D-05 0.120D-03-0.563D-03
 Coeff-Com: -0.245D-02-0.536D-02-0.122D-01 0.121D-01 0.117D+00 0.224D+00
 Coeff-Com:  0.668D+00
 Coeff:      0.274D-04-0.253D-04 0.125D-05-0.265D-05 0.120D-03-0.563D-03
 Coeff:     -0.245D-02-0.536D-02-0.122D-01 0.121D-01 0.117D+00 0.224D+00
 Coeff:      0.668D+00
 Gap=     0.161 Goal=   None    Shift=    0.000
 Gap=     0.116 Goal=   None    Shift=    0.000
 RMSDP=9.69D-07 MaxDP=8.58D-05 DE=-5.36D-08 OVMax= 1.12D-05

 Cycle  14  Pass 1  IDiag  1:
 RMSU=  5.09D-07    CP:  9.43D-01  1.61D+00  4.63D-01  3.96D-01  7.86D-01
                    CP:  7.58D-01  9.85D-01  8.42D-01  1.07D+00  1.34D+00
                    CP:  1.03D+00  8.72D-01  7.08D-01
 E= -1721.05175286502     Delta-E=       -0.000000001455 Rises=F Damp=F
 DIIS: error= 4.84D-07 at cycle  14 NSaved=  14.
 NSaved=14 IEnMin=14 EnMin= -1721.05175286502     IErMin=14 ErrMin= 4.84D-07
 ErrMax= 4.84D-07  0.00D+00 EMaxC= 1.00D-01 BMatC= 6.01D-10 BMatP= 8.78D-09
 IDIUse=1 WtCom= 1.00D+00 WtEn= 0.00D+00
 Coeff-Com:  0.805D-05-0.113D-04-0.140D-05-0.463D-07-0.235D-04 0.756D-04
 Coeff-Com:  0.495D-03 0.623D-03-0.344D-03-0.427D-02-0.283D-02 0.177D-01
 Coeff-Com:  0.144D+00 0.845D+00
 Coeff:      0.805D-05-0.113D-04-0.140D-05-0.463D-07-0.235D-04 0.756D-04
 Coeff:      0.495D-03 0.623D-03-0.344D-03-0.427D-02-0.283D-02 0.177D-01
 Coeff:      0.144D+00 0.845D+00
 Gap=     0.161 Goal=   None    Shift=    0.000
 Gap=     0.116 Goal=   None    Shift=    0.000
 RMSDP=2.96D-07 MaxDP=3.00D-05 DE=-1.46D-09 OVMax= 2.37D-06

 Cycle  15  Pass 1  IDiag  1:
 RMSU=  1.44D-07    CP:  9.43D-01  1.61D+00  4.63D-01  3.96D-01  7.86D-01
                    CP:  7.58D-01  9.85D-01  8.42D-01  1.07D+00  1.34D+00
                    CP:  1.03D+00  8.74D-01  7.46D-01  9.97D-01
 E= -1721.05175286516     Delta-E=       -0.000000000133 Rises=F Damp=F
 DIIS: error= 1.29D-07 at cycle  15 NSaved=  15.
 NSaved=15 IEnMin=15 EnMin= -1721.05175286516     IErMin=15 ErrMin= 1.29D-07
 ErrMax= 1.29D-07  0.00D+00 EMaxC= 1.00D-01 BMatC= 4.80D-11 BMatP= 6.01D-10
 IDIUse=1 WtCom= 1.00D+00 WtEn= 0.00D+00
 Coeff-Com:  0.331D-05-0.477D-05-0.161D-06 0.856D-07-0.163D-04 0.500D-04
 Coeff-Com:  0.269D-03 0.442D-03 0.434D-03-0.201D-02-0.592D-02-0.246D-02
 Coeff-Com:  0.285D-01 0.342D+00 0.638D+00
 Coeff:      0.331D-05-0.477D-05-0.161D-06 0.856D-07-0.163D-04 0.500D-04
 Coeff:      0.269D-03 0.442D-03 0.434D-03-0.201D-02-0.592D-02-0.246D-02
 Coeff:      0.285D-01 0.342D+00 0.638D+00
 Gap=     0.161 Goal=   None    Shift=    0.000
 Gap=     0.116 Goal=   None    Shift=    0.000
 RMSDP=7.75D-08 MaxDP=9.12D-06 DE=-1.33D-10 OVMax= 1.08D-06

 Cycle  16  Pass 1  IDiag  1:
 RMSU=  3.38D-08    CP:  9.43D-01  1.61D+00  4.63D-01  3.96D-01  7.86D-01
                    CP:  7.58D-01  9.85D-01  8.42D-01  1.07D+00  1.34D+00
                    CP:  1.03D+00  8.74D-01  7.49D-01  1.01D+00  9.00D-01
 E= -1721.05175286515     Delta-E=        0.000000000010 Rises=F Damp=F
 DIIS: error= 7.45D-08 at cycle  16 NSaved=  16.
 NSaved=16 IEnMin=15 EnMin= -1721.05175286516     IErMin=16 ErrMin= 7.45D-08
 ErrMax= 7.45D-08  0.00D+00 EMaxC= 1.00D-01 BMatC= 1.99D-11 BMatP= 4.80D-11
 IDIUse=1 WtCom= 1.00D+00 WtEn= 0.00D+00
 Coeff-Com:  0.987D-06-0.151D-05 0.829D-07 0.749D-07-0.769D-05 0.211D-04
 Coeff-Com:  0.106D-03 0.205D-03 0.375D-03-0.650D-03-0.335D-02-0.421D-02
 Coeff-Com: -0.388D-02 0.907D-01 0.424D+00 0.497D+00
 Coeff:      0.987D-06-0.151D-05 0.829D-07 0.749D-07-0.769D-05 0.211D-04
 Coeff:      0.106D-03 0.205D-03 0.375D-03-0.650D-03-0.335D-02-0.421D-02
 Coeff:     -0.388D-02 0.907D-01 0.424D+00 0.497D+00
 Gap=     0.161 Goal=   None    Shift=    0.000
 Gap=     0.116 Goal=   None    Shift=    0.000
 RMSDP=3.93D-08 MaxDP=5.84D-06 DE= 9.55D-12 OVMax= 6.71D-07

 Cycle  17  Pass 1  IDiag  1:
 RMSU=  1.50D-08    CP:  9.43D-01  1.61D+00  4.63D-01  3.96D-01  7.86D-01
                    CP:  7.58D-01  9.85D-01  8.42D-01  1.07D+00  1.34D+00
                    CP:  1.03D+00  8.75D-01  7.51D-01  1.02D+00  9.37D-01
                    CP:  8.61D-01
 E= -1721.05175286514     Delta-E=        0.000000000010 Rises=F Damp=F
 DIIS: error= 2.55D-08 at cycle  17 NSaved=  17.
 NSaved=17 IEnMin=15 EnMin= -1721.05175286516     IErMin=17 ErrMin= 2.55D-08
 ErrMax= 2.55D-08  0.00D+00 EMaxC= 1.00D-01 BMatC= 1.78D-12 BMatP= 1.99D-11
 IDIUse=1 WtCom= 1.00D+00 WtEn= 0.00D+00
 Coeff-Com:  0.144D-06-0.246D-06 0.715D-07-0.302D-08-0.278D-06-0.676D-06
 Coeff-Com: -0.553D-05 0.834D-05 0.910D-04 0.124D-03-0.265D-03-0.120D-02
 Coeff-Com: -0.655D-02-0.227D-01 0.529D-01 0.188D+00 0.789D+00
 Coeff:      0.144D-06-0.246D-06 0.715D-07-0.302D-08-0.278D-06-0.676D-06
 Coeff:     -0.553D-05 0.834D-05 0.910D-04 0.124D-03-0.265D-03-0.120D-02
 Coeff:     -0.655D-02-0.227D-01 0.529D-01 0.188D+00 0.789D+00
 Gap=     0.161 Goal=   None    Shift=    0.000
 Gap=     0.116 Goal=   None    Shift=    0.000
 RMSDP=2.31D-08 MaxDP=3.06D-06 DE= 1.00D-11 OVMax= 1.47D-07

 Cycle  18  Pass 1  IDiag  1:
 RMSU=  5.83D-09    CP:  9.43D-01  1.61D+00  4.63D-01  3.96D-01  7.86D-01
                    CP:  7.58D-01  9.85D-01  8.42D-01  1.07D+00  1.34D+00
                    CP:  1.03D+00  8.75D-01  7.50D-01  1.03D+00  9.77D-01
                    CP:  8.26D-01  7.86D-01
 E= -1721.05175286518     Delta-E=       -0.000000000045 Rises=F Damp=F
 DIIS: error= 3.60D-09 at cycle  18 NSaved=  18.
 NSaved=18 IEnMin=18 EnMin= -1721.05175286518     IErMin=18 ErrMin= 3.60D-09
 ErrMax= 3.60D-09  0.00D+00 EMaxC= 1.00D-01 BMatC= 4.87D-14 BMatP= 1.78D-12
 IDIUse=1 WtCom= 1.00D+00 WtEn= 0.00D+00
 Coeff-Com:  0.341D-07-0.278D-07 0.177D-07-0.680D-08 0.412D-06-0.187D-05
 Coeff-Com: -0.989D-05-0.124D-04-0.240D-05 0.934D-04 0.163D-03-0.393D-04
 Coeff-Com: -0.169D-02-0.136D-01-0.156D-01 0.174D-01 0.238D+00 0.776D+00
 Coeff:      0.341D-07-0.278D-07 0.177D-07-0.680D-08 0.412D-06-0.187D-05
 Coeff:     -0.989D-05-0.124D-04-0.240D-05 0.934D-04 0.163D-03-0.393D-04
 Coeff:     -0.169D-02-0.136D-01-0.156D-01 0.174D-01 0.238D+00 0.776D+00
 Gap=     0.161 Goal=   None    Shift=    0.000
 Gap=     0.116 Goal=   None    Shift=    0.000
 RMSDP=4.32D-09 MaxDP=5.55D-07 DE=-4.46D-11 OVMax= 2.58D-08

 SCF Done:  E(UO-LYP) =  -1721.05175287     A.U. after   18 cycles
            NFock= 18  Conv=0.43D-08     -V/T= 2.0007
 <Sx>= 0.0000 <Sy>= 0.0000 <Sz>= 2.5000 <S**2>= 8.7530 S= 2.5005
 <L.S>=  0.00000000000    
 KE= 1.719825477330D+03 PE=-5.574745511077D+03 EE= 1.366079980662D+03
 Annihilation of the first spin contaminant:
 S**2 before annihilation     8.7530,   after     8.7500
 Leave Link  502 at Wed Mar  5 19:56:39 2025, MaxMem= 13421772800 cpu:            7401.6 elap:              61.6
 (Enter /gpfs/fs1/soft/improv/software/custom-built/gaussian/g16/l508.exe)
 QCSCF skips out because SCF is already converged.
 Leave Link  508 at Wed Mar  5 19:56:39 2025, MaxMem= 13421772800 cpu:               0.3 elap:               0.0
 (Enter /gpfs/fs1/soft/improv/software/custom-built/gaussian/g16/l801.exe)
 DoSCS=F DFT=T ScalE2(SS,OS)=  1.000000  1.000000
 Range of M.O.s used for correlation:     1   317
 NBasis=   317 NAE=    44 NBE=    39 NFC=     0 NFV=     0
 NROrb=    317 NOA=    44 NOB=    39 NVA=   273 NVB=   278

 **** Warning!!: The largest alpha MO coefficient is  0.22914382D+03


 **** Warning!!: The largest beta MO coefficient is  0.21553863D+03

 Leave Link  801 at Wed Mar  5 19:56:40 2025, MaxMem= 13421772800 cpu:               0.4 elap:               0.0
 (Enter /gpfs/fs1/soft/improv/software/custom-built/gaussian/g16/l1101.exe)
 Using compressed storage, NAtomX=    19.
 Will process     20 centers per pass.
 Leave Link 1101 at Wed Mar  5 19:56:40 2025, MaxMem= 13421772800 cpu:              52.2 elap:               0.5
 (Enter /gpfs/fs1/soft/improv/software/custom-built/gaussian/g16/l1102.exe)
 Symmetrizing basis deriv contribution to polar:
 IMax=3 JMax=2 DiffMx= 0.00D+00
 Leave Link 1102 at Wed Mar  5 19:56:41 2025, MaxMem= 13421772800 cpu:               1.0 elap:               0.0
 (Enter /gpfs/fs1/soft/improv/software/custom-built/gaussian/g16/l1110.exe)
 Forming Gx(P) for the SCF density, NAtomX=    19.
 Integral derivatives from FoFJK, PRISM(SPDF).
 Do as many integral derivatives as possible in FoFJK.
 G2DrvN: MDV=   13421770631.
 G2DrvN: will do    20 centers at a time, making    1 passes.
 Calling FoFCou, ICntrl=  3507 FMM=F I1Cent=   0 AccDes= 0.00D+00.
 FoFJK:  IHMeth= 1 ICntrl=    3507 DoSepK=F KAlg= 0 I1Cent=           0 FoldK=F
 IRaf=         0 NMat=       1 IRICut=       1 DoRegI=T DoRafI=F ISym2E= 0 IDoP0=0 IntGTp=1.
 FoFCou: FMM=F IPFlag=           0 FMFlag=      100000 FMFlg1=           0
         NFxFlg=           0 DoJE=F BraDBF=F KetDBF=F FulRan=T
         wScrn=  0.000000 ICntrl=      3507 IOpCl=  0 I1Cent=           0 NGrid=           0
         NMat0=    1 NMatS0=      1 NMatT0=    0 NMatD0=    1 NMtDS0=    0 NMtDT0=    0
 Symmetry not used in FoFCou.
 End of G2Drv F.D. properties file   721 does not exist.
 End of G2Drv F.D. properties file   722 does not exist.
 End of G2Drv F.D. properties file   788 does not exist.
 Leave Link 1110 at Wed Mar  5 19:56:55 2025, MaxMem= 13421772800 cpu:            1743.2 elap:              14.0
 (Enter /gpfs/fs1/soft/improv/software/custom-built/gaussian/g16/l1002.exe)
 Minotr:  UHF open shell wavefunction.
          IDoAtm=1111111111111111111
          Direct CPHF calculation.
          Differentiating once with respect to electric field.
                with respect to dipole field.
          Differentiating once with respect to nuclear coordinates.
          Requested convergence is 1.0D-08 RMS, and 1.0D-07 maximum.
          Secondary convergence is 1.0D-12 RMS, and 1.0D-12 maximum.
          NewPWx=T KeepS1=F KeepF1=F KeepIn=T MapXYZ=F SortEE=F KeepMc=T.
         6034 words used for storage of precomputed grid.
 Two-electron integrals replicated using symmetry.
          MDV=   13421772800 using IRadAn=       1.
          Solving linear equations simultaneously, MaxMat=     384.
 FoF2E skips out because all densities are zero.
 CalDSu exits because no D1Ps are significant.
 FoFJK:  IHMeth= 1 ICntrl=     500 DoSepK=F KAlg= 0 I1Cent=           0 FoldK=F
 IRaf= 990000000 NMat=      57 IRICut=       1 DoRegI=T DoRafI=F ISym2E= 2 IDoP0=3 IntGTp=2.
 FoFCou: FMM=F IPFlag=           0 FMFlag=      100000 FMFlg1=           0
         NFxFlg=           0 DoJE=F BraDBF=F KetDBF=F FulRan=T
         wScrn=  0.000000 ICntrl=       500 IOpCl=  0 I1Cent=           0 NGrid=           0
         NMat0=   57 NMatS0=     57 NMatT0=    0 NMatD0=   57 NMtDS0=    0 NMtDT0=    0
 Integrals replicated using symmetry in FoFCou.
          There are    60 degrees of freedom in the 1st order CPHF.  IDoFFX=6 NUNeed=     3.
     57 vectors produced by pass  0 Test12= 3.81D-14 1.67D-09 XBig12= 1.14D+02 3.67D+00.
 AX will form    57 AO Fock derivatives at one time.
     57 vectors produced by pass  1 Test12= 3.81D-14 1.67D-09 XBig12= 1.33D+01 4.46D-01.
     57 vectors produced by pass  2 Test12= 3.81D-14 1.67D-09 XBig12= 1.15D-01 4.39D-02.
     57 vectors produced by pass  3 Test12= 3.81D-14 1.67D-09 XBig12= 1.08D-03 4.27D-03.
     57 vectors produced by pass  4 Test12= 3.81D-14 1.67D-09 XBig12= 6.51D-06 3.01D-04.
     57 vectors produced by pass  5 Test12= 3.81D-14 1.67D-09 XBig12= 1.45D-08 9.67D-06.
     28 vectors produced by pass  6 Test12= 3.81D-14 1.67D-09 XBig12= 3.17D-11 5.51D-07.
      3 vectors produced by pass  7 Test12= 3.81D-14 1.67D-09 XBig12= 6.39D-14 2.98D-08.
 InvSVY:  IOpt=1 It=  1 EMax= 3.55D-15
 Solved reduced A of dimension   373 with    60 vectors.
 FullF1:  Do perturbations      1 to       3.
 Isotropic polarizability for W=    0.000000       54.19 Bohr**3.
 End of Minotr F.D. properties file   721 does not exist.
 End of Minotr F.D. properties file   722 does not exist.
 End of Minotr F.D. properties file   788 does not exist.
 Leave Link 1002 at Wed Mar  5 19:57:40 2025, MaxMem= 13421772800 cpu:            5318.4 elap:              44.6
 (Enter /gpfs/fs1/soft/improv/software/custom-built/gaussian/g16/l601.exe)
 Copying SCF densities to generalized density rwf, IOpCl= 1 IROHF=0.

 **********************************************************************

            Population analysis using the SCF Density.

 **********************************************************************

 Orbital symmetries:
 Alpha Orbitals:
       Occupied  (A) (A) (A) (A) (A) (A) (A) (A) (A) (A) (A) (A)
                 (A) (A) (A) (A) (A) (A) (A) (A) (A) (A) (A) (A)
                 (A) (A) (A) (A) (A) (A) (A) (A) (A) (A) (A) (A)
                 (A) (A) (A) (A) (A) (A) (A) (A)
       Virtual   (A) (A) (A) (A) (A) (A) (A) (A) (A) (A) (A) (A)
                 (A) (A) (A) (A) (A) (A) (A) (A) (A) (A) (A) (A)
                 (A) (A) (A) (A) (A) (A) (A) (A) (A) (A) (A) (A)
                 (A) (A) (A) (A) (A) (A) (A) (A) (A) (A) (A) (A)
                 (A) (A) (A) (A) (A) (A) (A) (A) (A) (A) (A) (A)
                 (A) (A) (A) (A) (A) (A) (A) (A) (A) (A) (A) (A)
                 (A) (A) (A) (A) (A) (A) (A) (A) (A) (A) (A) (A)
                 (A) (A) (A) (A) (A) (A) (A) (A) (A) (A) (A) (A)
                 (A) (A) (A) (A) (A) (A) (A) (A) (A) (A) (A) (A)
                 (A) (A) (A) (A) (A) (A) (A) (A) (A) (A) (A) (A)
                 (A) (A) (A) (A) (A) (A) (A) (A) (A) (A) (A) (A)
                 (A) (A) (A) (A) (A) (A) (A) (A) (A) (A) (A) (A)
                 (A) (A) (A) (A) (A) (A) (A) (A) (A) (A) (A) (A)
                 (A) (A) (A) (A) (A) (A) (A) (A) (A) (A) (A) (A)
                 (A) (A) (A) (A) (A) (A) (A) (A) (A) (A) (A) (A)
                 (A) (A) (A) (A) (A) (A) (A) (A) (A) (A) (A) (A)
                 (A) (A) (A) (A) (A) (A) (A) (A) (A) (A) (A) (A)
                 (A) (A) (A) (A) (A) (A) (A) (A) (A) (A) (A) (A)
                 (A) (A) (A) (A) (A) (A) (A) (A) (A) (A) (A) (A)
                 (A) (A) (A) (A) (A) (A) (A) (A) (A) (A) (A) (A)
                 (A) (A) (A) (A) (A) (A) (A) (A) (A) (A) (A) (A)
                 (A) (A) (A) (A) (A) (A) (A) (A) (A) (A) (A) (A)
                 (A) (A) (A) (A) (A) (A) (A) (A) (A)
 Beta  Orbitals:
       Occupied  (A) (A) (A) (A) (A) (A) (A) (A) (A) (A) (A) (A)
                 (A) (A) (A) (A) (A) (A) (A) (A) (A) (A) (A) (A)
                 (A) (A) (A) (A) (A) (A) (A) (A) (A) (A) (A) (A)
                 (A) (A) (A)
       Virtual   (A) (A) (A) (A) (A) (A) (A) (A) (A) (A) (A) (A)
                 (A) (A) (A) (A) (A) (A) (A) (A) (A) (A) (A) (A)
                 (A) (A) (A) (A) (A) (A) (A) (A) (A) (A) (A) (A)
                 (A) (A) (A) (A) (A) (A) (A) (A) (A) (A) (A) (A)
                 (A) (A) (A) (A) (A) (A) (A) (A) (A) (A) (A) (A)
                 (A) (A) (A) (A) (A) (A) (A) (A) (A) (A) (A) (A)
                 (A) (A) (A) (A) (A) (A) (A) (A) (A) (A) (A) (A)
                 (A) (A) (A) (A) (A) (A) (A) (A) (A) (A) (A) (A)
                 (A) (A) (A) (A) (A) (A) (A) (A) (A) (A) (A) (A)
                 (A) (A) (A) (A) (A) (A) (A) (A) (A) (A) (A) (A)
                 (A) (A) (A) (A) (A) (A) (A) (A) (A) (A) (A) (A)
                 (A) (A) (A) (A) (A) (A) (A) (A) (A) (A) (A) (A)
                 (A) (A) (A) (A) (A) (A) (A) (A) (A) (A) (A) (A)
                 (A) (A) (A) (A) (A) (A) (A) (A) (A) (A) (A) (A)
                 (A) (A) (A) (A) (A) (A) (A) (A) (A) (A) (A) (A)
                 (A) (A) (A) (A) (A) (A) (A) (A) (A) (A) (A) (A)
                 (A) (A) (A) (A) (A) (A) (A) (A) (A) (A) (A) (A)
                 (A) (A) (A) (A) (A) (A) (A) (A) (A) (A) (A) (A)
                 (A) (A) (A) (A) (A) (A) (A) (A) (A) (A) (A) (A)
                 (A) (A) (A) (A) (A) (A) (A) (A) (A) (A) (A) (A)
                 (A) (A) (A) (A) (A) (A) (A) (A) (A) (A) (A) (A)
                 (A) (A) (A) (A) (A) (A) (A) (A) (A) (A) (A) (A)
                 (A) (A) (A) (A) (A) (A) (A) (A) (A) (A) (A) (A)
                 (A) (A)
 The electronic state is 6-A.
 Alpha  occ. eigenvalues -- -255.33360 -30.29872 -26.23584 -26.23475 -26.23425
 Alpha  occ. eigenvalues --  -19.40426 -19.40381 -19.39619 -19.39407 -19.37596
 Alpha  occ. eigenvalues --  -19.36916  -4.04347  -2.85635  -2.85326  -2.85202
 Alpha  occ. eigenvalues --   -1.59210  -1.56831  -1.56336  -1.55904  -1.54255
 Alpha  occ. eigenvalues --   -1.53501  -1.14106  -1.12676  -1.10938  -1.10222
 Alpha  occ. eigenvalues --   -1.08687  -1.07320  -1.05199  -1.05061  -1.04464
 Alpha  occ. eigenvalues --   -0.99851  -0.98922  -0.96946  -0.96341  -0.93662
 Alpha  occ. eigenvalues --   -0.92507  -0.90426  -0.90147  -0.87865  -0.87312
 Alpha  occ. eigenvalues --   -0.85760  -0.84669  -0.74376  -0.74116
 Alpha virt. eigenvalues --   -0.58031  -0.52840  -0.50744  -0.49342  -0.46197
 Alpha virt. eigenvalues --   -0.45142  -0.43944  -0.43514  -0.40910  -0.39310
 Alpha virt. eigenvalues --   -0.38876  -0.37373  -0.35250  -0.34197  -0.33014
 Alpha virt. eigenvalues --   -0.31558  -0.31103  -0.30760  -0.30349  -0.29648
 Alpha virt. eigenvalues --   -0.28236  -0.27629  -0.26730  -0.26518  -0.24817
 Alpha virt. eigenvalues --   -0.24588  -0.23536  -0.22308  -0.21742  -0.21417
 Alpha virt. eigenvalues --   -0.20308  -0.19864  -0.18122  -0.17241  -0.16346
 Alpha virt. eigenvalues --   -0.15790  -0.14730  -0.14367  -0.13346  -0.12693
 Alpha virt. eigenvalues --   -0.11490  -0.10762  -0.10366  -0.08914  -0.08472
 Alpha virt. eigenvalues --   -0.07456  -0.04718  -0.03498  -0.01864   0.03494
 Alpha virt. eigenvalues --    0.05168   0.06914   0.07593   0.17816   0.18772
 Alpha virt. eigenvalues --    0.20151   0.22290   0.24569   0.25738   0.27203
 Alpha virt. eigenvalues --    0.28425   0.29482   0.29856   0.30976   0.31353
 Alpha virt. eigenvalues --    0.33027   0.35555   0.36667   0.37316   0.39008
 Alpha virt. eigenvalues --    0.40029   0.41243   0.41948   0.43853   0.46930
 Alpha virt. eigenvalues --    0.47785   0.47858   0.49202   0.49980   0.50269
 Alpha virt. eigenvalues --    0.50810   0.52829   0.55711   0.57392   0.58249
 Alpha virt. eigenvalues --    0.59398   0.62653   0.64227   0.65372   0.68152
 Alpha virt. eigenvalues --    0.69723   0.71692   0.72314   0.73787   0.74816
 Alpha virt. eigenvalues --    0.75967   0.78986   0.80710   0.81612   0.82910
 Alpha virt. eigenvalues --    0.85466   0.86518   0.87740   1.01298   1.02509
 Alpha virt. eigenvalues --    1.10096   1.11373   1.14005   1.15426   1.17668
 Alpha virt. eigenvalues --    1.18284   1.19045   1.20245   1.22821   1.24810
 Alpha virt. eigenvalues --    1.28101   1.30537   1.31712   1.34582   1.37800
 Alpha virt. eigenvalues --    1.43594   1.47900   1.54729   1.61919   1.63737
 Alpha virt. eigenvalues --    1.65522   1.68703   1.69161   1.72415   1.77011
 Alpha virt. eigenvalues --    1.78212   1.78344   1.80806   1.81508   1.88669
 Alpha virt. eigenvalues --    1.91101   1.94795   1.98305   2.01506   2.04834
 Alpha virt. eigenvalues --    2.07442   2.08524   2.12888   2.16174   2.19393
 Alpha virt. eigenvalues --    2.21030   2.25296   2.26828   2.28795   2.31497
 Alpha virt. eigenvalues --    2.32476   2.33646   2.36597   2.36737   2.38946
 Alpha virt. eigenvalues --    2.40153   2.40779   2.42652   2.43102   2.45034
 Alpha virt. eigenvalues --    2.45595   2.46538   2.48017   2.49999   2.54862
 Alpha virt. eigenvalues --    2.60198   2.67150   2.70056   2.71101   2.72562
 Alpha virt. eigenvalues --    2.81420   3.07883   3.35203   3.36763   3.39757
 Alpha virt. eigenvalues --    3.43462   3.45234   3.50715   3.51779   3.53350
 Alpha virt. eigenvalues --    3.55962   3.57073   3.57921   3.59200   3.62341
 Alpha virt. eigenvalues --    3.63425   3.63991   3.64384   3.67333   3.70632
 Alpha virt. eigenvalues --    3.71698   3.71946   3.75133   3.76224   3.80218
 Alpha virt. eigenvalues --    3.81966   3.83291   3.84563   3.87867   3.89055
 Alpha virt. eigenvalues --    3.90478   3.93160   3.95910   3.99817   4.03715
 Alpha virt. eigenvalues --    4.08292   4.10271   4.10621   4.13631   4.15861
 Alpha virt. eigenvalues --    4.21389   4.26311   4.26874   4.29862   4.30878
 Alpha virt. eigenvalues --    4.32714   4.35167   4.38165   4.48136   4.52996
 Alpha virt. eigenvalues --    4.55402   4.56067   4.59356   4.62045   4.68948
 Alpha virt. eigenvalues --    4.72917   4.73595   4.74898   4.75652   4.77188
 Alpha virt. eigenvalues --    4.78685   4.78771   4.79565   4.81345   4.86248
 Alpha virt. eigenvalues --    4.86948   4.93421   4.95013   4.96546   4.98355
 Alpha virt. eigenvalues --    5.00000   5.04291   5.05164   5.06976   5.10325
 Alpha virt. eigenvalues --    5.13164   5.15611   5.17185   5.18597   5.20460
 Alpha virt. eigenvalues --    5.22615   5.23888   5.25543   5.25908   5.30137
 Alpha virt. eigenvalues --    5.34085   5.35830   5.47936   5.49079   5.89357
 Alpha virt. eigenvalues --    6.82677   6.85372   6.86742   6.94559   6.97533
 Alpha virt. eigenvalues --    7.12520  13.20813  13.22949  13.23972  13.78926
 Alpha virt. eigenvalues --   13.84495  13.89552  25.38831
  Beta  occ. eigenvalues -- -255.33278 -30.21216 -26.17206 -26.17112 -26.17069
  Beta  occ. eigenvalues --  -19.40145 -19.40098 -19.39319 -19.39098 -19.37245
  Beta  occ. eigenvalues --  -19.36559  -3.85142  -2.66617  -2.66413  -2.66292
  Beta  occ. eigenvalues --   -1.58431  -1.56060  -1.55514  -1.55085  -1.53305
  Beta  occ. eigenvalues --   -1.52528  -1.13277  -1.11821  -1.10404  -1.09617
  Beta  occ. eigenvalues --   -1.07936  -1.06713  -1.03088  -1.01074  -1.00301
  Beta  occ. eigenvalues --   -0.97542  -0.97277  -0.95089  -0.93907  -0.90566
  Beta  occ. eigenvalues --   -0.89186  -0.87923  -0.86388  -0.85024
  Beta virt. eigenvalues --   -0.73456  -0.72844  -0.71721  -0.61752  -0.61522
  Beta virt. eigenvalues --   -0.57852  -0.52671  -0.50528  -0.49165  -0.45884
  Beta virt. eigenvalues --   -0.44822  -0.43700  -0.43279  -0.40608  -0.39042
  Beta virt. eigenvalues --   -0.38589  -0.37044  -0.35041  -0.34083  -0.32802
  Beta virt. eigenvalues --   -0.31351  -0.30903  -0.30574  -0.30026  -0.29345
  Beta virt. eigenvalues --   -0.28068  -0.27353  -0.26444  -0.26242  -0.24475
  Beta virt. eigenvalues --   -0.23937  -0.22936  -0.21626  -0.21348  -0.20564
  Beta virt. eigenvalues --   -0.19877  -0.19088  -0.17636  -0.16792  -0.15586
  Beta virt. eigenvalues --   -0.15422  -0.14099  -0.13514  -0.12683  -0.11843
  Beta virt. eigenvalues --   -0.10993  -0.10148  -0.09802  -0.08093  -0.07942
  Beta virt. eigenvalues --   -0.06342  -0.04277  -0.02342  -0.00726   0.04949
  Beta virt. eigenvalues --    0.06510   0.07087   0.07855   0.18278   0.19290
  Beta virt. eigenvalues --    0.20770   0.22970   0.24969   0.26138   0.27852
  Beta virt. eigenvalues --    0.28857   0.29946   0.30521   0.31324   0.31978
  Beta virt. eigenvalues --    0.33308   0.35997   0.37265   0.37838   0.39481
  Beta virt. eigenvalues --    0.40464   0.41679   0.42442   0.44412   0.47839
  Beta virt. eigenvalues --    0.48422   0.48620   0.49781   0.50757   0.50960
  Beta virt. eigenvalues --    0.51628   0.53672   0.56368   0.58168   0.59083
  Beta virt. eigenvalues --    0.60115   0.63535   0.65217   0.66754   0.69439
  Beta virt. eigenvalues --    0.70890   0.72869   0.74163   0.74754   0.76255
  Beta virt. eigenvalues --    0.77524   0.79951   0.82588   0.83616   0.84766
  Beta virt. eigenvalues --    0.87076   0.87835   0.89724   1.03667   1.04555
  Beta virt. eigenvalues --    1.13007   1.13638   1.16029   1.17047   1.20839
  Beta virt. eigenvalues --    1.21105   1.22598   1.23180   1.26898   1.27574
  Beta virt. eigenvalues --    1.31770   1.32380   1.33992   1.37266   1.39659
  Beta virt. eigenvalues --    1.44481   1.49769   1.55959   1.62396   1.64271
  Beta virt. eigenvalues --    1.66218   1.69452   1.69736   1.73158   1.77874
  Beta virt. eigenvalues --    1.79098   1.79337   1.81517   1.82069   1.89664
  Beta virt. eigenvalues --    1.93297   1.95457   1.99281   2.02274   2.06442
  Beta virt. eigenvalues --    2.09387   2.09665   2.14410   2.18544   2.21675
  Beta virt. eigenvalues --    2.23376   2.27514   2.30149   2.31764   2.32601
  Beta virt. eigenvalues --    2.33853   2.34912   2.37527   2.37833   2.39823
  Beta virt. eigenvalues --    2.41377   2.41932   2.44489   2.45812   2.46134
  Beta virt. eigenvalues --    2.47698   2.48271   2.49768   2.52220   2.55759
  Beta virt. eigenvalues --    2.60999   2.68543   2.71596   2.73998   2.76081
  Beta virt. eigenvalues --    2.84306   3.11483   3.39038   3.39827   3.41857
  Beta virt. eigenvalues --    3.44879   3.46414   3.52020   3.53283   3.54811
  Beta virt. eigenvalues --    3.58887   3.59954   3.60808   3.61350   3.66101
  Beta virt. eigenvalues --    3.66890   3.67563   3.69469   3.69705   3.72918
  Beta virt. eigenvalues --    3.77765   3.78542   3.79952   3.81890   3.84376
  Beta virt. eigenvalues --    3.86142   3.87426   3.88192   3.90803   3.92042
  Beta virt. eigenvalues --    3.93292   3.98156   4.05685   4.09029   4.10338
  Beta virt. eigenvalues --    4.12126   4.15427   4.16457   4.17718   4.18853
  Beta virt. eigenvalues --    4.24905   4.30470   4.30964   4.32538   4.33819
  Beta virt. eigenvalues --    4.36098   4.38493   4.42933   4.49746   4.55192
  Beta virt. eigenvalues --    4.57106   4.57792   4.61079   4.64081   4.71245
  Beta virt. eigenvalues --    4.73887   4.74801   4.75924   4.76470   4.78776
  Beta virt. eigenvalues --    4.79717   4.80811   4.81687   4.83743   4.88817
  Beta virt. eigenvalues --    4.89592   4.95470   4.96975   4.98358   5.00279
  Beta virt. eigenvalues --    5.02792   5.07002   5.08065   5.09552   5.12988
  Beta virt. eigenvalues --    5.14799   5.17100   5.19178   5.20711   5.22192
  Beta virt. eigenvalues --    5.24380   5.25656   5.27704   5.28025   5.31181
  Beta virt. eigenvalues --    5.35040   5.36810   5.49586   5.50600   5.92629
  Beta virt. eigenvalues --    6.83929   6.86629   6.87975   6.95808   6.98771
  Beta virt. eigenvalues --    7.13522  13.21535  13.23647  13.24658  13.79627
  Beta virt. eigenvalues --   13.85239  13.90280  25.49927
          Condensed to atoms (all electrons):
               1          2          3          4          5          6
     1  Fe  24.720236  -0.082122  -0.010460  -0.033980  -0.009739  -0.065369
     2  O   -0.082122   8.280607   0.313999  -0.061181   0.000289  -0.058140
     3  H   -0.010460   0.313999   0.261396   0.000801  -0.000018   0.001721
     4  O   -0.033980  -0.061181   0.000801   8.258316   0.308262  -0.060605
     5  H   -0.009739   0.000289  -0.000018   0.308262   0.288788   0.004300
     6  O   -0.065369  -0.058140   0.001721  -0.060605   0.004300   8.283014
     7  H   -0.004164   0.000718  -0.000042   0.000133  -0.000383   0.305070
     8  O   -0.075747   0.057738  -0.000956  -0.068111   0.004020  -0.073136
     9  H   -0.005242  -0.000777  -0.000003   0.000737   0.000001   0.001345
    10  O   -0.035598  -0.051042   0.001057   0.046998  -0.001084  -0.067880
    11  H   -0.002270   0.001898  -0.000270  -0.000822   0.000009  -0.000170
    12  O   -0.067281  -0.053487   0.001602  -0.049448  -0.000032   0.057622
    13  H   -0.012752   0.000094  -0.000073   0.001156  -0.000021  -0.000926
    14  H    0.006393   0.001227  -0.000035   0.001206   0.000030  -0.001141
    15  H   -0.004826   0.001823   0.000007   0.312805  -0.022522  -0.006332
    16  H   -0.002005   0.303659  -0.014377  -0.000249  -0.000048   0.000021
    17  H   -0.011379  -0.000764   0.000094  -0.000897  -0.000009   0.002614
    18  H   -0.008364  -0.000914   0.000019   0.001241  -0.001425   0.311830
    19  H   -0.007563  -0.001173   0.000007  -0.000584   0.000447   0.003437
               7          8          9         10         11         12
     1  Fe  -0.004164  -0.075747  -0.005242  -0.035598  -0.002270  -0.067281
     2  O    0.000718   0.057738  -0.000777  -0.051042   0.001898  -0.053487
     3  H   -0.000042  -0.000956  -0.000003   0.001057  -0.000270   0.001602
     4  O    0.000133  -0.068111   0.000737   0.046998  -0.000822  -0.049448
     5  H   -0.000383   0.004020   0.000001  -0.001084   0.000009  -0.000032
     6  O    0.305070  -0.073136   0.001345  -0.067880  -0.000170   0.057622
     7  H    0.295874   0.002226  -0.000401   0.000583   0.000035  -0.001524
     8  O    0.002226   8.280409   0.310213  -0.038989  -0.006468  -0.055006
     9  H   -0.000401   0.310213   0.278352  -0.001059   0.000297  -0.001857
    10  O    0.000583  -0.038989  -0.001059   8.262110   0.310271  -0.079308
    11  H    0.000035  -0.006468   0.000297   0.310271   0.280709   0.001532
    12  O   -0.001524  -0.055006  -0.001857  -0.079308   0.001532   8.281092
    13  H    0.000009   0.001637   0.000018   0.001630  -0.000039   0.313987
    14  H   -0.000009  -0.001420   0.000400  -0.001756   0.001434   0.298107
    15  H    0.000138  -0.000184  -0.000028  -0.000859  -0.000001   0.002013
    16  H   -0.000003  -0.001046   0.000006   0.001888  -0.000010   0.000565
    17  H    0.000838   0.001528  -0.001337   0.312693  -0.021871   0.000455
    18  H   -0.017031   0.001053   0.000018   0.000485  -0.000024  -0.000889
    19  H    0.001698   0.308144  -0.016429  -0.000888   0.000142   0.001540
              13         14         15         16         17         18
     1  Fe  -0.012752   0.006393  -0.004826  -0.002005  -0.011379  -0.008364
     2  O    0.000094   0.001227   0.001823   0.303659  -0.000764  -0.000914
     3  H   -0.000073  -0.000035   0.000007  -0.014377   0.000094   0.000019
     4  O    0.001156   0.001206   0.312805  -0.000249  -0.000897   0.001241
     5  H   -0.000021   0.000030  -0.022522  -0.000048  -0.000009  -0.001425
     6  O   -0.000926  -0.001141  -0.006332   0.000021   0.002614   0.311830
     7  H    0.000009  -0.000009   0.000138  -0.000003   0.000838  -0.017031
     8  O    0.001637  -0.001420  -0.000184  -0.001046   0.001528   0.001053
     9  H    0.000018   0.000400  -0.000028   0.000006  -0.001337   0.000018
    10  O    0.001630  -0.001756  -0.000859   0.001888   0.312693   0.000485
    11  H   -0.000039   0.001434  -0.000001  -0.000010  -0.021871  -0.000024
    12  O    0.313987   0.298107   0.002013   0.000565   0.000455  -0.000889
    13  H    0.257936  -0.014736  -0.000159  -0.000016  -0.000024  -0.000002
    14  H   -0.014736   0.296904  -0.000012  -0.000024  -0.000101   0.000005
    15  H   -0.000159  -0.000012   0.274081   0.000168   0.000010  -0.000059
    16  H   -0.000016  -0.000024   0.000168   0.285343   0.000050  -0.000144
    17  H   -0.000024  -0.000101   0.000010   0.000050   0.287793  -0.000042
    18  H   -0.000002   0.000005  -0.000059  -0.000144  -0.000042   0.274414
    19  H   -0.000047  -0.000039   0.000044  -0.000016  -0.000289  -0.000364
              19
     1  Fe  -0.007563
     2  O   -0.001173
     3  H    0.000007
     4  O   -0.000584
     5  H    0.000447
     6  O    0.003437
     7  H    0.001698
     8  O    0.308144
     9  H   -0.016429
    10  O   -0.000888
    11  H    0.000142
    12  O    0.001540
    13  H   -0.000047
    14  H   -0.000039
    15  H    0.000044
    16  H   -0.000016
    17  H   -0.000289
    18  H   -0.000364
    19  H    0.292946
          Atomic-Atomic Spin Densities.
               1          2          3          4          5          6
     1  Fe   4.840530  -0.100308   0.000193  -0.105517  -0.000253  -0.120429
     2  O   -0.100308   0.316484  -0.006303  -0.023294   0.000271  -0.021665
     3  H    0.000193  -0.006303   0.005631   0.000343   0.000006   0.001207
     4  O   -0.105517  -0.023294   0.000343   0.290814  -0.004835  -0.023412
     5  H   -0.000253   0.000271   0.000006  -0.004835   0.004510   0.002847
     6  O   -0.120429  -0.021665   0.001207  -0.023412   0.002847   0.301303
     7  H    0.001192   0.000360  -0.000012  -0.000263  -0.000054  -0.007806
     8  O   -0.119738   0.034404  -0.000742  -0.028237   0.001714  -0.027875
     9  H    0.002723  -0.000789   0.000001   0.000579  -0.000070  -0.000499
    10  O   -0.107058  -0.018392   0.002603   0.030797  -0.000744  -0.032671
    11  H    0.001543  -0.000029  -0.000038  -0.000406   0.000003   0.000418
    12  O   -0.098944  -0.032735   0.002519  -0.018091   0.000397   0.035741
    13  H    0.000534   0.002011  -0.000048   0.002387  -0.000056  -0.000704
    14  H   -0.000592   0.000529  -0.000037   0.000436  -0.000014  -0.000809
    15  H    0.001684   0.001831  -0.000061  -0.004979  -0.000127   0.000495
    16  H   -0.000159  -0.004282   0.000169   0.001386  -0.000030   0.001559
    17  H    0.000256   0.000219  -0.000060  -0.000714   0.000003   0.001442
    18  H    0.002637   0.000358  -0.000012   0.005345  -0.000003  -0.008699
    19  H    0.001108  -0.000876   0.000006   0.000800   0.000102   0.005769
               7          8          9         10         11         12
     1  Fe   0.001192  -0.119738   0.002723  -0.107058   0.001543  -0.098944
     2  O    0.000360   0.034404  -0.000789  -0.018392  -0.000029  -0.032735
     3  H   -0.000012  -0.000742   0.000001   0.002603  -0.000038   0.002519
     4  O   -0.000263  -0.028237   0.000579   0.030797  -0.000406  -0.018091
     5  H   -0.000054   0.001714  -0.000070  -0.000744   0.000003   0.000397
     6  O   -0.007806  -0.027875  -0.000499  -0.032671   0.000418   0.035741
     7  H    0.005078   0.004918  -0.000115   0.001392  -0.000035  -0.000913
     8  O    0.004918   0.300117  -0.007635  -0.018587   0.000597  -0.028413
     9  H   -0.000115  -0.007635   0.006073   0.004172   0.000074   0.000763
    10  O    0.001392  -0.018587   0.004172   0.290438  -0.005451  -0.028579
    11  H   -0.000035   0.000597   0.000074  -0.005451   0.006240   0.002265
    12  O   -0.000913  -0.028413   0.000763  -0.028579   0.002265   0.321300
    13  H    0.000006   0.001456  -0.000029   0.000346  -0.000084  -0.006705
    14  H    0.000002   0.001607   0.000149   0.001934   0.000192  -0.005155
    15  H   -0.000011   0.000350   0.000006  -0.000403   0.000003  -0.000005
    16  H   -0.000074  -0.000711   0.000005   0.000420   0.000004   0.000353
    17  H    0.000111   0.002195  -0.000029  -0.004127  -0.000193   0.000243
    18  H    0.000390  -0.000144   0.000009   0.000641   0.000006  -0.000777
    19  H   -0.000019  -0.007804   0.000360  -0.000258  -0.000011   0.000468
              13         14         15         16         17         18
     1  Fe   0.000534  -0.000592   0.001684  -0.000159   0.000256   0.002637
     2  O    0.002011   0.000529   0.001831  -0.004282   0.000219   0.000358
     3  H   -0.000048  -0.000037  -0.000061   0.000169  -0.000060  -0.000012
     4  O    0.002387   0.000436  -0.004979   0.001386  -0.000714   0.005345
     5  H   -0.000056  -0.000014  -0.000127  -0.000030   0.000003  -0.000003
     6  O   -0.000704  -0.000809   0.000495   0.001559   0.001442  -0.008699
     7  H    0.000006   0.000002  -0.000011  -0.000074   0.000111   0.000390
     8  O    0.001456   0.001607   0.000350  -0.000711   0.002195  -0.000144
     9  H   -0.000029   0.000149   0.000006   0.000005  -0.000029   0.000009
    10  O    0.000346   0.001934  -0.000403   0.000420  -0.004127   0.000641
    11  H   -0.000084   0.000192   0.000003   0.000004  -0.000193   0.000006
    12  O   -0.006705  -0.005155  -0.000005   0.000353   0.000243  -0.000777
    13  H    0.006099   0.000155  -0.000042  -0.000019   0.000007  -0.000001
    14  H    0.000155   0.005644   0.000004   0.000008  -0.000043   0.000006
    15  H   -0.000042   0.000004   0.005512   0.000087   0.000003   0.000066
    16  H   -0.000019   0.000008   0.000087   0.004925  -0.000013   0.000068
    17  H    0.000007  -0.000043   0.000003  -0.000013   0.004259  -0.000062
    18  H   -0.000001   0.000006   0.000066   0.000068  -0.000062   0.006817
    19  H   -0.000013  -0.000077  -0.000027   0.000001  -0.000024  -0.000144
              19
     1  Fe   0.001108
     2  O   -0.000876
     3  H    0.000006
     4  O    0.000800
     5  H    0.000102
     6  O    0.005769
     7  H   -0.000019
     8  O   -0.007804
     9  H    0.000360
    10  O   -0.000258
    11  H   -0.000011
    12  O    0.000468
    13  H   -0.000013
    14  H   -0.000077
    15  H   -0.000027
    16  H    0.000001
    17  H   -0.000024
    18  H   -0.000144
    19  H    0.005087
 Mulliken charges and spin densities:
               1          2
     1  Fe   1.712233   4.199401
     2  O   -0.652452   0.147795
     3  H    0.445529   0.005366
     4  O   -0.655779   0.123139
     5  H    0.429136   0.003666
     6  O   -0.637275   0.106212
     7  H    0.416237   0.004148
     8  O   -0.645904   0.107473
     9  H    0.435749   0.005747
    10  O   -0.659253   0.116474
    11  H    0.435617   0.005096
    12  O   -0.649683   0.143734
    13  H    0.452330   0.005298
    14  H    0.413567   0.003941
    15  H    0.443892   0.004386
    16  H    0.426239   0.003698
    17  H    0.430636   0.003474
    18  H    0.440194   0.006503
    19  H    0.418987   0.004449
 Sum of Mulliken charges =   3.00000   5.00000
 Mulliken charges and spin densities with hydrogens summed into heavy atoms:
               1          2
     1  Fe   1.712233   4.199401
     2  O    0.219316   0.156859
     4  O    0.217249   0.131191
     6  O    0.219156   0.116863
     8  O    0.208833   0.117669
    10  O    0.207000   0.125044
    12  O    0.216214   0.152972
 APT charges:
               1
     1  Fe   2.093051
     2  O   -0.588514
     3  H    0.389684
     4  O   -0.555125
     5  H    0.349346
     6  O   -0.549621
     7  H    0.336152
     8  O   -0.551676
     9  H    0.350487
    10  O   -0.550580
    11  H    0.356368
    12  O   -0.577723
    13  H    0.391246
    14  H    0.351322
    15  H    0.362071
    16  H    0.360762
    17  H    0.348309
    18  H    0.350028
    19  H    0.334414
 Sum of APT charges =   3.00000
 APT charges with hydrogens summed into heavy atoms:
               1
     1  Fe   2.093051
     2  O    0.161932
     4  O    0.156292
     6  O    0.136558
     8  O    0.133225
    10  O    0.154096
    12  O    0.164846
 Electronic spatial extent (au):  <R**2>=            838.3789
 Charge=              3.0000 electrons
 Dipole moment (field-independent basis, Debye):
    X=              2.2071    Y=              3.5105    Z=             -0.9469  Tot=              4.2534
 Quadrupole moment (field-independent basis, Debye-Ang):
   XX=            -11.7744   YY=            -15.4627   ZZ=            -26.0355
   XY=             -4.1329   XZ=             -1.5819   YZ=             -0.9389
 Traceless Quadrupole moment (field-independent basis, Debye-Ang):
   XX=              5.9832   YY=              2.2948   ZZ=             -8.2780
   XY=             -4.1329   XZ=             -1.5819   YZ=             -0.9389
 Octapole moment (field-independent basis, Debye-Ang**2):
  XXX=             17.7730  YYY=             16.5174  ZZZ=              5.0945  XYY=              4.0486
  XXY=              8.8306  XXZ=              3.3271  XZZ=             -8.0320  YZZ=             -3.3835
  YYZ=            -14.3708  XYZ=             -3.1585
 Hexadecapole moment (field-independent basis, Debye-Ang**3):
 XXXX=           -168.0300 YYYY=           -175.9116 ZZZZ=           -213.2178 XXXY=            -21.1017
 XXXZ=              2.2059 YYYX=             -8.5279 YYYZ=             11.1834 ZZZX=            -16.0499
 ZZZY=            -15.4965 XXYY=            -47.5347 XXZZ=            -53.6309 YYZZ=            -51.2767
 XXYZ=             -0.4382 YYXZ=              3.2972 ZZXY=              2.0626
 N-N= 7.677883002195D+02 E-N=-5.574745510339D+03  KE= 1.719825477330D+03
  Exact polarizability:      55.852      -0.345      55.104      -0.651       0.090      51.605
 Approx polarizability:      89.079      -0.122      88.491      -1.417      -0.018      81.625
                          Isotropic Fermi Contact Couplings
        Atom                 a.u.       MegaHertz       Gauss      10(-4) cm-1
     1  Fe(57)             0.34597      10.03599       3.58109       3.34764
     2  O(17)              0.14474     -17.54782      -6.26150      -5.85332
     3  H(1)               0.00267       2.38312       0.85036       0.79492
     4  O(17)              0.14276     -17.30759      -6.17578      -5.77319
     5  H(1)               0.00204       1.82209       0.65017       0.60778
     6  O(17)              0.14767     -17.90360      -6.38845      -5.97200
     7  H(1)               0.00183       1.63880       0.58476       0.54664
     8  O(17)              0.14613     -17.71660      -6.32172      -5.90962
     9  H(1)               0.00259       2.31292       0.82531       0.77151
    10  O(17)              0.14096     -17.08935      -6.09791      -5.70039
    11  H(1)               0.00301       2.69359       0.96114       0.89848
    12  O(17)              0.14306     -17.34439      -6.18891      -5.78547
    13  H(1)               0.00272       2.43393       0.86849       0.81187
    14  H(1)               0.00230       2.05905       0.73472       0.68682
    15  H(1)               0.00272       2.43188       0.86776       0.81119
    16  H(1)               0.00212       1.89964       0.67784       0.63365
    17  H(1)               0.00212       1.89886       0.67756       0.63339
    18  H(1)               0.00273       2.44393       0.87206       0.81521
    19  H(1)               0.00178       1.59294       0.56840       0.53135
 --------------------------------------------------------
       Center         ----  Spin Dipole Couplings  ----
                      3XX-RR        3YY-RR        3ZZ-RR
 --------------------------------------------------------
     1   Atom        0.024977     -0.019693     -0.005284
     2   Atom       -0.350077      0.488630     -0.138553
     3   Atom        0.001984      0.015388     -0.017372
     4   Atom        0.023850     -0.216556      0.192706
     5   Atom        0.061942     -0.043821     -0.018121
     6   Atom        0.053827     -0.267508      0.213681
     7   Atom       -0.007055      0.015431     -0.008376
     8   Atom       -0.293064      0.279999      0.013065
     9   Atom       -0.038079      0.092875     -0.054796
    10   Atom        0.078453     -0.165075      0.086622
    11   Atom        0.073795     -0.035990     -0.037805
    12   Atom        0.243466     -0.231816     -0.011650
    13   Atom       -0.028650     -0.038845      0.067495
    14   Atom        0.024368     -0.023287     -0.001081
    15   Atom        0.017226      0.021819     -0.039044
    16   Atom       -0.032821      0.041694     -0.008874
    17   Atom       -0.032260      0.007554      0.024705
    18   Atom        0.090944     -0.059136     -0.031807
    19   Atom       -0.001042      0.054971     -0.053929
 --------------------------------------------------------
                        XY            XZ            YZ
 --------------------------------------------------------
     1   Atom       -0.024627      0.016903     -0.010780
     2   Atom        0.151531      0.023781      0.088900
     3   Atom        0.049773      0.057598      0.054246
     4   Atom       -0.171924      0.264314     -0.223383
     5   Atom        0.018868      0.073715      0.001426
     6   Atom        0.086022     -0.347804     -0.013222
     7   Atom        0.051100     -0.056909     -0.052093
     8   Atom        0.108695      0.069266      0.295423
     9   Atom       -0.040101      0.003850      0.025025
    10   Atom       -0.121285      0.386281     -0.062776
    11   Atom       -0.064793      0.021675     -0.012227
    12   Atom        0.258403     -0.294926     -0.044426
    13   Atom        0.012475     -0.040092     -0.062043
    14   Atom       -0.038851     -0.078688      0.030930
    15   Atom       -0.079497      0.032658     -0.017867
    16   Atom       -0.029936     -0.036777      0.074013
    17   Atom       -0.022575      0.035811     -0.079319
    18   Atom       -0.012783     -0.045826     -0.006013
    19   Atom        0.073403      0.000030      0.019773
 --------------------------------------------------------


 ---------------------------------------------------------------------------------
              Anisotropic Spin Dipole Couplings in Principal Axis System
 ---------------------------------------------------------------------------------

       Atom             a.u.   MegaHertz   Gauss  10(-4) cm-1        Axes

              Baa    -0.0311    -0.538    -0.192    -0.179  0.3597  0.9210  0.1493
     1 Fe(57) Bbb    -0.0128    -0.222    -0.079    -0.074 -0.4031  0.0091  0.9151
              Bcc     0.0439     0.760     0.271     0.253  0.8415 -0.3894  0.3746
 
              Baa    -0.3769    27.272     9.731     9.097  0.9850 -0.1688 -0.0353
     2 O(17)  Bbb    -0.1509    10.918     3.896     3.642  0.0114 -0.1403  0.9900
              Bcc     0.5278   -38.190   -13.627   -12.739  0.1721  0.9756  0.1363
 
              Baa    -0.0683   -36.446   -13.005   -12.157 -0.5145 -0.2296  0.8262
[...]
    14  H   -0.013920   0.292540  -0.000001  -0.000001  -0.000026  -0.000000
    15  H   -0.000027  -0.000001   0.292532  -0.000027  -0.000000  -0.000026
    16  H   -0.000001  -0.000001  -0.000027   0.292493  -0.000001  -0.000027
    17  H   -0.000001  -0.000026  -0.000000  -0.000001   0.292531  -0.000001
    18  H    0.000001  -0.000000  -0.000026  -0.000027  -0.000001   0.292544
    19  H   -0.000001  -0.000001  -0.000001   0.000001  -0.000027  -0.000027
              19
     1  Fe   0.001853
     2  O   -0.000396
     3  H   -0.000000
     4  O    0.000382
     5  H   -0.000027
     6  O    0.001689
     7  H   -0.000026
     8  O    0.291503
     9  H   -0.013932
    10  O    0.000381
    11  H   -0.000001
    12  O    0.000942
    13  H   -0.000001
    14  H   -0.000001
    15  H   -0.000001
    16  H    0.000001
    17  H   -0.000027
    18  H   -0.000027
    19  H    0.292541
          Atomic-Atomic Spin Densities.
               1          2          3          4          5          6
     1  Fe   4.707352  -0.086123   0.003010  -0.086134   0.003012  -0.086158
     2  O   -0.086123   0.246178  -0.005295  -0.009365   0.000187  -0.009378
     3  H    0.003010  -0.005295   0.001503   0.000391  -0.000001   0.000187
     4  O   -0.086134  -0.009365   0.000391   0.246150  -0.005297  -0.009349
     5  H    0.003012   0.000187  -0.000001  -0.005297   0.001504   0.000390
     6  O   -0.086158  -0.009378   0.000187  -0.009349   0.000390   0.246202
     7  H    0.003013   0.000391  -0.000001   0.000187  -0.000001  -0.005301
     8  O   -0.086125   0.010332  -0.000148  -0.009360   0.000731  -0.009377
     9  H    0.003010  -0.000148   0.000000   0.000390  -0.000021   0.000187
    10  O   -0.086135  -0.009362   0.000390   0.010327  -0.000148  -0.009347
    11  H    0.003012   0.000731  -0.000021  -0.000148   0.000000   0.000390
    12  O   -0.086173  -0.009370   0.000731  -0.009354   0.000391   0.010333
    13  H    0.003014   0.000391  -0.000021   0.000732  -0.000021  -0.000148
    14  H    0.003014   0.000391  -0.000021   0.000186  -0.000001  -0.000148
    15  H    0.003012   0.000732  -0.000021  -0.005299   0.001049   0.000390
    16  H    0.003010  -0.005295   0.001048   0.000390  -0.000001   0.000732
    17  H    0.003012   0.000187  -0.000001  -0.000148   0.000000   0.000390
    18  H    0.003014   0.000391  -0.000001   0.000730  -0.000021  -0.005300
    19  H    0.003010  -0.000148   0.000000   0.000390  -0.000021   0.000732
               7          8          9         10         11         12
     1  Fe   0.003013  -0.086125   0.003010  -0.086135   0.003012  -0.086173
     2  O    0.000391   0.010332  -0.000148  -0.009362   0.000731  -0.009370
     3  H   -0.000001  -0.000148   0.000000   0.000390  -0.000021   0.000731
     4  O    0.000187  -0.009360   0.000390   0.010327  -0.000148  -0.009354
     5  H   -0.000001   0.000731  -0.000021  -0.000148   0.000000   0.000391
     6  O   -0.005301  -0.009377   0.000187  -0.009347   0.000390   0.010333
     7  H    0.001506   0.000391  -0.000001   0.000731  -0.000021  -0.000148
     8  O    0.000391   0.246182  -0.005296  -0.009365   0.000187  -0.009373
     9  H   -0.000001  -0.005296   0.001503   0.000390  -0.000001   0.000731
    10  O    0.000731  -0.009365   0.000390   0.246154  -0.005297  -0.009353
    11  H   -0.000021   0.000187  -0.000001  -0.005297   0.001503   0.000390
    12  O   -0.000148  -0.009373   0.000731  -0.009353   0.000390   0.246257
    13  H    0.000000   0.000391  -0.000021   0.000187  -0.000001  -0.005301
    14  H    0.000000   0.000391  -0.000021   0.000731  -0.000021  -0.005300
    15  H   -0.000001   0.000187  -0.000001  -0.000148   0.000000   0.000391
    16  H   -0.000021  -0.000148   0.000000   0.000390  -0.000021   0.000187
    17  H   -0.000021   0.000732  -0.000021  -0.005299   0.001049   0.000391
    18  H    0.001050   0.000391  -0.000001   0.000186  -0.000001  -0.000148
    19  H   -0.000021  -0.005294   0.001048   0.000391  -0.000001   0.000187
              13         14         15         16         17         18
     1  Fe   0.003014   0.003014   0.003012   0.003010   0.003012   0.003014
     2  O    0.000391   0.000391   0.000732  -0.005295   0.000187   0.000391
     3  H   -0.000021  -0.000021  -0.000021   0.001048  -0.000001  -0.000001
     4  O    0.000732   0.000186  -0.005299   0.000390  -0.000148   0.000730
     5  H   -0.000021  -0.000001   0.001049  -0.000001   0.000000  -0.000021
     6  O   -0.000148  -0.000148   0.000390   0.000732   0.000390  -0.005300
     7  H    0.000000   0.000000  -0.000001  -0.000021  -0.000021   0.001050
     8  O    0.000391   0.000391   0.000187  -0.000148   0.000732   0.000391
     9  H   -0.000021  -0.000021  -0.000001   0.000000  -0.000021  -0.000001
    10  O    0.000187   0.000731  -0.000148   0.000390  -0.005299   0.000186
    11  H   -0.000001  -0.000021   0.000000  -0.000021   0.001049  -0.000001
    12  O   -0.005301  -0.005300   0.000391   0.000187   0.000391  -0.000148
    13  H    0.001504   0.001049  -0.000021  -0.000001  -0.000001   0.000000
    14  H    0.001049   0.001503  -0.000001  -0.000001  -0.000021   0.000000
    15  H   -0.000021  -0.000001   0.001508  -0.000021   0.000000  -0.000021
    16  H   -0.000001  -0.000001  -0.000021   0.001502  -0.000001  -0.000021
    17  H   -0.000001  -0.000021   0.000000  -0.000001   0.001508  -0.000001
    18  H    0.000000   0.000000  -0.000021  -0.000021  -0.000001   0.001504
    19  H   -0.000001  -0.000001  -0.000001   0.000000  -0.000021  -0.000021
              19
     1  Fe   0.003010
     2  O   -0.000148
     3  H    0.000000
     4  O    0.000390
     5  H   -0.000021
     6  O    0.000732
     7  H   -0.000021
     8  O   -0.005294
     9  H    0.001048
    10  O    0.000391
    11  H   -0.000001
    12  O    0.000187
    13  H   -0.000001
    14  H   -0.000001
    15  H   -0.000001
    16  H    0.000000
    17  H   -0.000021
    18  H   -0.000021
    19  H    0.001501
 Mulliken charges and spin densities:
               1          2
     1  Fe   1.433853   4.226649
     2  O   -0.589377   0.125425
     3  H    0.425157   0.001730
     4  O   -0.589311   0.125419
     5  H    0.425202   0.001730
     6  O   -0.589234   0.125426
     7  H    0.425119   0.001732
     8  O   -0.589373   0.125428
     9  H    0.425196   0.001729
    10  O   -0.589305   0.125422
    11  H    0.425203   0.001730
    12  O   -0.589191   0.125467
    13  H    0.425117   0.001730
    14  H    0.425136   0.001729
    15  H    0.425166   0.001733
    16  H    0.425192   0.001729
    17  H    0.425164   0.001732
    18  H    0.425137   0.001731
    19  H    0.425148   0.001728
 Sum of Mulliken charges =   3.00000   5.00000
 Mulliken charges and spin densities with hydrogens summed into heavy atoms:
               1          2
     1  Fe   1.433853   4.226649
     2  O    0.260972   0.128884
     4  O    0.261057   0.128882
     6  O    0.261022   0.128888
     8  O    0.260971   0.128886
    10  O    0.261063   0.128885
    12  O    0.261062   0.128926
 Electronic spatial extent (au):  <R**2>=           1096.6525
 Charge=              3.0000 electrons
 Dipole moment (field-independent basis, Debye):
    X=              0.0000    Y=             -0.0000    Z=              0.0001  Tot=              0.0001
 Quadrupole moment (field-independent basis, Debye-Ang):
   XX=             -6.1616   YY=             -6.1673   ZZ=             -6.1508
   XY=             -0.0073   XZ=             -0.0074   YZ=              0.0064
 Traceless Quadrupole moment (field-independent basis, Debye-Ang):
   XX=             -0.0017   YY=             -0.0074   ZZ=              0.0091
   XY=             -0.0073   XZ=             -0.0074   YZ=              0.0064
 Octapole moment (field-independent basis, Debye-Ang**2):
  XXX=             -0.0067  YYY=              0.0154  ZZZ=             -0.0009  XYY=              0.0026
  XXY=             -0.0050  XXZ=             -0.0012  XZZ=              0.0044  YZZ=             -0.0103
  YYZ=              0.0025  XYZ=              0.0003
 Hexadecapole moment (field-independent basis, Debye-Ang**3):
 XXXX=           -126.1978 YYYY=           -153.1632 ZZZZ=           -190.0963 XXXY=            -15.4285
 XXXZ=             55.2619 YYYX=              0.1703 YYYZ=             44.3710 ZZZX=            -25.5797
 ZZZY=            -16.0293 XXYY=            -73.0588 XXZZ=            -35.9839 YYZZ=             -8.9949
 XXYZ=            -28.2811 YYXZ=            -29.7504 ZZXY=             15.1899
 N-N= 6.681198265271D+02 E-N=-5.377651062973D+03  KE= 1.717385680676D+03
                          Isotropic Fermi Contact Couplings
        Atom                 a.u.       MegaHertz       Gauss      10(-4) cm-1
     1  Fe(57)             0.49646      14.40119       5.13870       4.80372
     2  O(17)              0.13657     -16.55823      -5.90839      -5.52323
     3  H(1)               0.00103       0.92524       0.33015       0.30863
     4  O(17)              0.13652     -16.55195      -5.90615      -5.52114
     5  H(1)               0.00103       0.92485       0.33001       0.30850
     6  O(17)              0.13656     -16.55685      -5.90790      -5.52277
     7  H(1)               0.00104       0.92563       0.33029       0.30876
     8  O(17)              0.13658     -16.55831      -5.90842      -5.52326
     9  H(1)               0.00103       0.92486       0.33001       0.30850
    10  O(17)              0.13652     -16.55194      -5.90614      -5.52113
    11  H(1)               0.00103       0.92474       0.32997       0.30846
    12  O(17)              0.13657     -16.55814      -5.90836      -5.52320
    13  H(1)               0.00103       0.92479       0.32999       0.30848
    14  H(1)               0.00103       0.92472       0.32996       0.30845
    15  H(1)               0.00104       0.92621       0.33050       0.30895
    16  H(1)               0.00103       0.92440       0.32985       0.30835
    17  H(1)               0.00104       0.92601       0.33042       0.30888
    18  H(1)               0.00104       0.92548       0.33023       0.30871
    19  H(1)               0.00103       0.92455       0.32990       0.30840
 --------------------------------------------------------
       Center         ----  Spin Dipole Couplings  ----
                      3XX-RR        3YY-RR        3ZZ-RR
 --------------------------------------------------------
     1   Atom        0.000046     -0.000107      0.000061
     2   Atom        0.060673      0.018953     -0.079627
     3   Atom        0.005399     -0.021673      0.016274
     4   Atom       -0.208298      0.139118      0.069179
     5   Atom       -0.023425      0.011086      0.012339
     6   Atom        0.147756     -0.157954      0.010199
     7   Atom       -0.026234      0.043086     -0.016852
     8   Atom        0.060558      0.018893     -0.079451
     9   Atom        0.068280     -0.035570     -0.032711
    10   Atom       -0.208420      0.139186      0.069234
    11   Atom       -0.023421      0.011080      0.012342
    12   Atom        0.147828     -0.158005      0.010177
    13   Atom       -0.026236      0.043095     -0.016859
    14   Atom       -0.017733     -0.029005      0.046738
    15   Atom       -0.006278      0.032087     -0.025809
    16   Atom        0.068282     -0.035570     -0.032712
    17   Atom       -0.006264      0.032059     -0.025795
    18   Atom       -0.017736     -0.029002      0.046737
    19   Atom        0.005374     -0.021654      0.016280
 --------------------------------------------------------
                        XY            XZ            YZ
 --------------------------------------------------------
     1   Atom        0.000003     -0.000082      0.000068
     2   Atom       -0.109180      0.141361      0.179411
     3   Atom       -0.022152      0.042599     -0.031562
     4   Atom        0.065823     -0.174460      0.027675
     5   Atom        0.017129      0.023170      0.049420
     6   Atom        0.043654      0.033083     -0.206980
     7   Atom        0.030422     -0.016810     -0.032586
     8   Atom       -0.109255      0.141404      0.179400
     9   Atom        0.011196      0.006746     -0.003753
    10   Atom        0.065794     -0.174378      0.027614
    11   Atom        0.017130      0.023171      0.049421
    12   Atom        0.043629      0.033176     -0.207015
    13   Atom        0.030427     -0.016809     -0.032584
    14   Atom        0.006597     -0.043316     -0.009738
    15   Atom       -0.043208     -0.012377      0.028220
    16   Atom        0.011208      0.006718     -0.003757
    17   Atom       -0.043208     -0.012395      0.028237
    18   Atom        0.006597     -0.043309     -0.009739
    19   Atom       -0.022157      0.042589     -0.031584
 --------------------------------------------------------


 ---------------------------------------------------------------------------------
              Anisotropic Spin Dipole Couplings in Principal Axis System
 ---------------------------------------------------------------------------------

       Atom             a.u.   MegaHertz   Gauss  10(-4) cm-1        Axes

              Baa    -0.0001    -0.002    -0.001    -0.001 -0.1872  0.9026 -0.3877
     1 Fe(57) Bbb    -0.0000    -0.000    -0.000    -0.000  0.7630  0.3822  0.5213
              Bcc     0.0001     0.003     0.001     0.001 -0.6187  0.1983  0.7602
 
              Baa    -0.3039    21.990     7.847     7.335 -0.4400 -0.5453  0.7135
     2 O(17)  Bbb     0.1480   -10.712    -3.822    -3.573  0.8903 -0.1606  0.4262
              Bcc     0.1559   -11.278    -4.024    -3.762 -0.1178  0.8227  0.5561
 
              Baa    -0.0397   -21.198    -7.564    -7.071 -0.1200  0.8231  0.5551
     3 H(1)   Bbb    -0.0301   -16.076    -5.736    -5.362  0.7930  0.4159 -0.4452
              Bcc     0.0699    37.274    13.300    12.433  0.5972 -0.3868  0.7026
 
              Baa    -0.3039    21.993     7.848     7.336  0.8898 -0.1589  0.4278
     4 O(17)  Bbb     0.1481   -10.716    -3.824    -3.574 -0.1285  0.8122  0.5690
              Bcc     0.1558   -11.277    -4.024    -3.762 -0.4379 -0.5613  0.7023
 
              Baa    -0.0397   -21.204    -7.566    -7.073 -0.4407 -0.5450  0.7133
     5 H(1)   Bbb    -0.0301   -16.076    -5.736    -5.362  0.8485 -0.5121  0.1330
              Bcc     0.0699    37.280    13.302    12.435  0.2928  0.6639  0.6882
 
              Baa    -0.3039    21.990     7.847     7.335 -0.1202  0.8231  0.5550
     6 O(17)  Bbb     0.1481   -10.713    -3.823    -3.574 -0.4309 -0.5469  0.7178
              Bcc     0.1558   -11.277    -4.024    -3.762  0.8944 -0.1529  0.4204
 
              Baa    -0.0397   -21.202    -7.565    -7.072  0.8898 -0.1584  0.4280
     7 H(1)   Bbb    -0.0301   -16.077    -5.737    -5.363 -0.3054  0.4902  0.8164
              Bcc     0.0699    37.278    13.302    12.435  0.3392  0.8571 -0.3878
 
              Baa    -0.3039    21.990     7.847     7.335 -0.4402 -0.5454  0.7133
     8 O(17)  Bbb     0.1480   -10.712    -3.822    -3.573  0.8904 -0.1630  0.4249
              Bcc     0.1559   -11.278    -4.024    -3.762 -0.1155  0.8222  0.5574
 
              Baa    -0.0397   -21.200    -7.565    -7.071 -0.1200  0.8231  0.5551
     9 H(1)   Bbb    -0.0301   -16.076    -5.736    -5.362  0.0067 -0.5585  0.8295
              Bcc     0.0699    37.275    13.301    12.434  0.9928  0.1032  0.0615
 
              Baa    -0.3039    21.993     7.848     7.336  0.8899 -0.1588  0.4276
    10 O(17)  Bbb     0.1481   -10.716    -3.824    -3.574 -0.1313  0.8086  0.5736
              Bcc     0.1559   -11.278    -4.024    -3.762 -0.4368 -0.5666  0.6987
 
              Baa    -0.0397   -21.204    -7.566    -7.073 -0.4405 -0.5452  0.7133
    11 H(1)   Bbb    -0.0301   -16.076    -5.736    -5.362  0.8487 -0.5120  0.1328
              Bcc     0.0699    37.280    13.302    12.435  0.2928  0.6638  0.6882
 
              Baa    -0.3040    21.996     7.849     7.337 -0.1202  0.8231  0.5551
    12 O(17)  Bbb     0.1480   -10.709    -3.821    -3.572 -0.4339 -0.5465  0.7163
              Bcc     0.1560   -11.287    -4.027    -3.765  0.8929 -0.1547  0.4229
 
              Baa    -0.0397   -21.204    -7.566    -7.073  0.8898 -0.1585  0.4280
    13 H(1)   Bbb    -0.0301   -16.078    -5.737    -5.363 -0.3054  0.4901  0.8164
              Bcc     0.0699    37.282    13.303    12.436  0.3392  0.8571 -0.3877
 
              Baa    -0.0397   -21.202    -7.565    -7.072  0.8898 -0.1587  0.4278
    14 H(1)   Bbb    -0.0301   -16.079    -5.737    -5.363  0.0906  0.9803  0.1752
              Bcc     0.0699    37.281    13.303    12.436 -0.4472 -0.1172  0.8867
 
              Baa    -0.0397   -21.200    -7.565    -7.072 -0.4400 -0.5451  0.7136
    15 H(1)   Bbb    -0.0301   -16.077    -5.737    -5.363  0.7411  0.2283  0.6313
              Bcc     0.0699    37.277    13.301    12.434 -0.5071  0.8067  0.3035
 
              Baa    -0.0397   -21.201    -7.565    -7.072 -0.1199  0.8232  0.5550
    16 H(1)   Bbb    -0.0301   -16.075    -5.736    -5.362  0.0070 -0.5583  0.8296
              Bcc     0.0699    37.276    13.301    12.434  0.9928  0.1034  0.0612
 
              Baa    -0.0397   -21.200    -7.565    -7.072 -0.4397 -0.5453  0.7137
    17 H(1)   Bbb    -0.0301   -16.077    -5.737    -5.363  0.7412  0.2284  0.6312
              Bcc     0.0699    37.278    13.302    12.435 -0.5072  0.8065  0.3038
 
              Baa    -0.0397   -21.200    -7.565    -7.072  0.8898 -0.1588  0.4278
    18 H(1)   Bbb    -0.0301   -16.078    -5.737    -5.363  0.0907  0.9803  0.1753
              Bcc     0.0699    37.277    13.302    12.434 -0.4472 -0.1172  0.8867
 
              Baa    -0.0397   -21.200    -7.565    -7.072 -0.1201  0.8229  0.5553
    19 H(1)   Bbb    -0.0301   -16.075    -5.736    -5.362  0.7932  0.4159 -0.4448
              Bcc     0.0699    37.276    13.301    12.434  0.5970 -0.3871  0.7027
 

 ---------------------------------------------------------------------------------

 No NMR shielding tensors so no spin-rotation constants.
 Leave Link  601 at Wed Mar  5 21:21:01 2025, MaxMem= 13421772800 cpu:              29.1 elap:               0.4
 (Enter /gpfs/fs1/soft/improv/software/custom-built/gaussian/g16/l9999.exe)

 Test job not archived.
 1\1\GINC-I072\SP\UOLYP\Gen\Fe1H12O6(3+,6)\HHARB\05-Mar-2025\0\\#p OLYP
  scrf=(cpcm,solvent=water) geom=allcheck guess=read chkbasis IOp(3/174
 =1000000) IOp(3/175=1764000) IOp(3/176=806000)\\Title\\3,6\Fe,-0.78480
 96173,0.7129465818,0.031752386\O,-1.3352661503,2.7028171956,-0.3040515
 561\H,-1.4571175546,3.1361428022,-1.1712479556\O,1.2313310776,1.269822
 2418,0.0263131768\H,1.9998313118,0.6795336063,0.1511606709\O,-0.869464
 6263,1.0383535196,2.0961951022\H,-1.6485150601,0.9201749372,2.67390719
 5\O,-0.2344602588,-1.2768584805,0.3680925626\H,-0.0491695803,-1.953807
 7266,-0.311635172\O,-2.8009537834,0.1560762636,0.0367655899\H,-3.56943
 38448,0.74642256,-0.0879389259\O,-0.7000843246,0.3874975386,-2.0326368
 705\H,0.0789927153,0.5056612219,-2.6103115839\H,-1.4318140374,0.087931
 5163,-2.6066232084\H,1.5875612271,2.1706677411,-0.1011055535\H,-1.5203
 514427,3.379535931,0.3759699637\H,-3.157192615,-0.7448120741,0.1638153
 327\H,-0.1376941771,1.3378726267,2.6701604171\H,-0.1129068289,-1.70989
 82326,1.2354638389\\Version=ES64L-G16RevC.02\State=6-A\HF=-1721.949853
 8\S2=8.754358\S2-1=0.\S2A=8.750006\RMSD=1.361e-09\Dipole=0.0000107,-0.
 0000215,0.0000259\Quadrupole=0.0017481,-0.0004773,-0.0012708,0.0057023
 ,0.0089062,0.0025338\PG=C01 [X(Fe1H12O6)]\\@


 EDUCATION DOESN'T COST 
           ... IT PAYS!

 -- POSTMARK, UNIV. OF MISSISSIPPI, DEC 78
 Job cpu time:       0 days  1 hours 32 minutes  3.0 seconds.
 Elapsed time:       0 days  0 hours  0 minutes 46.7 seconds.
 File lengths (MBytes):  RWF=    120 Int=      0 D2E=      0 Chk=    268 Scr=      1
 Normal termination of Gaussian 16 at Wed Mar  5 21:21:01 2025.
