 Entering Gaussian System, Link 0=g16
 Input=Mn_3_BLYP.com
 Output=Mn_3_BLYP.log
 Initial command:
 /gpfs/fs1/soft/improv/software/custom-built/gaussian/g16/l1.exe "/scratch/Gau-73652.inp" -scrdir="/scratch/"
 Default CPUs for threads: 0-127
 Default linda workers: i073.lcrc.anl.gov
 Default is to use 128 SMP processors on each worker.
 Entering Link 1 = /gpfs/fs1/soft/improv/software/custom-built/gaussian/g16/l1.exe PID=     73653.
  
 Copyright (c) 1988-2021, Gaussian, Inc.  All Rights Reserved.
  
 This is part of the Gaussian(R) 16 program.  It is based on
 the Gaussian(R) 09 system (copyright 2009, Gaussian, Inc.),
 the Gaussian(R) 03 system (copyright 2003, Gaussian, Inc.),
 the Gaussian(R) 98 system (copyright 1998, Gaussian, Inc.),
 the Gaussian(R) 94 system (copyright 1995, Gaussian, Inc.),
 the Gaussian 92(TM) system (copyright 1992, Gaussian, Inc.),
 the Gaussian 90(TM) system (copyright 1990, Gaussian, Inc.),
 the Gaussian 88(TM) system (copyright 1988, Gaussian, Inc.),
 the Gaussian 86(TM) system (copyright 1986, Carnegie Mellon
 University), and the Gaussian 82(TM) system (copyright 1983,
 Carnegie Mellon University). Gaussian is a federally registered
 trademark of Gaussian, Inc.
  
 This software contains proprietary and confidential information,
 including trade secrets, belonging to Gaussian, Inc.
  
 This software is provided under written license and may be
 used, copied, transmitted, or stored only in accord with that
 written license.
  
 The following legend is applicable only to US Government
 contracts under FAR:
  
                    RESTRICTED RIGHTS LEGEND
  
 Use, reproduction and disclosure by the US Government is
 subject to restrictions as set forth in subparagraphs (a)
 and (c) of the Commercial Computer Software - Restricted
 Rights clause in FAR 52.227-19.
  
 Gaussian, Inc.
 340 Quinnipiac St., Bldg. 40, Wallingford CT 06492
  
  
 ---------------------------------------------------------------
 Warning -- This program may not be used in any manner that
 competes with the business of Gaussian, Inc. or will provide
 assistance to any competitor of Gaussian, Inc.  The licensee
 of this program is prohibited from giving any competitor of
 Gaussian, Inc. access to this program.  By using this program,
 the user acknowledges that Gaussian, Inc. is engaged in the
 business of creating and licensing software in the field of
 computational chemistry and represents and warrants to the
 licensee that it is not a competitor of Gaussian, Inc. and that
 it will not use this program in any manner prohibited above.
 ---------------------------------------------------------------
  

 Cite this work as:
 Gaussian 16, Revision C.02,
 M. J. Frisch, G. W. Trucks, H. B. Schlegel, G. E. Scuseria, 
 M. A. Robb, J. R. Cheeseman, G. Scalmani, V. Barone, 
 G. A. Petersson, H. Nakatsuji, X. Li, M. Caricato, A. V. Marenich, 
 J. Bloino, B. G. Janesko, R. Gomperts, B. Mennucci, H. P. Hratchian, 
 J. V. Ortiz, A. F. Izmaylov, J. L. Sonnenberg, D. Williams-Young, 
 F. Ding, F. Lipparini, F. Egidi, J. Goings, B. Peng, A. Petrone, 
 T. Henderson, D. Ranasinghe, V. G. Zakrzewski, J. Gao, N. Rega, 
 G. Zheng, W. Liang, M. Hada, M. Ehara, K. Toyota, R. Fukuda, 
 J. Hasegawa, M. Ishida, T. Nakajima, Y. Honda, O. Kitao, H. Nakai, 
 T. Vreven, K. Throssell, J. A. Montgomery, Jr., J. E. Peralta, 
 F. Ogliaro, M. J. Bearpark, J. J. Heyd, E. N. Brothers, K. N. Kudin, 
 V. N. Staroverov, T. A. Keith, R. Kobayashi, J. Normand, 
 K. Raghavachari, A. P. Rendell, J. C. Burant, S. S. Iyengar, 
 J. Tomasi, M. Cossi, J. M. Millam, M. Klene, C. Adamo, R. Cammi, 
 J. W. Ochterski, R. L. Martin, K. Morokuma, O. Farkas, 
 J. B. Foresman, and D. J. Fox, Gaussian, Inc., Wallingford CT, 2019.
 
 ******************************************
 Gaussian 16:  ES64L-G16RevC.02  7-Dec-2021
                23-May-2024 
 ******************************************
 %chk=Mn_3_BLYP.chk
 SetSPE:  set environment variable "OMP_PROC_BIND" = "true"
 SetSPE:  set environment variable "OMP_PLACES" = "{0},{1},{2},{3},{4},{5},{6},{7},{8},{9},{10},{11},{12},{13},{14},{15},{16},{17},{18},{19},{20},{21},{22},{23},{24},{25},{26},{27},{28},{29},{30},{31},{32},{33},{34},{35},{36},{37},{38},{39},{40},{41},{42},{43},{44},{45},{46},{47},{48},{49},{50},{51},{52},{53},{54},{55},{56},{57},{58},{59},{60},{61},{62},{63},{64},{65},{66},{67},{68},{69},{70},{71},{72},{73},{74},{75},{76},{77},{78},{79},{80},{81},{82},{83},{84},{85},{86},{87},{88},{89},{90},{91},{92},{93},{94},{95},{96},{97},{98},{99},{100},{101},{102},{103},{104},{105},{106},{107},{108},{109},{110},{111},{112},{113},{114},{115},{116},{117},{118},{119},{120},{121},{122},{123},{124},{125},{126},{127}"
 SetLPE:    new flags="-opt 'Tsnet.Node.lindarsharg: ssh'  -nodelist 'i073.lcrc.anl.gov' -env GAUSS_MDEF=26843545600 -env GAUSS_EXEDIR="/gpfs/fs1/soft/improv/software/custom-built/gaussian/g16/bsd:/gpfs/fs1/soft/improv/software/custom-built/gaussian/g16" -env "OMP_PROC_BIND=true" -env "OMP_PLACES={0},{1},{2},{3},{4},{5},{6},{7},{8},{9},{10},{11},{12},{13},{14},{15},{16},{17},{18},{19},{20},{21},{22},{23},{24},{25},{26},{27},{28},{29},{30},{31},{32},{33},{34},{35},{36},{37},{38},{39},{40},{41},{42},{43},{44},{45},{46},{47},{48},{49},{50},{51},{52},{53},{54},{55},{56},{57},{58},{59},{60},{61},{62},{63},{64},{65},{66},{67},{68},{69},{70},{71},{72},{73},{74},{75},{76},{77},{78},{79},{80},{81},{82},{83},{84},{85},{86},{87},{88},{89},{90},{91},{92},{93},{94},{95},{96},{97},{98},{99},{100},{101},{102},{103},{104},{105},{106},{107},{108},{109},{110},{111},{112},{113},{114},{115},{116},{117},{118},{119},{120},{121},{122},{123},{124},{125},{126},{127}" -env GAUSS_ADEF="0,1,2,3,4,5,6,7,8,9,10,11,12,13,14,15,16,17,18,19,20,21,22,23,24,25,26,27,28,29,30,31,32,33,34,35,36,37,38,39,40,41,42,43,44,45,46,47,48,49,50,51,52,53,54,55,56,57,58,59,60,61,62,63,64,65,66,67,68,69,70,71,72,73,74,75,76,77,78,79,80,81,82,83,84,85,86,87,88,89,90,91,92,93,94,95,96,97,98,99,100,101,102,103,104,105,106,107,108,109,110,111,112,113,114,115,116,117,118,119,120,121,122,123,124,125,126,127""
 Will use up to    1 processors via Linda.
 ----------------------------------------------------------------------
 #p BLYP empiricaldispersion=gd3 6-31+G(2df,p) opt=(cartesian,calcall,m
 axcycles=500) freq scf=(maxcycles=500,xqc,maxconventional=50)
 ----------------------------------------------------------------------
 1/6=500,10=4,18=10,26=3,38=1/1,3;
 2/12=2,17=6,18=5,29=2,40=1/2;
 3/5=1,6=6,7=114,11=2,25=1,30=1,71=2,74=402,124=31,140=1/1,2,3;
 4//1;
 5/5=2,7=500,8=3,13=1,38=5,85=50/2,8;
 8/6=4,10=90,11=11/1;
 11/6=1,8=1,9=11,15=111,16=1/1,2,10;
 10/6=1/2;
 6/7=2,8=2,9=2,10=2,18=1,28=1/1;
 7/7=1,10=1,25=1/1,2,3,16;
 1/6=500,10=4,18=10,26=3/3(3);
 2/29=1/2;
 7/7=1,8=1,9=1,25=1,44=-1/16;
 99/12=1/99;
 2/29=1/2;
 3/5=1,6=6,7=114,11=2,25=1,30=1,71=2,74=402,124=31,140=1/1,2,3;
 4/5=5,16=3,69=1/1;
 5/5=2,7=500,8=3,13=1,38=5,85=50/2,8;
 8/6=4,10=90,11=11/1;
 11/6=1,8=1,9=11,15=111,16=1/1,2,10;
 10/6=1/2;
 7/7=1,10=1,25=1/1,2,3,16;
 1/6=500,10=4,18=10,26=3/3(-8);
 2/29=1/2;
 6/7=2,8=2,9=2,10=2,18=1,19=2,28=1/1;
 7/7=1,8=1,9=1,25=1,44=-1/16;
 99/12=1/99;
 Leave Link    1 at Thu May 23 14:16:00 2024, MaxMem=           0 cpu:               5.4 elap:               0.1
 (Enter /gpfs/fs1/soft/improv/software/custom-built/gaussian/g16/l101.exe)
 -----
 Title
 -----
 Symbolic Z-matrix:
 Charge =  3 Multiplicity = 5
 Mn                   -0.79304   0.81881  -0.09491 
 O                    -1.20497   2.57394  -0.35687 
 H                    -2.12106   2.64974  -0.63312 
 O                     0.99012   1.19063  -0.05794 
 H                     1.42696   0.5998    0.55971 
 O                    -0.81752   1.03069   1.71365 
 H                    -1.02108   0.1906    2.13133 
 O                    -0.38507  -0.93351   0.17118 
 H                    -1.15682  -1.47369  -0.01433 
 O                    -2.57341   0.45178  -0.12186 
 H                    -2.77756  -0.08744  -0.88929 
 O                    -0.76966   0.60461  -1.90111 
 H                     0.09872   0.83457  -2.23949 
 H                    -0.96534  -0.30999  -2.11742 
 H                     1.12208   2.09943   0.22124 
 H                    -1.07671   3.0584    0.46184 
 H                    -2.81407  -0.02398   0.6765 
 H                     0.0422    1.33615   2.01181 
 H                    -0.11532  -1.06446   1.08312 
 
 ITRead=  0  0  0  0  0  0  0  0  0  0  0  0  0  0  0  0  0  0  0
 MicOpt= -1 -1 -1 -1 -1 -1 -1 -1 -1 -1 -1 -1 -1 -1 -1 -1 -1 -1 -1
 NAtoms=     19 NQM=       19 NQMF=       0 NMMI=      0 NMMIF=      0
                NMic=       0 NMicF=      0.
                    Isotopes and Nuclear Properties:
 (Nuclear quadrupole moments (NQMom) in fm**2, nuclear magnetic moments (NMagM)
  in nuclear magnetons)

  Atom         1           2           3           4           5           6           7           8           9          10
 IAtWgt=          55          16           1          16           1          16           1          16           1          16
 AtmWgt=  54.9380463  15.9949146   1.0078250  15.9949146   1.0078250  15.9949146   1.0078250  15.9949146   1.0078250  15.9949146
 NucSpn=           5           0           1           0           1           0           1           0           1           0
 AtZEff=  -0.0000000  -0.0000000  -0.0000000  -0.0000000  -0.0000000  -0.0000000  -0.0000000  -0.0000000  -0.0000000  -0.0000000
 NQMom=   33.0000000   0.0000000   0.0000000   0.0000000   0.0000000   0.0000000   0.0000000   0.0000000   0.0000000   0.0000000
 NMagM=    3.4532000   0.0000000   2.7928460   0.0000000   2.7928460   0.0000000   2.7928460   0.0000000   2.7928460   0.0000000
 AtZNuc=  25.0000000   8.0000000   1.0000000   8.0000000   1.0000000   8.0000000   1.0000000   8.0000000   1.0000000   8.0000000

  Atom        11          12          13          14          15          16          17          18          19
 IAtWgt=           1          16           1           1           1           1           1           1           1
 AtmWgt=   1.0078250  15.9949146   1.0078250   1.0078250   1.0078250   1.0078250   1.0078250   1.0078250   1.0078250
 NucSpn=           1           0           1           1           1           1           1           1           1
 AtZEff=  -0.0000000  -0.0000000  -0.0000000  -0.0000000  -0.0000000  -0.0000000  -0.0000000  -0.0000000  -0.0000000
 NQMom=    0.0000000   0.0000000   0.0000000   0.0000000   0.0000000   0.0000000   0.0000000   0.0000000   0.0000000
 NMagM=    2.7928460   0.0000000   2.7928460   2.7928460   2.7928460   2.7928460   2.7928460   2.7928460   2.7928460
 AtZNuc=   1.0000000   8.0000000   1.0000000   1.0000000   1.0000000   1.0000000   1.0000000   1.0000000   1.0000000
 Leave Link  101 at Thu May 23 14:16:00 2024, MaxMem= 26843545600 cpu:               0.3 elap:               0.0
 (Enter /gpfs/fs1/soft/improv/software/custom-built/gaussian/g16/l103.exe)

 GradGradGradGradGradGradGradGradGradGradGradGradGradGradGradGradGradGrad
 Berny optimization.
 Initialization pass.
 No Z-matrix variables, so optimization will use Cartesian coordinates.
 Trust Radius=3.00D-01 FncErr=1.00D-07 GrdErr=1.00D-06 EigMax=2.50D+02 EigMin=1.00D-04
 Number of steps in this run=    114 maximum allowed number of steps=    114.
 GradGradGradGradGradGradGradGradGradGradGradGradGradGradGradGradGradGrad

 Leave Link  103 at Thu May 23 14:16:01 2024, MaxMem= 26843545600 cpu:               0.4 elap:               0.1
 (Enter /gpfs/fs1/soft/improv/software/custom-built/gaussian/g16/l202.exe)
 ---------------------------------------------------------------------------------------------------
                            Z-MATRIX (ANGSTROMS AND DEGREES)
   CD    Cent   Atom    N1       Length/X        N2       Alpha/Y        N3        Beta/Z          J
 ---------------------------------------------------------------------------------------------------
      1      1  Mn       0  -0.793037          0.818805         -0.094905
      2      2  O        0  -1.204971          2.573941         -0.356874
      3      3  H        0  -2.121063          2.649743         -0.633122
      4      4  O        0   0.990122          1.190635         -0.057941
      5      5  H        0   1.426962          0.599798          0.559707
      6      6  O        0  -0.817519          1.030691          1.713650
      7      7  H        0  -1.021079          0.190602          2.131326
      8      8  O        0  -0.385068         -0.933506          0.171177
      9      9  H        0  -1.156817         -1.473692         -0.014327
     10     10  O        0  -2.573405          0.451778         -0.121857
     11     11  H        0  -2.777557         -0.087440         -0.889285
     12     12  O        0  -0.769659          0.604612         -1.901109
     13     13  H        0   0.098725          0.834573         -2.239490
     14     14  H        0  -0.965336         -0.309994         -2.117418
     15     15  H        0   1.122081          2.099426          0.221242
     16     16  H        0  -1.076711          3.058396          0.461841
     17     17  H        0  -2.814074         -0.023981          0.676500
     18     18  H        0   0.042204          1.336153          2.011809
     19     19  H        0  -0.115315         -1.064459          1.083123
 ---------------------------------------------------------------------------------------------------
                         Z-Matrix orientation:                         
 ---------------------------------------------------------------------
 Center     Atomic      Atomic             Coordinates (Angstroms)
 Number     Number       Type             X           Y           Z
 ---------------------------------------------------------------------
      1         25           0       -0.793037    0.818805   -0.094905
      2          8           0       -1.204971    2.573941   -0.356874
      3          1           0       -2.121063    2.649743   -0.633122
      4          8           0        0.990122    1.190635   -0.057941
      5          1           0        1.426962    0.599798    0.559707
      6          8           0       -0.817519    1.030691    1.713650
      7          1           0       -1.021079    0.190602    2.131326
      8          8           0       -0.385068   -0.933506    0.171177
      9          1           0       -1.156817   -1.473692   -0.014327
     10          8           0       -2.573405    0.451778   -0.121857
     11          1           0       -2.777557   -0.087440   -0.889285
     12          8           0       -0.769659    0.604612   -1.901109
     13          1           0        0.098725    0.834573   -2.239490
     14          1           0       -0.965336   -0.309994   -2.117418
     15          1           0        1.122081    2.099426    0.221242
     16          1           0       -1.076711    3.058396    0.461841
     17          1           0       -2.814074   -0.023981    0.676500
     18          1           0        0.042204    1.336153    2.011809
     19          1           0       -0.115315   -1.064459    1.083123
 ---------------------------------------------------------------------
                    Distance matrix (angstroms):
                    1          2          3          4          5
     1  Mn   0.000000
     2  O    1.821762   0.000000
     3  H    2.325008   0.959835   0.000000
     4  O    1.821889   2.611767   3.484150   0.000000
     5  H    2.324839   3.415322   4.267739   0.959899   0.000000
     6  O    1.821090   2.611285   3.134947   2.536076   2.560263
     7  H    2.324381   3.450400   3.859988   3.136540   2.937743
     8  O    1.818745   3.640503   4.062050   2.540791   2.405292
     9  H    2.322579   4.062387   4.279649   3.421971   3.362259
    10  O    1.818006   2.536025   2.301533   3.639880   4.060711
    11  H    2.321775   3.136788   2.826442   4.064482   4.499984
    12  O    1.819010   2.540161   2.759827   2.614866   3.298603
    13  H    2.322657   2.875634   3.286750   2.383386   3.107223
    14  H    2.322591   3.387332   3.506977   3.212032   3.703756
    15  H    2.325429   2.444290   3.398642   0.959822   1.567289
    16  H    2.325125   0.959918   1.567358   2.833814   3.510364
    17  H    2.321626   3.225876   3.056824   4.060370   4.288255
    18  H    2.324547   2.949275   3.660724   2.281137   2.137375
    19  H    2.322443   4.061883   4.556733   2.758526   2.328591
                    6          7          8          9         10
     6  O    0.000000
     7  H    0.960021   0.000000
     8  O    2.534622   2.347406   0.000000
     9  H    3.061530   2.718847   0.960108   0.000000
    10  O    2.605257   2.748593   2.606473   2.392848   0.000000
    11  H    3.444886   3.505227   2.750347   2.305222   0.959885
    12  O    3.640099   4.061422   2.609231   2.833582   2.538227
    13  H    4.062670   4.557707   3.028445   3.443229   3.430916
    14  H    4.061572   4.278496   2.441955   2.411193   2.673658
    15  H    2.670492   3.447487   3.387136   4.244531   4.060675
    16  H    2.397039   3.318813   4.061790   4.557738   3.061904
    17  H    2.484803   2.318921   2.642472   2.307685   0.960023
    18  H    0.959858   1.567527   2.953276   3.665802   3.489421
    19  H    2.297892   1.869309   0.959980   1.567353   3.129403
                   11         12         13         14         15
    11  H    0.000000
    12  O    2.352526   0.000000
    13  H    3.308498   0.959935   0.000000
    14  H    2.200452   0.959991   1.567533   0.000000
    15  H    4.606825   3.212091   2.949969   3.953725   0.000000
    16  H    3.822919   3.420362   3.691102   4.243941   2.410850
    17  H    1.567497   3.349453   4.210050   3.362383   4.495491
    18  H    4.288824   4.062660   4.281159   4.558009   2.225950
    19  H    3.454344   3.481323   3.833001   3.396353   3.504877
                   16         17         18         19
    16  H    0.000000
    17  H    3.544793   0.000000
    18  H    2.573032   3.433851   0.000000
    19  H    4.278809   2.920828   2.578800   0.000000
 Stoichiometry    H12MnO6(3+,5)
 Framework group  C1[X(H12MnO6)]
 Deg. of freedom    51
 Full point group                 C1      NOp   1
 Largest Abelian subgroup         C1      NOp   1
 Largest concise Abelian subgroup C1      NOp   1
                         Standard orientation:                         
 ---------------------------------------------------------------------
 Center     Atomic      Atomic             Coordinates (Angstroms)
 Number     Number       Type             X           Y           Z
 ---------------------------------------------------------------------
      1         25           0       -0.020445   -0.030121    0.009875
      2          8           0       -0.320808   -1.687588   -0.683958
      3          1           0       -1.137042   -1.679899   -1.188920
      4          8           0        1.254655   -0.678279    1.138277
      5          1           0        1.943361   -0.019749    1.254154
      6          8           0        1.298207    0.294245   -1.203513
      7          1           0        1.382040    1.240910   -1.339297
      8          8           0        0.280486    1.626554    0.697409
      9          1           0       -0.431358    2.215648    0.436540
     10          8           0       -1.285904    0.615907   -1.124325
     11          1           0       -2.034842    0.938661   -0.618064
     12          8           0       -1.338362   -0.351446    1.221751
     13          1           0       -0.971739   -0.815561    1.977832
     14          1           0       -1.717277    0.481861    1.510897
     15          1           0        1.635399   -1.477016    0.766376
     16          1           0        0.408515   -1.930884   -1.258706
     17          1           0       -0.915243    1.335169   -1.640964
     18          1           0        2.129003   -0.056571   -0.874826
     19          1           0        1.114126    1.965325    0.362984
 ---------------------------------------------------------------------
 Rotational constants (GHZ):           2.0396948           1.9739407           1.9252755
 Leave Link  202 at Thu May 23 14:16:01 2024, MaxMem= 26843545600 cpu:               0.5 elap:               0.1
 (Enter /gpfs/fs1/soft/improv/software/custom-built/gaussian/g16/l301.exe)
 Standard basis: 6-31+G(2df,p) (6D, 7F)
 Ernie: Thresh=  0.10000D-02 Tol=  0.10000D-05 Strict=F.
 There are   347 symmetry adapted cartesian basis functions of A   symmetry.
 There are   317 symmetry adapted basis functions of A   symmetry.
   317 basis functions,   514 primitive gaussians,   347 cartesian basis functions
    43 alpha electrons       39 beta electrons
       nuclear repulsion energy       751.0997080055 Hartrees.
 IExCor=  402 DFT=T Ex=B Corr=LYP ExCW=0 ScaHFX=  0.000000
 ScaDFX=  1.000000  1.000000  1.000000  1.000000 ScalE2=  1.000000  1.000000
 IRadAn=      5 IRanWt=     -1 IRanGd=            0 ICorTp=0 IEmpDi=131
 NAtoms=   19 NActive=   19 NUniq=   19 SFac= 1.00D+00 NAtFMM=   60 NAOKFM=F Big=F
 Integral buffers will be    131072 words long.
 Raffenetti 2 integral format.
 Two-electron integral symmetry is turned on.
 R6Disp:  Grimme-D3 Dispersion energy=       -0.0268465315 Hartrees.
 Nuclear repulsion after empirical dispersion term =      751.0728614740 Hartrees.
 Leave Link  301 at Thu May 23 14:16:01 2024, MaxMem= 26843545600 cpu:               0.4 elap:               0.0
 (Enter /gpfs/fs1/soft/improv/software/custom-built/gaussian/g16/l302.exe)
 NPDir=0 NMtPBC=     1 NCelOv=     1 NCel=       1 NClECP=     1 NCelD=      1
         NCelK=      1 NCelE2=     1 NClLst=     1 CellRange=     0.0.
 One-electron integrals computed using PRISM.
 One-electron integral symmetry used in STVInt
 NBasis=   317 RedAO= T EigKep=  1.52D-05  NBF=   317
 NBsUse=   317 1.00D-06 EigRej= -1.00D+00 NBFU=   317
 Precomputing XC quadrature grid using
 IXCGrd= 4 IRadAn=           5 IRanWt=          -1 IRanGd=           0 AccXCQ= 0.00D+00.
 Generated NRdTot=       0 NPtTot=           0 NUsed=           0 NTot=          32
 NSgBfM=   347   346   347   347   347 MxSgAt=    19 MxSgA2=    19.
 Leave Link  302 at Thu May 23 14:16:02 2024, MaxMem= 26843545600 cpu:              21.5 elap:               0.3
 (Enter /gpfs/fs1/soft/improv/software/custom-built/gaussian/g16/l303.exe)
 DipDrv:  MaxL=1.
 Leave Link  303 at Thu May 23 14:16:02 2024, MaxMem= 26843545600 cpu:               1.0 elap:               0.0
 (Enter /gpfs/fs1/soft/improv/software/custom-built/gaussian/g16/l401.exe)
 ExpMin= 1.19D-02 ExpMax= 5.63D+04 ExpMxC= 8.46D+03 IAcc=3 IRadAn=         5 AccDes= 0.00D+00
 Harris functional with IExCor=  402 and IRadAn=       5 diagonalized for initial guess.
 HarFok:  IExCor=  402 AccDes= 0.00D+00 IRadAn=         5 IDoV= 1 UseB2=F ITyADJ=14
 ICtDFT=  3500011 ScaDFX=  1.000000  1.000000  1.000000  1.000000
 FoFCou: FMM=F IPFlag=           0 FMFlag=      100000 FMFlg1=           0
         NFxFlg=           0 DoJE=T BraDBF=F KetDBF=T FulRan=T
         wScrn=  0.000000 ICntrl=       500 IOpCl=  0 I1Cent=   200000004 NGrid=           0
         NMat0=    1 NMatS0=      1 NMatT0=    0 NMatD0=    1 NMtDS0=    0 NMtDT0=    0
 Petite list used in FoFCou.
 Harris En= -1608.85970754534    
 JPrj=0 DoOrth=F DoCkMO=F.
 Initial guess <Sx>= 0.0000 <Sy>= 0.0000 <Sz>= 2.0000 <S**2>= 6.0000 S= 2.0000
 Leave Link  401 at Thu May 23 14:16:03 2024, MaxMem= 26843545600 cpu:              37.8 elap:               0.5
 (Enter /gpfs/fs1/soft/improv/software/custom-built/gaussian/g16/l502.exe)
 Integral symmetry usage will be decided dynamically.
 UHF open shell SCF:
 Using DIIS extrapolation, IDIIS=  1040.
 NGot= 26843545600 LenX= 26843256607 LenY= 26843135757
 Requested convergence on RMS density matrix=1.00D-08 within  50 cycles.
 Requested convergence on MAX density matrix=1.00D-06.
 Requested convergence on             energy=1.00D-06.
 No special actions if energy rises.
 Fock matrices will be formed incrementally for  20 cycles.

 Cycle   1  Pass 1  IDiag  1:
 FoFJK:  IHMeth= 1 ICntrl=     500 DoSepK=F KAlg= 0 I1Cent=           0 FoldK=F
 IRaf= 990000000 NMat=       1 IRICut=       1 DoRegI=T DoRafI=F ISym2E= 0 IDoP0=0 IntGTp=1.
 FoFCou: FMM=F IPFlag=           0 FMFlag=      100000 FMFlg1=           0
         NFxFlg=           0 DoJE=T BraDBF=F KetDBF=F FulRan=T
         wScrn=  0.000000 ICntrl=       500 IOpCl=  0 I1Cent=           0 NGrid=           0
         NMat0=    1 NMatS0=      1 NMatT0=    0 NMatD0=    1 NMtDS0=    0 NMtDT0=    0
 Symmetry not used in FoFCou.
 E= -1607.20767037270    
 DIIS: error= 4.34D-02 at cycle   1 NSaved=   1.
 NSaved= 1 IEnMin= 1 EnMin= -1607.20767037270     IErMin= 1 ErrMin= 4.34D-02
 ErrMax= 4.34D-02  0.00D+00 EMaxC= 1.00D-01 BMatC= 5.64D+00 BMatP= 5.64D+00
 IDIUse=3 WtCom= 5.66D-01 WtEn= 4.34D-01
 Coeff-Com:  0.100D+01
 Coeff-En:   0.100D+01
 Coeff:      0.100D+01
 Gap=    -0.720 Goal=   None    Shift=    0.000
 Gap=    -0.613 Goal=   None    Shift=    0.000
 GapD=   -0.720 DampG=0.250 DampE=0.250 DampFc=0.1250 IDamp=-1.
 Damping current iteration by 1.25D-01
 RMSDP=3.76D-02 MaxDP=3.47D+00              OVMax= 9.62D-01

 Cycle   2  Pass 1  IDiag  1:
 RMSU=  4.67D-03    CP:  1.02D+00
 E= -1607.62420627757     Delta-E=       -0.416535904868 Rises=F Damp=T
 DIIS: error= 1.69D-02 at cycle   2 NSaved=   2.
 NSaved= 2 IEnMin= 2 EnMin= -1607.62420627757     IErMin= 2 ErrMin= 1.69D-02
 ErrMax= 1.69D-02  0.00D+00 EMaxC= 1.00D-01 BMatC= 9.72D-01 BMatP= 5.64D+00
 IDIUse=3 WtCom= 8.31D-01 WtEn= 1.69D-01
 Coeff-Com: -0.525D+00 0.153D+01
 Coeff-En:   0.000D+00 0.100D+01
 Coeff:     -0.436D+00 0.144D+01
 Gap=    -0.004 Goal=   None    Shift=    0.000
 Gap=     0.020 Goal=   None    Shift=    0.000
 RMSDP=1.25D-02 MaxDP=2.60D+00 DE=-4.17D-01 OVMax= 9.66D-01

 Cycle   3  Pass 1  IDiag  1:
 RMSU=  1.01D-02    CP:  7.15D-01  1.06D+00
 E= -1608.12469756545     Delta-E=       -0.500491287874 Rises=F Damp=F
 DIIS: error= 1.52D-02 at cycle   3 NSaved=   3.
 NSaved= 3 IEnMin= 3 EnMin= -1608.12469756545     IErMin= 3 ErrMin= 1.52D-02
 ErrMax= 1.52D-02  0.00D+00 EMaxC= 1.00D-01 BMatC= 5.60D-01 BMatP= 9.72D-01
 IDIUse=3 WtCom= 8.48D-01 WtEn= 1.52D-01
 Coeff-Com: -0.253D+00 0.815D+00 0.438D+00
 Coeff-En:   0.227D-01 0.000D+00 0.977D+00
 Coeff:     -0.211D+00 0.692D+00 0.520D+00
 Gap=    -0.010 Goal=   None    Shift=    0.000
 Gap=     0.171 Goal=   None    Shift=    0.000
 RMSDP=4.42D-03 MaxDP=3.99D-01 DE=-5.00D-01 OVMax= 9.88D-01

 Cycle   4  Pass 1  IDiag  1:
 RMSU=  4.17D-03    CP:  7.34D-01  1.20D+00  8.77D-01
 E= -1608.18848848290     Delta-E=       -0.063790917450 Rises=F Damp=F
 DIIS: error= 1.02D-02 at cycle   4 NSaved=   4.
 NSaved= 4 IEnMin= 4 EnMin= -1608.18848848290     IErMin= 4 ErrMin= 1.02D-02
 ErrMax= 1.02D-02  0.00D+00 EMaxC= 1.00D-01 BMatC= 2.00D-01 BMatP= 5.60D-01
 IDIUse=3 WtCom= 8.98D-01 WtEn= 1.02D-01
 Coeff-Com: -0.135D+00 0.397D+00 0.361D+00 0.378D+00
 Coeff-En:   0.000D+00 0.000D+00 0.296D+00 0.704D+00
 Coeff:     -0.122D+00 0.356D+00 0.354D+00 0.411D+00
 Gap=    -0.005 Goal=   None    Shift=    0.000
 Gap=     0.179 Goal=   None    Shift=    0.000
 RMSDP=3.99D-03 MaxDP=3.85D-01 DE=-6.38D-02 OVMax= 9.85D-01

 Cycle   5  Pass 1  IDiag  1:
 RMSU=  1.33D-03    CP:  7.34D-01  1.23D+00  9.64D-01  1.25D-01
 E= -1608.21013466719     Delta-E=       -0.021646184292 Rises=F Damp=F
 DIIS: error= 6.13D-03 at cycle   5 NSaved=   5.
 NSaved= 5 IEnMin= 5 EnMin= -1608.21013466719     IErMin= 5 ErrMin= 6.13D-03
 ErrMax= 6.13D-03  0.00D+00 EMaxC= 1.00D-01 BMatC= 6.55D-02 BMatP= 2.00D-01
 IDIUse=3 WtCom= 9.39D-01 WtEn= 6.13D-02
 Coeff-Com: -0.605D-01 0.122D+00 0.203D+00 0.370D+00 0.365D+00
 Coeff-En:   0.000D+00 0.000D+00 0.000D+00 0.312D+00 0.688D+00
 Coeff:     -0.568D-01 0.114D+00 0.191D+00 0.366D+00 0.385D+00
 Gap=    -0.004 Goal=   None    Shift=    0.000
 Gap=     0.168 Goal=   None    Shift=    0.000
 RMSDP=3.92D-03 MaxDP=3.90D-01 DE=-2.16D-02 OVMax= 9.79D-01

 Cycle   6  Pass 1  IDiag  1:
 RMSU=  7.42D-04    CP:  7.34D-01  1.24D+00  8.80D-01  9.62D-01 -3.46D-02
 E= -1608.21651509527     Delta-E=       -0.006380428083 Rises=F Damp=F
 DIIS: error= 5.91D-03 at cycle   6 NSaved=   6.
 NSaved= 6 IEnMin= 6 EnMin= -1608.21651509527     IErMin= 6 ErrMin= 5.91D-03
 ErrMax= 5.91D-03  0.00D+00 EMaxC= 1.00D-01 BMatC= 3.82D-02 BMatP= 6.55D-02
 IDIUse=3 WtCom= 9.41D-01 WtEn= 5.91D-02
 Coeff-Com: -0.411D-01 0.668D-01 0.696D-01 0.117D+00 0.396D+00 0.392D+00
 Coeff-En:   0.000D+00 0.000D+00 0.000D+00 0.000D+00 0.407D+00 0.593D+00
 Coeff:     -0.387D-01 0.629D-01 0.655D-01 0.110D+00 0.397D+00 0.403D+00
 Gap=     0.001 Goal=   None    Shift=    0.000
 Gap=     0.161 Goal=   None    Shift=    0.000
 RMSDP=1.29D-03 MaxDP=1.03D-01 DE=-6.38D-03 OVMax= 3.21D-01

 Cycle   7  Pass 1  IDiag  1:
 RMSU=  1.09D-03    CP:  7.34D-01  1.23D+00  8.93D-01  8.28D-01  2.54D-01
                    CP:  1.10D+00
 E= -1608.22010617676     Delta-E=       -0.003591081483 Rises=F Damp=F
 DIIS: error= 4.10D-03 at cycle   7 NSaved=   7.
 NSaved= 7 IEnMin= 7 EnMin= -1608.22010617676     IErMin= 7 ErrMin= 4.10D-03
 ErrMax= 4.10D-03  0.00D+00 EMaxC= 1.00D-01 BMatC= 1.71D-02 BMatP= 3.82D-02
 IDIUse=3 WtCom= 9.59D-01 WtEn= 4.10D-02
 EnCoef did     9 forward-backward iterations
 Coeff-Com: -0.368D-01 0.640D-01 0.502D-01 0.608D-01 0.359D+00 0.319D+00
 Coeff-Com:  0.184D+00
 Coeff-En:   0.000D+00 0.000D+00 0.000D+00 0.000D+00 0.336D+00 0.308D+00
 Coeff-En:   0.356D+00
 Coeff:     -0.353D-01 0.614D-01 0.481D-01 0.583D-01 0.358D+00 0.319D+00
 Coeff:      0.191D+00
 Gap=    -0.001 Goal=   None    Shift=    0.000
 Gap=     0.161 Goal=   None    Shift=    0.000
 RMSDP=3.33D-03 MaxDP=2.36D-01 DE=-3.59D-03 OVMax= 8.32D-01

 Cycle   8  Pass 1  IDiag  1:
 RMSU=  4.39D-04    CP:  7.34D-01  1.24D+00  9.02D-01  7.32D-01  1.08D-01
                    CP:  2.30D-01 -1.94D+00
 E= -1608.21518402505     Delta-E=        0.004922151709 Rises=F Damp=F
 DIIS: error= 9.16D-03 at cycle   8 NSaved=   8.
 NSaved= 8 IEnMin= 7 EnMin= -1608.22010617676     IErMin= 7 ErrMin= 4.10D-03
 ErrMax= 9.16D-03  0.00D+00 EMaxC= 1.00D-01 BMatC= 3.79D-02 BMatP= 1.71D-02
 IDIUse=3 WtCom= 9.59D-01 WtEn= 4.10D-02
 EnCoef did     4 forward-backward iterations
 Coeff-Com: -0.202D-01 0.449D-01-0.500D-02-0.831D-01 0.217D+00 0.355D-01
 Coeff-Com:  0.558D+00 0.253D+00
 Coeff-En:   0.000D+00 0.000D+00 0.000D+00 0.000D+00 0.224D+00 0.000D+00
 Coeff-En:   0.535D+00 0.241D+00
 Coeff:     -0.193D-01 0.431D-01-0.479D-02-0.797D-01 0.217D+00 0.340D-01
 Coeff:      0.557D+00 0.252D+00
 Gap=    -0.000 Goal=   None    Shift=    0.000
 Gap=     0.161 Goal=   None    Shift=    0.000
 RMSDP=3.91D-03 MaxDP=3.06D-01 DE= 4.92D-03 OVMax= 9.83D-01

 Cycle   9  Pass 1  IDiag  1:
 RMSU=  1.87D-04    CP:  7.34D-01  1.24D+00  9.52D-01  2.30D-01  9.80D-01
                    CP:  5.29D-01  8.19D-01  7.96D-02
 E= -1608.21844668621     Delta-E=       -0.003262661160 Rises=F Damp=F
 DIIS: error= 4.32D-03 at cycle   9 NSaved=   9.
 NSaved= 9 IEnMin= 7 EnMin= -1608.22010617676     IErMin= 7 ErrMin= 4.10D-03
 ErrMax= 4.32D-03  0.00D+00 EMaxC= 1.00D-01 BMatC= 2.27D-02 BMatP= 1.71D-02
 IDIUse=3 WtCom= 9.59D-01 WtEn= 4.10D-02
 EnCoef did     3 forward-backward iterations
 Coeff-Com: -0.112D-01 0.232D-01-0.148D-01-0.624D-01 0.964D-01 0.933D-01
 Coeff-Com:  0.383D+00 0.253D+00 0.239D+00
 Coeff-En:   0.000D+00 0.000D+00 0.000D+00 0.000D+00 0.000D+00 0.000D+00
 Coeff-En:   0.354D+00 0.283D+00 0.363D+00
 Coeff:     -0.107D-01 0.223D-01-0.142D-01-0.599D-01 0.924D-01 0.895D-01
 Coeff:      0.382D+00 0.254D+00 0.244D+00
 Gap=    -0.000 Goal=   None    Shift=    0.000
 Gap=     0.161 Goal=   None    Shift=    0.000
 RMSDP=3.29D-03 MaxDP=3.15D-01 DE=-3.26D-03 OVMax= 8.29D-01

 Cycle  10  Pass 1  IDiag  1:
 RMSU=  9.84D-05    CP:  7.34D-01  1.24D+00  8.81D-01  9.30D-01  1.01D-01
                    CP:  1.09D+00  4.21D-01  2.00D-01 -2.54D-01
 E= -1608.22091958484     Delta-E=       -0.002472898635 Rises=F Damp=F
 DIIS: error= 4.00D-03 at cycle  10 NSaved=  10.
 NSaved=10 IEnMin=10 EnMin= -1608.22091958484     IErMin=10 ErrMin= 4.00D-03
 ErrMax= 4.00D-03  0.00D+00 EMaxC= 1.00D-01 BMatC= 1.26D-02 BMatP= 1.71D-02
 IDIUse=3 WtCom= 9.60D-01 WtEn= 4.00D-02
 EnCoef did   100 forward-backward iterations
 Coeff-Com:  0.754D-03 0.351D-02-0.939D-02-0.522D-01 0.315D-01-0.963D-01
 Coeff-Com:  0.200D+00 0.244D+00 0.280D+00 0.398D+00
 Coeff-En:   0.000D+00 0.000D+00 0.000D+00 0.000D+00 0.596D-02 0.000D+00
 Coeff-En:   0.000D+00 0.190D+00 0.386D+00 0.419D+00
 Coeff:      0.724D-03 0.337D-02-0.902D-02-0.501D-01 0.305D-01-0.924D-01
 Coeff:      0.192D+00 0.242D+00 0.285D+00 0.399D+00
 Gap=    -0.000 Goal=   None    Shift=    0.000
 Gap=     0.161 Goal=   None    Shift=    0.000
 RMSDP=3.81D-03 MaxDP=3.79D-01 DE=-2.47D-03 OVMax= 9.58D-01

 Cycle  11  Pass 1  IDiag  1:
 RMSU=  4.38D-05    CP:  7.34D-01  1.25D+00  9.63D-01  1.20D-01  1.04D+00
                    CP:  1.93D-01 -1.43D-01  4.32D-01  1.08D+00 -4.55D-01
 E= -1608.21632776488     Delta-E=        0.004591819958 Rises=F Damp=F
 DIIS: error= 6.14D-03 at cycle  11 NSaved=  11.
 NSaved=11 IEnMin=10 EnMin= -1608.22091958484     IErMin=10 ErrMin= 4.00D-03
 ErrMax= 6.14D-03  0.00D+00 EMaxC= 1.00D-01 BMatC= 3.06D-02 BMatP= 1.26D-02
 IDIUse=3 WtCom= 9.60D-01 WtEn= 4.00D-02
 EnCoef did     1 forward-backward iterations
 Coeff-Com:  0.356D-02 0.991D-04-0.110D-01-0.513D-01-0.737D-02-0.103D+00
 Coeff-Com:  0.167D+00 0.193D+00 0.185D+00 0.484D+00 0.140D+00
 Coeff-En:   0.000D+00 0.000D+00 0.000D+00 0.000D+00 0.000D+00 0.000D+00
 Coeff-En:   0.000D+00 0.281D-01 0.000D+00 0.605D+00 0.367D+00
 Coeff:      0.342D-02 0.951D-04-0.106D-01-0.492D-01-0.707D-02-0.986D-01
 Coeff:      0.160D+00 0.187D+00 0.178D+00 0.489D+00 0.149D+00
 Gap=    -0.000 Goal=   None    Shift=    0.000
 Gap=     0.161 Goal=   None    Shift=    0.000
 RMSDP=3.27D-03 MaxDP=3.07D-01 DE= 4.59D-03 OVMax= 8.19D-01

 Cycle  12  Pass 1  IDiag  1:
 RMSU=  3.29D-05    CP:  7.34D-01  1.24D+00  9.00D-01  7.46D-01  4.02D-01
                    CP:  1.15D+00  1.21D+00 -5.59D-03  6.11D-02  7.60D-01
                    CP:  1.34D-01
 E= -1608.22143203352     Delta-E=       -0.005104268639 Rises=F Damp=F
 DIIS: error= 3.97D-03 at cycle  12 NSaved=  12.
 NSaved=12 IEnMin=12 EnMin= -1608.22143203352     IErMin=12 ErrMin= 3.97D-03
 ErrMax= 3.97D-03  0.00D+00 EMaxC= 1.00D-01 BMatC= 8.65D-03 BMatP= 1.26D-02
 IDIUse=3 WtCom= 9.60D-01 WtEn= 3.97D-02
 Rare condition: small coef for last iteration:  0.000D+00
 Coeff-Com:  0.464D-02-0.244D-02-0.495D-02-0.297D-01-0.221D-01-0.822D-01
 Coeff-Com:  0.247D-01 0.192D+00 0.854D-01 0.383D+00 0.198D+00 0.253D+00
 Coeff-En:   0.000D+00 0.000D+00 0.000D+00 0.000D+00 0.175D-01 0.000D+00
 Coeff-En:   0.000D+00 0.178D+00 0.882D-02 0.236D+00 0.171D+00 0.389D+00
 Coeff:      0.464D-02-0.244D-02-0.495D-02-0.297D-01-0.221D-01-0.822D-01
 Coeff:      0.247D-01 0.192D+00 0.854D-01 0.383D+00 0.198D+00 0.253D+00
 Gap=    -0.000 Goal=   None    Shift=    0.000
 Gap=     0.161 Goal=   None    Shift=    0.000
 RMSDP=3.29D-03 MaxDP=2.57D-01 DE=-5.10D-03 OVMax= 8.26D-01

 Cycle  13  Pass 1  IDiag  1:
 RMSU=  3.92D-05    CP:  7.34D-01  1.25D+00  8.92D-01  8.19D-01  4.68D-02
                    CP:  4.43D-01 -1.70D+00  9.57D-01 -2.59D-01  6.44D-01
                    CP:  1.13D-01 -4.39D-01
 E= -1608.21724313767     Delta-E=        0.004188895850 Rises=F Damp=F
 DIIS: error= 7.97D-03 at cycle  13 NSaved=  13.
 NSaved=13 IEnMin=12 EnMin= -1608.22143203352     IErMin=12 ErrMin= 3.97D-03
 ErrMax= 7.97D-03  0.00D+00 EMaxC= 1.00D-01 BMatC= 2.63D-02 BMatP= 8.65D-03
 IDIUse=3 WtCom= 9.60D-01 WtEn= 3.97D-02
 EnCoef did     2 forward-backward iterations
 Coeff-Com:  0.558D-02-0.367D-02 0.649D-03-0.112D-01-0.324D-01-0.532D-01
 Coeff-Com:  0.345D-01-0.143D-01 0.188D-01 0.172D+00 0.241D+00 0.382D+00
 Coeff-Com:  0.260D+00
 Coeff-En:   0.000D+00 0.000D+00 0.000D+00 0.000D+00 0.000D+00 0.000D+00
 Coeff-En:   0.000D+00 0.000D+00 0.000D+00 0.000D+00 0.206D+00 0.519D+00
 Coeff-En:   0.275D+00
 Coeff:      0.536D-02-0.353D-02 0.623D-03-0.108D-01-0.311D-01-0.511D-01
 Coeff:      0.331D-01-0.138D-01 0.180D-01 0.165D+00 0.240D+00 0.388D+00
 Coeff:      0.260D+00
 Gap=     0.000 Goal=   None    Shift=    0.000
 Gap=     0.161 Goal=   None    Shift=    0.000
 RMSDP=2.65D-03 MaxDP=2.60D-01 DE= 4.19D-03 OVMax= 6.65D-01

 Cycle  14  Pass 1  IDiag  1:
 RMSU=  6.43D-06    CP:  7.34D-01  1.25D+00  9.49D-01  2.51D-01  7.38D-01
                    CP: -9.48D-02 -1.68D+00  9.53D-01  7.51D-01 -3.18D-01
                    CP:  7.93D-01 -7.48D-01  6.59D-01
 E= -1608.21458486997     Delta-E=        0.002658267697 Rises=F Damp=F
 DIIS: error= 6.14D-03 at cycle  14 NSaved=  14.
 NSaved=14 IEnMin=12 EnMin= -1608.22143203352     IErMin=12 ErrMin= 3.97D-03
 ErrMax= 6.14D-03  0.00D+00 EMaxC= 1.00D-01 BMatC= 3.81D-02 BMatP= 8.65D-03
 IDIUse=3 WtCom= 9.60D-01 WtEn= 3.97D-02
 Rare condition: small coef for last iteration:  0.000D+00
 Coeff-Com:  0.583D-02-0.390D-02 0.925D-03-0.104D-01-0.356D-01-0.550D-01
 Coeff-Com:  0.196D-01-0.106D-01 0.284D-03 0.170D+00 0.270D+00 0.403D+00
 Coeff-Com:  0.265D+00-0.194D-01
 Coeff-En:   0.000D+00 0.000D+00 0.000D+00 0.000D+00 0.000D+00 0.000D+00
 Coeff-En:   0.000D+00 0.000D+00 0.326D-02 0.364D-02 0.967D-01 0.549D+00
 Coeff-En:   0.224D+00 0.123D+00
 Coeff:      0.583D-02-0.390D-02 0.925D-03-0.104D-01-0.356D-01-0.550D-01
 Coeff:      0.196D-01-0.106D-01 0.284D-03 0.170D+00 0.270D+00 0.403D+00
 Coeff:      0.265D+00-0.194D-01
 Gap=     0.000 Goal=   None    Shift=    0.000
 Gap=     0.161 Goal=   None    Shift=    0.000
 RMSDP=5.07D-04 MaxDP=3.91D-02 DE= 2.66D-03 OVMax= 1.28D-01

 Cycle  15  Pass 1  IDiag  1:
 RMSU=  2.44D-06    CP:  7.34D-01  1.25D+00  9.56D-01  1.82D-01  8.54D-01
                    CP: -6.78D-02 -1.34D+00  8.42D-01  8.97D-01 -3.98D-01
                    CP:  8.73D-01 -5.62D-01  5.04D-01  1.07D+00
 E= -1608.21461363318     Delta-E=       -0.000028763201 Rises=F Damp=F
 DIIS: error= 6.64D-03 at cycle  15 NSaved=  15.
 NSaved=15 IEnMin=12 EnMin= -1608.22143203352     IErMin=12 ErrMin= 3.97D-03
 ErrMax= 6.64D-03  0.00D+00 EMaxC= 1.00D-01 BMatC= 3.75D-02 BMatP= 8.65D-03
 IDIUse=3 WtCom= 9.60D-01 WtEn= 3.97D-02
 EnCoef did   100 forward-backward iterations
 Coeff-Com:  0.623D-02-0.451D-02 0.150D-02-0.101D-01-0.285D-01-0.524D-01
 Coeff-Com:  0.171D-01-0.653D-02 0.903D-02 0.521D-01 0.441D-01 0.514D+00
 Coeff-Com:  0.356D+00-0.645D+00 0.748D+00
 Coeff-En:   0.000D+00 0.000D+00 0.000D+00 0.000D+00 0.000D+00 0.000D+00
 Coeff-En:   0.000D+00 0.000D+00 0.879D-03 0.239D-02 0.165D-02 0.596D+00
 Coeff-En:   0.188D+00 0.211D-02 0.209D+00
 Coeff:      0.598D-02-0.433D-02 0.144D-02-0.965D-02-0.274D-01-0.503D-01
 Coeff:      0.165D-01-0.627D-02 0.871D-02 0.501D-01 0.424D-01 0.517D+00
 Coeff:      0.349D+00-0.620D+00 0.726D+00
 Gap=     0.000 Goal=   None    Shift=    0.000
 Gap=     0.161 Goal=   None    Shift=    0.000
 RMSDP=1.36D-04 MaxDP=1.07D-02 DE=-2.88D-05 OVMax= 3.42D-02

 Cycle  16  Pass 1  IDiag  1:
 RMSU=  2.90D-06    CP:  7.34D-01  1.25D+00  9.54D-01  1.98D-01  8.25D-01
                    CP: -7.72D-02 -1.44D+00  8.82D-01  8.52D-01 -3.58D-01
                    CP:  8.49D-01 -5.35D-01  5.80D-01  1.05D+00  1.11D+00
 E= -1608.21446414895     Delta-E=        0.000149484229 Rises=F Damp=F
 DIIS: error= 6.61D-03 at cycle  16 NSaved=  16.
 NSaved=16 IEnMin=12 EnMin= -1608.22143203352     IErMin=12 ErrMin= 3.97D-03
 ErrMax= 6.61D-03  0.00D+00 EMaxC= 1.00D-01 BMatC= 3.85D-02 BMatP= 8.65D-03
 IDIUse=3 WtCom= 9.60D-01 WtEn= 3.97D-02
 EnCoef did   100 forward-backward iterations
 Rare condition: small coef for last iteration: -0.151D-14
 Coeff-Com:  0.609D-02-0.357D-02 0.154D-02-0.678D-02-0.523D-01-0.442D-01
 Coeff-Com:  0.271D-01-0.857D-01-0.424D-01 0.288D+00 0.625D+00 0.259D+00
 Coeff-Com:  0.185D+00 0.159D+01 0.670D+00-0.241D+01
 Coeff-En:   0.000D+00 0.000D+00 0.000D+00 0.000D+00 0.000D+00 0.000D+00
 Coeff-En:   0.000D+00 0.000D+00 0.293D-02 0.328D-02 0.931D-01 0.550D+00
 Coeff-En:   0.225D+00 0.108D+00 0.000D+00 0.177D-01
 Coeff:      0.609D-02-0.357D-02 0.154D-02-0.678D-02-0.523D-01-0.442D-01
 Coeff:      0.271D-01-0.857D-01-0.424D-01 0.288D+00 0.625D+00 0.259D+00
 Coeff:      0.185D+00 0.159D+01 0.670D+00-0.241D+01
 Gap=    -0.000 Goal=   None    Shift=    0.000
 Gap=     0.161 Goal=   None    Shift=    0.000
 RMSDP=3.99D-03 MaxDP=3.49D-01 DE= 1.49D-04 OVMax= 1.00D+00

 Cycle  17  Pass 1  IDiag  1:
 RMSU=  5.71D-06    CP:  7.34D-01  1.24D+00  8.85D-01  8.93D-01  1.74D-01
                    CP:  1.15D+00  6.80D-01  1.57D-01 -2.06D-01  9.16D-01
                    CP: -3.83D-02  4.25D-01  2.04D-01  1.23D-01 -1.46D+00
                    CP: -6.14D-01
 E= -1608.22131188428     Delta-E=       -0.006847735336 Rises=F Damp=F
 DIIS: error= 3.57D-03 at cycle  17 NSaved=  17.
 NSaved=17 IEnMin=12 EnMin= -1608.22143203352     IErMin=17 ErrMin= 3.57D-03
 ErrMax= 3.57D-03  0.00D+00 EMaxC= 1.00D-01 BMatC= 1.03D-02 BMatP= 8.65D-03
 IDIUse=3 WtCom= 9.60D-01 WtEn= 3.97D-02
 EnCoef did   100 forward-backward iterations
 Rare condition: small coef for last iteration:  0.000D+00
 Coeff-Com:  0.695D-02-0.465D-02 0.412D-02-0.368D-03-0.513D-01-0.415D-01
 Coeff-Com:  0.466D-03-0.157D+00-0.148D-01 0.473D-01 0.908D+00-0.893D-01
 Coeff-Com:  0.107D+00 0.301D+01 0.704D+00-0.401D+01 0.578D+00
 Coeff-En:   0.000D+00 0.000D+00 0.000D+00 0.000D+00 0.000D+00 0.000D+00
 Coeff-En:   0.000D+00 0.000D+00 0.000D+00 0.120D-03 0.493D-01 0.861D-01
 Coeff-En:   0.000D+00 0.000D+00 0.360D-02 0.284D+00 0.577D+00
 Coeff:      0.695D-02-0.465D-02 0.412D-02-0.368D-03-0.513D-01-0.415D-01
 Coeff:      0.466D-03-0.157D+00-0.148D-01 0.473D-01 0.908D+00-0.893D-01
 Coeff:      0.107D+00 0.301D+01 0.704D+00-0.401D+01 0.578D+00
 Gap=     0.000 Goal=   None    Shift=    0.000
 Gap=     0.161 Goal=   None    Shift=    0.000
 RMSDP=4.56D-04 MaxDP=3.46D-02 DE=-6.85D-03 OVMax= 1.15D-01

 Cycle  18  Pass 1  IDiag  1:
 RMSU=  3.62D-06    CP:  7.34D-01  1.24D+00  8.92D-01  8.28D-01  2.80D-01
                    CP:  1.16D+00  9.80D-01  4.48D-02 -6.32D-02  7.88D-01
                    CP:  2.31D-02  2.51D-01  8.70D-02  1.05D-01 -3.00D+00
                    CP: -1.68D+00  1.31D+00
 E= -1608.22122877300     Delta-E=        0.000083111286 Rises=F Damp=F
 DIIS: error= 3.23D-03 at cycle  18 NSaved=  18.
 NSaved=18 IEnMin=12 EnMin= -1608.22143203352     IErMin=18 ErrMin= 3.23D-03
 ErrMax= 3.23D-03  0.00D+00 EMaxC= 1.00D-01 BMatC= 1.06D-02 BMatP= 8.65D-03
 IDIUse=3 WtCom= 9.60D-01 WtEn= 3.97D-02
 EnCoef did   100 forward-backward iterations
 Coeff-Com:  0.403D-02-0.276D-02-0.508D-03-0.214D-01-0.406D-01-0.154D+00
 Coeff-Com:  0.132D+00-0.988D-02 0.152D+00 0.392D+00 0.231D-01 0.199D+01
 Coeff-Com: -0.142D-01 0.483D+00 0.226D-03-0.364D+00 0.221D+01-0.378D+01
 Coeff-En:   0.000D+00 0.000D+00 0.000D+00 0.000D+00 0.000D+00 0.000D+00
 Coeff-En:   0.000D+00 0.000D+00 0.000D+00 0.000D+00 0.946D-03 0.415D+00
 Coeff-En:   0.154D+00 0.329D-03 0.236D+00 0.940D-03 0.150D-03 0.193D+00
 Coeff:      0.387D-02-0.265D-02-0.488D-03-0.206D-01-0.390D-01-0.148D+00
 Coeff:      0.127D+00-0.949D-02 0.146D+00 0.377D+00 0.222D-01 0.193D+01
 Coeff:     -0.752D-02 0.463D+00 0.959D-02-0.349D+00 0.212D+01-0.362D+01
 Gap=    -0.001 Goal=   None    Shift=    0.000
 Gap=     0.162 Goal=   None    Shift=    0.000
 RMSDP=3.99D-03 MaxDP=2.79D-01 DE= 8.31D-05 OVMax= 9.97D-01

 Cycle  19  Pass 1  IDiag  1:
 RMSU=  2.52D-05    CP:  7.34D-01  1.25D+00  9.43D-01  3.07D-01  6.56D-01
                    CP: -7.49D-02 -1.86D+00  1.10D+00  5.49D-01 -5.79D-04
                    CP:  6.98D-01  4.10D-01  8.70D-01  1.38D+00  3.00D+00
                    CP:  3.00D+00 -7.81D-01 -1.49D+00
 E= -1608.21310087912     Delta-E=        0.008127893874 Rises=F Damp=F
 DIIS: error= 7.73D-03 at cycle  19 NSaved=  19.
 NSaved=19 IEnMin=12 EnMin= -1608.22143203352     IErMin=18 ErrMin= 3.23D-03
 ErrMax= 7.73D-03  0.00D+00 EMaxC= 1.00D-01 BMatC= 4.83D-02 BMatP= 8.65D-03
 IDIUse=3 WtCom= 9.60D-01 WtEn= 3.97D-02
 EnCoef did    73 forward-backward iterations
 Rare condition: small coef for last iteration:  0.277D-14
 Coeff-Com:  0.367D-02-0.228D-02-0.940D-03-0.226D-01-0.528D-01-0.175D+00
 Coeff-Com:  0.122D+00 0.170D-01 0.156D+00 0.506D+00 0.623D-01 0.265D+01
 Coeff-Com: -0.231D+00-0.253D+00 0.205D+01-0.274D+01 0.316D+01-0.528D+01
 Coeff-Com:  0.103D+01
 Coeff-En:   0.000D+00 0.000D+00 0.000D+00 0.000D+00 0.000D+00 0.000D+00
 Coeff-En:   0.000D+00 0.000D+00 0.000D+00 0.121D-01 0.285D-01 0.576D-01
 Coeff-En:   0.000D+00 0.000D+00 0.221D-02 0.160D-01 0.000D+00 0.603D+00
 Coeff-En:   0.281D+00
 Coeff:      0.367D-02-0.228D-02-0.940D-03-0.226D-01-0.528D-01-0.175D+00
 Coeff:      0.122D+00 0.170D-01 0.156D+00 0.506D+00 0.623D-01 0.265D+01
 Coeff:     -0.231D+00-0.253D+00 0.205D+01-0.274D+01 0.316D+01-0.528D+01
 Coeff:      0.103D+01
 Gap=     0.002 Goal=   None    Shift=    0.000
 Gap=     0.160 Goal=   None    Shift=    0.000
 RMSDP=1.19D-04 MaxDP=4.95D-03 DE= 8.13D-03 OVMax= 1.80D-02

 Cycle  20  Pass 1  IDiag  1:
 RMSU=  1.16D-05    CP:  7.34D-01  1.25D+00  9.45D-01  2.94D-01  6.81D-01
                    CP: -6.13D-02 -1.83D+00  1.19D+00  4.86D-01  2.81D-01
                    CP:  7.10D-01  2.12D+00  8.61D-01  1.87D+00  3.00D+00
                    CP:  3.00D+00 -2.18D+00 -3.00D+00  2.87D+00
 E= -1608.21064147189     Delta-E=        0.002459407234 Rises=F Damp=F
 DIIS: error= 8.63D-03 at cycle  20 NSaved=  20.
 NSaved=20 IEnMin=12 EnMin= -1608.22143203352     IErMin=18 ErrMin= 3.23D-03
 ErrMax= 8.63D-03  0.00D+00 EMaxC= 1.00D-01 BMatC= 6.37D-02 BMatP= 8.65D-03
 IDIUse=3 WtCom= 9.60D-01 WtEn= 3.97D-02
 EnCoef did   100 forward-backward iterations
 Rare condition: small coef for last iteration:  0.000D+00
 Coeff-Com:  0.967D-03 0.839D-03 0.132D-02-0.114D-01-0.400D-01-0.116D+00
 Coeff-Com:  0.805D-01 0.111D-01 0.846D-01 0.360D+00-0.103D+00 0.209D+01
 Coeff-Com: -0.548D-01-0.611D+00 0.859D+00-0.364D+00 0.201D+01-0.372D+01
 Coeff-Com:  0.201D+01-0.149D+01
 Coeff-En:   0.000D+00 0.000D+00 0.000D+00 0.000D+00 0.000D+00 0.000D+00
 Coeff-En:   0.000D+00 0.883D-03 0.000D+00 0.285D-01 0.280D-01 0.661D-01
 Coeff-En:   0.000D+00 0.000D+00 0.183D-02 0.224D-01 0.000D+00 0.603D+00
 Coeff-En:   0.000D+00 0.249D+00
 Coeff:      0.967D-03 0.839D-03 0.132D-02-0.114D-01-0.400D-01-0.116D+00
 Coeff:      0.805D-01 0.111D-01 0.846D-01 0.360D+00-0.103D+00 0.209D+01
 Coeff:     -0.548D-01-0.611D+00 0.859D+00-0.364D+00 0.201D+01-0.372D+01
 Coeff:      0.201D+01-0.149D+01
 Gap=    -0.000 Goal=   None    Shift=    0.000
 Gap=     0.163 Goal=   None    Shift=    0.000
 RMSDP=3.78D-03 MaxDP=3.30D-01 DE= 2.46D-03 OVMax= 9.44D-01

 Cycle  21  Pass 1  IDiag  1:
 Restarting incremental Fock formation.
 E= -1608.22091590597     Delta-E=       -0.010274434086 Rises=F Damp=F
 DIIS: error= 3.76D-03 at cycle  21 NSaved=  20.
 NSaved=20 IEnMin=11 EnMin= -1608.22143203352     IErMin=17 ErrMin= 3.23D-03
 ErrMax= 3.76D-03  0.00D+00 EMaxC= 1.00D-01 BMatC= 1.19D-02 BMatP= 8.65D-03
 IDIUse=3 WtCom= 9.60D-01 WtEn= 3.97D-02
 EnCoef did   100 forward-backward iterations
 Coeff-Com:  0.199D-02 0.227D-02-0.680D-02-0.396D-01-0.112D+00 0.293D-01
 Coeff-Com:  0.110D-01 0.972D-01 0.177D+00-0.423D-01 0.211D+01-0.238D+00
 Coeff-Com: -0.464D+00 0.156D+01-0.160D+01 0.177D+01-0.369D+01 0.287D+01
 Coeff-Com: -0.192D+01 0.481D+00
 Coeff-En:   0.000D+00 0.000D+00 0.000D+00 0.000D+00 0.000D+00 0.000D+00
 Coeff-En:   0.000D+00 0.447D-02 0.321D-02 0.347D-03 0.477D+00 0.854D-01
 Coeff-En:   0.751D-03 0.251D+00 0.372D-03 0.210D-03 0.145D-03 0.143D-03
 Coeff-En:   0.453D-02 0.172D+00
 Coeff:      0.191D-02 0.218D-02-0.653D-02-0.380D-01-0.108D+00 0.281D-01
 Coeff:      0.105D-01 0.935D-01 0.170D+00-0.406D-01 0.205D+01-0.225D+00
 Coeff:     -0.445D+00 0.151D+01-0.154D+01 0.170D+01-0.355D+01 0.276D+01
 Coeff:     -0.185D+01 0.468D+00
 Gap=     0.001 Goal=   None    Shift=    0.000
 Gap=     0.162 Goal=   None    Shift=    0.000
 RMSDP=7.70D-04 MaxDP=6.21D-02 DE=-1.03D-02 OVMax= 1.94D-01

 Cycle  22  Pass 1  IDiag  1:
 RMSU=  7.70D-04    CP:  9.99D-01
 E= -1608.22118568173     Delta-E=       -0.000269775756 Rises=F Damp=F
 DIIS: error= 3.57D-03 at cycle  22 NSaved=  20.
 NSaved=20 IEnMin=10 EnMin= -1608.22143203352     IErMin=16 ErrMin= 3.23D-03
 ErrMax= 3.57D-03  0.00D+00 EMaxC= 1.00D-01 BMatC= 1.11D-02 BMatP= 8.65D-03
 IDIUse=3 WtCom= 9.60D-01 WtEn= 3.97D-02
 EnCoef did   100 forward-backward iterations
 Rare condition: small coef for last iteration: -0.122D-14
 Coeff-Com:  0.773D-03-0.782D-02-0.340D-01-0.114D+00 0.384D-01 0.412D-01
 Coeff-Com:  0.113D+00 0.217D+00-0.194D+00 0.236D+01-0.262D+00-0.101D+01
 Coeff-Com:  0.154D+01-0.991D+00 0.180D+01-0.392D+01 0.304D+01-0.203D+01
 Coeff-Com:  0.561D+00-0.147D+00
 Coeff-En:   0.000D+00 0.000D+00 0.000D+00 0.000D+00 0.000D+00 0.000D+00
 Coeff-En:   0.494D-02 0.197D-01 0.817D-01 0.168D+00 0.000D+00 0.000D+00
 Coeff-En:   0.509D-02 0.690D-01 0.000D+00 0.875D-01 0.508D-02 0.156D+00
 Coeff-En:   0.139D+00 0.264D+00
 Coeff:      0.773D-03-0.782D-02-0.340D-01-0.114D+00 0.384D-01 0.412D-01
 Coeff:      0.113D+00 0.217D+00-0.194D+00 0.236D+01-0.262D+00-0.101D+01
 Coeff:      0.154D+01-0.991D+00 0.180D+01-0.392D+01 0.304D+01-0.203D+01
 Coeff:      0.561D+00-0.147D+00
 Gap=     0.001 Goal=   None    Shift=    0.000
 Gap=     0.162 Goal=   None    Shift=    0.000
 RMSDP=2.46D-04 MaxDP=1.94D-02 DE=-2.70D-04 OVMax= 6.21D-02

 Cycle  23  Pass 1  IDiag  1:
 RMSU=  3.29D-05    CP:  9.99D-01  6.83D-01
 E= -1608.22118481612     Delta-E=        0.000000865612 Rises=F Damp=F
 DIIS: error= 3.71D-03 at cycle  23 NSaved=  20.
 NSaved=20 IEnMin= 9 EnMin= -1608.22143203352     IErMin=15 ErrMin= 3.23D-03
 ErrMax= 3.71D-03  0.00D+00 EMaxC= 1.00D-01 BMatC= 1.11D-02 BMatP= 8.65D-03
 IDIUse=3 WtCom= 9.60D-01 WtEn= 3.97D-02
 EnCoef did   100 forward-backward iterations
 Coeff-Com: -0.101D-01-0.347D-01-0.116D+00 0.451D-01 0.487D-01 0.112D+00
 Coeff-Com:  0.241D+00-0.200D+00 0.237D+01-0.261D+00-0.108D+01 0.156D+01
 Coeff-Com: -0.954D+00 0.190D+01-0.404D+01 0.303D+01-0.202D+01 0.581D+00
 Coeff-Com:  0.144D+00-0.311D+00
 Coeff-En:   0.000D+00 0.000D+00 0.000D+00 0.000D+00 0.000D+00 0.460D-02
 Coeff-En:   0.176D-02 0.160D-02 0.479D+00 0.876D-01 0.210D-03 0.246D+00
 Coeff-En:   0.198D-04 0.272D-03 0.420D-03 0.900D-02 0.152D-03 0.165D+00
 Coeff-En:   0.855D-05 0.400D-02
 Coeff:     -0.967D-02-0.333D-01-0.112D+00 0.434D-01 0.468D-01 0.108D+00
 Coeff:      0.231D+00-0.192D+00 0.229D+01-0.247D+00-0.104D+01 0.151D+01
 Coeff:     -0.916D+00 0.182D+01-0.388D+01 0.291D+01-0.194D+01 0.565D+00
 Coeff:      0.138D+00-0.298D+00
 Gap=     0.001 Goal=   None    Shift=    0.000
 Gap=     0.162 Goal=   None    Shift=    0.000
 RMSDP=1.11D-04 MaxDP=8.86D-03 DE= 8.66D-07 OVMax= 2.78D-02

 Cycle  24  Pass 1  IDiag  1:
 RMSU=  2.97D-06    CP:  1.00D+00  5.40D-01  1.15D+00
 E= -1608.22118557063     Delta-E=       -0.000000754508 Rises=F Damp=F
 DIIS: error= 3.73D-03 at cycle  24 NSaved=  20.
 NSaved=20 IEnMin= 8 EnMin= -1608.22143203352     IErMin=14 ErrMin= 3.23D-03
 ErrMax= 3.73D-03  0.00D+00 EMaxC= 1.00D-01 BMatC= 1.10D-02 BMatP= 8.65D-03
 IDIUse=3 WtCom= 9.60D-01 WtEn= 3.97D-02
 EnCoef did   100 forward-backward iterations
 Rare condition: small coef for last iteration:  0.115D-14
 Coeff-Com: -0.464D-01-0.738D-01 0.638D-02-0.175D-01 0.607D-01 0.261D+00
 Coeff-Com:  0.197D+00 0.199D+01-0.349D+00 0.236D+00 0.119D+01-0.208D+01
 Coeff-Com:  0.956D+00-0.281D+01 0.325D+01-0.221D+01 0.499D+00-0.154D+01
 Coeff-Com:  0.166D+01-0.181D+00
 Coeff-En:   0.000D+00 0.000D+00 0.000D+00 0.000D+00 0.503D-02 0.194D-01
 Coeff-En:   0.831D-01 0.172D+00 0.000D+00 0.000D+00 0.518D-02 0.719D-01
 Coeff-En:   0.000D+00 0.937D-01 0.497D-02 0.152D+00 0.896D-01 0.147D+00
 Coeff-En:   0.748D-01 0.813D-01
 Coeff:     -0.464D-01-0.738D-01 0.638D-02-0.175D-01 0.607D-01 0.261D+00
 Coeff:      0.197D+00 0.199D+01-0.349D+00 0.236D+00 0.119D+01-0.208D+01
 Coeff:      0.956D+00-0.281D+01 0.325D+01-0.221D+01 0.499D+00-0.154D+01
 Coeff:      0.166D+01-0.181D+00
 Gap=     0.001 Goal=   None    Shift=    0.000
 Gap=     0.161 Goal=   None    Shift=    0.000
 RMSDP=3.84D-04 MaxDP=3.00D-02 DE=-7.55D-07 OVMax= 9.59D-02

 Cycle  25  Pass 1  IDiag  1:
 RMSU=  3.38D-05    CP:  9.99D-01  1.03D+00 -1.20D-01 -3.00D+00
 E= -1608.22069339344     Delta-E=        0.000492177187 Rises=F Damp=F
 DIIS: error= 4.00D-03 at cycle  25 NSaved=  20.
 NSaved=20 IEnMin= 7 EnMin= -1608.22143203352     IErMin=13 ErrMin= 3.23D-03
 ErrMax= 4.00D-03  0.00D+00 EMaxC= 1.00D-01 BMatC= 1.42D-02 BMatP= 8.65D-03
 IDIUse=3 WtCom= 9.60D-01 WtEn= 3.97D-02
 EnCoef did   100 forward-backward iterations
 Coeff-Com:  0.184D-01-0.209D-01-0.143D-01 0.713D-01-0.190D+00 0.731D-01
 Coeff-Com:  0.581D+00-0.913D-01 0.658D+00 0.190D+00-0.721D+00-0.143D+01
 Coeff-Com:  0.123D+01 0.168D+01-0.151D+01-0.802D-01-0.278D+01 0.773D+01
 Coeff-Com: -0.200D+01-0.239D+01
 Coeff-En:   0.000D+00 0.000D+00 0.000D+00 0.445D-02 0.617D-03 0.798D-02
 Coeff-En:   0.475D+00 0.902D-01 0.753D-03 0.239D+00 0.157D-04 0.103D-02
 Coeff-En:   0.207D-03 0.183D-02 0.630D-02 0.168D+00 0.000D+00 0.000D+00
 Coeff-En:   0.163D-02 0.288D-02
 Coeff:      0.177D-01-0.200D-01-0.138D-01 0.687D-01-0.182D+00 0.705D-01
 Coeff:      0.577D+00-0.841D-01 0.632D+00 0.192D+00-0.692D+00-0.138D+01
 Coeff:      0.118D+01 0.162D+01-0.145D+01-0.704D-01-0.267D+01 0.742D+01
 Coeff:     -0.192D+01-0.230D+01
 Gap=     0.001 Goal=   None    Shift=    0.000
 Gap=     0.161 Goal=   None    Shift=    0.000
 RMSDP=4.34D-04 MaxDP=3.21D-02 DE= 4.92D-04 OVMax= 1.09D-01

 Cycle  26  Pass 1  IDiag  1:
 RMSU=  4.44D-05    CP:  9.98D-01  1.56D+00 -3.00D+00 -2.01D+00  2.11D-02
 E= -1608.22098734287     Delta-E=       -0.000293949427 Rises=F Damp=F
 DIIS: error= 4.04D-03 at cycle  26 NSaved=  20.
 NSaved=20 IEnMin= 7 EnMin= -1608.22143203352     IErMin=13 ErrMin= 3.23D-03
 ErrMax= 4.04D-03  0.00D+00 EMaxC= 1.00D-01 BMatC= 1.20D-02 BMatP= 8.65D-03
 IDIUse=3 WtCom= 9.60D-01 WtEn= 3.97D-02
 Large coefficients: NSaved= 20 BigCof=   10.23 CofMax=   10.00 Det=-1.58D-08
 Inversion failed.  Reducing to 19 matrices.
 EnCoef did   100 forward-backward iterations
 Coeff-Com:  0.157D-01 0.218D-01-0.360D-01-0.323D-01 0.934D-02 0.193D-02
 Coeff-Com:  0.109D+00-0.892D-01 0.480D+00 0.277D+00-0.685D+00-0.122D+00
 Coeff-Com: -0.237D+00-0.247D+00-0.236D-01 0.936D+01-0.288D+01-0.747D+01
 Coeff-Com:  0.255D+01
 Coeff-En:   0.000D+00 0.000D+00 0.000D+00 0.421D-02 0.583D-03 0.172D-02
 Coeff-En:   0.457D+00 0.737D-01 0.712D-03 0.262D+00 0.148D-04 0.971D-03
 Coeff-En:   0.260D-03 0.194D+00 0.000D+00 0.000D+00 0.910D-03 0.272D-02
 Coeff-En:   0.443D-03
 Coeff:      0.151D-01 0.209D-01-0.346D-01-0.308D-01 0.899D-02 0.192D-02
 Coeff:      0.123D+00-0.828D-01 0.461D+00 0.276D+00-0.658D+00-0.117D+00
 Coeff:     -0.228D+00-0.230D+00-0.226D-01 0.899D+01-0.277D+01-0.717D+01
 Coeff:      0.245D+01
 Gap=    -0.003 Goal=   None    Shift=    0.000
 Gap=     0.162 Goal=   None    Shift=    0.000
 RMSDP=3.98D-03 MaxDP=3.12D-01 DE=-2.94D-04 OVMax= 9.93D-01

 Cycle  27  Pass 1  IDiag  1:
 RMSU=  3.69D-03    CP:  9.85D-01 -1.92D-02 -3.00D+00  3.00D+00 -3.00D+00
                    CP:  3.00D+00
 E= -1608.20875319719     Delta-E=        0.012234145677 Rises=F Damp=F
 DIIS: error= 9.41D-03 at cycle  27 NSaved=  20.
 NSaved=20 IEnMin= 7 EnMin= -1608.22143203352     IErMin=13 ErrMin= 3.23D-03
 ErrMax= 9.41D-03  0.00D+00 EMaxC= 1.00D-01 BMatC= 7.45D-02 BMatP= 8.65D-03
 IDIUse=3 WtCom= 9.60D-01 WtEn= 3.97D-02
 EnCoef did   100 forward-backward iterations
 Rare condition: small coef for last iteration:  0.201D-15
 Coeff-Com:  0.226D-01 0.169D-03-0.280D-01-0.547D-01-0.177D-01 0.250D-01
 Coeff-Com: -0.909D-01-0.813D-01 0.645D+00 0.758D+00-0.169D+01-0.138D-01
 Coeff-Com: -0.173D+00-0.323D+00 0.104D+01 0.966D+01-0.313D+01-0.856D+01
 Coeff-Com:  0.276D+01 0.251D+00
 Coeff-En:   0.000D+00 0.000D+00 0.130D-01 0.000D+00 0.258D-01 0.362D-02
 Coeff-En:   0.787D-01 0.568D-01 0.364D-02 0.000D+00 0.827D-01 0.000D+00
 Coeff-En:   0.000D+00 0.474D-01 0.000D+00 0.000D+00 0.606D-01 0.350D-01
 Coeff-En:   0.426D+00 0.167D+00
 Coeff:      0.226D-01 0.169D-03-0.280D-01-0.547D-01-0.177D-01 0.250D-01
 Coeff:     -0.909D-01-0.813D-01 0.645D+00 0.758D+00-0.169D+01-0.138D-01
 Coeff:     -0.173D+00-0.323D+00 0.104D+01 0.966D+01-0.313D+01-0.856D+01
 Coeff:      0.276D+01 0.251D+00
 Gap=     0.004 Goal=   None    Shift=    0.000
 Gap=     0.157 Goal=   None    Shift=    0.000
 RMSDP=1.21D-04 MaxDP=6.03D-03 DE= 1.22D-02 OVMax= 1.91D-02

 Cycle  28  Pass 1  IDiag  1:
 RMSU=  9.46D-05    CP:  9.85D-01  7.52D-02 -3.00D+00  3.00D+00 -3.00D+00
                    CP:  3.00D+00  1.00D+00
 E= -1608.20575844687     Delta-E=        0.002994750319 Rises=F Damp=F
 DIIS: error= 1.07D-02 at cycle  28 NSaved=  20.
 NSaved=20 IEnMin= 7 EnMin= -1608.22143203352     IErMin=12 ErrMin= 3.23D-03
 ErrMax= 1.07D-02  0.00D+00 EMaxC= 1.00D-01 BMatC= 9.33D-02 BMatP= 8.65D-03
 IDIUse=2 WtCom= 0.00D+00 WtEn= 1.00D+00
 EnCoef did   100 forward-backward iterations
 Coeff-En:   0.000D+00 0.000D+00 0.112D-02 0.136D-02 0.166D-02 0.350D-01
 Coeff-En:   0.480D+00 0.113D+00 0.641D-03 0.209D+00 0.851D-03 0.131D-02
 Coeff-En:   0.147D+00 0.224D-04 0.991D-04 0.142D-02 0.808D-03 0.103D-02
 Coeff-En:   0.818D-03 0.463D-02
 Coeff:      0.000D+00 0.000D+00 0.112D-02 0.136D-02 0.166D-02 0.350D-01
 Coeff:      0.480D+00 0.113D+00 0.641D-03 0.209D+00 0.851D-03 0.131D-02
 Coeff:      0.147D+00 0.224D-04 0.991D-04 0.142D-02 0.808D-03 0.103D-02
 Coeff:      0.818D-03 0.463D-02
 Gap=    -0.000 Goal=   None    Shift=    0.000
 Gap=     0.166 Goal=   None    Shift=    0.000
 RMSDP=3.51D-03 MaxDP=3.43D-01 DE= 2.99D-03 OVMax= 8.76D-01

 Cycle  29  Pass 1  IDiag  1:
 RMSU=  4.39D-05    CP:  9.98D-01 -1.47D+00 -3.00D+00  3.00D+00  7.75D-01
                    CP:  3.00D+00  1.16D-01 -1.04D-01
 E= -1608.21902177501     Delta-E=       -0.013263328144 Rises=F Damp=F
 DIIS: error= 5.36D-03 at cycle  29 NSaved=  20.
 NSaved=20 IEnMin= 7 EnMin= -1608.22143203352     IErMin=12 ErrMin= 3.23D-03
 ErrMax= 5.36D-03  0.00D+00 EMaxC= 1.00D-01 BMatC= 1.85D-02 BMatP= 8.65D-03
 IDIUse=3 WtCom= 9.60D-01 WtEn= 3.97D-02
 EnCoef did   100 forward-backward iterations
 Coeff-Com:  0.164D-01-0.146D-02 0.223D-01-0.458D-01 0.556D-01-0.181D+00
 Coeff-Com:  0.229D+00-0.315D-01-0.287D+00 0.258D+00-0.694D+00 0.243D+00
 Coeff-Com: -0.352D+00 0.258D+00 0.706D+01-0.125D+00-0.813D+01 0.270D+01
 Coeff-Com:  0.119D+00-0.115D+00
 Coeff-En:   0.000D+00 0.000D+00 0.753D-03 0.911D-03 0.111D-02 0.566D-01
 Coeff-En:   0.511D+00 0.439D-03 0.430D-03 0.194D+00 0.570D-03 0.165D-02
 Coeff-En:   0.103D-02 0.150D-04 0.664D-04 0.954D-03 0.542D-03 0.689D-03
 Coeff-En:   0.310D-02 0.226D+00
 Coeff:      0.157D-01-0.140D-02 0.215D-01-0.439D-01 0.534D-01-0.171D+00
 Coeff:      0.240D+00-0.302D-01-0.275D+00 0.255D+00-0.667D+00 0.234D+00
 Coeff:     -0.338D+00 0.247D+00 0.678D+01-0.120D+00-0.781D+01 0.259D+01
 Coeff:      0.114D+00-0.101D+00
 Gap=    -0.002 Goal=   None    Shift=    0.000
 Gap=     0.161 Goal=   None    Shift=    0.000
 RMSDP=3.47D-03 MaxDP=3.40D-01 DE=-1.33D-02 OVMax= 8.67D-01

 Cycle  30  Pass 1  IDiag  1:
 RMSU=  5.29D-06    CP:  9.85D-01 -1.83D-02 -3.00D+00  3.00D+00 -3.00D+00
                    CP:  3.00D+00  1.00D+00  7.10D-01  7.48D-02
 E= -1608.20663943924     Delta-E=        0.012382335778 Rises=F Damp=F
 DIIS: error= 1.03D-02 at cycle  30 NSaved=  20.
 NSaved=20 IEnMin= 7 EnMin= -1608.22143203352     IErMin=12 ErrMin= 3.23D-03
 ErrMax= 1.03D-02  0.00D+00 EMaxC= 1.00D-01 BMatC= 8.78D-02 BMatP= 8.65D-03
 IDIUse=2 WtCom= 0.00D+00 WtEn= 1.00D+00
 EnCoef did   100 forward-backward iterations
 Coeff-En:   0.000D+00 0.000D+00 0.510D-03 0.617D-03 0.754D-03 0.687D-01
 Coeff-En:   0.507D+00 0.297D-03 0.291D-03 0.184D+00 0.386D-03 0.112D-02
 Coeff-En:   0.695D-03 0.102D-04 0.450D-04 0.646D-03 0.367D-03 0.467D-03
 Coeff-En:   0.232D+00 0.210D-02
 Coeff:      0.000D+00 0.000D+00 0.510D-03 0.617D-03 0.754D-03 0.687D-01
 Coeff:      0.507D+00 0.297D-03 0.291D-03 0.184D+00 0.386D-03 0.112D-02
 Coeff:      0.695D-03 0.102D-04 0.450D-04 0.646D-03 0.367D-03 0.467D-03
 Coeff:      0.232D+00 0.210D-02
 Gap=    -0.000 Goal=   None    Shift=    0.000
 Gap=     0.165 Goal=   None    Shift=    0.000
 RMSDP=3.89D-03 MaxDP=3.66D-01 DE= 1.24D-02 OVMax= 9.70D-01

 Cycle  31  Pass 1  IDiag  1:
 RMSU=  9.55D-06    CP:  1.00D+00 -2.81D-01 -1.66D+00  3.00D+00 -2.70D-01
                    CP:  3.45D-02 -2.61D-04  7.80D-03  5.94D-02  2.50D-01
 E= -1608.22080499424     Delta-E=       -0.014165555007 Rises=F Damp=F
 DIIS: error= 3.51D-03 at cycle  31 NSaved=  20.
 NSaved=20 IEnMin= 7 EnMin= -1608.22143203352     IErMin=12 ErrMin= 3.23D-03
 ErrMax= 3.51D-03  0.00D+00 EMaxC= 1.00D-01 BMatC= 1.20D-02 BMatP= 8.65D-03
 IDIUse=3 WtCom= 9.60D-01 WtEn= 3.97D-02
 Large coefficients: NSaved= 20 BigCof=   11.46 CofMax=   10.00 Det=-7.62D-09
 Inversion failed.  Reducing to 19 matrices.
 Large coefficients: NSaved= 19 BigCof=   11.66 CofMax=   10.00 Det=-7.65D-09
 Inversion failed.  Reducing to 18 matrices.
 Large coefficients: NSaved= 18 BigCof=   10.91 CofMax=   10.00 Det=-1.07D-08
 Inversion failed.  Reducing to 17 matrices.
 Large coefficients: NSaved= 17 BigCof=   10.79 CofMax=   10.00 Det=-1.08D-08
 Inversion failed.  Reducing to 16 matrices.
 Large coefficients: NSaved= 16 BigCof=   12.53 CofMax=   10.00 Det=-1.37D-08
 Inversion failed.  Reducing to 15 matrices.
 Large coefficients: NSaved= 15 BigCof=   13.38 CofMax=   10.00 Det=-1.46D-08
 Inversion failed.  Reducing to 14 matrices.
 Large coefficients: NSaved= 14 BigCof=   12.73 CofMax=   10.00 Det=-1.48D-08
 Inversion failed.  Reducing to 13 matrices.
 Large coefficients: NSaved= 13 BigCof=   12.16 CofMax=   10.00 Det=-1.48D-08
 Inversion failed.  Reducing to 12 matrices.
 Large coefficients: NSaved= 12 BigCof=   11.88 CofMax=   10.00 Det=-1.49D-08
 Inversion failed.  Reducing to 11 matrices.
 EnCoef did   100 forward-backward iterations
 Coeff-Com: -0.126D+00 0.130D+01-0.255D+00 0.374D+00-0.610D-01-0.820D+00
 Coeff-Com: -0.845D+01 0.851D+01 0.197D+00 0.117D+00 0.208D+00
 Coeff-En:   0.000D+00 0.467D+00 0.000D+00 0.112D-01 0.000D+00 0.000D+00
 Coeff-En:   0.000D+00 0.000D+00 0.318D-02 0.215D+00 0.304D+00
 Coeff:     -0.121D+00 0.127D+01-0.245D+00 0.360D+00-0.586D-01-0.787D+00
 Coeff:     -0.811D+01 0.817D+01 0.189D+00 0.121D+00 0.212D+00
 Gap=    -0.001 Goal=   None    Shift=    0.000
 Gap=     0.162 Goal=   None    Shift=    0.000
 RMSDP=3.68D-03 MaxDP=3.30D-01 DE=-1.42D-02 OVMax= 9.21D-01

 Cycle  32  Pass 1  IDiag  1:
 RMSU=  3.34D-05    CP:  9.87D-01 -7.68D-01 -3.00D+00  8.48D-01 -5.96D-01
                    CP:  3.00D+00  9.42D-01 -8.14D-01  5.45D-01  3.00D+00
                    CP: -9.04D-01
 E= -1608.21290502741     Delta-E=        0.007899966831 Rises=F Damp=F
 DIIS: error= 7.79D-03 at cycle  32 NSaved=  12.
 NSaved=12 IEnMin= 2 EnMin= -1608.22143203352     IErMin= 4 ErrMin= 3.23D-03
 ErrMax= 7.79D-03  0.00D+00 EMaxC= 1.00D-01 BMatC= 4.96D-02 BMatP= 8.65D-03
 IDIUse=3 WtCom= 9.60D-01 WtEn= 3.97D-02
 EnCoef did   100 forward-backward iterations
 Coeff-Com: -0.119D+00 0.132D+01-0.423D+00 0.551D+00-0.572D-01-0.127D+01
 Coeff-Com: -0.889D+01 0.950D+01 0.222D+00 0.101D+00 0.436D-01 0.228D-01
 Coeff-En:   0.000D+00 0.563D+00 0.000D+00 0.629D-03 0.901D-03 0.000D+00
 Coeff-En:   0.000D+00 0.000D+00 0.128D-03 0.420D-02 0.159D+00 0.272D+00
 Coeff:     -0.115D+00 0.129D+01-0.406D+00 0.529D+00-0.549D-01-0.122D+01
 Coeff:     -0.854D+01 0.912D+01 0.213D+00 0.971D-01 0.482D-01 0.327D-01
 Gap=     0.001 Goal=   None    Shift=    0.000
 Gap=     0.161 Goal=   None    Shift=    0.000
 RMSDP=5.41D-05 MaxDP=3.99D-03 DE= 7.90D-03 OVMax= 1.36D-02

 Cycle  33  Pass 1  IDiag  1:
 RMSU=  1.63D-06    CP:  9.87D-01 -8.29D-01 -3.00D+00 -5.04D-01 -5.07D-01
                    CP:  3.00D+00  9.35D-01 -8.10D-01  5.91D-01  3.00D+00
                    CP: -8.71D-01  1.00D+00
 E= -1608.21305530805     Delta-E=       -0.000150280637 Rises=F Damp=F
 DIIS: error= 7.89D-03 at cycle  33 NSaved=  13.
 NSaved=13 IEnMin= 2 EnMin= -1608.22143203352     IErMin= 4 ErrMin= 3.23D-03
 ErrMax= 7.89D-03  0.00D+00 EMaxC= 1.00D-01 BMatC= 4.87D-02 BMatP= 8.65D-03
 IDIUse=3 WtCom= 9.60D-01 WtEn= 3.97D-02
 EnCoef did   100 forward-backward iterations
 Rare condition: small coef for last iteration:  0.138D-14
 Coeff-Com: -0.137D+00 0.123D+01-0.310D+00 0.783D+00 0.826D-02-0.179D+01
 Coeff-Com: -0.406D+01 0.427D+01 0.172D+00-0.269D+00 0.691D+00 0.793D+01
 Coeff-Com: -0.752D+01
 Coeff-En:   0.000D+00 0.118D+00 0.000D+00 0.000D+00 0.000D+00 0.000D+00
 Coeff-En:   0.000D+00 0.000D+00 0.337D+00 0.184D-01 0.377D+00 0.000D+00
 Coeff-En:   0.149D+00
 Coeff:     -0.137D+00 0.123D+01-0.310D+00 0.783D+00 0.826D-02-0.179D+01
 Coeff:     -0.406D+01 0.427D+01 0.172D+00-0.269D+00 0.691D+00 0.793D+01
 Coeff:     -0.752D+01
 Gap=     0.001 Goal=   None    Shift=    0.000
 Gap=     0.161 Goal=   None    Shift=    0.000
 RMSDP=1.19D-03 MaxDP=1.09D-01 DE=-1.50D-04 OVMax= 3.00D-01

 Cycle  34  Pass 1  IDiag  1:
 RMSU=  1.39D-05    CP:  9.92D-01 -1.87D+00 -3.00D+00 -3.00D+00  2.20D-01
                    CP:  3.00D+00  6.97D-01 -7.04D-01  8.21D-01  3.00D+00
                    CP: -1.10D+00  1.34D+00 -2.01D+00
 E= -1608.21440190019     Delta-E=       -0.001346592142 Rises=F Damp=F
 DIIS: error= 9.85D-03 at cycle  34 NSaved=  14.
 NSaved=14 IEnMin= 2 EnMin= -1608.22143203352     IErMin= 4 ErrMin= 3.23D-03
 ErrMax= 9.85D-03  0.00D+00 EMaxC= 1.00D-01 BMatC= 4.25D-02 BMatP= 8.65D-03
 IDIUse=3 WtCom= 9.60D-01 WtEn= 3.97D-02
 Large coefficients: NSaved= 14 BigCof=   16.47 CofMax=   10.00 Det=-1.44D-08
 Inversion failed.  Reducing to 13 matrices.
 Large coefficients: NSaved= 13 BigCof=   18.10 CofMax=   10.00 Det=-1.53D-08
 Inversion failed.  Reducing to 12 matrices.
 EnCoef did    24 forward-backward iterations
 Coeff-Com: -0.146D+00 0.131D+01 0.515D-01 0.268D+00 0.106D+00-0.801D+00
 Coeff-Com: -0.727D+01 0.654D+01 0.284D+00 0.572D+00 0.276D+00-0.189D+00
 Coeff-En:   0.000D+00 0.570D+00 0.000D+00 0.106D-02 0.478D-03 0.000D+00
 Coeff-En:   0.000D+00 0.000D+00 0.234D-02 0.146D+00 0.280D+00 0.184D-04
 Coeff:     -0.140D+00 0.128D+01 0.495D-01 0.257D+00 0.102D+00-0.769D+00
 Coeff:     -0.698D+01 0.628D+01 0.273D+00 0.555D+00 0.276D+00-0.181D+00
 Gap=     0.001 Goal=   None    Shift=    0.000
 Gap=     0.161 Goal=   None    Shift=    0.000
 RMSDP=8.35D-04 MaxDP=7.90D-02 DE=-1.35D-03 OVMax= 2.10D-01

 Cycle  35  Pass 1  IDiag  1:
 RMSU=  3.12D-06    CP:  9.88D-01 -1.22D+00 -3.00D+00 -2.97D+00 -3.12D-01
                    CP:  3.00D+00  8.77D-01 -7.82D-01  7.12D-01  3.00D+00
                    CP: -8.20D-01  1.05D+00  1.38D+00  3.39D-01
 E= -1608.21341073298     Delta-E=        0.000991167214 Rises=F Damp=F
 DIIS: error= 8.73D-03 at cycle  35 NSaved=  13.
 NSaved=13 IEnMin= 2 EnMin= -1608.22143203352     IErMin= 4 ErrMin= 3.23D-03
 ErrMax= 8.73D-03  0.00D+00 EMaxC= 1.00D-01 BMatC= 4.72D-02 BMatP= 8.65D-03
 IDIUse=3 WtCom= 9.60D-01 WtEn= 3.97D-02
 Large coefficients: NSaved= 13 BigCof=   14.36 CofMax=   10.00 Det=-1.20D-08
 Inversion failed.  Reducing to 12 matrices.
 EnCoef did     2 forward-backward iterations
 Coeff-Com: -0.134D+00 0.136D+01 0.138D+00 0.102D+00 0.121D+00-0.645D+00
 Coeff-Com: -0.543D+01 0.426D+01 0.250D+00 0.930D+00-0.373D+00 0.428D+00
 Coeff-En:   0.000D+00 0.629D+00 0.000D+00 0.114D-02 0.511D-03 0.000D+00
 Coeff-En:   0.000D+00 0.000D+00 0.250D-02 0.711D-01 0.197D-04 0.295D+00
 Coeff:     -0.129D+00 0.133D+01 0.133D+00 0.978D-01 0.116D+00-0.619D+00
 Coeff:     -0.521D+01 0.409D+01 0.240D+00 0.895D+00-0.358D+00 0.423D+00
 Gap=     0.001 Goal=   None    Shift=    0.000
 Gap=     0.161 Goal=   None    Shift=    0.000
 RMSDP=1.58D-05 MaxDP=1.34D-03 DE= 9.91D-04 OVMax= 3.93D-03

 Cycle  36  Pass 1  IDiag  1:
 RMSU=  7.53D-07    CP:  9.88D-01 -1.20D+00 -3.00D+00 -2.47D+00 -3.52D-01
                    CP:  3.00D+00  8.80D-01 -7.85D-01  7.01D-01  3.00D+00
                    CP: -8.54D-01  1.07D+00  9.29D-01  3.55D-01  8.22D-01
 E= -1608.21335382156     Delta-E=        0.000056911413 Rises=F Damp=F
 DIIS: error= 8.73D-03 at cycle  36 NSaved=  13.
 NSaved=13 IEnMin= 2 EnMin= -1608.22143203352     IErMin= 4 ErrMin= 3.23D-03
 ErrMax= 8.73D-03  0.00D+00 EMaxC= 1.00D-01 BMatC= 4.76D-02 BMatP= 8.65D-03
 IDIUse=3 WtCom= 9.60D-01 WtEn= 3.97D-02
 Large coefficients: NSaved= 13 BigCof=   11.20 CofMax=   10.00 Det=-1.56D-08
 Inversion failed.  Reducing to 12 matrices.
 Large coefficients: NSaved= 12 BigCof=   14.36 CofMax=   10.00 Det=-1.69D-08
 Inversion failed.  Reducing to 11 matrices.
 EnCoef did   100 forward-backward iterations
 Coeff-Com: -0.934D-01 0.188D+01-0.260D-01-0.852D+00-0.478D-01-0.311D+01
 Coeff-Com: -0.369D+01 0.626D+01 0.576D+00-0.972D+01 0.982D+01
 Coeff-En:   0.000D+00 0.618D+00 0.000D+00 0.269D-03 0.744D-01 0.000D+00
 Coeff-En:   0.000D+00 0.198D-03 0.848D-02 0.117D-01 0.287D+00
 Coeff:     -0.897D-01 0.183D+01-0.250D-01-0.818D+00-0.429D-01-0.298D+01
 Coeff:     -0.354D+01 0.601D+01 0.554D+00-0.933D+01 0.944D+01
 Gap=     0.001 Goal=   None    Shift=    0.000
 Gap=     0.161 Goal=   None    Shift=    0.000
 RMSDP=3.34D-04 MaxDP=2.71D-02 DE= 5.69D-05 OVMax= 8.40D-02

 Cycle  37  Pass 1  IDiag  1:
 RMSU=  3.50D-06    CP:  9.87D-01 -8.54D-01 -3.00D+00  7.09D-01 -5.62D-01
                    CP:  3.00D+00  9.32D-01 -8.10D-01  5.69D-01  3.00D+00
                    CP: -9.01D-01  9.96D-01 -8.17D-01  1.63D-01  1.53D+00
                    CP: -3.00D+00
 E= -1608.21288719653     Delta-E=        0.000466625033 Rises=F Damp=F
 DIIS: error= 8.01D-03 at cycle  37 NSaved=  12.
 NSaved=12 IEnMin= 2 EnMin= -1608.22143203352     IErMin= 4 ErrMin= 3.23D-03
 ErrMax= 8.01D-03  0.00D+00 EMaxC= 1.00D-01 BMatC= 4.97D-02 BMatP= 8.65D-03
 IDIUse=3 WtCom= 9.60D-01 WtEn= 3.97D-02
 EnCoef did   100 forward-backward iterations
 Coeff-Com: -0.132D+00 0.161D+01-0.991D-01-0.234D+00 0.905D-01-0.222D+01
 Coeff-Com: -0.690D+01 0.825D+01 0.525D+00-0.797D+01 0.789D+01 0.179D+00
 Coeff-En:   0.000D+00 0.564D+00 0.000D+00 0.325D-03 0.138D+00 0.000D+00
 Coeff-En:   0.000D+00 0.239D-03 0.102D-01 0.669D-03 0.489D-01 0.238D+00
 Coeff:     -0.126D+00 0.157D+01-0.952D-01-0.225D+00 0.923D-01-0.213D+01
 Coeff:     -0.662D+01 0.793D+01 0.504D+00-0.765D+01 0.757D+01 0.181D+00
 Gap=     0.001 Goal=   None    Shift=    0.000
 Gap=     0.161 Goal=   None    Shift=    0.000
 RMSDP=1.20D-04 MaxDP=9.39D-03 DE= 4.67D-04 OVMax= 3.03D-02

 Cycle  38  Pass 1  IDiag  1:
 RMSU=  1.23D-06    CP:  9.88D-01 -9.85D-01 -3.00D+00 -6.93D-02 -5.00D-01
                    CP:  3.00D+00  9.15D-01 -8.03D-01  6.16D-01  3.00D+00
                    CP: -8.50D-01  1.03D+00 -6.03D-01  2.59D-01  1.18D+00
                    CP: -2.73D+00  3.65D-01
 E= -1608.21300990732     Delta-E=       -0.000122710788 Rises=F Damp=F
 DIIS: error= 8.31D-03 at cycle  38 NSaved=  13.
 NSaved=13 IEnMin= 2 EnMin= -1608.22143203352     IErMin= 4 ErrMin= 3.23D-03
 ErrMax= 8.31D-03  0.00D+00 EMaxC= 1.00D-01 BMatC= 4.92D-02 BMatP= 8.65D-03
 IDIUse=3 WtCom= 9.60D-01 WtEn= 3.97D-02
 EnCoef did   100 forward-backward iterations
 Rare condition: small coef for last iteration: -0.460D-15
 Coeff-Com: -0.954D-01 0.175D+01-0.137D+00-0.523D+00-0.339D-01-0.285D+01
 Coeff-Com: -0.480D+01 0.705D+01 0.535D+00-0.830D+01 0.860D+01 0.656D+00
 Coeff-Com: -0.853D+00
 Coeff-En:   0.000D+00 0.103D-01 0.000D+00 0.940D-03 0.232D-03 0.000D+00
 Coeff-En:   0.000D+00 0.000D+00 0.665D+00 0.000D+00 0.000D+00 0.000D+00
 Coeff-En:   0.323D+00
 Coeff:     -0.954D-01 0.175D+01-0.137D+00-0.523D+00-0.339D-01-0.285D+01
 Coeff:     -0.480D+01 0.705D+01 0.535D+00-0.830D+01 0.860D+01 0.656D+00
 Coeff:     -0.853D+00
 Gap=     0.001 Goal=   None    Shift=    0.000
 Gap=     0.161 Goal=   None    Shift=    0.000
 RMSDP=1.04D-04 MaxDP=8.09D-03 DE=-1.23D-04 OVMax= 2.61D-02

 Cycle  39  Pass 1  IDiag  1:
 RMSU=  1.02D-06    CP:  9.87D-01 -8.72D-01 -3.00D+00  1.69D-02 -5.58D-01
                    CP:  3.00D+00  9.30D-01 -8.11D-01  5.78D-01  3.00D+00
                    CP: -8.67D-01  1.02D+00 -5.68D-01  1.84D-01  9.30D-01
                    CP: -3.00D+00  2.28D-01  1.09D+00
 E= -1608.21292700126     Delta-E=        0.000082906059 Rises=F Damp=F
 DIIS: error= 8.04D-03 at cycle  39 NSaved=  14.
 NSaved=14 IEnMin= 2 EnMin= -1608.22143203352     IErMin= 4 ErrMin= 3.23D-03
 ErrMax= 8.04D-03  0.00D+00 EMaxC= 1.00D-01 BMatC= 4.95D-02 BMatP= 8.65D-03
 IDIUse=3 WtCom= 9.60D-01 WtEn= 3.97D-02
 EnCoef did   100 forward-backward iterations
 Coeff-Com: -0.106D+00 0.167D+01-0.155D+00-0.450D+00-0.964D-01-0.246D+01
 Coeff-Com: -0.569D+01 0.767D+01 0.497D+00-0.640D+01 0.720D+01 0.999D+00
 Coeff-Com: -0.252D+01 0.835D+00
 Coeff-En:   0.000D+00 0.557D+00 0.000D+00 0.000D+00 0.145D+00 0.000D+00
 Coeff-En:   0.000D+00 0.269D-02 0.856D-02 0.000D+00 0.000D+00 0.358D-02
 Coeff-En:   0.000D+00 0.283D+00
 Coeff:     -0.102D+00 0.163D+01-0.149D+00-0.432D+00-0.868D-01-0.236D+01
 Coeff:     -0.546D+01 0.736D+01 0.478D+00-0.614D+01 0.692D+01 0.959D+00
 Coeff:     -0.242D+01 0.813D+00
 Gap=     0.001 Goal=   None    Shift=    0.000
 Gap=     0.161 Goal=   None    Shift=    0.000
 RMSDP=1.43D-05 MaxDP=6.91D-04 DE= 8.29D-05 OVMax= 2.56D-03

 Cycle  40  Pass 1  IDiag  1:
 RMSU=  1.39D-06    CP:  9.87D-01 -8.83D-01 -3.00D+00 -1.78D+00 -3.83D-01
                    CP:  3.00D+00  9.28D-01 -8.02D-01  6.31D-01  3.00D+00
                    CP: -7.29D-01  9.42D-01  1.96D+00  2.35D-02  1.04D+00
                    CP: -3.00D+00  2.60D-01  4.25D-01  1.19D+00
 E= -1608.21317165381     Delta-E=       -0.000244652554 Rises=F Damp=F
 DIIS: error= 7.94D-03 at cycle  40 NSaved=  15.
 NSaved=15 IEnMin= 2 EnMin= -1608.22143203352     IErMin= 4 ErrMin= 3.23D-03
 ErrMax= 7.94D-03  0.00D+00 EMaxC= 1.00D-01 BMatC= 4.80D-02 BMatP= 8.65D-03
 IDIUse=3 WtCom= 9.60D-01 WtEn= 3.97D-02
 Large coefficients: NSaved= 15 BigCof=   39.19 CofMax=   10.00 Det=-8.45D-09
 Inversion failed.  Reducing to 14 matrices.
 EnCoef did   100 forward-backward iterations
 Coeff-Com: -0.126D+00 0.146D+01 0.248D-01-0.639D-01 0.186D+00-0.235D+01
 Coeff-Com: -0.572D+01 0.695D+01 0.490D+00-0.496D+01 0.514D+01-0.130D+01
 Coeff-Com: -0.126D+01 0.253D+01
 Coeff-En:   0.000D+00 0.557D+00 0.000D+00 0.000D+00 0.145D+00 0.000D+00
 Coeff-En:   0.000D+00 0.270D-02 0.858D-02 0.000D+00 0.000D+00 0.000D+00
 Coeff-En:   0.211D+00 0.762D-01
 Coeff:     -0.121D+00 0.143D+01 0.238D-01-0.614D-01 0.184D+00-0.226D+01
 Coeff:     -0.549D+01 0.667D+01 0.470D+00-0.477D+01 0.494D+01-0.125D+01
 Coeff:     -0.120D+01 0.244D+01
 Gap=     0.001 Goal=   None    Shift=    0.000
 Gap=     0.161 Goal=   None    Shift=    0.000
 RMSDP=2.63D-04 MaxDP=2.13D-02 DE=-2.45D-04 OVMax= 6.61D-02

 Cycle  41  Pass 1  IDiag  1:
 Restarting incremental Fock formation.
 E= -1608.21381021479     Delta-E=       -0.000638560979 Rises=F Damp=F
 DIIS: error= 8.31D-03 at cycle  41 NSaved=  15.
 NSaved=15 IEnMin= 2 EnMin= -1608.22143203352     IErMin= 4 ErrMin= 3.23D-03
 ErrMax= 8.31D-03  0.00D+00 EMaxC= 1.00D-01 BMatC= 4.45D-02 BMatP= 8.65D-03
 IDIUse=3 WtCom= 9.60D-01 WtEn= 3.97D-02
 Large coefficients: NSaved= 15 BigCof=   17.34 CofMax=   10.00 Det=-2.21D-08
 Inversion failed.  Reducing to 14 matrices.
 Large coefficients: NSaved= 14 BigCof=   18.01 CofMax=   10.00 Det=-3.16D-08
 Inversion failed.  Reducing to 13 matrices.
 Large coefficients: NSaved= 13 BigCof=   11.60 CofMax=   10.00 Det=-3.51D-08
 Inversion failed.  Reducing to 12 matrices.
 Large coefficients: NSaved= 12 BigCof=   12.49 CofMax=   10.00 Det=-4.83D-08
 Inversion failed.  Reducing to 11 matrices.
 Large coefficients: NSaved= 11 BigCof=   12.33 CofMax=   10.00 Det=-5.09D-08
 Inversion failed.  Reducing to 10 matrices.
 Large coefficients: NSaved= 10 BigCof=   11.15 CofMax=   10.00 Det=-8.07D-08
 Inversion failed.  Reducing to  9 matrices.
 EnCoef did   100 forward-backward iterations
 Coeff-Com:  0.134D+01-0.628D+00 0.102D+01-0.224D+01-0.858D+01 0.971D+01
 Coeff-Com:  0.268D+00 0.710D+00-0.594D+00
 Coeff-En:   0.573D+00 0.000D+00 0.630D-03 0.000D+00 0.000D+00 0.117D+00
 Coeff-En:   0.376D-02 0.380D-01 0.268D+00
 Coeff:      0.131D+01-0.603D+00 0.976D+00-0.215D+01-0.823D+01 0.933D+01
 Coeff:      0.258D+00 0.683D+00-0.560D+00
 Gap=     0.001 Goal=   None    Shift=    0.000
 Gap=     0.161 Goal=   None    Shift=    0.000
 RMSDP=1.84D-04 MaxDP=1.58D-02 DE=-6.39D-04 OVMax= 4.58D-02

 Cycle  42  Pass 1  IDiag  1:
 RMSU=  1.84D-04    CP:  1.00D+00
 E= -1608.21343533416     Delta-E=        0.000374880631 Rises=F Damp=F
 DIIS: error= 9.07D-03 at cycle  42 NSaved=  10.
 NSaved=10 IEnMin= 1 EnMin= -1608.22143203352     IErMin= 3 ErrMin= 3.23D-03
 ErrMax= 9.07D-03  0.00D+00 EMaxC= 1.00D-01 BMatC= 4.74D-02 BMatP= 8.65D-03
 IDIUse=3 WtCom= 9.60D-01 WtEn= 3.97D-02
 EnCoef did   100 forward-backward iterations
 Rare condition: small coef for last iteration: -0.784D-15
 Coeff-Com:  0.139D+01-0.485D+00 0.846D+00-0.233D+01-0.816D+01 0.934D+01
 Coeff-Com:  0.304D+00 0.843D+00-0.936D+00 0.200D+00
 Coeff-En:   0.308D-01 0.000D+00 0.000D+00 0.000D+00 0.000D+00 0.000D+00
 Coeff-En:   0.649D+00 0.303D-01 0.000D+00 0.290D+00
 Coeff:      0.139D+01-0.485D+00 0.846D+00-0.233D+01-0.816D+01 0.934D+01
 Coeff:      0.304D+00 0.843D+00-0.936D+00 0.200D+00
 Gap=     0.001 Goal=   None    Shift=    0.000
 Gap=     0.161 Goal=   None    Shift=    0.000
 RMSDP=3.72D-05 MaxDP=2.96D-03 DE= 3.75D-04 OVMax= 8.78D-03

 Cycle  43  Pass 1  IDiag  1:
 RMSU=  1.71D-05    CP:  1.00D+00  8.20D-01
 E= -1608.21311708913     Delta-E=        0.000318245030 Rises=F Damp=F
 DIIS: error= 9.18D-03 at cycle  43 NSaved=  11.
 NSaved=11 IEnMin= 1 EnMin= -1608.22143203352     IErMin= 3 ErrMin= 3.23D-03
 ErrMax= 9.18D-03  0.00D+00 EMaxC= 1.00D-01 BMatC= 4.93D-02 BMatP= 8.65D-03
 IDIUse=3 WtCom= 9.60D-01 WtEn= 3.97D-02
 EnCoef did   100 forward-backward iterations
 Coeff-Com:  0.117D+01-0.437D+00 0.945D+00-0.290D+01-0.530D+01 0.702D+01
 Coeff-Com:  0.269D+00 0.165D+00 0.111D+01 0.258D+01-0.364D+01
 Coeff-En:   0.533D+00 0.314D-03 0.227D-03 0.000D+00 0.000D+00 0.165D+00
 Coeff-En:   0.249D-02 0.218D+00 0.806D-01 0.916D-03 0.319D-04
 Coeff:      0.115D+01-0.420D+00 0.907D+00-0.278D+01-0.509D+01 0.675D+01
 Coeff:      0.258D+00 0.167D+00 0.107D+01 0.248D+01-0.349D+01
 Gap=     0.000 Goal=   None    Shift=    0.000
 Gap=     0.162 Goal=   None    Shift=    0.000
 RMSDP=5.13D-04 MaxDP=4.68D-02 DE= 3.18D-04 OVMax= 1.27D-01

 Cycle  44  Pass 1  IDiag  1:
 RMSU=  1.47D-04    CP:  9.99D-01  3.00D+00 -3.00D+00
 E= -1608.21553592374     Delta-E=       -0.002418834611 Rises=F Damp=F
 DIIS: error= 8.57D-03 at cycle  44 NSaved=  12.
 NSaved=12 IEnMin= 1 EnMin= -1608.22143203352     IErMin= 3 ErrMin= 3.23D-03
 ErrMax= 8.57D-03  0.00D+00 EMaxC= 1.00D-01 BMatC= 3.49D-02 BMatP= 8.65D-03
 IDIUse=3 WtCom= 9.60D-01 WtEn= 3.97D-02
 EnCoef did   100 forward-backward iterations
 Rare condition: small coef for last iteration: -0.149D-14
 Coeff-Com:  0.938D+00-0.191D-01 0.477D+00-0.180D+01-0.368D+01 0.456D+01
 Coeff-Com:  0.168D+00 0.108D+01 0.317D+00 0.157D+01-0.349D+01 0.882D+00
 Coeff-En:   0.571D-01 0.000D+00 0.000D+00 0.000D+00 0.000D+00 0.000D+00
 Coeff-En:   0.608D+00 0.000D+00 0.000D+00 0.000D+00 0.000D+00 0.335D+00
 Coeff:      0.938D+00-0.191D-01 0.477D+00-0.180D+01-0.368D+01 0.456D+01
 Coeff:      0.168D+00 0.108D+01 0.317D+00 0.157D+01-0.349D+01 0.882D+00
 Gap=    -0.001 Goal=   None    Shift=    0.000
 Gap=     0.162 Goal=   None    Shift=    0.000
 RMSDP=3.99D-03 MaxDP=2.92D-01 DE=-2.42D-03 OVMax= 1.00D+00

 Cycle  45  Pass 1  IDiag  1:
 RMSU=  3.64D-03    CP:  9.80D-01 -3.00D+00 -3.00D+00  3.00D+00
 E= -1608.22002685708     Delta-E=       -0.004490933337 Rises=F Damp=F
 DIIS: error= 6.29D-03 at cycle  45 NSaved=  13.
 NSaved=13 IEnMin= 1 EnMin= -1608.22143203352     IErMin= 3 ErrMin= 3.23D-03
 ErrMax= 6.29D-03  0.00D+00 EMaxC= 1.00D-01 BMatC= 1.59D-02 BMatP= 8.65D-03
 IDIUse=3 WtCom= 9.60D-01 WtEn= 3.97D-02
 EnCoef did   100 forward-backward iterations
 Coeff-Com:  0.453D+00 0.105D+01-0.898D+00-0.584D+00 0.573D+00-0.202D+00
 Coeff-Com: -0.122D+00 0.339D+00 0.211D+01 0.271D+01-0.562D+01 0.917D+00
 Coeff-Com:  0.272D+00
[...]
    15  H   -0.000075  -0.000002   0.289628  -0.000010  -0.000000  -0.000075
    16  H    0.000001   0.000001  -0.000010   0.286417   0.000005  -0.000089
    17  H   -0.000002  -0.000075  -0.000000   0.000005   0.289627  -0.000002
    18  H    0.000000   0.000000  -0.000075  -0.000089  -0.000002   0.313333
    19  H    0.000001   0.000001   0.000005   0.000000  -0.000010  -0.000089
              19
     1  Mn  -0.014014
     2  O   -0.000462
     3  H   -0.000000
     4  O    0.000106
     5  H   -0.000010
     6  O    0.003918
     7  H   -0.000089
     8  O    0.297824
     9  H   -0.014774
    10  O    0.000106
    11  H    0.000005
    12  O    0.000904
    13  H    0.000001
    14  H    0.000001
    15  H    0.000005
    16  H    0.000000
    17  H   -0.000010
    18  H   -0.000089
    19  H    0.286417
          Atomic-Atomic Spin Densities.
               1          2          3          4          5          6
     1  Mn   4.061088  -0.043042  -0.000730  -0.048098   0.000331  -0.077292
     2  O   -0.043042   0.057453   0.000112   0.021288  -0.000521  -0.014941
     3  H   -0.000730   0.000112   0.001456  -0.000670   0.000003   0.000217
     4  O   -0.048098   0.021288  -0.000670   0.067884  -0.001257  -0.019325
     5  H    0.000331  -0.000521   0.000003  -0.001257   0.001222   0.000691
     6  O   -0.077292  -0.014941   0.000217  -0.019325   0.000691   0.208113
     7  H    0.002996   0.000574  -0.000002   0.000370  -0.000003  -0.007005
     8  O   -0.043042   0.002804  -0.000070   0.021289  -0.000428  -0.014941
     9  H   -0.000730  -0.000070  -0.000000  -0.000670   0.000032   0.000217
    10  O   -0.048097   0.021289  -0.000670   0.003996  -0.000092  -0.019325
    11  H    0.000331  -0.000428   0.000032  -0.000092   0.000000   0.000691
    12  O   -0.077291  -0.014941   0.001525  -0.019326   0.000691   0.010748
    13  H    0.002996   0.000574  -0.000032   0.001515  -0.000035  -0.000156
    14  H    0.002996   0.000574  -0.000032   0.000370  -0.000003  -0.000156
    15  H    0.000331  -0.000428   0.000032  -0.001258  -0.000242   0.000691
    16  H   -0.000730   0.000112  -0.000633  -0.000670   0.000003   0.001525
    17  H    0.000331  -0.000521   0.000003  -0.000092   0.000000   0.000691
    18  H    0.002996   0.000574  -0.000002   0.001515  -0.000035  -0.007005
    19  H   -0.000730  -0.000070   0.000000  -0.000670   0.000032   0.001525
               7          8          9         10         11         12
     1  Mn   0.002996  -0.043042  -0.000730  -0.048097   0.000331  -0.077291
     2  O    0.000574   0.002804  -0.000070   0.021289  -0.000428  -0.014941
     3  H   -0.000002  -0.000070  -0.000000  -0.000670   0.000032   0.001525
     4  O    0.000370   0.021289  -0.000670   0.003996  -0.000092  -0.019326
     5  H   -0.000003  -0.000428   0.000032  -0.000092   0.000000   0.000691
     6  O   -0.007005  -0.014941   0.000217  -0.019325   0.000691   0.010748
     7  H    0.004710   0.000574  -0.000002   0.001515  -0.000035  -0.000156
     8  O    0.000574   0.057453   0.000112   0.021288  -0.000521  -0.014941
     9  H   -0.000002   0.000112   0.001456  -0.000670   0.000003   0.001525
    10  O    0.001515   0.021288  -0.000670   0.067883  -0.001257  -0.019325
    11  H   -0.000035  -0.000521   0.000003  -0.001257   0.001222   0.000691
    12  O   -0.000156  -0.014941   0.001525  -0.019325   0.000691   0.208113
    13  H    0.000000   0.000574  -0.000032   0.000370  -0.000003  -0.007005
    14  H    0.000000   0.000574  -0.000032   0.001515  -0.000035  -0.007005
    15  H   -0.000003  -0.000521   0.000003  -0.000092   0.000000   0.000691
    16  H   -0.000032  -0.000070   0.000000  -0.000670   0.000032   0.000217
    17  H   -0.000035  -0.000428   0.000032  -0.001258  -0.000242   0.000691
    18  H    0.001258   0.000574  -0.000002   0.000370  -0.000003  -0.000156
    19  H   -0.000032   0.000112  -0.000633  -0.000670   0.000003   0.000217
              13         14         15         16         17         18
     1  Mn   0.002996   0.002996   0.000331  -0.000730   0.000331   0.002996
     2  O    0.000574   0.000574  -0.000428   0.000112  -0.000521   0.000574
     3  H   -0.000032  -0.000032   0.000032  -0.000633   0.000003  -0.000002
     4  O    0.001515   0.000370  -0.001258  -0.000670  -0.000092   0.001515
     5  H   -0.000035  -0.000003  -0.000242   0.000003   0.000000  -0.000035
     6  O   -0.000156  -0.000156   0.000691   0.001525   0.000691  -0.007005
     7  H    0.000000   0.000000  -0.000003  -0.000032  -0.000035   0.001258
     8  O    0.000574   0.000574  -0.000521  -0.000070  -0.000428   0.000574
     9  H   -0.000032  -0.000032   0.000003   0.000000   0.000032  -0.000002
    10  O    0.000370   0.001515  -0.000092  -0.000670  -0.001258   0.000370
    11  H   -0.000003  -0.000035   0.000000   0.000032  -0.000242  -0.000003
    12  O   -0.007005  -0.007005   0.000691   0.000217   0.000691  -0.000156
    13  H    0.004710   0.001258  -0.000035  -0.000002  -0.000003   0.000000
    14  H    0.001258   0.004710  -0.000003  -0.000002  -0.000035   0.000000
    15  H   -0.000035  -0.000003   0.001223   0.000032   0.000000  -0.000035
    16  H   -0.000002  -0.000002   0.000032   0.001456   0.000003  -0.000032
    17  H   -0.000003  -0.000035   0.000000   0.000003   0.001223  -0.000003
    18  H    0.000000   0.000000  -0.000035  -0.000032  -0.000003   0.004710
    19  H   -0.000002  -0.000002   0.000003  -0.000000   0.000032  -0.000032
              19
     1  Mn  -0.000730
     2  O   -0.000070
     3  H    0.000000
     4  O   -0.000670
     5  H    0.000032
     6  O    0.001525
     7  H   -0.000032
     8  O    0.000112
     9  H   -0.000633
    10  O   -0.000670
    11  H    0.000003
    12  O    0.000217
    13  H   -0.000002
    14  H   -0.000002
    15  H    0.000003
    16  H   -0.000000
    17  H    0.000032
    18  H   -0.000032
    19  H    0.001456
 Mulliken charges and spin densities:
               1          2
     1  Mn   1.369169   3.734613
     2  O   -0.578151   0.030392
     3  H    0.440164   0.000538
     4  O   -0.582763   0.026099
     5  H    0.436952   0.000387
     6  O   -0.605128   0.064963
     7  H    0.413602   0.004695
     8  O   -0.578151   0.030392
     9  H    0.440165   0.000538
    10  O   -0.582761   0.026099
    11  H    0.436953   0.000387
    12  O   -0.605128   0.064963
    13  H    0.413602   0.004695
    14  H    0.413602   0.004695
    15  H    0.436970   0.000387
    16  H    0.440164   0.000538
    17  H    0.436971   0.000387
    18  H    0.413602   0.004695
    19  H    0.440164   0.000538
 Sum of Mulliken charges =   3.00000   4.00000
 Mulliken charges and spin densities with hydrogens summed into heavy atoms:
               1          2
     1  Mn   1.369169   3.734613
     2  O    0.302178   0.031468
     4  O    0.291159   0.026873
     6  O    0.222076   0.074352
     8  O    0.302178   0.031468
    10  O    0.291163   0.026873
    12  O    0.222076   0.074352
 Electronic spatial extent (au):  <R**2>=           1066.7361
 Charge=              3.0000 electrons
 Dipole moment (field-independent basis, Debye):
    X=             -0.0002    Y=              0.0001    Z=             -0.0000  Tot=              0.0002
 Quadrupole moment (field-independent basis, Debye-Ang):
   XX=             -8.4590   YY=             -6.8876   ZZ=             -6.4197
   XY=             -0.0000   XZ=              0.0009   YZ=              0.0007
 Traceless Quadrupole moment (field-independent basis, Debye-Ang):
   XX=             -1.2036   YY=              0.3678   ZZ=              0.8357
   XY=             -0.0000   XZ=              0.0009   YZ=              0.0007
 Octapole moment (field-independent basis, Debye-Ang**2):
  XXX=             -0.0002  YYY=             -0.0000  ZZZ=              0.0000  XYY=             -0.0013
  XXY=             -0.0002  XXZ=             -0.0000  XZZ=             -0.0001  YZZ=              0.0007
  YYZ=             -0.0000  XYZ=              0.0026
 Hexadecapole moment (field-independent basis, Debye-Ang**3):
 XXXX=            -76.1196 YYYY=            -49.6670 ZZZZ=            -48.7155 XXXY=              0.0004
 XXXZ=             -0.0096 YYYX=              0.0002 YYYZ=             -0.6099 ZZZX=              0.0089
 ZZZY=              0.5920 XXYY=            -93.8694 XXZZ=            -96.8858 YYZZ=            -82.6976
 XXYZ=             -0.0114 YYXZ=              0.0067 ZZXY=             -0.0008
 N-N= 6.638967002246D+02 E-N=-5.096113133707D+03  KE= 1.603400899050D+03
                          Isotropic Fermi Contact Couplings
        Atom                 a.u.       MegaHertz       Gauss      10(-4) cm-1
     1  Mn(55)             0.35742      98.76856      35.24308      32.94564
     2  O(17)             -0.00211       0.32019       0.11425       0.10680
     3  H(1)               0.00019       0.21299       0.07600       0.07105
     4  O(17)              0.00255      -0.38712      -0.13813      -0.12913
     5  H(1)              -0.00001      -0.00656      -0.00234      -0.00219
     6  O(17)              0.15319     -23.21579      -8.28397      -7.74395
     7  H(1)               0.00212       2.36764       0.84483       0.78976
     8  O(17)             -0.00211       0.32019       0.11425       0.10680
     9  H(1)               0.00019       0.21304       0.07602       0.07106
    10  O(17)              0.00255      -0.38699      -0.13809      -0.12909
    11  H(1)              -0.00001      -0.00659      -0.00235      -0.00220
    12  O(17)              0.15319     -23.21584      -8.28399      -7.74397
    13  H(1)               0.00212       2.36763       0.84483       0.78976
    14  H(1)               0.00212       2.36767       0.84484       0.78977
    15  H(1)              -0.00001      -0.00627      -0.00224      -0.00209
    16  H(1)               0.00019       0.21302       0.07601       0.07106
    17  H(1)              -0.00001      -0.00630      -0.00225      -0.00210
    18  H(1)               0.00212       2.36764       0.84483       0.78976
    19  H(1)               0.00019       0.21297       0.07599       0.07104
 --------------------------------------------------------
       Center         ----  Spin Dipole Couplings  ----
                      3XX-RR        3YY-RR        3ZZ-RR
 --------------------------------------------------------
     1   Atom        2.091465     -0.939042     -1.152423
     2   Atom       -0.134824      0.201754     -0.066930
     3   Atom       -0.018862     -0.028584      0.047445
     4   Atom        0.177598     -0.047564     -0.130034
     5   Atom       -0.027206      0.046336     -0.019130
     6   Atom        0.161459     -0.209425      0.047966
     7   Atom        0.040140     -0.009972     -0.030168
     8   Atom       -0.134824      0.201754     -0.066930
     9   Atom       -0.018866     -0.028584      0.047450
    10   Atom        0.177602     -0.047568     -0.130034
    11   Atom       -0.027206      0.046336     -0.019130
    12   Atom        0.161458     -0.209425      0.047968
    13   Atom        0.040139     -0.009971     -0.030168
    14   Atom        0.040140     -0.009972     -0.030168
    15   Atom       -0.027208      0.046685     -0.019477
    16   Atom       -0.018866     -0.028584      0.047450
    17   Atom       -0.027208      0.046685     -0.019477
    18   Atom        0.040140     -0.009971     -0.030168
    19   Atom       -0.018862     -0.028584      0.047445
 --------------------------------------------------------
                        XY            XZ            YZ
 --------------------------------------------------------
     1   Atom        0.000002     -0.000111     -0.000634
     2   Atom       -0.000060      0.000003     -0.000854
     3   Atom        0.000092      0.029609      0.000235
     4   Atom        0.000004      0.000084     -0.000255
     5   Atom        0.000009     -0.000002     -0.028965
     6   Atom       -0.000001      0.000001      0.000809
     7   Atom        0.028282     -0.000092     -0.000065
     8   Atom        0.000070      0.000002     -0.000857
     9   Atom       -0.000092     -0.029605      0.000236
    10   Atom       -0.000000     -0.000180     -0.000255
    11   Atom       -0.000018      0.000005     -0.028965
    12   Atom        0.000003      0.000000      0.000744
    13   Atom        0.028283     -0.000084     -0.000059
    14   Atom       -0.028282      0.000079     -0.000057
    15   Atom       -0.000008     -0.000002      0.028568
    16   Atom       -0.000089     -0.029605      0.000223
    17   Atom        0.000017      0.000004      0.028568
    18   Atom       -0.028283      0.000087     -0.000062
    19   Atom        0.000089      0.029609      0.000223
 --------------------------------------------------------


 ---------------------------------------------------------------------------------
              Anisotropic Spin Dipole Couplings in Principal Axis System
 ---------------------------------------------------------------------------------

       Atom             a.u.   MegaHertz   Gauss  10(-4) cm-1        Axes

              Baa    -1.1524  -152.053   -54.256   -50.719  0.0000  0.0030  1.0000
     1 Mn(55) Bbb    -0.9390  -123.898   -44.210   -41.328 -0.0000  1.0000 -0.0030
              Bcc     2.0915   275.951    98.466    92.047  1.0000  0.0000 -0.0000
 
              Baa    -0.1348     9.756     3.481     3.254  1.0000  0.0002 -0.0000
     2 O(17)  Bbb    -0.0669     4.843     1.728     1.616  0.0000  0.0032  1.0000
              Bcc     0.2018   -14.599    -5.209    -4.870 -0.0002  1.0000 -0.0032
 
              Baa    -0.0302   -16.091    -5.742    -5.367  0.9343 -0.0013 -0.3565
     3 H(1)   Bbb    -0.0286   -15.251    -5.442    -5.087  0.0002  1.0000 -0.0032
              Bcc     0.0587    31.343    11.184    10.455  0.3565  0.0029  0.9343
 
              Baa    -0.1300     9.409     3.357     3.139 -0.0003  0.0031  1.0000
     4 O(17)  Bbb    -0.0476     3.442     1.228     1.148 -0.0000  1.0000 -0.0031
              Bcc     0.1776   -12.851    -4.586    -4.287  1.0000  0.0000  0.0003
 
              Baa    -0.0301   -16.062    -5.731    -5.358 -0.0004  0.3543  0.9351
     5 H(1)   Bbb    -0.0272   -14.516    -5.180    -4.842  1.0000  0.0000  0.0004
              Bcc     0.0573    30.578    10.911    10.200  0.0001  0.9351 -0.3543
 
              Baa    -0.2094    15.154     5.407     5.055  0.0000  1.0000 -0.0031
     6 O(17)  Bbb     0.0480    -3.471    -1.239    -1.158 -0.0000  0.0031  1.0000
              Bcc     0.1615   -11.683    -4.169    -3.897  1.0000 -0.0000  0.0000
 
              Baa    -0.0302   -16.096    -5.744    -5.369  0.0000  0.0032  1.0000
     7 H(1)   Bbb    -0.0227   -12.112    -4.322    -4.040 -0.4104  0.9119 -0.0029
              Bcc     0.0529    28.208    10.065     9.409  0.9119  0.4104 -0.0013
 
              Baa    -0.1348     9.756     3.481     3.254  1.0000 -0.0002 -0.0000
     8 O(17)  Bbb    -0.0669     4.843     1.728     1.616  0.0000  0.0032  1.0000
              Bcc     0.2018   -14.599    -5.209    -4.870  0.0002  1.0000 -0.0032
 
              Baa    -0.0302   -16.091    -5.742    -5.367  0.9343  0.0012  0.3564
     9 H(1)   Bbb    -0.0286   -15.251    -5.442    -5.087 -0.0001  1.0000 -0.0032
              Bcc     0.0587    31.343    11.184    10.455 -0.3564  0.0029  0.9343
 
              Baa    -0.1300     9.409     3.357     3.139  0.0006  0.0031  1.0000
    10 O(17)  Bbb    -0.0476     3.442     1.228     1.148 -0.0000  1.0000 -0.0031
              Bcc     0.1776   -12.851    -4.586    -4.287  1.0000 -0.0000 -0.0006
 
              Baa    -0.0301   -16.062    -5.731    -5.358  0.0007  0.3543  0.9351
    11 H(1)   Bbb    -0.0272   -14.516    -5.180    -4.842  1.0000 -0.0000 -0.0008
              Bcc     0.0573    30.578    10.911    10.200 -0.0002  0.9351 -0.3543
 
              Baa    -0.2094    15.154     5.407     5.055 -0.0000  1.0000 -0.0029
    12 O(17)  Bbb     0.0480    -3.471    -1.239    -1.158 -0.0000  0.0029  1.0000
              Bcc     0.1615   -11.683    -4.169    -3.897  1.0000  0.0000  0.0000
 
              Baa    -0.0302   -16.096    -5.744    -5.369  0.0000  0.0029  1.0000
    13 H(1)   Bbb    -0.0227   -12.112    -4.322    -4.040 -0.4104  0.9119 -0.0026
              Bcc     0.0529    28.208    10.065     9.409  0.9119  0.4104 -0.0012
 
              Baa    -0.0302   -16.096    -5.744    -5.369  0.0000  0.0029  1.0000
    14 H(1)   Bbb    -0.0227   -12.112    -4.322    -4.040  0.4104  0.9119 -0.0026
              Bcc     0.0529    28.208    10.065     9.409  0.9119 -0.4104  0.0011
 
              Baa    -0.0301   -16.063    -5.732    -5.358 -0.0003 -0.3487  0.9372
    15 H(1)   Bbb    -0.0272   -14.517    -5.180    -4.842  1.0000 -0.0000  0.0003
              Bcc     0.0573    30.580    10.912    10.200 -0.0001  0.9372  0.3487
 
              Baa    -0.0302   -16.091    -5.742    -5.368  0.9343  0.0020  0.3564
    16 H(1)   Bbb    -0.0286   -15.251    -5.442    -5.087 -0.0009  1.0000 -0.0033
              Bcc     0.0587    31.343    11.184    10.455 -0.3564  0.0028  0.9343
 
              Baa    -0.0301   -16.063    -5.732    -5.358  0.0007 -0.3487  0.9372
    17 H(1)   Bbb    -0.0272   -14.517    -5.180    -4.842  1.0000  0.0000 -0.0007
              Bcc     0.0573    30.580    10.912    10.200  0.0002  0.9372  0.3487
 
              Baa    -0.0302   -16.096    -5.744    -5.369  0.0000  0.0031  1.0000
    18 H(1)   Bbb    -0.0227   -12.112    -4.322    -4.040  0.4104  0.9119 -0.0029
              Bcc     0.0529    28.208    10.065     9.409  0.9119 -0.4104  0.0013
 
              Baa    -0.0302   -16.091    -5.742    -5.367  0.9343 -0.0021 -0.3565
    19 H(1)   Bbb    -0.0286   -15.251    -5.442    -5.087  0.0010  1.0000 -0.0033
              Bcc     0.0587    31.343    11.184    10.455  0.3565  0.0027  0.9343
 

 ---------------------------------------------------------------------------------

 No NMR shielding tensors so no spin-rotation constants.
 Leave Link  601 at Thu May 23 15:45:35 2024, MaxMem= 26843545600 cpu:              28.9 elap:               0.3
 (Enter /gpfs/fs1/soft/improv/software/custom-built/gaussian/g16/l9999.exe)
 Unable to Open any file for archive entry.
 1\1\GINC-I073\SP\UBLYP\Gen\H12Mn1O6(3+,5)\HHARB\23-May-2024\0\\#p BLYP
  empiricaldispersion=gd3 scf=(maxcycles=500,xqc,maxconventional=50) sc
 rf=(cpcm,solvent=water) geom=allcheck guess=read chkbasis\\Title\\3,5\
 Mn,-0.7848176987,0.7129514967,0.0317937795\O,-1.3136226813,2.603312572
 7,-0.2751457163\H,-1.424113068,3.0284763476,-1.1599527295\O,1.14209966
 43,1.2553466906,0.0517597971\H,1.9097208036,0.649190393,0.1809559167\O
 ,-0.8965809085,1.0308895435,2.1824749271\H,-1.6824771538,0.9051084676,
 2.7613587356\O,-0.2560175422,-1.1774098908,0.3387394895\H,-0.062766481
 9,-1.8381197239,-0.3697622953\O,-2.7117345348,0.1705580278,0.011839123
 1\H,-3.4793149048,0.776598999,-0.1181635405\O,-0.6730399588,0.39501785
 89,-2.1188886086\H,0.1128033899,0.5210088549,-2.697798405\H,-1.3978865
 506,0.0955374145,-2.7134211654\H,1.4831164954,2.1736044698,-0.06601539
 98\H,-1.5071996235,3.2639239537,0.4333574263\H,-3.0527865232,-0.747598
 0938,0.1303289203\H,-0.1716694377,1.3301648133,2.7770317977\H,-0.14523
 08552,-1.602482425,1.2235533576\\Version=ES64L-G16RevC.02\State=5-A\HF
 =-1609.1133136\S2=6.017768\S2-1=0.\S2A=6.000033\RMSD=8.995e-09\Dipole=
 -0.0000212,-0.0000165,-0.0000655\Quadrupole=0.2952946,0.5630372,-0.858
 3318,-0.0797254,0.0738313,-0.2202713\PG=C01 [X(H12Mn1O6)]\\@
 The archive entry for this job was punched.


      SCIENCE SANS CONSCIENCE N'EST QUE RUINE DE L'AME.

                                                  -- RABELAIS
 Job cpu time:       0 days  1 hours 31 minutes 33.3 seconds.
 Elapsed time:       0 days  0 hours  0 minutes 46.5 seconds.
 File lengths (MBytes):  RWF=    121 Int=      0 D2E=      0 Chk=     32 Scr=      1
 Normal termination of Gaussian 16 at Thu May 23 15:45:35 2024.
