 Entering Gaussian System, Link 0=g16
 Input=Mn_3_B3LYP.com
 Output=Mn_3_B3LYP.log
 Initial command:
 /gpfs/fs1/soft/improv/software/custom-built/gaussian/g16/l1.exe "/scratch/Gau-294489.inp" -scrdir="/scratch/"
 Default CPUs for threads: 0-127
 Default linda workers: i255.lcrc.anl.gov
 Default is to use 128 SMP processors on each worker.
 Entering Link 1 = /gpfs/fs1/soft/improv/software/custom-built/gaussian/g16/l1.exe PID=    294490.
  
 Copyright (c) 1988-2021, Gaussian, Inc.  All Rights Reserved.
  
 This is part of the Gaussian(R) 16 program.  It is based on
 the Gaussian(R) 09 system (copyright 2009, Gaussian, Inc.),
 the Gaussian(R) 03 system (copyright 2003, Gaussian, Inc.),
 the Gaussian(R) 98 system (copyright 1998, Gaussian, Inc.),
 the Gaussian(R) 94 system (copyright 1995, Gaussian, Inc.),
 the Gaussian 92(TM) system (copyright 1992, Gaussian, Inc.),
 the Gaussian 90(TM) system (copyright 1990, Gaussian, Inc.),
 the Gaussian 88(TM) system (copyright 1988, Gaussian, Inc.),
 the Gaussian 86(TM) system (copyright 1986, Carnegie Mellon
 University), and the Gaussian 82(TM) system (copyright 1983,
 Carnegie Mellon University). Gaussian is a federally registered
 trademark of Gaussian, Inc.
  
 This software contains proprietary and confidential information,
 including trade secrets, belonging to Gaussian, Inc.
  
 This software is provided under written license and may be
 used, copied, transmitted, or stored only in accord with that
 written license.
  
 The following legend is applicable only to US Government
 contracts under FAR:
  
                    RESTRICTED RIGHTS LEGEND
  
 Use, reproduction and disclosure by the US Government is
 subject to restrictions as set forth in subparagraphs (a)
 and (c) of the Commercial Computer Software - Restricted
 Rights clause in FAR 52.227-19.
  
 Gaussian, Inc.
 340 Quinnipiac St., Bldg. 40, Wallingford CT 06492
  
  
 ---------------------------------------------------------------
 Warning -- This program may not be used in any manner that
 competes with the business of Gaussian, Inc. or will provide
 assistance to any competitor of Gaussian, Inc.  The licensee
 of this program is prohibited from giving any competitor of
 Gaussian, Inc. access to this program.  By using this program,
 the user acknowledges that Gaussian, Inc. is engaged in the
 business of creating and licensing software in the field of
 computational chemistry and represents and warrants to the
 licensee that it is not a competitor of Gaussian, Inc. and that
 it will not use this program in any manner prohibited above.
 ---------------------------------------------------------------
  

 Cite this work as:
 Gaussian 16, Revision C.02,
 M. J. Frisch, G. W. Trucks, H. B. Schlegel, G. E. Scuseria, 
 M. A. Robb, J. R. Cheeseman, G. Scalmani, V. Barone, 
 G. A. Petersson, H. Nakatsuji, X. Li, M. Caricato, A. V. Marenich, 
 J. Bloino, B. G. Janesko, R. Gomperts, B. Mennucci, H. P. Hratchian, 
 J. V. Ortiz, A. F. Izmaylov, J. L. Sonnenberg, D. Williams-Young, 
 F. Ding, F. Lipparini, F. Egidi, J. Goings, B. Peng, A. Petrone, 
 T. Henderson, D. Ranasinghe, V. G. Zakrzewski, J. Gao, N. Rega, 
 G. Zheng, W. Liang, M. Hada, M. Ehara, K. Toyota, R. Fukuda, 
 J. Hasegawa, M. Ishida, T. Nakajima, Y. Honda, O. Kitao, H. Nakai, 
 T. Vreven, K. Throssell, J. A. Montgomery, Jr., J. E. Peralta, 
 F. Ogliaro, M. J. Bearpark, J. J. Heyd, E. N. Brothers, K. N. Kudin, 
 V. N. Staroverov, T. A. Keith, R. Kobayashi, J. Normand, 
 K. Raghavachari, A. P. Rendell, J. C. Burant, S. S. Iyengar, 
 J. Tomasi, M. Cossi, J. M. Millam, M. Klene, C. Adamo, R. Cammi, 
 J. W. Ochterski, R. L. Martin, K. Morokuma, O. Farkas, 
 J. B. Foresman, and D. J. Fox, Gaussian, Inc., Wallingford CT, 2019.
 
 ******************************************
 Gaussian 16:  ES64L-G16RevC.02  7-Dec-2021
                23-May-2024 
 ******************************************
 %chk=Mn_3_B3LYP.chk
 SetSPE:  set environment variable "OMP_PROC_BIND" = "true"
 SetSPE:  set environment variable "OMP_PLACES" = "{0},{1},{2},{3},{4},{5},{6},{7},{8},{9},{10},{11},{12},{13},{14},{15},{16},{17},{18},{19},{20},{21},{22},{23},{24},{25},{26},{27},{28},{29},{30},{31},{32},{33},{34},{35},{36},{37},{38},{39},{40},{41},{42},{43},{44},{45},{46},{47},{48},{49},{50},{51},{52},{53},{54},{55},{56},{57},{58},{59},{60},{61},{62},{63},{64},{65},{66},{67},{68},{69},{70},{71},{72},{73},{74},{75},{76},{77},{78},{79},{80},{81},{82},{83},{84},{85},{86},{87},{88},{89},{90},{91},{92},{93},{94},{95},{96},{97},{98},{99},{100},{101},{102},{103},{104},{105},{106},{107},{108},{109},{110},{111},{112},{113},{114},{115},{116},{117},{118},{119},{120},{121},{122},{123},{124},{125},{126},{127}"
 SetLPE:    new flags="-opt 'Tsnet.Node.lindarsharg: ssh'  -nodelist 'i255.lcrc.anl.gov' -env GAUSS_MDEF=26843545600 -env GAUSS_EXEDIR="/gpfs/fs1/soft/improv/software/custom-built/gaussian/g16/bsd:/gpfs/fs1/soft/improv/software/custom-built/gaussian/g16" -env "OMP_PROC_BIND=true" -env "OMP_PLACES={0},{1},{2},{3},{4},{5},{6},{7},{8},{9},{10},{11},{12},{13},{14},{15},{16},{17},{18},{19},{20},{21},{22},{23},{24},{25},{26},{27},{28},{29},{30},{31},{32},{33},{34},{35},{36},{37},{38},{39},{40},{41},{42},{43},{44},{45},{46},{47},{48},{49},{50},{51},{52},{53},{54},{55},{56},{57},{58},{59},{60},{61},{62},{63},{64},{65},{66},{67},{68},{69},{70},{71},{72},{73},{74},{75},{76},{77},{78},{79},{80},{81},{82},{83},{84},{85},{86},{87},{88},{89},{90},{91},{92},{93},{94},{95},{96},{97},{98},{99},{100},{101},{102},{103},{104},{105},{106},{107},{108},{109},{110},{111},{112},{113},{114},{115},{116},{117},{118},{119},{120},{121},{122},{123},{124},{125},{126},{127}" -env GAUSS_ADEF="0,1,2,3,4,5,6,7,8,9,10,11,12,13,14,15,16,17,18,19,20,21,22,23,24,25,26,27,28,29,30,31,32,33,34,35,36,37,38,39,40,41,42,43,44,45,46,47,48,49,50,51,52,53,54,55,56,57,58,59,60,61,62,63,64,65,66,67,68,69,70,71,72,73,74,75,76,77,78,79,80,81,82,83,84,85,86,87,88,89,90,91,92,93,94,95,96,97,98,99,100,101,102,103,104,105,106,107,108,109,110,111,112,113,114,115,116,117,118,119,120,121,122,123,124,125,126,127""
 Will use up to    1 processors via Linda.
 ----------------------------------------------------------------------
 #p B3LYP empiricaldispersion=gd3 6-31+G(2df,p) opt=(cartesian,calcall,
 maxcycles=500) freq scf=(maxcycles=500,xqc,maxconventional=50)
 ----------------------------------------------------------------------
 1/6=500,10=4,18=10,26=3,38=1/1,3;
 2/12=2,17=6,18=5,29=2,40=1/2;
 3/5=1,6=6,7=114,11=2,25=1,30=1,71=2,74=-5,124=31,140=1/1,2,3;
 4//1;
 5/5=2,7=500,8=3,13=1,38=5,85=50/2,8;
 8/6=4,10=90,11=11/1;
 11/6=1,8=1,9=11,15=111,16=1/1,2,10;
 10/6=1/2;
 6/7=2,8=2,9=2,10=2,18=1,28=1/1;
 7/7=1,10=1,25=1/1,2,3,16;
 1/6=500,10=4,18=10,26=3/3(3);
 2/29=1/2;
 7/7=1,8=1,9=1,25=1,44=-1/16;
 99/12=1/99;
 2/29=1/2;
 3/5=1,6=6,7=114,11=2,25=1,30=1,71=2,74=-5,124=31,140=1/1,2,3;
 4/5=5,16=3,69=1/1;
 5/5=2,7=500,8=3,13=1,38=5,85=50/2,8;
 8/6=4,10=90,11=11/1;
 11/6=1,8=1,9=11,15=111,16=1/1,2,10;
 10/6=1/2;
 7/7=1,10=1,25=1/1,2,3,16;
 1/6=500,10=4,18=10,26=3/3(-8);
 2/29=1/2;
 6/7=2,8=2,9=2,10=2,18=1,19=2,28=1/1;
 7/7=1,8=1,9=1,25=1,44=-1/16;
 99/12=1/99;
 Leave Link    1 at Thu May 23 14:15:59 2024, MaxMem=           0 cpu:               4.3 elap:               0.1
 (Enter /gpfs/fs1/soft/improv/software/custom-built/gaussian/g16/l101.exe)
 -----
 Title
 -----
 Symbolic Z-matrix:
 Charge =  3 Multiplicity = 5
 Mn                   -0.79304   0.81881  -0.09491 
 O                    -1.20497   2.57394  -0.35687 
 H                    -2.12106   2.64974  -0.63312 
 O                     0.99012   1.19063  -0.05794 
 H                     1.42696   0.5998    0.55971 
 O                    -0.81752   1.03069   1.71365 
 H                    -1.02108   0.1906    2.13133 
 O                    -0.38507  -0.93351   0.17118 
 H                    -1.15682  -1.47369  -0.01433 
 O                    -2.57341   0.45178  -0.12186 
 H                    -2.77756  -0.08744  -0.88929 
 O                    -0.76966   0.60461  -1.90111 
 H                     0.09872   0.83457  -2.23949 
 H                    -0.96534  -0.30999  -2.11742 
 H                     1.12208   2.09943   0.22124 
 H                    -1.07671   3.0584    0.46184 
 H                    -2.81407  -0.02398   0.6765 
 H                     0.0422    1.33615   2.01181 
 H                    -0.11532  -1.06446   1.08312 
 
 ITRead=  0  0  0  0  0  0  0  0  0  0  0  0  0  0  0  0  0  0  0
 MicOpt= -1 -1 -1 -1 -1 -1 -1 -1 -1 -1 -1 -1 -1 -1 -1 -1 -1 -1 -1
 NAtoms=     19 NQM=       19 NQMF=       0 NMMI=      0 NMMIF=      0
                NMic=       0 NMicF=      0.
                    Isotopes and Nuclear Properties:
 (Nuclear quadrupole moments (NQMom) in fm**2, nuclear magnetic moments (NMagM)
  in nuclear magnetons)

  Atom         1           2           3           4           5           6           7           8           9          10
 IAtWgt=          55          16           1          16           1          16           1          16           1          16
 AtmWgt=  54.9380463  15.9949146   1.0078250  15.9949146   1.0078250  15.9949146   1.0078250  15.9949146   1.0078250  15.9949146
 NucSpn=           5           0           1           0           1           0           1           0           1           0
 AtZEff=  -0.0000000  -0.0000000  -0.0000000  -0.0000000  -0.0000000  -0.0000000  -0.0000000  -0.0000000  -0.0000000  -0.0000000
 NQMom=   33.0000000   0.0000000   0.0000000   0.0000000   0.0000000   0.0000000   0.0000000   0.0000000   0.0000000   0.0000000
 NMagM=    3.4532000   0.0000000   2.7928460   0.0000000   2.7928460   0.0000000   2.7928460   0.0000000   2.7928460   0.0000000
 AtZNuc=  25.0000000   8.0000000   1.0000000   8.0000000   1.0000000   8.0000000   1.0000000   8.0000000   1.0000000   8.0000000

  Atom        11          12          13          14          15          16          17          18          19
 IAtWgt=           1          16           1           1           1           1           1           1           1
 AtmWgt=   1.0078250  15.9949146   1.0078250   1.0078250   1.0078250   1.0078250   1.0078250   1.0078250   1.0078250
 NucSpn=           1           0           1           1           1           1           1           1           1
 AtZEff=  -0.0000000  -0.0000000  -0.0000000  -0.0000000  -0.0000000  -0.0000000  -0.0000000  -0.0000000  -0.0000000
 NQMom=    0.0000000   0.0000000   0.0000000   0.0000000   0.0000000   0.0000000   0.0000000   0.0000000   0.0000000
 NMagM=    2.7928460   0.0000000   2.7928460   2.7928460   2.7928460   2.7928460   2.7928460   2.7928460   2.7928460
 AtZNuc=   1.0000000   8.0000000   1.0000000   1.0000000   1.0000000   1.0000000   1.0000000   1.0000000   1.0000000
 Leave Link  101 at Thu May 23 14:15:59 2024, MaxMem= 26843545600 cpu:               0.4 elap:               0.1
 (Enter /gpfs/fs1/soft/improv/software/custom-built/gaussian/g16/l103.exe)

 GradGradGradGradGradGradGradGradGradGradGradGradGradGradGradGradGradGrad
 Berny optimization.
 Initialization pass.
 No Z-matrix variables, so optimization will use Cartesian coordinates.
 Trust Radius=3.00D-01 FncErr=1.00D-07 GrdErr=1.00D-06 EigMax=2.50D+02 EigMin=1.00D-04
 Number of steps in this run=    114 maximum allowed number of steps=    114.
 GradGradGradGradGradGradGradGradGradGradGradGradGradGradGradGradGradGrad

 Leave Link  103 at Thu May 23 14:15:59 2024, MaxMem= 26843545600 cpu:               0.4 elap:               0.0
 (Enter /gpfs/fs1/soft/improv/software/custom-built/gaussian/g16/l202.exe)
 ---------------------------------------------------------------------------------------------------
                            Z-MATRIX (ANGSTROMS AND DEGREES)
   CD    Cent   Atom    N1       Length/X        N2       Alpha/Y        N3        Beta/Z          J
 ---------------------------------------------------------------------------------------------------
      1      1  Mn       0  -0.793037          0.818805         -0.094905
      2      2  O        0  -1.204971          2.573941         -0.356874
      3      3  H        0  -2.121063          2.649743         -0.633122
      4      4  O        0   0.990122          1.190635         -0.057941
      5      5  H        0   1.426962          0.599798          0.559707
      6      6  O        0  -0.817519          1.030691          1.713650
      7      7  H        0  -1.021079          0.190602          2.131326
      8      8  O        0  -0.385068         -0.933506          0.171177
      9      9  H        0  -1.156817         -1.473692         -0.014327
     10     10  O        0  -2.573405          0.451778         -0.121857
     11     11  H        0  -2.777557         -0.087440         -0.889285
     12     12  O        0  -0.769659          0.604612         -1.901109
     13     13  H        0   0.098725          0.834573         -2.239490
     14     14  H        0  -0.965336         -0.309994         -2.117418
     15     15  H        0   1.122081          2.099426          0.221242
     16     16  H        0  -1.076711          3.058396          0.461841
     17     17  H        0  -2.814074         -0.023981          0.676500
     18     18  H        0   0.042204          1.336153          2.011809
     19     19  H        0  -0.115315         -1.064459          1.083123
 ---------------------------------------------------------------------------------------------------
                         Z-Matrix orientation:                         
 ---------------------------------------------------------------------
 Center     Atomic      Atomic             Coordinates (Angstroms)
 Number     Number       Type             X           Y           Z
 ---------------------------------------------------------------------
      1         25           0       -0.793037    0.818805   -0.094905
      2          8           0       -1.204971    2.573941   -0.356874
      3          1           0       -2.121063    2.649743   -0.633122
      4          8           0        0.990122    1.190635   -0.057941
      5          1           0        1.426962    0.599798    0.559707
      6          8           0       -0.817519    1.030691    1.713650
      7          1           0       -1.021079    0.190602    2.131326
      8          8           0       -0.385068   -0.933506    0.171177
      9          1           0       -1.156817   -1.473692   -0.014327
     10          8           0       -2.573405    0.451778   -0.121857
     11          1           0       -2.777557   -0.087440   -0.889285
     12          8           0       -0.769659    0.604612   -1.901109
     13          1           0        0.098725    0.834573   -2.239490
     14          1           0       -0.965336   -0.309994   -2.117418
     15          1           0        1.122081    2.099426    0.221242
     16          1           0       -1.076711    3.058396    0.461841
     17          1           0       -2.814074   -0.023981    0.676500
     18          1           0        0.042204    1.336153    2.011809
     19          1           0       -0.115315   -1.064459    1.083123
 ---------------------------------------------------------------------
                    Distance matrix (angstroms):
                    1          2          3          4          5
     1  Mn   0.000000
     2  O    1.821762   0.000000
     3  H    2.325008   0.959835   0.000000
     4  O    1.821889   2.611767   3.484150   0.000000
     5  H    2.324839   3.415322   4.267739   0.959899   0.000000
     6  O    1.821090   2.611285   3.134947   2.536076   2.560263
     7  H    2.324381   3.450400   3.859988   3.136540   2.937743
     8  O    1.818745   3.640503   4.062050   2.540791   2.405292
     9  H    2.322579   4.062387   4.279649   3.421971   3.362259
    10  O    1.818006   2.536025   2.301533   3.639880   4.060711
    11  H    2.321775   3.136788   2.826442   4.064482   4.499984
    12  O    1.819010   2.540161   2.759827   2.614866   3.298603
    13  H    2.322657   2.875634   3.286750   2.383386   3.107223
    14  H    2.322591   3.387332   3.506977   3.212032   3.703756
    15  H    2.325429   2.444290   3.398642   0.959822   1.567289
    16  H    2.325125   0.959918   1.567358   2.833814   3.510364
    17  H    2.321626   3.225876   3.056824   4.060370   4.288255
    18  H    2.324547   2.949275   3.660724   2.281137   2.137375
    19  H    2.322443   4.061883   4.556733   2.758526   2.328591
                    6          7          8          9         10
     6  O    0.000000
     7  H    0.960021   0.000000
     8  O    2.534622   2.347406   0.000000
     9  H    3.061530   2.718847   0.960108   0.000000
    10  O    2.605257   2.748593   2.606473   2.392848   0.000000
    11  H    3.444886   3.505227   2.750347   2.305222   0.959885
    12  O    3.640099   4.061422   2.609231   2.833582   2.538227
    13  H    4.062670   4.557707   3.028445   3.443229   3.430916
    14  H    4.061572   4.278496   2.441955   2.411193   2.673658
    15  H    2.670492   3.447487   3.387136   4.244531   4.060675
    16  H    2.397039   3.318813   4.061790   4.557738   3.061904
    17  H    2.484803   2.318921   2.642472   2.307685   0.960023
    18  H    0.959858   1.567527   2.953276   3.665802   3.489421
    19  H    2.297892   1.869309   0.959980   1.567353   3.129403
                   11         12         13         14         15
    11  H    0.000000
    12  O    2.352526   0.000000
    13  H    3.308498   0.959935   0.000000
    14  H    2.200452   0.959991   1.567533   0.000000
    15  H    4.606825   3.212091   2.949969   3.953725   0.000000
    16  H    3.822919   3.420362   3.691102   4.243941   2.410850
    17  H    1.567497   3.349453   4.210050   3.362383   4.495491
    18  H    4.288824   4.062660   4.281159   4.558009   2.225950
    19  H    3.454344   3.481323   3.833001   3.396353   3.504877
                   16         17         18         19
    16  H    0.000000
    17  H    3.544793   0.000000
    18  H    2.573032   3.433851   0.000000
    19  H    4.278809   2.920828   2.578800   0.000000
 Stoichiometry    H12MnO6(3+,5)
 Framework group  C1[X(H12MnO6)]
 Deg. of freedom    51
 Full point group                 C1      NOp   1
 Largest Abelian subgroup         C1      NOp   1
 Largest concise Abelian subgroup C1      NOp   1
                         Standard orientation:                         
 ---------------------------------------------------------------------
 Center     Atomic      Atomic             Coordinates (Angstroms)
 Number     Number       Type             X           Y           Z
 ---------------------------------------------------------------------
      1         25           0       -0.020445   -0.030121    0.009875
      2          8           0       -0.320808   -1.687588   -0.683958
      3          1           0       -1.137042   -1.679899   -1.188920
      4          8           0        1.254655   -0.678279    1.138277
      5          1           0        1.943361   -0.019749    1.254154
      6          8           0        1.298207    0.294245   -1.203513
      7          1           0        1.382040    1.240910   -1.339297
      8          8           0        0.280486    1.626554    0.697409
      9          1           0       -0.431358    2.215648    0.436540
     10          8           0       -1.285904    0.615907   -1.124325
     11          1           0       -2.034842    0.938661   -0.618064
     12          8           0       -1.338362   -0.351446    1.221751
     13          1           0       -0.971739   -0.815561    1.977832
     14          1           0       -1.717277    0.481861    1.510897
     15          1           0        1.635399   -1.477016    0.766376
     16          1           0        0.408515   -1.930884   -1.258706
     17          1           0       -0.915243    1.335169   -1.640964
     18          1           0        2.129003   -0.056571   -0.874826
     19          1           0        1.114126    1.965325    0.362984
 ---------------------------------------------------------------------
 Rotational constants (GHZ):           2.0396948           1.9739407           1.9252755
 Leave Link  202 at Thu May 23 14:15:59 2024, MaxMem= 26843545600 cpu:               0.5 elap:               0.0
 (Enter /gpfs/fs1/soft/improv/software/custom-built/gaussian/g16/l301.exe)
 Standard basis: 6-31+G(2df,p) (6D, 7F)
 Ernie: Thresh=  0.10000D-02 Tol=  0.10000D-05 Strict=F.
 There are   347 symmetry adapted cartesian basis functions of A   symmetry.
 There are   317 symmetry adapted basis functions of A   symmetry.
   317 basis functions,   514 primitive gaussians,   347 cartesian basis functions
    43 alpha electrons       39 beta electrons
       nuclear repulsion energy       751.0997080055 Hartrees.
 IExCor=  402 DFT=T Ex+Corr=B3LYP ExCW=0 ScaHFX=  0.200000
 ScaDFX=  0.800000  0.720000  1.000000  0.810000 ScalE2=  1.000000  1.000000
 IRadAn=      5 IRanWt=     -1 IRanGd=            0 ICorTp=0 IEmpDi=131
 NAtoms=   19 NActive=   19 NUniq=   19 SFac= 1.00D+00 NAtFMM=   60 NAOKFM=F Big=F
 Integral buffers will be    131072 words long.
 Raffenetti 2 integral format.
 Two-electron integral symmetry is turned on.
 R6Disp:  Grimme-D3 Dispersion energy=       -0.0221512023 Hartrees.
 Nuclear repulsion after empirical dispersion term =      751.0775568032 Hartrees.
 Leave Link  301 at Thu May 23 14:15:59 2024, MaxMem= 26843545600 cpu:               0.4 elap:               0.0
 (Enter /gpfs/fs1/soft/improv/software/custom-built/gaussian/g16/l302.exe)
 NPDir=0 NMtPBC=     1 NCelOv=     1 NCel=       1 NClECP=     1 NCelD=      1
         NCelK=      1 NCelE2=     1 NClLst=     1 CellRange=     0.0.
 One-electron integrals computed using PRISM.
 One-electron integral symmetry used in STVInt
 NBasis=   317 RedAO= T EigKep=  1.52D-05  NBF=   317
 NBsUse=   317 1.00D-06 EigRej= -1.00D+00 NBFU=   317
 Precomputing XC quadrature grid using
 IXCGrd= 4 IRadAn=           5 IRanWt=          -1 IRanGd=           0 AccXCQ= 0.00D+00.
 Generated NRdTot=       0 NPtTot=           0 NUsed=           0 NTot=          32
 NSgBfM=   347   346   347   347   347 MxSgAt=    19 MxSgA2=    19.
 Leave Link  302 at Thu May 23 14:15:59 2024, MaxMem= 26843545600 cpu:              22.0 elap:               0.3
 (Enter /gpfs/fs1/soft/improv/software/custom-built/gaussian/g16/l303.exe)
 DipDrv:  MaxL=1.
 Leave Link  303 at Thu May 23 14:15:59 2024, MaxMem= 26843545600 cpu:               1.0 elap:               0.0
 (Enter /gpfs/fs1/soft/improv/software/custom-built/gaussian/g16/l401.exe)
 ExpMin= 1.19D-02 ExpMax= 5.63D+04 ExpMxC= 8.46D+03 IAcc=3 IRadAn=         5 AccDes= 0.00D+00
 Harris functional with IExCor=  402 and IRadAn=       5 diagonalized for initial guess.
 HarFok:  IExCor=  402 AccDes= 0.00D+00 IRadAn=         5 IDoV= 1 UseB2=F ITyADJ=14
 ICtDFT=  3500011 ScaDFX=  1.000000  1.000000  1.000000  1.000000
 FoFCou: FMM=F IPFlag=           0 FMFlag=      100000 FMFlg1=           0
         NFxFlg=           0 DoJE=T BraDBF=F KetDBF=T FulRan=T
         wScrn=  0.000000 ICntrl=       500 IOpCl=  0 I1Cent=   200000004 NGrid=           0
         NMat0=    1 NMatS0=      1 NMatT0=    0 NMatD0=    1 NMtDS0=    0 NMtDT0=    0
 Petite list used in FoFCou.
 Harris En= -1608.85501221617    
 JPrj=0 DoOrth=F DoCkMO=F.
 Initial guess <Sx>= 0.0000 <Sy>= 0.0000 <Sz>= 2.0000 <S**2>= 6.0000 S= 2.0000
 Leave Link  401 at Thu May 23 14:16:00 2024, MaxMem= 26843545600 cpu:              38.3 elap:               0.4
 (Enter /gpfs/fs1/soft/improv/software/custom-built/gaussian/g16/l502.exe)
 Integral symmetry usage will be decided dynamically.
 UHF open shell SCF:
 Using DIIS extrapolation, IDIIS=  1040.
 NGot= 26843545600 LenX= 26843256607 LenY= 26843135757
 Requested convergence on RMS density matrix=1.00D-08 within  50 cycles.
 Requested convergence on MAX density matrix=1.00D-06.
 Requested convergence on             energy=1.00D-06.
 No special actions if energy rises.
 Fock matrices will be formed incrementally for  20 cycles.

 Cycle   1  Pass 1  IDiag  1:
 FoFJK:  IHMeth= 1 ICntrl=       0 DoSepK=F KAlg= 0 I1Cent=           0 FoldK=F
 IRaf= 990000000 NMat=       1 IRICut=       1 DoRegI=T DoRafI=F ISym2E= 0 IDoP0=0 IntGTp=1.
 FoFCou: FMM=F IPFlag=           0 FMFlag=      100000 FMFlg1=           0
         NFxFlg=           0 DoJE=F BraDBF=F KetDBF=F FulRan=T
         wScrn=  0.000000 ICntrl=         0 IOpCl=  1 I1Cent=           0 NGrid=           0
         NMat0=    1 NMatS0=      1 NMatT0=    0 NMatD0=    1 NMtDS0=    0 NMtDT0=    0
 Symmetry not used in FoFCou.
 E= -1607.28967961683    
 DIIS: error= 4.34D-02 at cycle   1 NSaved=   1.
 NSaved= 1 IEnMin= 1 EnMin= -1607.28967961683     IErMin= 1 ErrMin= 4.34D-02
 ErrMax= 4.34D-02  0.00D+00 EMaxC= 1.00D-01 BMatC= 5.67D+00 BMatP= 5.67D+00
 IDIUse=3 WtCom= 5.66D-01 WtEn= 4.34D-01
 Coeff-Com:  0.100D+01
 Coeff-En:   0.100D+01
 Coeff:      0.100D+01
 Gap=    -0.656 Goal=   None    Shift=    0.000
 Gap=    -0.483 Goal=   None    Shift=    0.000
 GapD=   -0.656 DampG=0.250 DampE=0.250 DampFc=0.1250 IDamp=-1.
 Damping current iteration by 1.25D-01
 RMSDP=2.95D-02 MaxDP=2.83D+00              OVMax= 9.40D-01

 Cycle   2  Pass 1  IDiag  1:
 RMSU=  3.68D-03    CP:  1.01D+00
 E= -1607.62017993547     Delta-E=       -0.330500318637 Rises=F Damp=T
 DIIS: error= 1.93D-02 at cycle   2 NSaved=   2.
 NSaved= 2 IEnMin= 2 EnMin= -1607.62017993547     IErMin= 2 ErrMin= 1.93D-02
 ErrMax= 1.93D-02  0.00D+00 EMaxC= 1.00D-01 BMatC= 1.17D+00 BMatP= 5.67D+00
 IDIUse=3 WtCom= 8.07D-01 WtEn= 1.93D-01
 Coeff-Com: -0.594D+00 0.159D+01
 Coeff-En:   0.000D+00 0.100D+01
 Coeff:     -0.479D+00 0.148D+01
 Gap=    -0.042 Goal=   None    Shift=    0.000
 Gap=     0.032 Goal=   None    Shift=    0.000
 RMSDP=1.22D-02 MaxDP=2.09D+00 DE=-3.31D-01 OVMax= 9.58D-01

 Cycle   3  Pass 1  IDiag  1:
 RMSU=  1.03D-02    CP:  7.44D-01  1.33D+00
 E= -1608.18756886850     Delta-E=       -0.567388933033 Rises=F Damp=F
 DIIS: error= 1.31D-02 at cycle   3 NSaved=   3.
 NSaved= 3 IEnMin= 3 EnMin= -1608.18756886850     IErMin= 3 ErrMin= 1.31D-02
 ErrMax= 1.31D-02  0.00D+00 EMaxC= 1.00D-01 BMatC= 5.67D-01 BMatP= 1.17D+00
 IDIUse=3 WtCom= 8.69D-01 WtEn= 1.31D-01
 Coeff-Com: -0.362D+00 0.890D+00 0.472D+00
 Coeff-En:   0.000D+00 0.000D+00 0.100D+01
 Coeff:     -0.314D+00 0.773D+00 0.541D+00
 Gap=     0.032 Goal=   None    Shift=    0.000
 Gap=     0.250 Goal=   None    Shift=    0.000
 RMSDP=5.66D-03 MaxDP=4.95D-01 DE=-5.67D-01 OVMax= 3.53D-01

 Cycle   4  Pass 1  IDiag  1:
 RMSU=  5.13D-03    CP:  7.18D-01  1.53D+00  7.89D-01
 E= -1608.29288806018     Delta-E=       -0.105319191676 Rises=F Damp=F
 DIIS: error= 6.52D-03 at cycle   4 NSaved=   4.
 NSaved= 4 IEnMin= 4 EnMin= -1608.29288806018     IErMin= 4 ErrMin= 6.52D-03
 ErrMax= 6.52D-03  0.00D+00 EMaxC= 1.00D-01 BMatC= 7.88D-02 BMatP= 5.67D-01
 IDIUse=3 WtCom= 9.35D-01 WtEn= 6.52D-02
 Coeff-Com: -0.124D+00 0.203D+00 0.258D+00 0.663D+00
 Coeff-En:   0.000D+00 0.000D+00 0.000D+00 0.100D+01
 Coeff:     -0.116D+00 0.190D+00 0.242D+00 0.685D+00
 Gap=     0.091 Goal=   None    Shift=    0.000
 Gap=     0.250 Goal=   None    Shift=    0.000
 RMSDP=9.19D-04 MaxDP=4.66D-02 DE=-1.05D-01 OVMax= 4.84D-02

 Cycle   5  Pass 1  IDiag  1:
 RMSU=  8.69D-04    CP:  7.16D-01  1.56D+00  7.73D-01  1.04D+00
 E= -1608.30757882598     Delta-E=       -0.014690765801 Rises=F Damp=F
 DIIS: error= 1.39D-03 at cycle   5 NSaved=   5.
 NSaved= 5 IEnMin= 5 EnMin= -1608.30757882598     IErMin= 5 ErrMin= 1.39D-03
 ErrMax= 1.39D-03  0.00D+00 EMaxC= 1.00D-01 BMatC= 5.32D-03 BMatP= 7.88D-02
 IDIUse=3 WtCom= 9.86D-01 WtEn= 1.39D-02
 Coeff-Com: -0.335D-01 0.455D-01-0.455D-01 0.115D-01 0.102D+01
 Coeff-En:   0.000D+00 0.000D+00 0.000D+00 0.000D+00 0.100D+01
 Coeff:     -0.330D-01 0.448D-01-0.449D-01 0.113D-01 0.102D+01
 Gap=     0.106 Goal=   None    Shift=    0.000
 Gap=     0.252 Goal=   None    Shift=    0.000
 RMSDP=4.32D-04 MaxDP=2.58D-02 DE=-1.47D-02 OVMax= 4.11D-02

 Cycle   6  Pass 1  IDiag  1:
 RMSU=  3.18D-04    CP:  7.15D-01  1.56D+00  7.58D-01  1.08D+00  1.16D+00
 E= -1608.30882704649     Delta-E=       -0.001248220517 Rises=F Damp=F
 DIIS: error= 5.90D-04 at cycle   6 NSaved=   6.
 NSaved= 6 IEnMin= 6 EnMin= -1608.30882704649     IErMin= 6 ErrMin= 5.90D-04
 ErrMax= 5.90D-04  0.00D+00 EMaxC= 1.00D-01 BMatC= 1.44D-03 BMatP= 5.32D-03
 IDIUse=3 WtCom= 9.94D-01 WtEn= 5.90D-03
 Coeff-Com: -0.157D-01 0.250D-01-0.416D-01-0.631D-01 0.488D+00 0.607D+00
 Coeff-En:   0.000D+00 0.000D+00 0.000D+00 0.000D+00 0.000D+00 0.100D+01
 Coeff:     -0.156D-01 0.249D-01-0.414D-01-0.627D-01 0.485D+00 0.610D+00
 Gap=     0.105 Goal=   None    Shift=    0.000
 Gap=     0.252 Goal=   None    Shift=    0.000
 RMSDP=1.07D-04 MaxDP=7.97D-03 DE=-1.25D-03 OVMax= 1.04D-02

 Cycle   7  Pass 1  IDiag  1:
 RMSU=  7.78D-05    CP:  7.15D-01  1.57D+00  7.56D-01  1.09D+00  1.22D+00
                    CP:  1.07D+00
 E= -1608.30906316247     Delta-E=       -0.000236115973 Rises=F Damp=F
 DIIS: error= 3.11D-04 at cycle   7 NSaved=   7.
 NSaved= 7 IEnMin= 7 EnMin= -1608.30906316247     IErMin= 7 ErrMin= 3.11D-04
 ErrMax= 3.11D-04  0.00D+00 EMaxC= 1.00D-01 BMatC= 3.05D-04 BMatP= 1.44D-03
 IDIUse=3 WtCom= 9.97D-01 WtEn= 3.11D-03
 Coeff-Com: -0.527D-02 0.655D-02-0.957D-02-0.245D-01 0.137D-01 0.289D+00
 Coeff-Com:  0.730D+00
 Coeff-En:   0.000D+00 0.000D+00 0.000D+00 0.000D+00 0.000D+00 0.000D+00
 Coeff-En:   0.100D+01
 Coeff:     -0.525D-02 0.653D-02-0.954D-02-0.244D-01 0.136D-01 0.288D+00
 Coeff:      0.731D+00
 Gap=     0.106 Goal=   None    Shift=    0.000
 Gap=     0.253 Goal=   None    Shift=    0.000
 RMSDP=6.42D-05 MaxDP=3.77D-03 DE=-2.36D-04 OVMax= 1.04D-02

 Cycle   8  Pass 1  IDiag  1:
 RMSU=  4.91D-05    CP:  7.16D-01  1.57D+00  7.54D-01  1.09D+00  1.25D+00
                    CP:  1.12D+00  1.09D+00
 E= -1608.30914452459     Delta-E=       -0.000081362127 Rises=F Damp=F
 DIIS: error= 1.51D-04 at cycle   8 NSaved=   8.
 NSaved= 8 IEnMin= 8 EnMin= -1608.30914452459     IErMin= 8 ErrMin= 1.51D-04
 ErrMax= 1.51D-04  0.00D+00 EMaxC= 1.00D-01 BMatC= 4.22D-05 BMatP= 3.05D-04
 IDIUse=3 WtCom= 9.98D-01 WtEn= 1.51D-03
 Coeff-Com: -0.287D-02 0.411D-02 0.414D-02 0.255D-02-0.680D-01-0.405D-02
 Coeff-Com:  0.219D+00 0.846D+00
 Coeff-En:   0.000D+00 0.000D+00 0.000D+00 0.000D+00 0.000D+00 0.000D+00
 Coeff-En:   0.000D+00 0.100D+01
 Coeff:     -0.287D-02 0.410D-02 0.414D-02 0.255D-02-0.679D-01-0.404D-02
 Coeff:      0.218D+00 0.846D+00
 Gap=     0.105 Goal=   None    Shift=    0.000
 Gap=     0.253 Goal=   None    Shift=    0.000
 RMSDP=4.93D-05 MaxDP=2.99D-03 DE=-8.14D-05 OVMax= 1.15D-02

 Cycle   9  Pass 1  IDiag  1:
 RMSU=  3.04D-05    CP:  7.16D-01  1.57D+00  7.54D-01  1.09D+00  1.24D+00
                    CP:  1.16D+00  1.34D+00  1.62D+00
 E= -1608.30918371148     Delta-E=       -0.000039186887 Rises=F Damp=F
 DIIS: error= 1.43D-04 at cycle   9 NSaved=   9.
 NSaved= 9 IEnMin= 9 EnMin= -1608.30918371148     IErMin= 9 ErrMin= 1.43D-04
 ErrMax= 1.43D-04  0.00D+00 EMaxC= 1.00D-01 BMatC= 1.55D-05 BMatP= 4.22D-05
 IDIUse=3 WtCom= 9.99D-01 WtEn= 1.43D-03
 Coeff-Com: -0.901D-03 0.106D-02 0.275D-02 0.387D-02-0.303D-01-0.346D-01
 Coeff-Com:  0.591D-02 0.334D+00 0.718D+00
 Coeff-En:   0.000D+00 0.000D+00 0.000D+00 0.000D+00 0.000D+00 0.000D+00
 Coeff-En:   0.000D+00 0.000D+00 0.100D+01
 Coeff:     -0.900D-03 0.106D-02 0.275D-02 0.387D-02-0.303D-01-0.346D-01
 Coeff:      0.590D-02 0.334D+00 0.719D+00
 Gap=     0.105 Goal=   None    Shift=    0.000
 Gap=     0.253 Goal=   None    Shift=    0.000
 RMSDP=4.02D-05 MaxDP=2.47D-03 DE=-3.92D-05 OVMax= 9.80D-03

 Cycle  10  Pass 1  IDiag  1:
 RMSU=  7.93D-06    CP:  7.16D-01  1.57D+00  7.54D-01  1.09D+00  1.24D+00
                    CP:  1.19D+00  1.54D+00  2.21D+00  1.68D+00
 E= -1608.30921224859     Delta-E=       -0.000028537106 Rises=F Damp=F
 DIIS: error= 1.38D-04 at cycle  10 NSaved=  10.
 NSaved=10 IEnMin=10 EnMin= -1608.30921224859     IErMin=10 ErrMin= 1.38D-04
 ErrMax= 1.38D-04  0.00D+00 EMaxC= 1.00D-01 BMatC= 1.29D-05 BMatP= 1.55D-05
 IDIUse=3 WtCom= 9.99D-01 WtEn= 1.38D-03
 Coeff-Com: -0.933D-04 0.237D-03 0.133D-02 0.249D-02-0.152D-02-0.238D-01
 Coeff-Com: -0.658D-01-0.739D-03 0.443D+00 0.645D+00
 Coeff-En:   0.000D+00 0.000D+00 0.000D+00 0.000D+00 0.000D+00 0.000D+00
 Coeff-En:   0.000D+00 0.000D+00 0.000D+00 0.100D+01
 Coeff:     -0.932D-04 0.236D-03 0.133D-02 0.249D-02-0.151D-02-0.238D-01
 Coeff:     -0.657D-01-0.738D-03 0.442D+00 0.646D+00
 Gap=     0.105 Goal=   None    Shift=    0.000
 Gap=     0.253 Goal=   None    Shift=    0.000
 RMSDP=4.20D-05 MaxDP=2.56D-03 DE=-2.85D-05 OVMax= 1.02D-02

 Cycle  11  Pass 1  IDiag  1:
 RMSU=  4.49D-06    CP:  7.16D-01  1.57D+00  7.54D-01  1.09D+00  1.24D+00
                    CP:  1.21D+00  1.74D+00  2.82D+00  2.42D+00  1.71D+00
 E= -1608.30924139308     Delta-E=       -0.000029144498 Rises=F Damp=F
 DIIS: error= 1.35D-04 at cycle  11 NSaved=  11.
 NSaved=11 IEnMin=11 EnMin= -1608.30924139308     IErMin=11 ErrMin= 1.35D-04
 ErrMax= 1.35D-04  0.00D+00 EMaxC= 1.00D-01 BMatC= 1.17D-05 BMatP= 1.29D-05
 IDIUse=3 WtCom= 9.99D-01 WtEn= 1.35D-03
 Coeff-Com:  0.224D-03-0.199D-03 0.897D-03 0.185D-02 0.250D-02-0.191D-03
 Coeff-Com: -0.230D-01-0.265D-01-0.181D+00-0.243D+00 0.147D+01
 Coeff-En:   0.000D+00 0.000D+00 0.000D+00 0.000D+00 0.000D+00 0.000D+00
 Coeff-En:   0.000D+00 0.000D+00 0.000D+00 0.000D+00 0.100D+01
 Coeff:      0.223D-03-0.199D-03 0.895D-03 0.185D-02 0.249D-02-0.191D-03
 Coeff:     -0.229D-01-0.264D-01-0.181D+00-0.243D+00 0.147D+01
 Gap=     0.106 Goal=   None    Shift=    0.000
 Gap=     0.254 Goal=   None    Shift=    0.000
 RMSDP=7.80D-05 MaxDP=4.69D-03 DE=-2.91D-05 OVMax= 1.90D-02

 Cycle  12  Pass 1  IDiag  1:
 RMSU=  5.26D-05    CP:  7.16D-01  1.57D+00  7.53D-01  1.09D+00  1.24D+00
                    CP:  1.25D+00  2.11D+00  3.00D+00  3.00D+00  3.00D+00
                    CP:  2.64D+00
 E= -1608.30929444827     Delta-E=       -0.000053055188 Rises=F Damp=F
 DIIS: error= 1.28D-04 at cycle  12 NSaved=  12.
 NSaved=12 IEnMin=12 EnMin= -1608.30929444827     IErMin=12 ErrMin= 1.28D-04
 ErrMax= 1.28D-04  0.00D+00 EMaxC= 1.00D-01 BMatC= 1.14D-05 BMatP= 1.17D-05
 IDIUse=3 WtCom= 9.99D-01 WtEn= 1.28D-03
 Coeff-Com: -0.134D-03 0.260D-03 0.279D-02 0.490D-02-0.173D-01 0.186D-01
 Coeff-Com:  0.726D-01 0.177D+00-0.760D+00-0.220D+01-0.510D+00 0.421D+01
 Coeff-En:   0.000D+00 0.000D+00 0.000D+00 0.000D+00 0.000D+00 0.000D+00
 Coeff-En:   0.000D+00 0.000D+00 0.000D+00 0.000D+00 0.000D+00 0.100D+01
 Coeff:     -0.134D-03 0.260D-03 0.279D-02 0.489D-02-0.172D-01 0.185D-01
 Coeff:      0.725D-01 0.177D+00-0.759D+00-0.220D+01-0.510D+00 0.421D+01
 Gap=     0.106 Goal=   None    Shift=    0.000
 Gap=     0.257 Goal=   None    Shift=    0.000
 RMSDP=4.01D-04 MaxDP=2.64D-02 DE=-5.31D-05 OVMax= 9.75D-02

 Cycle  13  Pass 1  IDiag  1:
 RMSU=  2.77D-04    CP:  7.16D-01  1.57D+00  7.51D-01  1.08D+00  1.24D+00
                    CP:  1.46D+00  3.00D+00  3.00D+00  3.00D+00  3.00D+00
                    CP:  3.00D+00  3.00D+00
 E= -1608.30954291785     Delta-E=       -0.000248469582 Rises=F Damp=F
 DIIS: error= 1.37D-04 at cycle  13 NSaved=  13.
 NSaved=13 IEnMin=13 EnMin= -1608.30954291785     IErMin=12 ErrMin= 1.28D-04
 ErrMax= 1.37D-04  0.00D+00 EMaxC= 1.00D-01 BMatC= 1.83D-05 BMatP= 1.14D-05
 IDIUse=3 WtCom= 9.99D-01 WtEn= 1.28D-03
 Coeff-Com: -0.515D-03 0.577D-03 0.457D-02 0.105D-01-0.116D-01-0.323D-01
 Coeff-Com: -0.115D+00 0.525D-01 0.414D+00-0.425D+00-0.707D+00 0.124D+01
 Coeff-Com:  0.568D+00
 Coeff-En:   0.000D+00 0.000D+00 0.000D+00 0.000D+00 0.000D+00 0.000D+00
 Coeff-En:   0.000D+00 0.000D+00 0.000D+00 0.000D+00 0.000D+00 0.000D+00
 Coeff-En:   0.100D+01
 Coeff:     -0.514D-03 0.576D-03 0.456D-02 0.105D-01-0.116D-01-0.323D-01
 Coeff:     -0.115D+00 0.524D-01 0.413D+00-0.424D+00-0.706D+00 0.124D+01
 Coeff:      0.568D+00
 Gap=     0.106 Goal=   None    Shift=    0.000
 Gap=     0.256 Goal=   None    Shift=    0.000
 RMSDP=6.76D-05 MaxDP=4.58D-03 DE=-2.48D-04 OVMax= 1.62D-02

 Cycle  14  Pass 1  IDiag  1:
 RMSU=  1.02D-05    CP:  7.16D-01  1.57D+00  7.51D-01  1.08D+00  1.24D+00
                    CP:  1.43D+00  3.00D+00  3.00D+00  3.00D+00  3.00D+00
                    CP:  3.00D+00  3.00D+00  7.64D-01
 E= -1608.30950609713     Delta-E=        0.000036820729 Rises=F Damp=F
 DIIS: error= 1.09D-04 at cycle  14 NSaved=  14.
 NSaved=14 IEnMin=13 EnMin= -1608.30954291785     IErMin=14 ErrMin= 1.09D-04
 ErrMax= 1.09D-04  0.00D+00 EMaxC= 1.00D-01 BMatC= 1.07D-05 BMatP= 1.14D-05
 IDIUse=3 WtCom= 9.99D-01 WtEn= 1.09D-03
 Rare condition: small coef for last iteration:  0.000D+00
 Coeff-Com: -0.220D-03-0.137D-03 0.454D-02 0.121D-01-0.597D-02-0.579D-01
 Coeff-Com: -0.199D+00-0.399D-01 0.984D+00 0.617D+00-0.974D+00-0.106D+01
 Coeff-Com:  0.672D+00 0.105D+01
 Coeff-En:   0.000D+00 0.000D+00 0.000D+00 0.000D+00 0.000D+00 0.000D+00
 Coeff-En:   0.000D+00 0.000D+00 0.000D+00 0.000D+00 0.000D+00 0.000D+00
 Coeff-En:   0.000D+00 0.100D+01
 Coeff:     -0.220D-03-0.137D-03 0.454D-02 0.121D-01-0.597D-02-0.579D-01
 Coeff:     -0.199D+00-0.399D-01 0.984D+00 0.617D+00-0.974D+00-0.106D+01
 Coeff:      0.672D+00 0.105D+01
 Gap=     0.106 Goal=   None    Shift=    0.000
 Gap=     0.258 Goal=   None    Shift=    0.000
 RMSDP=2.36D-04 MaxDP=1.78D-02 DE= 3.68D-05 OVMax= 5.73D-02

 Cycle  15  Pass 1  IDiag  1:
 RMSU=  2.53D-05    CP:  7.15D-01  1.57D+00  7.49D-01  1.08D+00  1.24D+00
                    CP:  1.55D+00  3.00D+00  3.00D+00  3.00D+00  3.00D+00
                    CP:  3.00D+00  3.00D+00  1.59D+00 -1.08D+00
 E= -1608.30963551892     Delta-E=       -0.000129421791 Rises=F Damp=F
 DIIS: error= 8.37D-05 at cycle  15 NSaved=  15.
 NSaved=15 IEnMin=15 EnMin= -1608.30963551892     IErMin=15 ErrMin= 8.37D-05
 ErrMax= 8.37D-05  0.00D+00 EMaxC= 1.00D-01 BMatC= 7.81D-06 BMatP= 1.07D-05
 IDIUse=1 WtCom= 1.00D+00 WtEn= 0.00D+00
 Coeff-Com:  0.684D-03-0.869D-03 0.965D-03 0.571D-02 0.195D-01-0.593D-01
 Coeff-Com: -0.221D+00-0.225D+00 0.124D+01 0.215D+01 0.383D+00-0.517D+01
 Coeff-Com: -0.467D+00 0.997D+00 0.235D+01
 Coeff:      0.684D-03-0.869D-03 0.965D-03 0.571D-02 0.195D-01-0.593D-01
 Coeff:     -0.221D+00-0.225D+00 0.124D+01 0.215D+01 0.383D+00-0.517D+01
 Coeff:     -0.467D+00 0.997D+00 0.235D+01
 Gap=     0.108 Goal=   None    Shift=    0.000
 Gap=     0.261 Goal=   None    Shift=    0.000
 RMSDP=5.43D-04 MaxDP=4.75D-02 DE=-1.29D-04 OVMax= 1.32D-01

 Cycle  16  Pass 1  IDiag  1:
 RMSU=  1.62D-04    CP:  7.15D-01  1.56D+00  7.44D-01  1.07D+00  1.23D+00
                    CP:  1.80D+00  3.00D+00  3.00D+00  3.00D+00  3.00D+00
                    CP:  3.00D+00  3.00D+00  3.00D+00 -3.00D+00  3.00D+00
 E= -1608.30985303783     Delta-E=       -0.000217518912 Rises=F Damp=F
 DIIS: error= 2.78D-04 at cycle  16 NSaved=  16.
 NSaved=16 IEnMin=16 EnMin= -1608.30985303783     IErMin=15 ErrMin= 8.37D-05
 ErrMax= 2.78D-04  0.00D+00 EMaxC= 1.00D-01 BMatC= 4.95D-05 BMatP= 7.81D-06
 IDIUse=1 WtCom= 1.00D+00 WtEn= 0.00D+00
 Coeff-Com:  0.904D-03-0.127D-02-0.390D-03 0.193D-02 0.169D-01-0.950D-02
 Coeff-Com: -0.768D-01-0.140D+00 0.191D+00 0.649D+00 0.169D+01-0.227D+01
 Coeff-Com: -0.140D+01 0.647D+00 0.108D+01 0.621D+00
 Coeff:      0.904D-03-0.127D-02-0.390D-03 0.193D-02 0.169D-01-0.950D-02
 Coeff:     -0.768D-01-0.140D+00 0.191D+00 0.649D+00 0.169D+01-0.227D+01
 Coeff:     -0.140D+01 0.647D+00 0.108D+01 0.621D+00
 Gap=     0.101 Goal=   None    Shift=    0.000
 Gap=     0.260 Goal=   None    Shift=    0.000
 RMSDP=3.02D-04 MaxDP=2.61D-02 DE=-2.18D-04 OVMax= 7.26D-02

 Cycle  17  Pass 1  IDiag  1:
 RMSU=  1.74D-05    CP:  7.15D-01  1.56D+00  7.47D-01  1.07D+00  1.23D+00
                    CP:  1.67D+00  3.00D+00  3.00D+00  3.00D+00  3.00D+00
                    CP:  3.00D+00  3.00D+00  2.43D+00 -1.99D+00  3.00D+00
                    CP:  7.24D-02
 E= -1608.30974063082     Delta-E=        0.000112407010 Rises=F Damp=F
 DIIS: error= 3.36D-04 at cycle  17 NSaved=  17.
 NSaved=17 IEnMin=16 EnMin= -1608.30985303783     IErMin=15 ErrMin= 8.37D-05
 ErrMax= 3.36D-04  0.00D+00 EMaxC= 1.00D-01 BMatC= 5.75D-05 BMatP= 7.81D-06
 IDIUse=1 WtCom= 1.00D+00 WtEn= 0.00D+00
 Coeff-Com:  0.108D-02-0.105D-02-0.988D-03-0.122D-02 0.961D-02 0.155D-01
 Coeff-Com:  0.424D-01-0.175D-01-0.328D+00-0.356D+00 0.385D+00-0.280D+00
 Coeff-Com: -0.117D+01-0.670D-01 0.156D+01 0.673D+00 0.538D+00
 Coeff:      0.108D-02-0.105D-02-0.988D-03-0.122D-02 0.961D-02 0.155D-01
 Coeff:      0.424D-01-0.175D-01-0.328D+00-0.356D+00 0.385D+00-0.280D+00
 Coeff:     -0.117D+01-0.670D-01 0.156D+01 0.673D+00 0.538D+00
 Gap=     0.113 Goal=   None    Shift=    0.000
 Gap=     0.263 Goal=   None    Shift=    0.000
 RMSDP=7.34D-04 MaxDP=6.86D-02 DE= 1.12D-04 OVMax= 1.77D-01

 Cycle  18  Pass 1  IDiag  1:
 RMSU=  1.15D-04    CP:  7.15D-01  1.56D+00  7.39D-01  1.06D+00  1.21D+00
                    CP:  1.97D+00  3.00D+00  3.00D+00  3.00D+00  3.00D+00
                    CP:  3.00D+00  3.00D+00  3.00D+00 -3.00D+00  3.00D+00
                    CP:  3.00D+00 -3.00D+00
 E= -1608.30991202734     Delta-E=       -0.000171396523 Rises=F Damp=F
 DIIS: error= 8.95D-04 at cycle  18 NSaved=  18.
 NSaved=18 IEnMin=18 EnMin= -1608.30991202734     IErMin=15 ErrMin= 8.37D-05
 ErrMax= 8.95D-04  0.00D+00 EMaxC= 1.00D-01 BMatC= 3.71D-04 BMatP= 7.81D-06
 IDIUse=1 WtCom= 1.00D+00 WtEn= 0.00D+00
 Coeff-Com:  0.551D-03-0.464D-03-0.492D-03-0.136D-02-0.149D-03 0.108D-01
 Coeff-Com:  0.637D-01 0.455D-01-0.213D+00-0.480D+00-0.125D+01 0.684D+00
 Coeff-Com:  0.255D-01 0.148D+00 0.973D+00-0.268D+00 0.936D+00 0.325D+00
 Coeff:      0.551D-03-0.464D-03-0.492D-03-0.136D-02-0.149D-03 0.108D-01
 Coeff:      0.637D-01 0.455D-01-0.213D+00-0.480D+00-0.125D+01 0.684D+00
 Coeff:      0.255D-01 0.148D+00 0.973D+00-0.268D+00 0.936D+00 0.325D+00
 Gap=     0.125 Goal=   None    Shift=    0.000
 Gap=     0.260 Goal=   None    Shift=    0.000
 RMSDP=5.17D-05 MaxDP=4.56D-03 DE=-1.71D-04 OVMax= 1.15D-02

 Cycle  19  Pass 1  IDiag  1:
 RMSU=  3.47D-05    CP:  7.15D-01  1.56D+00  7.39D-01  1.05D+00  1.21D+00
                    CP:  1.99D+00  3.00D+00  3.00D+00  3.00D+00  3.00D+00
                    CP:  3.00D+00  3.00D+00  3.00D+00 -3.00D+00  3.00D+00
                    CP:  3.00D+00 -3.00D+00  1.32D+00
 E= -1608.30986608274     Delta-E=        0.000045944606 Rises=F Damp=F
 DIIS: error= 1.21D-03 at cycle  19 NSaved=  19.
 NSaved=19 IEnMin=18 EnMin= -1608.30991202734     IErMin=15 ErrMin= 8.37D-05
 ErrMax= 1.21D-03  0.00D+00 EMaxC= 1.00D-01 BMatC= 6.73D-04 BMatP= 7.81D-06
 IDIUse=1 WtCom= 1.00D+00 WtEn= 0.00D+00
 Coeff-Com:  0.724D-03-0.693D-03-0.183D-03-0.111D-02-0.213D-02 0.171D-01
 Coeff-Com:  0.798D-01 0.651D-01-0.354D+00-0.783D+00-0.113D+01 0.136D+01
 Coeff-Com: -0.541D-01-0.576D-01 0.605D+00-0.252D+00 0.899D+00 0.141D+01
 Coeff-Com: -0.809D+00
 Coeff:      0.724D-03-0.693D-03-0.183D-03-0.111D-02-0.213D-02 0.171D-01
 Coeff:      0.798D-01 0.651D-01-0.354D+00-0.783D+00-0.113D+01 0.136D+01
 Coeff:     -0.541D-01-0.576D-01 0.605D+00-0.252D+00 0.899D+00 0.141D+01
 Coeff:     -0.809D+00
 Gap=     0.125 Goal=   None    Shift=    0.000
 Gap=     0.261 Goal=   None    Shift=    0.000
 RMSDP=1.04D-04 MaxDP=1.09D-02 DE= 4.59D-05 OVMax= 2.53D-02

 Cycle  20  Pass 1  IDiag  1:
 RMSU=  2.90D-05    CP:  7.15D-01  1.56D+00  7.37D-01  1.05D+00  1.21D+00
                    CP:  2.02D+00  3.00D+00  3.00D+00  3.00D+00  3.00D+00
                    CP:  3.00D+00  3.00D+00  3.00D+00 -3.00D+00  3.00D+00
                    CP:  3.00D+00 -3.00D+00  2.07D+00  2.29D+00
 E= -1608.30989028614     Delta-E=       -0.000024203403 Rises=F Damp=F
 DIIS: error= 1.22D-03 at cycle  20 NSaved=  20.
 NSaved=20 IEnMin=18 EnMin= -1608.30991202734     IErMin=15 ErrMin= 8.37D-05
 ErrMax= 1.22D-03  0.00D+00 EMaxC= 1.00D-01 BMatC= 6.70D-04 BMatP= 7.81D-06
 IDIUse=1 WtCom= 1.00D+00 WtEn= 0.00D+00
 Coeff-Com:  0.806D-03-0.884D-03-0.191D-03-0.118D-02-0.402D-02 0.176D-01
 Coeff-Com:  0.914D-01 0.792D-01-0.374D+00-0.893D+00-0.150D+01 0.162D+01
 Coeff-Com:  0.143D+00 0.258D-01 0.677D+00-0.171D+00 0.687D+00 0.176D+01
 Coeff-Com: -0.201D+01 0.842D+00
 Coeff:      0.806D-03-0.884D-03-0.191D-03-0.118D-02-0.402D-02 0.176D-01
 Coeff:      0.914D-01 0.792D-01-0.374D+00-0.893D+00-0.150D+01 0.162D+01
 Coeff:      0.143D+00 0.258D-01 0.677D+00-0.171D+00 0.687D+00 0.176D+01
 Coeff:     -0.201D+01 0.842D+00
 Gap=     0.129 Goal=   None    Shift=    0.000
 Gap=     0.260 Goal=   None    Shift=    0.000
 RMSDP=1.06D-04 MaxDP=1.09D-02 DE=-2.42D-05 OVMax= 2.55D-02

 Cycle  21  Pass 1  IDiag  1:
 Restarting incremental Fock formation.
 E= -1608.30985939422     Delta-E=        0.000030891923 Rises=F Damp=F
 DIIS: error= 1.46D-03 at cycle  21 NSaved=  20.
 NSaved=20 IEnMin=17 EnMin= -1608.30991202734     IErMin=14 ErrMin= 8.37D-05
 ErrMax= 1.46D-03  0.00D+00 EMaxC= 1.00D-01 BMatC= 9.57D-04 BMatP= 7.81D-06
 IDIUse=1 WtCom= 1.00D+00 WtEn= 0.00D+00
 Coeff-Com:  0.190D-03 0.830D-03 0.147D-03-0.953D-02 0.131D-02 0.440D-01
 Coeff-Com:  0.818D-01-0.207D-01-0.443D+00-0.181D+01 0.996D+00 0.598D+00
 Coeff-Com:  0.303D-01 0.261D+00-0.111D+01 0.116D+01 0.803D+00-0.216D+01
 Coeff-Com:  0.537D+01-0.280D+01
 Coeff:      0.190D-03 0.830D-03 0.147D-03-0.953D-02 0.131D-02 0.440D-01
 Coeff:      0.818D-01-0.207D-01-0.443D+00-0.181D+01 0.996D+00 0.598D+00
 Coeff:      0.303D-01 0.261D+00-0.111D+01 0.116D+01 0.803D+00-0.216D+01
 Coeff:      0.537D+01-0.280D+01
 Gap=     0.130 Goal=   None    Shift=    0.000
 Gap=     0.260 Goal=   None    Shift=    0.000
 RMSDP=1.19D-04 MaxDP=1.25D-02 DE= 3.09D-05 OVMax= 2.89D-02

 Cycle  22  Pass 1  IDiag  1:
 RMSU=  1.19D-04    CP:  1.00D+00
 E= -1608.30985216898     Delta-E=        0.000007225234 Rises=F Damp=F
 DIIS: error= 1.59D-03 at cycle  22 NSaved=  20.
 NSaved=20 IEnMin=16 EnMin= -1608.30991202734     IErMin=13 ErrMin= 8.37D-05
 ErrMax= 1.59D-03  0.00D+00 EMaxC= 1.00D-01 BMatC= 1.13D-03 BMatP= 7.81D-06
 IDIUse=1 WtCom= 1.00D+00 WtEn= 0.00D+00
 Coeff-Com:  0.435D-03 0.318D-04-0.700D-02 0.304D-02 0.401D-01 0.647D-01
 Coeff-Com: -0.141D+00-0.529D+00-0.132D+01 0.888D+00 0.227D+00-0.469D-01
 Coeff-Com:  0.513D+00-0.736D+00 0.931D+00 0.791D+00-0.180D+01 0.559D+01
 Coeff-Com: -0.451D+01 0.104D+01
 Coeff:      0.435D-03 0.318D-04-0.700D-02 0.304D-02 0.401D-01 0.647D-01
 Coeff:     -0.141D+00-0.529D+00-0.132D+01 0.888D+00 0.227D+00-0.469D-01
 Coeff:      0.513D+00-0.736D+00 0.931D+00 0.791D+00-0.180D+01 0.559D+01
 Coeff:     -0.451D+01 0.104D+01
 Gap=     0.131 Goal=   None    Shift=    0.000
 Gap=     0.260 Goal=   None    Shift=    0.000
 RMSDP=3.40D-05 MaxDP=3.60D-03 DE= 7.23D-06 OVMax= 8.25D-03

 Cycle  23  Pass 1  IDiag  1:
 RMSU=  1.57D-06    CP:  1.00D+00  1.28D+00
 E= -1608.30985080397     Delta-E=        0.000001365012 Rises=F Damp=F
 DIIS: error= 1.62D-03 at cycle  23 NSaved=  20.
 NSaved=20 IEnMin=15 EnMin= -1608.30991202734     IErMin=12 ErrMin= 8.37D-05
 ErrMax= 1.62D-03  0.00D+00 EMaxC= 1.00D-01 BMatC= 1.18D-03 BMatP= 7.81D-06
 IDIUse=1 WtCom= 1.00D+00 WtEn= 0.00D+00
 Coeff-Com: -0.348D-03-0.450D-02 0.103D-01 0.564D-01 0.552D-01-0.265D+00
 Coeff-Com: -0.681D+00-0.103D+01 0.964D+00-0.479D-02-0.118D+00 0.636D+00
 Coeff-Com: -0.536D+00 0.886D+00 0.779D+00-0.942D+00 0.484D+01-0.496D+01
 Coeff-Com: -0.339D+00 0.166D+01
 Coeff:     -0.348D-03-0.450D-02 0.103D-01 0.564D-01 0.552D-01-0.265D+00
 Coeff:     -0.681D+00-0.103D+01 0.964D+00-0.479D-02-0.118D+00 0.636D+00
 Coeff:     -0.536D+00 0.886D+00 0.779D+00-0.942D+00 0.484D+01-0.496D+01
 Coeff:     -0.339D+00 0.166D+01
 Gap=     0.131 Goal=   None    Shift=    0.000
 Gap=     0.260 Goal=   None    Shift=    0.000
 RMSDP=8.99D-06 MaxDP=9.67D-04 DE= 1.37D-06 OVMax= 2.19D-03

 Cycle  24  Pass 1  IDiag  1:
 RMSU=  1.14D-06    CP:  1.00D+00  1.21D+00  5.42D-01
 E= -1608.30984603449     Delta-E=        0.000004769479 Rises=F Damp=F
 DIIS: error= 1.63D-03 at cycle  24 NSaved=  20.
 NSaved=20 IEnMin=14 EnMin= -1608.30991202734     IErMin=11 ErrMin= 8.37D-05
 ErrMax= 1.63D-03  0.00D+00 EMaxC= 1.00D-01 BMatC= 1.20D-03 BMatP= 7.81D-06
 IDIUse=1 WtCom= 1.00D+00 WtEn= 0.00D+00
 Coeff-Com: -0.241D-02 0.705D-02 0.414D-01 0.410D-01-0.225D+00-0.574D+00
 Coeff-Com: -0.921D+00 0.728D+00-0.762D-01-0.114D+00 0.727D+00-0.443D+00
 Coeff-Com:  0.822D+00 0.731D+00-0.867D+00 0.476D+01-0.508D+01 0.333D-01
 Coeff-Com:  0.243D+01-0.102D+01
 Coeff:     -0.241D-02 0.705D-02 0.414D-01 0.410D-01-0.225D+00-0.574D+00
 Coeff:     -0.921D+00 0.728D+00-0.762D-01-0.114D+00 0.727D+00-0.443D+00
 Coeff:      0.822D+00 0.731D+00-0.867D+00 0.476D+01-0.508D+01 0.333D-01
 Coeff:      0.243D+01-0.102D+01
 Gap=     0.131 Goal=   None    Shift=    0.000
 Gap=     0.260 Goal=   None    Shift=    0.000
 RMSDP=2.07D-06 MaxDP=1.21D-04 DE= 4.77D-06 OVMax= 1.57D-04

 Cycle  25  Pass 1  IDiag  1:
 RMSU=  5.03D-07    CP:  1.00D+00  1.20D+00  8.91D-01 -5.51D-01
 E= -1608.30985436572     Delta-E=       -0.000008331229 Rises=F Damp=F
 DIIS: error= 1.60D-03 at cycle  25 NSaved=  20.
 NSaved=20 IEnMin=13 EnMin= -1608.30991202734     IErMin=10 ErrMin= 8.37D-05
 ErrMax= 1.60D-03  0.00D+00 EMaxC= 1.00D-01 BMatC= 1.15D-03 BMatP= 7.81D-06
 IDIUse=1 WtCom= 1.00D+00 WtEn= 0.00D+00
 Coeff-Com:  0.299D-02 0.207D-01 0.225D-01-0.146D+00-0.398D+00-0.903D+00
 Coeff-Com:  0.481D+00-0.267D-01-0.109D+00 0.714D+00-0.478D+00 0.801D+00
 Coeff-Com:  0.663D+00-0.106D+01 0.499D+01-0.504D+01 0.104D+01 0.291D+01
 Coeff-Com: -0.351D+01 0.103D+01
 Coeff:      0.299D-02 0.207D-01 0.225D-01-0.146D+00-0.398D+00-0.903D+00
 Coeff:      0.481D+00-0.267D-01-0.109D+00 0.714D+00-0.478D+00 0.801D+00
 Coeff:      0.663D+00-0.106D+01 0.499D+01-0.504D+01 0.104D+01 0.291D+01
 Coeff:     -0.351D+01 0.103D+01
 Gap=     0.130 Goal=   None    Shift=    0.000
 Gap=     0.261 Goal=   None    Shift=    0.000
 RMSDP=1.38D-05 MaxDP=1.48D-03 DE=-8.33D-06 OVMax= 3.31D-03

 Cycle  26  Pass 1  IDiag  1:
 RMSU=  9.52D-07    CP:  1.00D+00  1.31D+00  2.02D+00 -3.00D+00  2.45D+00
 E= -1608.30987055717     Delta-E=       -0.000016191455 Rises=F Damp=F
 DIIS: error= 1.55D-03 at cycle  26 NSaved=  20.
 NSaved=20 IEnMin=12 EnMin= -1608.30991202734     IErMin= 9 ErrMin= 8.37D-05
 ErrMax= 1.55D-03  0.00D+00 EMaxC= 1.00D-01 BMatC= 1.08D-03 BMatP= 7.81D-06
 IDIUse=1 WtCom= 1.00D+00 WtEn= 0.00D+00
 Coeff-Com:  0.128D-01 0.250D-01-0.988D-01-0.287D+00-0.626D+00 0.229D+00
 Coeff-Com: -0.776D-01-0.277D+00 0.660D+00-0.381D+00 0.739D+00 0.213D+00
 Coeff-Com:  0.755D+00 0.257D+01-0.370D+01-0.140D+00 0.385D+01-0.936D+01
 Coeff-Com:  0.159D+00 0.674D+01
 Coeff:      0.128D-01 0.250D-01-0.988D-01-0.287D+00-0.626D+00 0.229D+00
 Coeff:     -0.776D-01-0.277D+00 0.660D+00-0.381D+00 0.739D+00 0.213D+00
 Coeff:      0.755D+00 0.257D+01-0.370D+01-0.140D+00 0.385D+01-0.936D+01
 Coeff:      0.159D+00 0.674D+01
 Gap=     0.128 Goal=   None    Shift=    0.000
 Gap=     0.261 Goal=   None    Shift=    0.000
 RMSDP=1.11D-04 MaxDP=1.19D-02 DE=-1.62D-05 OVMax= 2.70D-02

 Cycle  27  Pass 1  IDiag  1:
 RMSU=  1.50D-05    CP:  1.00D+00  2.23D+00  3.00D+00 -3.00D+00  3.00D+00
                    CP:  3.00D+00
 E= -1608.30992008756     Delta-E=       -0.000049530381 Rises=F Damp=F
 DIIS: error= 1.44D-03 at cycle  27 NSaved=  20.
 NSaved=20 IEnMin=20 EnMin= -1608.30992008756     IErMin= 8 ErrMin= 8.37D-05
 ErrMax= 1.44D-03  0.00D+00 EMaxC= 1.00D-01 BMatC= 9.39D-04 BMatP= 7.81D-06
 IDIUse=1 WtCom= 1.00D+00 WtEn= 0.00D+00
 Coeff-Com:  0.144D-01-0.617D-01-0.190D+00-0.476D+00 0.681D-01-0.121D+00
 Coeff-Com: -0.346D+00 0.611D+00-0.429D+00 0.764D+00 0.372D-01 0.117D+01
 Coeff-Com:  0.284D+01-0.410D+01 0.740D+00 0.306D+01-0.820D+01 0.362D+00
 Coeff-Com:  0.430D+01 0.962D+00
 Coeff:      0.144D-01-0.617D-01-0.190D+00-0.476D+00 0.681D-01-0.121D+00
 Coeff:     -0.346D+00 0.611D+00-0.429D+00 0.764D+00 0.372D-01 0.117D+01
 Coeff:      0.284D+01-0.410D+01 0.740D+00 0.306D+01-0.820D+01 0.362D+00
 Coeff:      0.430D+01 0.962D+00
 Gap=     0.127 Goal=   None    Shift=    0.000
 Gap=     0.261 Goal=   None    Shift=    0.000
 RMSDP=2.57D-05 MaxDP=2.74D-03 DE=-4.95D-05 OVMax= 6.16D-03

 Cycle  28  Pass 1  IDiag  1:
 RMSU=  1.69D-06    CP:  1.00D+00  2.44D+00  3.00D+00 -3.00D+00  3.00D+00
                    CP:  3.00D+00  1.54D+00
 E= -1608.30994674807     Delta-E=       -0.000026660510 Rises=F Damp=F
 DIIS: error= 1.34D-03 at cycle  28 NSaved=  20.
 NSaved=20 IEnMin=20 EnMin= -1608.30994674807     IErMin= 7 ErrMin= 8.37D-05
 ErrMax= 1.34D-03  0.00D+00 EMaxC= 1.00D-01 BMatC= 8.24D-04 BMatP= 7.81D-06
 IDIUse=1 WtCom= 1.00D+00 WtEn= 0.00D+00
 Coeff-Com: -0.197D-01-0.140D+00-0.687D+00 0.476D-01 0.522D-02-0.227D+00
 Coeff-Com:  0.617D+00-0.446D+00 0.681D+00 0.273D+00 0.355D+00 0.344D+01
 Coeff-Com: -0.404D+01 0.456D+00 0.202D+01-0.442D+01-0.405D+00 0.261D+01
 Coeff-Com: -0.714D+00 0.159D+01
 Coeff:     -0.197D-01-0.140D+00-0.687D+00 0.476D-01 0.522D-02-0.227D+00
 Coeff:      0.617D+00-0.446D+00 0.681D+00 0.273D+00 0.355D+00 0.344D+01
 Coeff:     -0.404D+01 0.456D+00 0.202D+01-0.442D+01-0.405D+00 0.261D+01
 Coeff:     -0.714D+00 0.159D+01
 Gap=     0.128 Goal=   None    Shift=    0.000
 Gap=     0.261 Goal=   None    Shift=    0.000
 RMSDP=3.49D-05 MaxDP=3.60D-03 DE=-2.67D-05 OVMax= 8.35D-03

 Cycle  29  Pass 1  IDiag  1:
 RMSU=  1.76D-06    CP:  1.00D+00  2.72D+00  3.00D+00 -3.00D+00  2.85D+00
                    CP:  3.00D+00  1.52D+00 -1.85D+00
 E= -1608.30993229240     Delta-E=        0.000014455667 Rises=F Damp=F
 DIIS: error= 1.43D-03 at cycle  29 NSaved=  20.
 NSaved=20 IEnMin=19 EnMin= -1608.30994674807     IErMin= 6 ErrMin= 8.37D-05
 ErrMax= 1.43D-03  0.00D+00 EMaxC= 1.00D-01 BMatC= 9.42D-04 BMatP= 7.81D-06
 IDIUse=1 WtCom= 1.00D+00 WtEn= 0.00D+00
 Coeff-Com: -0.133D+00-0.814D+00 0.888D-01 0.587D-01-0.196D+00 0.630D+00
 Coeff-Com: -0.475D+00 0.666D+00 0.449D+00-0.338D+00 0.424D+01-0.428D+01
 Coeff-Com:  0.137D+01 0.193D+01-0.403D+01 0.584D+00 0.845D+00-0.305D+01
 Coeff-Com:  0.212D+01 0.133D+01
 Coeff:     -0.133D+00-0.814D+00 0.888D-01 0.587D-01-0.196D+00 0.630D+00
 Coeff:     -0.475D+00 0.666D+00 0.449D+00-0.338D+00 0.424D+01-0.428D+01
 Coeff:      0.137D+01 0.193D+01-0.403D+01 0.584D+00 0.845D+00-0.305D+01
 Coeff:      0.212D+01 0.133D+01
 Gap=     0.129 Goal=   None    Shift=    0.000
 Gap=     0.261 Goal=   None    Shift=    0.000
 RMSDP=2.49D-06 MaxDP=1.29D-04 DE= 1.45D-05 OVMax= 3.17D-04

 Cycle  30  Pass 1  IDiag  1:
 RMSU=  5.77D-07    CP:  1.00D+00  2.74D+00  3.00D+00 -3.00D+00  1.85D+00
                    CP:  3.00D+00  1.41D+00 -2.38D+00  1.18D+00
 E= -1608.30992436861     Delta-E=        0.000007923788 Rises=F Damp=F
 DIIS: error= 1.47D-03 at cycle  30 NSaved=  20.
 NSaved=20 IEnMin=18 EnMin= -1608.30994674807     IErMin= 5 ErrMin= 8.37D-05
 ErrMax= 1.47D-03  0.00D+00 EMaxC= 1.00D-01 BMatC= 9.86D-04 BMatP= 7.81D-06
 IDIUse=1 WtCom= 1.00D+00 WtEn= 0.00D+00
 Coeff-Com: -0.809D+00-0.966D-01 0.998D-01-0.143D+00 0.634D+00-0.476D+00
 Coeff-Com:  0.577D+00 0.597D+00-0.113D+01 0.494D+01-0.415D+01 0.278D+01
 Coeff-Com: -0.299D+00 0.196D+01 0.879D+00-0.606D+01-0.276D+01 0.287D+01
 Coeff-Com:  0.801D+01-0.644D+01
 Coeff:     -0.809D+00-0.966D-01 0.998D-01-0.143D+00 0.634D+00-0.476D+00
 Coeff:      0.577D+00 0.597D+00-0.113D+01 0.494D+01-0.415D+01 0.278D+01
 Coeff:     -0.299D+00 0.196D+01 0.879D+00-0.606D+01-0.276D+01 0.287D+01
 Coeff:      0.801D+01-0.644D+01
 Gap=     0.129 Goal=   None    Shift=    0.000
 Gap=     0.261 Goal=   None    Shift=    0.000
 RMSDP=7.53D-05 MaxDP=7.99D-03 DE= 7.92D-06 OVMax= 1.84D-02

 Cycle  31  Pass 1  IDiag  1:
 RMSU=  4.31D-05    CP:  9.99D-01  3.00D+00  3.00D+00 -3.00D+00 -3.00D+00
                    CP:  3.00D+00  2.10D+00 -3.00D+00  2.74D+00  3.00D+00
 E= -1608.30993403521     Delta-E=       -0.000009666599 Rises=F Damp=F
 DIIS: error= 1.49D-03 at cycle  31 NSaved=  20.
 NSaved=20 IEnMin=17 EnMin= -1608.30994674807     IErMin= 4 ErrMin= 8.37D-05
 ErrMax= 1.49D-03  0.00D+00 EMaxC= 1.00D-01 BMatC= 1.02D-03 BMatP= 7.81D-06
 IDIUse=1 WtCom= 1.00D+00 WtEn= 0.00D+00
 Coeff-Com: -0.468D+00-0.214D+00-0.359D+00 0.535D+00-0.260D+00 0.518D+00
 Coeff-Com:  0.856D-01 0.125D+01 0.208D+01-0.316D+01 0.276D-02 0.878D+00
 Coeff-Com: -0.256D+01-0.188D+01 0.172D+01 0.161D+01 0.158D+01 0.369D+01
 Coeff-Com: -0.284D+01-0.122D+01
 Coeff:     -0.468D+00-0.214D+00-0.359D+00 0.535D+00-0.260D+00 0.518D+00
 Coeff:      0.856D-01 0.125D+01 0.208D+01-0.316D+01 0.276D-02 0.878D+00
 Coeff:     -0.256D+01-0.188D+01 0.172D+01 0.161D+01 0.158D+01 0.369D+01
 Coeff:     -0.284D+01-0.122D+01
 Gap=     0.124 Goal=   None    Shift=    0.000
 Gap=     0.261 Goal=   None    Shift=    0.000
 RMSDP=3.80D-05 MaxDP=3.64D-03 DE=-9.67D-06 OVMax= 8.17D-03

 Cycle  32  Pass 1  IDiag  1:
 RMSU=  1.16D-05    CP:  9.99D-01  3.00D+00  3.00D+00 -3.00D+00  3.00D+00
                    CP:  3.00D+00  3.00D+00 -2.57D+00  2.60D+00 -2.08D+00
                    CP:  1.69D+00
 E= -1608.31001030367     Delta-E=       -0.000076268459 Rises=F Damp=F
 DIIS: error= 1.18D-03 at cycle  32 NSaved=  20.
 NSaved=20 IEnMin=20 EnMin= -1608.31001030367     IErMin= 3 ErrMin= 8.37D-05
 ErrMax= 1.18D-03  0.00D+00 EMaxC= 1.00D-01 BMatC= 6.51D-04 BMatP= 7.81D-06
 IDIUse=1 WtCom= 1.00D+00 WtEn= 0.00D+00
 Coeff-Com: -0.227D+00-0.579D+00 0.164D+00-0.245D+00 0.477D+00-0.115D+00
 Coeff-Com:  0.236D+01 0.339D+00-0.206D+01-0.820D+00 0.118D+01-0.566D+01
 Coeff-Com: -0.159D+01 0.406D+01 0.384D+01 0.785D+00 0.148D+01-0.666D+00
 Coeff-Com: -0.259D+01 0.864D+00
 Coeff:     -0.227D+00-0.579D+00 0.164D+00-0.245D+00 0.477D+00-0.115D+00
 Coeff:      0.236D+01 0.339D+00-0.206D+01-0.820D+00 0.118D+01-0.566D+01
 Coeff:     -0.159D+01 0.406D+01 0.384D+01 0.785D+00 0.148D+01-0.666D+00
 Coeff:     -0.259D+01 0.864D+00
 Gap=     0.121 Goal=   None    Shift=    0.000
 Gap=     0.262 Goal=   None    Shift=    0.000
 RMSDP=1.30D-04 MaxDP=1.37D-02 DE=-7.63D-05 OVMax= 3.16D-02

 Cycle  33  Pass 1  IDiag  1:
 RMSU=  7.10D-05    CP:  9.99D-01  3.00D+00  3.00D+00 -3.00D+00 -1.79D+00
                    CP:  3.00D+00  3.00D+00 -3.00D+00  3.00D+00 -2.51D+00
                    CP:  3.00D+00  3.00D+00
 E= -1608.31008013745     Delta-E=       -0.000069833785 Rises=F Damp=F
 DIIS: error= 9.53D-04 at cycle  33 NSaved=  20.
 NSaved=20 IEnMin=20 EnMin= -1608.31008013745     IErMin= 2 ErrMin= 8.37D-05
 ErrMax= 9.53D-04  0.00D+00 EMaxC= 1.00D-01 BMatC= 4.31D-04 BMatP= 7.81D-06
 IDIUse=1 WtCom= 1.00D+00 WtEn= 0.00D+00
 Coeff-Com: -0.328D+00-0.547D-01-0.106D+00 0.261D+00 0.165D+00 0.655D+00
 Coeff-Com:  0.121D+01-0.158D+01-0.169D+01-0.155D+01 0.321D+01-0.349D+01
 Coeff-Com:  0.836D+00 0.439D+01 0.105D+01-0.729D+00 0.977D+00-0.322D+01
 Coeff-Com:  0.404D-01 0.970D+00
 Coeff:     -0.328D+00-0.547D-01-0.106D+00 0.261D+00 0.165D+00 0.655D+00
 Coeff:      0.121D+01-0.158D+01-0.169D+01-0.155D+01 0.321D+01-0.349D+01
 Coeff:      0.836D+00 0.439D+01 0.105D+01-0.729D+00 0.977D+00-0.322D+01
 Coeff:      0.404D-01 0.970D+00
 Gap=     0.113 Goal=   None    Shift=    0.000
 Gap=     0.263 Goal=   None    Shift=    0.000
 RMSDP=9.66D-05 MaxDP=9.21D-03 DE=-6.98D-05 OVMax= 2.19D-02

 Cycle  34  Pass 1  IDiag  1:
 RMSU=  3.09D-05    CP:  9.99D-01  3.00D+00  3.00D+00 -3.00D+00  3.00D+00
                    CP:  3.00D+00  3.00D+00  3.00D+00  1.30D+00 -3.00D+00
                    CP:  2.42D+00  3.00D+00  1.34D-01
 E= -1608.31012421635     Delta-E=       -0.000044078896 Rises=F Damp=F
 DIIS: error= 4.20D-04 at cycle  34 NSaved=  20.
 NSaved=20 IEnMin=20 EnMin= -1608.31012421635     IErMin= 1 ErrMin= 8.37D-05
 ErrMax= 4.20D-04  0.00D+00 EMaxC= 1.00D-01 BMatC= 8.20D-05 BMatP= 7.81D-06
 IDIUse=1 WtCom= 1.00D+00 WtEn= 0.00D+00
 Coeff-Com: -0.466D+00-0.142D+00-0.188D+00-0.615D-01 0.111D+01-0.233D+00
 Coeff-Com:  0.241D+00-0.185D+01-0.184D+01-0.474D+00-0.215D+01 0.225D+01
 Coeff-Com:  0.414D+01 0.872D+00-0.196D+00 0.772D+00-0.196D+01-0.509D+00
 Coeff-Com:  0.180D+00 0.152D+01
 Coeff:     -0.466D+00-0.142D+00-0.188D+00-0.615D-01 0.111D+01-0.233D+00
 Coeff:      0.241D+00-0.185D+01-0.184D+01-0.474D+00-0.215D+01 0.225D+01
 Coeff:      0.414D+01 0.872D+00-0.196D+00 0.772D+00-0.196D+01-0.509D+00
 Coeff:      0.180D+00 0.152D+01
 Gap=     0.127 Goal=   None    Shift=    0.000
 Gap=     0.262 Goal=   None    Shift=    0.000
 RMSDP=7.37D-04 MaxDP=7.40D-02 DE=-4.41D-05 OVMax= 1.79D-01

 Cycle  35  Pass 1  IDiag  1:
 RMSU=  5.02D-04    CP:  9.98D-01  3.00D+00  3.00D+00 -3.00D+00 -3.00D+00
                    CP:  3.00D+00  3.00D+00 -3.00D+00  3.00D+00 -3.00D+00
                    CP:  3.00D+00  3.00D+00  3.00D+00 -1.46D+00
 E= -1608.30999561738     Delta-E=        0.000128598975 Rises=F Damp=F
 DIIS: error= 1.71D-03 at cycle  35 NSaved=  20.
 NSaved=20 IEnMin=19 EnMin= -1608.31012421635     IErMin= 1 ErrMin= 2.78D-04
 ErrMax= 1.71D-03  0.00D+00 EMaxC= 1.00D-01 BMatC= 1.82D-03 BMatP= 4.95D-05
 IDIUse=1 WtCom= 1.00D+00 WtEn= 0.00D+00
 Coeff-Com:  0.360D+00-0.823D+00 0.378D+00-0.116D+01 0.114D+01-0.409D-01
 Coeff-Com:  0.205D+01-0.162D+01 0.100D+01-0.106D+01-0.403D+01-0.209D+01
 Coeff-Com:  0.352D+01 0.598D+01-0.190D+01-0.215D+01 0.270D+00 0.139D+00
 Coeff-Com:  0.118D+01-0.146D+00
 Coeff:      0.360D+00-0.823D+00 0.378D+00-0.116D+01 0.114D+01-0.409D-01
 Coeff:      0.205D+01-0.162D+01 0.100D+01-0.106D+01-0.403D+01-0.209D+01
 Coeff:      0.352D+01 0.598D+01-0.190D+01-0.215D+01 0.270D+00 0.139D+00
 Coeff:      0.118D+01-0.146D+00
 Gap=     0.133 Goal=   None    Shift=    0.000
 Gap=     0.261 Goal=   None    Shift=    0.000
 RMSDP=1.77D-05 MaxDP=1.30D-03 DE= 1.29D-04 OVMax= 3.58D-03

 Cycle  36  Pass 1  IDiag  1:
 RMSU=  5.30D-06    CP:  9.97D-01  3.00D+00  3.00D+00 -3.00D+00 -3.00D+00
                    CP:  3.00D+00  3.00D+00 -3.00D+00  3.00D+00 -3.00D+00
                    CP:  3.00D+00  3.00D+00  3.00D+00 -1.15D+00  1.03D+00
 E= -1608.31005018111     Delta-E=       -0.000054563737 Rises=F Damp=F
 DIIS: error= 1.58D-03 at cycle  36 NSaved=  20.
 NSaved=20 IEnMin=18 EnMin= -1608.31012421635     IErMin= 1 ErrMin= 2.78D-04
 ErrMax= 1.58D-03  0.00D+00 EMaxC= 1.00D-01 BMatC= 1.54D-03 BMatP= 4.95D-05
 IDIUse=1 WtCom= 1.00D+00 WtEn= 0.00D+00
 Coeff-Com: -0.420D+00-0.463D-01-0.110D+01 0.294D+01-0.902D+00 0.194D+01
 Coeff-Com: -0.243D+01 0.107D+01-0.268D+00-0.352D+01-0.658D+00 0.334D+01
 Coeff-Com:  0.762D+01-0.579D+01-0.502D-01-0.653D+00-0.160D+01 0.133D+01
 Coeff-Com: -0.196D+01 0.217D+01
 Coeff:     -0.420D+00-0.463D-01-0.110D+01 0.294D+01-0.902D+00 0.194D+01
 Coeff:     -0.243D+01 0.107D+01-0.268D+00-0.352D+01-0.658D+00 0.334D+01
 Coeff:      0.762D+01-0.579D+01-0.502D-01-0.653D+00-0.160D+01 0.133D+01
 Coeff:     -0.196D+01 0.217D+01
 Gap=     0.108 Goal=   None    Shift=    0.000
 Gap=     0.264 Goal=   None    Shift=    0.000
 RMSDP=5.15D-04 MaxDP=5.02D-02 DE=-5.46D-05 OVMax= 1.24D-01

 Cycle  37  Pass 1  IDiag  1:
 RMSU=  2.11D-05    CP:  9.99D-01  3.00D+00  3.00D+00 -3.00D+00 -3.00D+00
                    CP:  3.00D+00  3.00D+00 -3.00D+00  3.00D+00 -3.00D+00
                    CP:  3.00D+00  3.00D+00  3.00D+00  8.50D-01  1.37D-02
                    CP:  3.00D+00
 E= -1608.31018676097     Delta-E=       -0.000136579856 Rises=F Damp=F
 DIIS: error= 3.15D-04 at cycle  37 NSaved=  20.
 NSaved=20 IEnMin=20 EnMin= -1608.31018676097     IErMin= 1 ErrMin= 2.78D-04
 ErrMax= 3.15D-04  0.00D+00 EMaxC= 1.00D-01 BMatC= 4.56D-05 BMatP= 4.95D-05
 IDIUse=1 WtCom= 1.00D+00 WtEn= 0.00D+00
 Coeff-Com: -0.472D+00 0.163D+00-0.191D+01 0.312D+01-0.787D+00-0.682D-01
 Coeff-Com: -0.196D+01-0.605D+00 0.116D+01 0.119D+01 0.143D+01 0.232D+01
 Coeff-Com: -0.170D+01 0.115D+01-0.229D+01-0.282D+01 0.133D+01-0.146D+01
 Coeff-Com:  0.179D+01 0.142D+01
 Coeff:     -0.472D+00 0.163D+00-0.191D+01 0.312D+01-0.787D+00-0.682D-01
 Coeff:     -0.196D+01-0.605D+00 0.116D+01 0.119D+01 0.143D+01 0.232D+01
 Coeff:     -0.170D+01 0.115D+01-0.229D+01-0.282D+01 0.133D+01-0.146D+01
 Coeff:      0.179D+01 0.142D+01
 Gap=     0.113 Goal=   None    Shift=    0.000
 Gap=     0.263 Goal=   None    Shift=    0.000
 RMSDP=2.57D-04 MaxDP=2.58D-02 DE=-1.37D-04 OVMax= 6.32D-02

 Cycle  38  Pass 1  IDiag  1:
 RMSU=  1.57D-05    CP:  9.98D-01  3.00D+00  3.00D+00 -3.00D+00 -3.00D+00
                    CP:  3.00D+00  3.00D+00 -3.00D+00  3.00D+00 -3.00D+00
                    CP:  3.00D+00  3.00D+00  3.00D+00  5.10D-01  5.24D-01
                    CP:  3.00D+00  1.56D+00
 E= -1608.31023967725     Delta-E=       -0.000052916278 Rises=F Damp=F
 DIIS: error= 4.65D-04 at cycle  38 NSaved=  20.
 NSaved=20 IEnMin=20 EnMin= -1608.31023967725     IErMin= 1 ErrMin= 2.78D-04
 ErrMax= 4.65D-04  0.00D+00 EMaxC= 1.00D-01 BMatC= 1.11D-04 BMatP= 4.56D-05
 IDIUse=1 WtCom= 1.00D+00 WtEn= 0.00D+00
 Coeff-Com: -0.426D+00-0.416D-02-0.132D+01 0.411D+01-0.311D+01-0.149D+01
 Coeff-Com: -0.294D+01 0.459D+01 0.413D+00 0.124D+01-0.728D+00 0.139D+01
 Coeff-Com:  0.184D+01-0.350D+01-0.195D+01 0.171D+01-0.858D+00 0.152D+01
 Coeff-Com:  0.434D+01-0.383D+01
 Coeff:     -0.426D+00-0.416D-02-0.132D+01 0.411D+01-0.311D+01-0.149D+01
 Coeff:     -0.294D+01 0.459D+01 0.413D+00 0.124D+01-0.728D+00 0.139D+01
 Coeff:      0.184D+01-0.350D+01-0.195D+01 0.171D+01-0.858D+00 0.152D+01
 Coeff:      0.434D+01-0.383D+01
 Gap=     0.108 Goal=   None    Shift=    0.000
 Gap=     0.263 Goal=   None    Shift=    0.000
 RMSDP=8.61D-04 MaxDP=9.01D-02 DE=-5.29D-05 OVMax= 2.11D-01

 Cycle  39  Pass 1  IDiag  1:
 RMSU=  8.87D-06    CP:  1.00D+00  8.55D-01  3.00D+00 -3.00D+00  3.00D+00
                    CP:  3.00D+00  2.15D+00  3.00D+00 -3.00D+00 -2.14D+00
                    CP: -4.21D-02  9.72D-01 -5.01D-02 -2.46D-01 -1.66D-03
                    CP:  7.07D-01  2.69D-01 -1.58D-01
 E= -1608.31000535235     Delta-E=        0.000234324893 Rises=F Damp=F
 DIIS: error= 8.20D-04 at cycle  39 NSaved=  20.
 NSaved=20 IEnMin=19 EnMin= -1608.31023967725     IErMin= 1 ErrMin= 2.78D-04
 ErrMax= 8.20D-04  0.00D+00 EMaxC= 1.00D-01 BMatC= 3.08D-04 BMatP= 4.56D-05
 IDIUse=1 WtCom= 1.00D+00 WtEn= 0.00D+00
 Coeff-Com: -0.436D+00 0.127D+00-0.181D+01 0.485D+01-0.348D+01-0.161D+01
 Coeff-Com:  0.183D+01-0.141D+01 0.180D+01 0.173D+01-0.636D-01 0.195D+01
 Coeff-Com: -0.321D+01-0.205D+01 0.171D+01-0.884D+00 0.152D+01 0.416D+01
 Coeff-Com: -0.375D+01 0.184D-01
 Coeff:     -0.436D+00 0.127D+00-0.181D+01 0.485D+01-0.348D+01-0.161D+01
 Coeff:      0.183D+01-0.141D+01 0.180D+01 0.173D+01-0.636D-01 0.195D+01
 Coeff:     -0.321D+01-0.205D+01 0.171D+01-0.884D+00 0.152D+01 0.416D+01
 Coeff:     -0.375D+01 0.184D-01
 Gap=     0.119 Goal=   None    Shift=    0.000
 Gap=     0.262 Goal=   None    Shift=    0.000
 RMSDP=2.39D-05 MaxDP=2.54D-03 DE= 2.34D-04 OVMax= 5.84D-03

 Cycle  40  Pass 1  IDiag  1:
 RMSU=  4.11D-07    CP:  1.00D+00  6.55D-01  3.00D+00 -3.00D+00  3.00D+00
                    CP:  3.00D+00  2.01D+00  3.00D+00 -3.00D+00 -2.24D+00
                    CP: -4.04D-02  9.30D-01 -4.79D-02 -2.37D-01 -1.53D-03
                    CP:  6.30D-01  2.68D-01 -1.70D-01  1.00D+00
 E= -1608.30999928579     Delta-E=        0.000006066566 Rises=F Damp=F
 DIIS: error= 8.27D-04 at cycle  40 NSaved=  20.
 NSaved=20 IEnMin=18 EnMin= -1608.31023967725     IErMin=17 ErrMin= 3.15D-04
 ErrMax= 8.27D-04  0.00D+00 EMaxC= 1.00D-01 BMatC= 3.14D-04 BMatP= 4.56D-05
 IDIUse=1 WtCom= 1.00D+00 WtEn= 0.00D+00
 Coeff-Com: -0.102D+00 0.515D-01 0.239D+01-0.312D+01-0.401D+01 0.316D+01
 Coeff-Com: -0.210D+01 0.186D+01 0.257D+01 0.844D+00 0.157D+01-0.287D+01
 Coeff-Com: -0.127D+01 0.112D+01 0.109D+01-0.668D+00 0.439D+01-0.451D+01
 Coeff-Com: -0.367D+00 0.988D+00
 Coeff:     -0.102D+00 0.515D-01 0.239D+01-0.312D+01-0.401D+01 0.316D+01
 Coeff:     -0.210D+01 0.186D+01 0.257D+01 0.844D+00 0.157D+01-0.287D+01
 Coeff:     -0.127D+01 0.112D+01 0.109D+01-0.668D+00 0.439D+01-0.451D+01
 Coeff:     -0.367D+00 0.988D+00
 Gap=     0.124 Goal=   None    Shift=    0.000
 Gap=     0.260 Goal=   None    Shift=    0.000
 RMSDP=6.17D-04 MaxDP=6.50D-02 DE= 6.07D-06 OVMax= 1.50D-01

 Cycle  41  Pass 1  IDiag  1:
 Restarting incremental Fock formation.
 E= -1608.30970744799     Delta-E=        0.000291837804 Rises=F Damp=F
 DIIS: error= 1.49D-03 at cycle  41 NSaved=  20.
 NSaved=20 IEnMin=17 EnMin= -1608.31023967725     IErMin=16 ErrMin= 3.15D-04
 ErrMax= 1.49D-03  0.00D+00 EMaxC= 1.00D-01 BMatC= 1.11D-03 BMatP= 4.56D-05
 IDIUse=1 WtCom= 1.00D+00 WtEn= 0.00D+00
 Coeff-Com: -0.511D+00 0.247D+01-0.153D+01-0.222D+00 0.486D+00 0.195D+01
 Coeff-Com: -0.613D+00-0.266D+00-0.954D+00-0.114D+01-0.451D+00-0.100D+00
 Coeff-Com:  0.890D+00 0.930D+00-0.367D+00 0.255D+01-0.310D+01-0.801D+01
 Coeff-Com:  0.989D+01-0.908D+00
 Coeff:     -0.511D+00 0.247D+01-0.153D+01-0.222D+00 0.486D+00 0.195D+01
 Coeff:     -0.613D+00-0.266D+00-0.954D+00-0.114D+01-0.451D+00-0.100D+00
 Coeff:      0.890D+00 0.930D+00-0.367D+00 0.255D+01-0.310D+01-0.801D+01
 Coeff:      0.989D+01-0.908D+00
 Gap=     0.125 Goal=   None    Shift=    0.000
 Gap=     0.260 Goal=   None    Shift=    0.000
 RMSDP=8.88D-05 MaxDP=9.20D-03 DE= 2.92D-04 OVMax= 2.12D-02

 Cycle  42  Pass 1  IDiag  1:
 RMSU=  8.88D-05    CP:  1.00D+00
 E= -1608.30981155931     Delta-E=       -0.000104111325 Rises=F Damp=F
 DIIS: error= 1.17D-03 at cycle  42 NSaved=  20.
 NSaved=20 IEnMin=16 EnMin= -1608.31023967725     IErMin=15 ErrMin= 3.15D-04
 ErrMax= 1.17D-03  0.00D+00 EMaxC= 1.00D-01 BMatC= 6.67D-04 BMatP= 4.56D-05
 IDIUse=1 WtCom= 1.00D+00 WtEn= 0.00D+00
 Large coefficients: NSaved= 20 BigCof=   10.14 CofMax=   10.00 Det=-4.31D-10
 Inversion failed.  Reducing to 19 matrices.
 Coeff-Com:  0.121D+00 0.945D-01 0.110D+01 0.263D+01-0.399D+00-0.679D+00
 Coeff-Com: -0.112D+01-0.121D+01-0.787D+00-0.103D+01 0.688D+00 0.777D+00
 Coeff-Com: -0.275D+00 0.222D+01-0.165D+01-0.822D+01 0.959D+01-0.518D+00
 Coeff-Com: -0.329D+00
 Coeff:      0.121D+00 0.945D-01 0.110D+01 0.263D+01-0.399D+00-0.679D+00
 Coeff:     -0.112D+01-0.121D+01-0.787D+00-0.103D+01 0.688D+00 0.777D+00
 Coeff:     -0.275D+00 0.222D+01-0.165D+01-0.822D+01 0.959D+01-0.518D+00
 Coeff:     -0.329D+00
 Gap=     0.110 Goal=   None    Shift=    0.000
 Gap=     0.263 Goal=   None    Shift=    0.000
 RMSDP=4.38D-04 MaxDP=4.62D-02 DE=-1.04D-04 OVMax= 1.07D-01

 Cycle  43  Pass 1  IDiag  1:
 RMSU=  2.64D-04    CP:  9.99D-01  3.00D+00
 E= -1608.31002313537     Delta-E=       -0.000211576059 Rises=F Damp=F
 DIIS: error= 3.94D-04 at cycle  43 NSaved=  20.
 NSaved=20 IEnMin=15 EnMin= -1608.31023967725     IErMin=14 ErrMin= 3.15D-04
 ErrMax= 3.94D-04  0.00D+00 EMaxC= 1.00D-01 BMatC= 7.31D-05 BMatP= 4.56D-05
 IDIUse=1 WtCom= 1.00D+00 WtEn= 0.00D+00
 Coeff-Com: -0.242D+00 0.284D+00 0.159D+01 0.111D+01 0.381D-01-0.246D+01
 Coeff-Com:  0.158D+01-0.172D+01-0.638D+00-0.472D+00 0.982D+00-0.190D+00
 Coeff-Com:  0.838D+00 0.204D+01-0.269D+01-0.109D+01 0.183D+01 0.870D-01
 Coeff-Com: -0.110D+01 0.124D+01
 Coeff:     -0.242D+00 0.284D+00 0.159D+01 0.111D+01 0.381D-01-0.246D+01
 Coeff:      0.158D+01-0.172D+01-0.638D+00-0.472D+00 0.982D+00-0.190D+00
 Coeff:      0.838D+00 0.204D+01-0.269D+01-0.109D+01 0.183D+01 0.870D-01
 Coeff:     -0.110D+01 0.124D+01
 Gap=     0.120 Goal=   None    Shift=    0.000
 Gap=     0.261 Goal=   None    Shift=    0.000
 RMSDP=2.88D-04 MaxDP=3.05D-02 DE=-2.12D-04 OVMax= 7.02D-02

 Cycle  44  Pass 1  IDiag  1:
 RMSU=  2.15D-05    CP:  1.00D+00  2.68D+00  2.06D-02
 E= -1608.30989213159     Delta-E=        0.000131003782 Rises=F Damp=F
 DIIS: error= 9.58D-04 at cycle  44 NSaved=  20.
 NSaved=20 IEnMin=15 EnMin= -1608.31023967725     IErMin=14 ErrMin= 3.15D-04
 ErrMax= 9.58D-04  0.00D+00 EMaxC= 1.00D-01 BMatC= 4.37D-04 BMatP= 4.56D-05
 IDIUse=1 WtCom= 1.00D+00 WtEn= 0.00D+00
 Coeff-Com: -0.247D+00 0.343D+00 0.116D+01-0.228D+00 0.505D+00-0.229D+00
 Coeff-Com:  0.567D-01-0.503D+00-0.139D+01-0.567D+00 0.943D+00-0.228D+00
 Coeff-Com:  0.889D+00 0.215D+01-0.306D+01-0.107D+00 0.453D+00-0.146D+01
 Coeff-Com:  0.146D+01 0.105D+01
 Coeff:     -0.247D+00 0.343D+00 0.116D+01-0.228D+00 0.505D+00-0.229D+00
 Coeff:      0.567D-01-0.503D+00-0.139D+01-0.567D+00 0.943D+00-0.228D+00
 Coeff:      0.889D+00 0.215D+01-0.306D+01-0.107D+00 0.453D+00-0.146D+01
 Coeff:      0.146D+01 0.105D+01
 Gap=     0.127 Goal=   None    Shift=    0.000
 Gap=     0.259 Goal=   None    Shift=    0.000
 RMSDP=2.68D-04 MaxDP=2.77D-02 DE= 1.31D-04 OVMax= 6.53D-02

 Cycle  45  Pass 1  IDiag  1:
 RMSU=  6.79D-06    CP:  1.00D+00 -3.19D-01 -9.14D-03 -6.14D-01
 E= -1608.30972984832     Delta-E=        0.000162283269 Rises=F Damp=F
 DIIS: error= 1.36D-03 at cycle  45 NSaved=  20.
 NSaved=20 IEnMin=15 EnMin= -1608.31023967725     IErMin=14 ErrMin= 3.15D-04
 ErrMax= 1.36D-03  0.00D+00 EMaxC= 1.00D-01 BMatC= 9.30D-04 BMatP= 4.56D-05
 IDIUse=1 WtCom= 1.00D+00 WtEn= 0.00D+00
 Coeff-Com: -0.214D+00 0.166D+00 0.202D+01 0.169D+01-0.164D+00-0.329D+01
 Coeff-Com:  0.168D+01-0.204D+01-0.430D+00-0.325D+00 0.104D+01-0.145D+00
 Coeff-Com:  0.790D+00 0.187D+01-0.239D+01-0.610D+00 0.946D+00 0.987D+00
 Coeff-Com:  0.858D-01-0.672D+00
 Coeff:     -0.214D+00 0.166D+00 0.202D+01 0.169D+01-0.164D+00-0.329D+01
 Coeff:      0.168D+01-0.204D+01-0.430D+00-0.325D+00 0.104D+01-0.145D+00
 Coeff:      0.790D+00 0.187D+01-0.239D+01-0.610D+00 0.946D+00 0.987D+00
 Coeff:      0.858D-01-0.672D+00
 Gap=     0.117 Goal=   None    Shift=    0.000
 Gap=     0.261 Goal=   None    Shift=    0.000
 RMSDP=3.17D-04 MaxDP=3.29D-02 DE= 1.62D-04 OVMax= 7.71D-02

 Cycle  46  Pass 1  IDiag  1:
 RMSU=  1.07D-06    CP:  1.00D+00  3.00D+00  9.68D-02  8.29D-01  3.66D-01
 E= -1608.30993136194     Delta-E=       -0.000201513620 Rises=F Damp=F
 DIIS: error= 7.74D-04 at cycle  46 NSaved=  20.
 NSaved=20 IEnMin=14 EnMin= -1608.31023967725     IErMin=13 ErrMin= 3.15D-04
 ErrMax= 7.74D-04  0.00D+00 EMaxC= 1.00D-01 BMatC= 2.84D-04 BMatP= 4.56D-05
 IDIUse=1 WtCom= 1.00D+00 WtEn= 0.00D+00
 Coeff-Com: -0.276D+00 0.198D+00 0.209D+01 0.527D-01 0.832D+00-0.160D+01
 Coeff-Com: -0.446D+00-0.127D+01-0.595D+00 0.858D+00 0.969D-01 0.516D+00
 Coeff-Com:  0.192D+01-0.309D+01 0.257D+01-0.269D+01 0.927D+00-0.146D+01
 Coeff-Com: -0.638D+00 0.301D+01
 Coeff:     -0.276D+00 0.198D+00 0.209D+01 0.527D-01 0.832D+00-0.160D+01
 Coeff:     -0.446D+00-0.127D+01-0.595D+00 0.858D+00 0.969D-01 0.516D+00
 Coeff:      0.192D+01-0.309D+01 0.257D+01-0.269D+01 0.927D+00-0.146D+01
 Coeff:     -0.638D+00 0.301D+01
 Gap=     0.131 Goal=   None    Shift=    0.000
 Gap=     0.258 Goal=   None    Shift=    0.000
 RMSDP=5.82D-04 MaxDP=5.94D-02 DE=-2.02D-04 OVMax= 1.41D-01

 Cycle  47  Pass 1  IDiag  1:
 RMSU=  2.88D-05    CP:  1.00D+00 -3.00D+00 -1.00D-01 -1.40D+00  3.00D+00
                    CP:  3.00D+00
 E= -1608.30949142752     Delta-E=        0.000439934418 Rises=F Damp=F
 DIIS: error= 1.77D-03 at cycle  47 NSaved=  20.
 NSaved=20 IEnMin=14 EnMin= -1608.31023967725     IErMin=13 ErrMin= 3.15D-04
 ErrMax= 1.77D-03  0.00D+00 EMaxC= 1.00D-01 BMatC= 1.74D-03 BMatP= 4.56D-05
 IDIUse=1 WtCom= 1.00D+00 WtEn= 0.00D+00
 Coeff-Com: -0.303D+00 0.213D+00 0.226D+01-0.310D-01 0.193D+00-0.821D+00
 Coeff-Com: -0.109D+01-0.769D+00-0.487D+00 0.859D+00 0.978D-01 0.490D+00
 Coeff-Com:  0.188D+01-0.297D+01 0.290D+01-0.289D+01 0.891D+00-0.232D+01
 Coeff-Com:  0.304D+01-0.140D+00
 Coeff:     -0.303D+00 0.213D+00 0.226D+01-0.310D-01 0.193D+00-0.821D+00
 Coeff:     -0.109D+01-0.769D+00-0.487D+00 0.859D+00 0.978D-01 0.490D+00
 Coeff:      0.188D+01-0.297D+01 0.290D+01-0.289D+01 0.891D+00-0.232D+01
 Coeff:      0.304D+01-0.140D+00
 Gap=     0.131 Goal=   None    Shift=    0.000
 Gap=     0.258 Goal=   None    Shift=    0.000
 RMSDP=1.12D-04 MaxDP=1.10D-02 DE= 4.40D-04 OVMax= 2.70D-02

 Cycle  48  Pass 1  IDiag  1:
 RMSU=  1.45D-06    CP:  1.00D+00 -2.03D+00 -1.65D-02 -1.50D+00  3.00D+00
                    CP:  1.69D+00  2.48D-01
 E= -1608.30962523546     Delta-E=       -0.000133807945 Rises=F Damp=F
 DIIS: error= 1.52D-03 at cycle  48 NSaved=  20.
 NSaved=20 IEnMin=13 EnMin= -1608.31023967725     IErMin=12 ErrMin= 3.15D-04
 ErrMax= 1.52D-03  0.00D+00 EMaxC= 1.00D-01 BMatC= 1.23D-03 BMatP= 4.56D-05
 IDIUse=1 WtCom= 1.00D+00 WtEn= 0.00D+00
 Coeff-Com: -0.205D+00 0.270D+01-0.107D+00-0.162D+00-0.573D+00-0.111D+01
 Coeff-Com: -0.823D+00-0.657D+00 0.888D+00 0.586D-01 0.543D+00 0.192D+01
 Coeff-Com: -0.301D+01 0.322D+01-0.298D+01 0.944D+00-0.301D+01 0.327D+01
 Coeff-Com: -0.434D+00 0.537D+00
 Coeff:     -0.205D+00 0.270D+01-0.107D+00-0.162D+00-0.573D+00-0.111D+01
 Coeff:     -0.823D+00-0.657D+00 0.888D+00 0.586D-01 0.543D+00 0.192D+01
 Coeff:     -0.301D+01 0.322D+01-0.298D+01 0.944D+00-0.301D+01 0.327D+01
 Coeff:     -0.434D+00 0.537D+00
 Gap=     0.132 Goal=   None    Shift=    0.000
 Gap=     0.258 Goal=   None    Shift=    0.000
 RMSDP=1.14D-05 MaxDP=1.13D-03 DE=-1.34D-04 OVMax= 2.76D-03

 Cycle  49  Pass 1  IDiag  1:
 RMSU=  1.52D-07    CP:  1.00D+00 -2.16D+00 -1.64D-02 -1.53D+00  3.00D+00
                    CP:  1.88D+00  3.08D-01  9.74D-01
 E= -1608.30961420391     Delta-E=        0.000011031552 Rises=F Damp=F
 DIIS: error= 1.54D-03 at cycle  49 NSaved=  20.
 NSaved=20 IEnMin=13 EnMin= -1608.31023967725     IErMin=12 ErrMin= 3.15D-04
 ErrMax= 1.54D-03  0.00D+00 EMaxC= 1.00D-01 BMatC= 1.27D-03 BMatP= 4.56D-05
 IDIUse=1 WtCom= 1.00D+00 WtEn= 0.00D+00
 Coeff-Com: -0.163D+00 0.251D+01-0.105D+00 0.518D+00-0.127D+01-0.871D+00
 Coeff-Com: -0.864D+00-0.718D+00 0.840D+00 0.102D+00 0.485D+00 0.190D+01
 Coeff-Com: -0.288D+01 0.288D+01-0.284D+01 0.844D+00-0.228D+01 0.313D+01
 Coeff-Com:  0.390D+00-0.592D+00
 Coeff:     -0.163D+00 0.251D+01-0.105D+00 0.518D+00-0.127D+01-0.871D+00
 Coeff:     -0.864D+00-0.718D+00 0.840D+00 0.102D+00 0.485D+00 0.190D+01
 Coeff:     -0.288D+01 0.288D+01-0.284D+01 0.844D+00-0.228D+01 0.313D+01
 Coeff:      0.390D+00-0.592D+00
 Gap=     0.131 Goal=   None    Shift=    0.000
 Gap=     0.258 Goal=   None    Shift=    0.000
 RMSDP=8.46D-06 MaxDP=8.46D-04 DE= 1.10D-05 OVMax= 1.98D-03

 Cycle  50  Pass 1  IDiag  1:
 RMSU=  1.69D-07    CP:  1.00D+00 -2.07D+00 -1.75D-02 -1.57D+00  3.00D+00
                    CP:  1.72D+00  2.85D-01  1.02D+00  1.27D+00
 E= -1608.30962930036     Delta-E=       -0.000015096443 Rises=F Damp=F
 DIIS: error= 1.50D-03 at cycle  50 NSaved=  20.
 NSaved=20 IEnMin=13 EnMin= -1608.31023967725     IErMin=12 ErrMin= 3.15D-04
 ErrMax= 1.50D-03  0.00D+00 EMaxC= 1.00D-01 BMatC= 1.20D-03 BMatP= 4.56D-05
 IDIUse=1 WtCom= 1.00D+00 WtEn= 0.00D+00
 Coeff-Com: -0.185D+00 0.213D+01 0.160D+00-0.133D+01 0.125D+01-0.117D+01
 Coeff-Com: -0.135D+01-0.734D+00 0.995D+00 0.924D-01 0.575D+00 0.240D+01
 Coeff-Com: -0.348D+01 0.160D+01-0.572D+00 0.899D+00-0.290D+01 0.235D+01
 Coeff-Com: -0.655D+01 0.682D+01
 Coeff:     -0.185D+00 0.213D+01 0.160D+00-0.133D+01 0.125D+01-0.117D+01
 Coeff:     -0.135D+01-0.734D+00 0.995D+00 0.924D-01 0.575D+00 0.240D+01
 Coeff:     -0.348D+01 0.160D+01-0.572D+00 0.899D+00-0.290D+01 0.235D+01
 Coeff:     -0.655D+01 0.682D+01
 Gap=     0.134 Goal=   None    Shift=    0.000
 Gap=     0.258 Goal=   None    Shift=    0.000
 RMSDP=2.30D-05 MaxDP=2.27D-03 DE=-1.51D-05 OVMax= 5.11D-03

 >>>>>>>>>> Convergence criterion not met.
 SCF Done:  E(UB3LYP) =  -1608.30962930     A.U. after   51 cycles
            NFock= 50  Conv=0.23D-04     -V/T= 2.0014
 <Sx>= 0.0000 <Sy>= 0.0000 <Sz>= 2.0000 <S**2>= 6.0098 S= 2.0020
 <L.S>=  0.00000000000    
 KE= 1.606075671225D+03 PE=-5.268507901255D+03 EE= 1.303045043927D+03
 Annihilation of the first spin contaminant:
 S**2 before annihilation     6.0098,   after     6.0000
 Leave Link  502 at Thu May 23 14:17:21 2024, MaxMem= 26843545600 cpu:            9258.7 elap:              81.4
 (Enter /gpfs/fs1/soft/improv/software/custom-built/gaussian/g16/l508.exe)
 Integral symmetry usage will be decided dynamically.
 Tight linear equation convergence will be used.
 UB3LYP wavefunction.
 Quadratic Convergence SCF Method.
 Line search only if initial step raises energy.
 Fock matrices will be formed incrementally for  20 cycles.
 FoFJK:  IHMeth= 1 ICntrl=       0 DoSepK=F KAlg= 0 I1Cent=           0 FoldK=F
 IRaf= 990000000 NMat=       1 IRICut=       1 DoRegI=T DoRafI=F ISym2E= 1 IDoP0=0 IntGTp=1.
 FoFCou: FMM=F IPFlag=           0 FMFlag=      100000 FMFlg1=           0
         NFxFlg=           0 DoJE=F BraDBF=F KetDBF=F FulRan=T
         wScrn=  0.000000 ICntrl=         0 IOpCl=  1 I1Cent=           0 NGrid=           0
         NMat0=    1 NMatS0=      1 NMatT0=    0 NMatD0=    1 NMtDS0=    0 NMtDT0=    0
 Petite list used in FoFCou.
[...]
    14  H   -0.014343   0.294875  -0.000001   0.000000  -0.000059   0.000000
    15  H   -0.000059  -0.000001   0.271490  -0.000009  -0.000000  -0.000059
    16  H    0.000000   0.000000  -0.000009   0.269431   0.000003  -0.000078
    17  H   -0.000001  -0.000059  -0.000000   0.000003   0.271490  -0.000001
    18  H    0.000000   0.000000  -0.000059  -0.000078  -0.000001   0.294875
    19  H    0.000000   0.000000   0.000003   0.000001  -0.000009  -0.000078
              19
     1  Mn  -0.011504
     2  O   -0.000447
     3  H   -0.000000
     4  O    0.000138
     5  H   -0.000009
     6  O    0.003356
     7  H   -0.000078
     8  O    0.300619
     9  H   -0.013456
    10  O    0.000138
    11  H    0.000003
    12  O    0.000877
    13  H    0.000000
    14  H    0.000000
    15  H    0.000003
    16  H    0.000001
    17  H   -0.000009
    18  H   -0.000078
    19  H    0.269431
          Atomic-Atomic Spin Densities.
               1          2          3          4          5          6
     1  Mn   4.139826  -0.043017  -0.000429  -0.046105   0.000255  -0.069595
     2  O   -0.043017   0.038252   0.000048   0.022328  -0.000463  -0.013958
     3  H   -0.000429   0.000048   0.001506  -0.000640   0.000002   0.000215
     4  O   -0.046105   0.022328  -0.000640   0.043846  -0.000679  -0.016155
     5  H    0.000255  -0.000463   0.000002  -0.000679   0.001052   0.000513
     6  O   -0.069595  -0.013958   0.000215  -0.016155   0.000513   0.174480
     7  H    0.002471   0.000479  -0.000001   0.000284  -0.000002  -0.005434
     8  O   -0.043017   0.003040  -0.000068   0.022328  -0.000510  -0.013958
     9  H   -0.000429  -0.000068  -0.000000  -0.000640   0.000027   0.000215
    10  O   -0.046105   0.022328  -0.000640   0.003622  -0.000076  -0.016155
    11  H    0.000255  -0.000510   0.000027  -0.000076   0.000000   0.000513
    12  O   -0.069595  -0.013958   0.001179  -0.016155   0.000513   0.009308
    13  H    0.002471   0.000479  -0.000025   0.001157  -0.000024  -0.000128
    14  H    0.002471   0.000479  -0.000025   0.000284  -0.000002  -0.000128
    15  H    0.000255  -0.000510   0.000027  -0.000679  -0.000284   0.000513
    16  H   -0.000429   0.000048  -0.000528  -0.000640   0.000002   0.001179
    17  H    0.000255  -0.000463   0.000002  -0.000076  -0.000000   0.000513
    18  H    0.002471   0.000479  -0.000001   0.001157  -0.000024  -0.005434
    19  H   -0.000429  -0.000068   0.000000  -0.000640   0.000027   0.001179
               7          8          9         10         11         12
     1  Mn   0.002471  -0.043017  -0.000429  -0.046105   0.000255  -0.069595
     2  O    0.000479   0.003040  -0.000068   0.022328  -0.000510  -0.013958
     3  H   -0.000001  -0.000068  -0.000000  -0.000640   0.000027   0.001179
     4  O    0.000284   0.022328  -0.000640   0.003622  -0.000076  -0.016155
     5  H   -0.000002  -0.000510   0.000027  -0.000076   0.000000   0.000513
     6  O   -0.005434  -0.013958   0.000215  -0.016155   0.000513   0.009308
     7  H    0.003441   0.000479  -0.000001   0.001157  -0.000024  -0.000128
     8  O    0.000479   0.038252   0.000048   0.022328  -0.000463  -0.013958
     9  H   -0.000001   0.000048   0.001506  -0.000640   0.000002   0.001179
    10  O    0.001157   0.022328  -0.000640   0.043846  -0.000679  -0.016155
    11  H   -0.000024  -0.000463   0.000002  -0.000679   0.001052   0.000513
    12  O   -0.000128  -0.013958   0.001179  -0.016155   0.000513   0.174480
    13  H    0.000000   0.000479  -0.000025   0.000284  -0.000002  -0.005434
    14  H    0.000000   0.000479  -0.000025   0.001157  -0.000024  -0.005434
    15  H   -0.000002  -0.000463   0.000002  -0.000076  -0.000000   0.000513
    16  H   -0.000025  -0.000068   0.000000  -0.000640   0.000027   0.000215
    17  H   -0.000024  -0.000510   0.000027  -0.000679  -0.000284   0.000513
    18  H    0.000911   0.000479  -0.000001   0.000284  -0.000002  -0.000128
    19  H   -0.000025   0.000048  -0.000528  -0.000640   0.000002   0.000215
              13         14         15         16         17         18
     1  Mn   0.002471   0.002471   0.000255  -0.000429   0.000255   0.002471
     2  O    0.000479   0.000479  -0.000510   0.000048  -0.000463   0.000479
     3  H   -0.000025  -0.000025   0.000027  -0.000528   0.000002  -0.000001
     4  O    0.001157   0.000284  -0.000679  -0.000640  -0.000076   0.001157
     5  H   -0.000024  -0.000002  -0.000284   0.000002  -0.000000  -0.000024
     6  O   -0.000128  -0.000128   0.000513   0.001179   0.000513  -0.005434
     7  H    0.000000   0.000000  -0.000002  -0.000025  -0.000024   0.000911
     8  O    0.000479   0.000479  -0.000463  -0.000068  -0.000510   0.000479
     9  H   -0.000025  -0.000025   0.000002   0.000000   0.000027  -0.000001
    10  O    0.000284   0.001157  -0.000076  -0.000640  -0.000679   0.000284
    11  H   -0.000002  -0.000024  -0.000000   0.000027  -0.000284  -0.000002
    12  O   -0.005434  -0.005434   0.000513   0.000215   0.000513  -0.000128
    13  H    0.003441   0.000911  -0.000024  -0.000001  -0.000002   0.000000
    14  H    0.000911   0.003441  -0.000002  -0.000001  -0.000024   0.000000
    15  H   -0.000024  -0.000002   0.001052   0.000027   0.000000  -0.000024
    16  H   -0.000001  -0.000001   0.000027   0.001506   0.000002  -0.000025
    17  H   -0.000002  -0.000024   0.000000   0.000002   0.001052  -0.000002
    18  H    0.000000   0.000000  -0.000024  -0.000025  -0.000002   0.003441
    19  H   -0.000001  -0.000001   0.000002  -0.000000   0.000027  -0.000025
              19
     1  Mn  -0.000429
     2  O   -0.000068
     3  H    0.000000
     4  O   -0.000640
     5  H    0.000027
     6  O    0.001179
     7  H   -0.000025
     8  O    0.000048
     9  H   -0.000528
    10  O   -0.000640
    11  H    0.000002
    12  O    0.000215
    13  H   -0.000001
    14  H   -0.000001
    15  H    0.000002
    16  H   -0.000000
    17  H    0.000027
    18  H   -0.000025
    19  H    0.001506
 Mulliken charges and spin densities:
               1          2
     1  Mn   1.566078   3.831580
     2  O   -0.636931   0.014948
     3  H    0.451014   0.000648
     4  O   -0.639034   0.012521
     5  H    0.448946   0.000327
     6  O   -0.657101   0.047685
     7  H    0.425056   0.003553
     8  O   -0.636931   0.014948
     9  H    0.451014   0.000648
    10  O   -0.639034   0.012521
    11  H    0.448945   0.000327
    12  O   -0.657101   0.047685
    13  H    0.425056   0.003553
    14  H    0.425056   0.003553
    15  H    0.448942   0.000327
    16  H    0.451014   0.000648
    17  H    0.448941   0.000327
    18  H    0.425056   0.003553
    19  H    0.451014   0.000648
 Sum of Mulliken charges =   3.00000   4.00000
 Mulliken charges and spin densities with hydrogens summed into heavy atoms:
               1          2
     1  Mn   1.566078   3.831580
     2  O    0.265096   0.016244
     4  O    0.258854   0.013175
     6  O    0.193012   0.054791
     8  O    0.265096   0.016244
    10  O    0.258852   0.013175
    12  O    0.193012   0.054791
 Electronic spatial extent (au):  <R**2>=           1045.2975
 Charge=              3.0000 electrons
 Dipole moment (field-independent basis, Debye):
    X=             -0.0000    Y=              0.0000    Z=             -0.0000  Tot=              0.0000
 Quadrupole moment (field-independent basis, Debye-Ang):
   XX=             -8.8578   YY=             -7.2614   ZZ=             -6.9004
   XY=             -0.0000   XZ=              0.0001   YZ=             -0.0002
 Traceless Quadrupole moment (field-independent basis, Debye-Ang):
   XX=             -1.1846   YY=              0.4118   ZZ=              0.7728
   XY=             -0.0000   XZ=              0.0001   YZ=             -0.0002
 Octapole moment (field-independent basis, Debye-Ang**2):
  XXX=             -0.0000  YYY=              0.0000  ZZZ=              0.0000  XYY=             -0.0001
  XXY=              0.0000  XXZ=             -0.0000  XZZ=             -0.0000  YZZ=             -0.0000
  YYZ=             -0.0000  XYZ=              0.0003
 Hexadecapole moment (field-independent basis, Debye-Ang**3):
 XXXX=            -72.1976 YYYY=            -47.3929 ZZZZ=            -47.4867 XXXY=             -0.0004
 XXXZ=             -0.0017 YYYX=              0.0002 YYYZ=              0.2210 ZZZX=              0.0015
 ZZZY=             -0.2172 XXYY=            -89.9792 XXZZ=            -93.4523 YYZZ=            -79.8759
 XXYZ=              0.0044 YYXZ=              0.0003 ZZXY=              0.0001
 N-N= 6.710314804871D+02 E-N=-5.109761326913D+03  KE= 1.603614879307D+03
                          Isotropic Fermi Contact Couplings
        Atom                 a.u.       MegaHertz       Gauss      10(-4) cm-1
     1  Mn(55)             0.31730      87.68291      31.28744      29.24787
     2  O(17)             -0.00580       0.87889       0.31361       0.29317
     3  H(1)               0.00034       0.37983       0.13553       0.12670
     4  O(17)             -0.00679       1.02943       0.36733       0.34338
     5  H(1)               0.00007       0.08029       0.02865       0.02678
     6  O(17)              0.14293     -21.66086      -7.72913      -7.22529
     7  H(1)               0.00175       1.95029       0.69591       0.65055
     8  O(17)             -0.00580       0.87889       0.31361       0.29317
     9  H(1)               0.00034       0.37982       0.13553       0.12670
    10  O(17)             -0.00679       1.02944       0.36733       0.34338
    11  H(1)               0.00007       0.08030       0.02865       0.02678
    12  O(17)              0.14293     -21.66086      -7.72913      -7.22529
    13  H(1)               0.00175       1.95028       0.69591       0.65054
    14  H(1)               0.00175       1.95029       0.69591       0.65055
    15  H(1)               0.00007       0.08024       0.02863       0.02677
    16  H(1)               0.00034       0.37982       0.13553       0.12669
    17  H(1)               0.00007       0.08024       0.02863       0.02677
    18  H(1)               0.00175       1.95028       0.69591       0.65054
    19  H(1)               0.00034       0.37983       0.13553       0.12670
 --------------------------------------------------------
       Center         ----  Spin Dipole Couplings  ----
                      3XX-RR        3YY-RR        3ZZ-RR
 --------------------------------------------------------
     1   Atom        2.180688     -1.063449     -1.117239
     2   Atom       -0.105671      0.136728     -0.031057
     3   Atom       -0.021156     -0.029511      0.050667
     4   Atom        0.127840     -0.024110     -0.103730
     5   Atom       -0.028209      0.049940     -0.021731
     6   Atom        0.193900     -0.178798     -0.015102
     7   Atom        0.043022     -0.012055     -0.030968
     8   Atom       -0.105671      0.136728     -0.031057
     9   Atom       -0.021157     -0.029511      0.050668
    10   Atom        0.127839     -0.024109     -0.103730
    11   Atom       -0.028209      0.049940     -0.021731
    12   Atom        0.193900     -0.178798     -0.015102
    13   Atom        0.043022     -0.012055     -0.030968
    14   Atom        0.043022     -0.012054     -0.030968
    15   Atom       -0.028208      0.049809     -0.021601
    16   Atom       -0.021157     -0.029511      0.050668
    17   Atom       -0.028208      0.049809     -0.021601
    18   Atom        0.043022     -0.012054     -0.030968
    19   Atom       -0.021156     -0.029511      0.050667
 --------------------------------------------------------
                        XY            XZ            YZ
 --------------------------------------------------------
     1   Atom       -0.000005     -0.000025      0.000061
     2   Atom       -0.000004      0.000001      0.000197
     3   Atom       -0.000033      0.029065     -0.000091
     4   Atom       -0.000000      0.000008      0.000092
     5   Atom        0.000001     -0.000000     -0.028525
     6   Atom       -0.000001     -0.000001     -0.000183
     7   Atom        0.027420      0.000030      0.000021
     8   Atom        0.000004      0.000000      0.000197
     9   Atom        0.000033     -0.029064     -0.000091
    10   Atom       -0.000001     -0.000014      0.000092
    11   Atom       -0.000002      0.000000     -0.028525
    12   Atom       -0.000001     -0.000001     -0.000189
    13   Atom        0.027420      0.000031      0.000022
    14   Atom       -0.027420     -0.000032      0.000022
    15   Atom       -0.000001     -0.000000      0.028688
    16   Atom        0.000033     -0.029064     -0.000092
    17   Atom        0.000002      0.000000      0.028688
    18   Atom       -0.027420     -0.000031      0.000021
    19   Atom       -0.000033      0.029065     -0.000092
 --------------------------------------------------------


 ---------------------------------------------------------------------------------
              Anisotropic Spin Dipole Couplings in Principal Axis System
 ---------------------------------------------------------------------------------

       Atom             a.u.   MegaHertz   Gauss  10(-4) cm-1        Axes

              Baa    -1.1172  -147.410   -52.600   -49.171  0.0000 -0.0011  1.0000
     1 Mn(55) Bbb    -1.0634  -140.313   -50.067   -46.803  0.0000  1.0000  0.0011
              Bcc     2.1807   287.724   102.667    95.974  1.0000 -0.0000 -0.0000
 
              Baa    -0.1057     7.646     2.728     2.551  1.0000  0.0000 -0.0000
     2 O(17)  Bbb    -0.0311     2.247     0.802     0.750  0.0000 -0.0012  1.0000
              Bcc     0.1367    -9.894    -3.530    -3.300 -0.0000  1.0000  0.0012
 
              Baa    -0.0314   -16.777    -5.986    -5.596  0.9427  0.0005 -0.3337
     3 H(1)   Bbb    -0.0295   -15.746    -5.619    -5.252 -0.0001  1.0000  0.0012
              Bcc     0.0610    32.523    11.605    10.848  0.3337 -0.0011  0.9427
 
              Baa    -0.1037     7.506     2.678     2.504 -0.0000 -0.0011  1.0000
     4 O(17)  Bbb    -0.0241     1.745     0.623     0.582  0.0000  1.0000  0.0011
              Bcc     0.1278    -9.250    -3.301    -3.086  1.0000 -0.0000  0.0000
 
              Baa    -0.0317   -16.913    -6.035    -5.641 -0.0000  0.3299  0.9440
     5 H(1)   Bbb    -0.0282   -15.051    -5.370    -5.020  1.0000 -0.0000  0.0000
              Bcc     0.0599    31.963    11.405    10.662  0.0000  0.9440 -0.3299
 
              Baa    -0.1788    12.938     4.616     4.316  0.0000  1.0000  0.0011
     6 O(17)  Bbb    -0.0151     1.093     0.390     0.364  0.0000 -0.0011  1.0000
              Bcc     0.1939   -14.030    -5.006    -4.680  1.0000 -0.0000 -0.0000
 
              Baa    -0.0310   -16.523    -5.896    -5.511  0.0000 -0.0011  1.0000
     7 H(1)   Bbb    -0.0234   -12.473    -4.451    -4.161 -0.3817  0.9243  0.0010
              Bcc     0.0543    28.996    10.346     9.672  0.9243  0.3817  0.0004
 
              Baa    -0.1057     7.646     2.728     2.551  1.0000 -0.0000 -0.0000
     8 O(17)  Bbb    -0.0311     2.247     0.802     0.750  0.0000 -0.0012  1.0000
              Bcc     0.1367    -9.894    -3.530    -3.300  0.0000  1.0000  0.0012
 
              Baa    -0.0314   -16.777    -5.986    -5.596  0.9427 -0.0005  0.3337
     9 H(1)   Bbb    -0.0295   -15.746    -5.619    -5.252  0.0001  1.0000  0.0012
              Bcc     0.0610    32.523    11.605    10.848 -0.3337 -0.0011  0.9427
 
              Baa    -0.1037     7.506     2.678     2.504  0.0001 -0.0011  1.0000
    10 O(17)  Bbb    -0.0241     1.745     0.622     0.582  0.0000  1.0000  0.0011
              Bcc     0.1278    -9.250    -3.301    -3.086  1.0000 -0.0000 -0.0001
 
              Baa    -0.0317   -16.913    -6.035    -5.641  0.0001  0.3299  0.9440
    11 H(1)   Bbb    -0.0282   -15.051    -5.370    -5.020  1.0000 -0.0000 -0.0001
              Bcc     0.0599    31.963    11.405    10.662 -0.0000  0.9440 -0.3299
 
              Baa    -0.1788    12.938     4.616     4.316  0.0000  1.0000  0.0012
    12 O(17)  Bbb    -0.0151     1.093     0.390     0.364  0.0000 -0.0012  1.0000
              Bcc     0.1939   -14.030    -5.006    -4.680  1.0000 -0.0000 -0.0000
 
              Baa    -0.0310   -16.523    -5.896    -5.511  0.0000 -0.0012  1.0000
    13 H(1)   Bbb    -0.0234   -12.473    -4.451    -4.161 -0.3817  0.9243  0.0011
              Bcc     0.0543    28.996    10.346     9.672  0.9243  0.3817  0.0004
 
              Baa    -0.0310   -16.523    -5.896    -5.511  0.0000 -0.0012  1.0000
    14 H(1)   Bbb    -0.0234   -12.473    -4.451    -4.161  0.3817  0.9243  0.0011
              Bcc     0.0543    28.996    10.346     9.672  0.9243 -0.3817 -0.0004
 
              Baa    -0.0317   -16.913    -6.035    -5.641 -0.0000 -0.3320  0.9433
    15 H(1)   Bbb    -0.0282   -15.051    -5.370    -5.020  1.0000 -0.0000  0.0000
              Bcc     0.0599    31.963    11.405    10.662 -0.0000  0.9433  0.3320
 
              Baa    -0.0314   -16.777    -5.986    -5.596  0.9427 -0.0004  0.3337
    16 H(1)   Bbb    -0.0295   -15.746    -5.619    -5.252  0.0000  1.0000  0.0012
              Bcc     0.0610    32.523    11.605    10.848 -0.3337 -0.0011  0.9427
 
              Baa    -0.0317   -16.913    -6.035    -5.641  0.0001 -0.3320  0.9433
    17 H(1)   Bbb    -0.0282   -15.051    -5.370    -5.020  1.0000 -0.0000 -0.0001
              Bcc     0.0599    31.963    11.405    10.662  0.0000  0.9433  0.3320
 
              Baa    -0.0310   -16.523    -5.896    -5.511  0.0000 -0.0011  1.0000
    18 H(1)   Bbb    -0.0234   -12.473    -4.451    -4.161  0.3817  0.9243  0.0010
              Bcc     0.0543    28.996    10.346     9.672  0.9243 -0.3817 -0.0004
 
              Baa    -0.0314   -16.777    -5.986    -5.596  0.9427  0.0004 -0.3337
    19 H(1)   Bbb    -0.0295   -15.746    -5.619    -5.252 -0.0001  1.0000  0.0012
              Bcc     0.0610    32.523    11.605    10.848  0.3337 -0.0011  0.9427
 

 ---------------------------------------------------------------------------------

 No NMR shielding tensors so no spin-rotation constants.
 Leave Link  601 at Thu May 23 15:32:46 2024, MaxMem= 26843545600 cpu:              29.3 elap:               0.3
 (Enter /gpfs/fs1/soft/improv/software/custom-built/gaussian/g16/l9999.exe)
 Unable to Open any file for archive entry.
 1\1\GINC-I255\SP\UB3LYP\Gen\H12Mn1O6(3+,5)\HHARB\23-May-2024\0\\#p B3L
 YP empiricaldispersion=gd3 scf=(maxcycles=500,xqc,maxconventional=50) 
 scrf=(cpcm,solvent=water) geom=allcheck guess=read chkbasis\\Title\\3,
 5\Mn,-0.7848167864,0.7129516187,0.0317920663\O,-1.3189736462,2.5837230
 469,-0.27478759\H,-1.4367326692,3.0025946799,-1.151106198\O,1.11622255
 86,1.2564259212,0.0360396922\H,1.8799271752,0.6595221106,0.1607432133\
 O,-0.8812985152,1.0338203432,2.157870531\H,-1.6550972282,0.9076904884,
 2.7362560089\O,-0.2506579779,-1.1578191733,0.3383724703\H,-0.061362689
 1,-1.8145991273,-0.3616720361\O,-2.6858561089,0.1694768036,0.027545961
 7\H,-3.4495565031,0.766363922,-0.0972469701\O,-0.6883354499,0.39208298
 71,-2.0942866203\H,0.0854555666,0.5182420565,-2.6726760855\H,-1.409478
 6263,0.0908367779,-2.6760130091\H,1.4495441203,2.1669419367,-0.0862131
 053\H,-1.5082962921,3.2404944079,0.4252575198\H,-3.0191815705,-0.74102
 42203,0.1498776821\H,-0.1601463195,1.3350387103,2.7396005424\H,-0.1328
 766083,-1.5766835199,1.2146913362\\Version=ES64L-G16RevC.02\State=5-A\
 HF=-1609.1884947\S2=6.018743\S2-1=0.\S2A=6.000044\RMSD=7.355e-09\Dipol
 e=-0.0000003,-0.0000004,-0.0000079\Quadrupole=0.3234394,0.5219947,-0.8
 454341,-0.0610913,0.0638858,-0.2145077\PG=C01 [X(H12Mn1O6)]\\@
 The archive entry for this job was punched.


 OPTIMIST - A PESSIMIST WHO LACKS EXPERIENCE
 Job cpu time:       0 days  0 hours 50 minutes  4.2 seconds.
 Elapsed time:       0 days  0 hours  0 minutes 27.2 seconds.
 File lengths (MBytes):  RWF=    121 Int=      0 D2E=      0 Chk=     32 Scr=      1
 Normal termination of Gaussian 16 at Thu May 23 15:32:46 2024.
