 Entering Gaussian System, Link 0=g16
 Input=Mn_3_PBE0.com
 Output=Mn_3_PBE0.log
 Initial command:
 /gpfs/fs1/soft/improv/software/custom-built/gaussian/g16/l1.exe "/scratch/Gau-401817.inp" -scrdir="/scratch/"
 Default CPUs for threads: 0-127
 Default linda workers: i219.lcrc.anl.gov
 Default is to use 128 SMP processors on each worker.
 Entering Link 1 = /gpfs/fs1/soft/improv/software/custom-built/gaussian/g16/l1.exe PID=    401818.
  
 Copyright (c) 1988-2021, Gaussian, Inc.  All Rights Reserved.
  
 This is part of the Gaussian(R) 16 program.  It is based on
 the Gaussian(R) 09 system (copyright 2009, Gaussian, Inc.),
 the Gaussian(R) 03 system (copyright 2003, Gaussian, Inc.),
 the Gaussian(R) 98 system (copyright 1998, Gaussian, Inc.),
 the Gaussian(R) 94 system (copyright 1995, Gaussian, Inc.),
 the Gaussian 92(TM) system (copyright 1992, Gaussian, Inc.),
 the Gaussian 90(TM) system (copyright 1990, Gaussian, Inc.),
 the Gaussian 88(TM) system (copyright 1988, Gaussian, Inc.),
 the Gaussian 86(TM) system (copyright 1986, Carnegie Mellon
 University), and the Gaussian 82(TM) system (copyright 1983,
 Carnegie Mellon University). Gaussian is a federally registered
 trademark of Gaussian, Inc.
  
 This software contains proprietary and confidential information,
 including trade secrets, belonging to Gaussian, Inc.
  
 This software is provided under written license and may be
 used, copied, transmitted, or stored only in accord with that
 written license.
  
 The following legend is applicable only to US Government
 contracts under FAR:
  
                    RESTRICTED RIGHTS LEGEND
  
 Use, reproduction and disclosure by the US Government is
 subject to restrictions as set forth in subparagraphs (a)
 and (c) of the Commercial Computer Software - Restricted
 Rights clause in FAR 52.227-19.
  
 Gaussian, Inc.
 340 Quinnipiac St., Bldg. 40, Wallingford CT 06492
  
  
 ---------------------------------------------------------------
 Warning -- This program may not be used in any manner that
 competes with the business of Gaussian, Inc. or will provide
 assistance to any competitor of Gaussian, Inc.  The licensee
 of this program is prohibited from giving any competitor of
 Gaussian, Inc. access to this program.  By using this program,
 the user acknowledges that Gaussian, Inc. is engaged in the
 business of creating and licensing software in the field of
 computational chemistry and represents and warrants to the
 licensee that it is not a competitor of Gaussian, Inc. and that
 it will not use this program in any manner prohibited above.
 ---------------------------------------------------------------
  

 Cite this work as:
 Gaussian 16, Revision C.02,
 M. J. Frisch, G. W. Trucks, H. B. Schlegel, G. E. Scuseria, 
 M. A. Robb, J. R. Cheeseman, G. Scalmani, V. Barone, 
 G. A. Petersson, H. Nakatsuji, X. Li, M. Caricato, A. V. Marenich, 
 J. Bloino, B. G. Janesko, R. Gomperts, B. Mennucci, H. P. Hratchian, 
 J. V. Ortiz, A. F. Izmaylov, J. L. Sonnenberg, D. Williams-Young, 
 F. Ding, F. Lipparini, F. Egidi, J. Goings, B. Peng, A. Petrone, 
 T. Henderson, D. Ranasinghe, V. G. Zakrzewski, J. Gao, N. Rega, 
 G. Zheng, W. Liang, M. Hada, M. Ehara, K. Toyota, R. Fukuda, 
 J. Hasegawa, M. Ishida, T. Nakajima, Y. Honda, O. Kitao, H. Nakai, 
 T. Vreven, K. Throssell, J. A. Montgomery, Jr., J. E. Peralta, 
 F. Ogliaro, M. J. Bearpark, J. J. Heyd, E. N. Brothers, K. N. Kudin, 
 V. N. Staroverov, T. A. Keith, R. Kobayashi, J. Normand, 
 K. Raghavachari, A. P. Rendell, J. C. Burant, S. S. Iyengar, 
 J. Tomasi, M. Cossi, J. M. Millam, M. Klene, C. Adamo, R. Cammi, 
 J. W. Ochterski, R. L. Martin, K. Morokuma, O. Farkas, 
 J. B. Foresman, and D. J. Fox, Gaussian, Inc., Wallingford CT, 2019.
 
 ******************************************
 Gaussian 16:  ES64L-G16RevC.02  7-Dec-2021
                23-May-2024 
 ******************************************
 %chk=Mn_3_PBE0.chk
 SetSPE:  set environment variable "OMP_PROC_BIND" = "true"
 SetSPE:  set environment variable "OMP_PLACES" = "{0},{1},{2},{3},{4},{5},{6},{7},{8},{9},{10},{11},{12},{13},{14},{15},{16},{17},{18},{19},{20},{21},{22},{23},{24},{25},{26},{27},{28},{29},{30},{31},{32},{33},{34},{35},{36},{37},{38},{39},{40},{41},{42},{43},{44},{45},{46},{47},{48},{49},{50},{51},{52},{53},{54},{55},{56},{57},{58},{59},{60},{61},{62},{63},{64},{65},{66},{67},{68},{69},{70},{71},{72},{73},{74},{75},{76},{77},{78},{79},{80},{81},{82},{83},{84},{85},{86},{87},{88},{89},{90},{91},{92},{93},{94},{95},{96},{97},{98},{99},{100},{101},{102},{103},{104},{105},{106},{107},{108},{109},{110},{111},{112},{113},{114},{115},{116},{117},{118},{119},{120},{121},{122},{123},{124},{125},{126},{127}"
 SetLPE:    new flags="-opt 'Tsnet.Node.lindarsharg: ssh'  -nodelist 'i219.lcrc.anl.gov' -env GAUSS_MDEF=26843545600 -env GAUSS_EXEDIR="/gpfs/fs1/soft/improv/software/custom-built/gaussian/g16/bsd:/gpfs/fs1/soft/improv/software/custom-built/gaussian/g16" -env "OMP_PROC_BIND=true" -env "OMP_PLACES={0},{1},{2},{3},{4},{5},{6},{7},{8},{9},{10},{11},{12},{13},{14},{15},{16},{17},{18},{19},{20},{21},{22},{23},{24},{25},{26},{27},{28},{29},{30},{31},{32},{33},{34},{35},{36},{37},{38},{39},{40},{41},{42},{43},{44},{45},{46},{47},{48},{49},{50},{51},{52},{53},{54},{55},{56},{57},{58},{59},{60},{61},{62},{63},{64},{65},{66},{67},{68},{69},{70},{71},{72},{73},{74},{75},{76},{77},{78},{79},{80},{81},{82},{83},{84},{85},{86},{87},{88},{89},{90},{91},{92},{93},{94},{95},{96},{97},{98},{99},{100},{101},{102},{103},{104},{105},{106},{107},{108},{109},{110},{111},{112},{113},{114},{115},{116},{117},{118},{119},{120},{121},{122},{123},{124},{125},{126},{127}" -env GAUSS_ADEF="0,1,2,3,4,5,6,7,8,9,10,11,12,13,14,15,16,17,18,19,20,21,22,23,24,25,26,27,28,29,30,31,32,33,34,35,36,37,38,39,40,41,42,43,44,45,46,47,48,49,50,51,52,53,54,55,56,57,58,59,60,61,62,63,64,65,66,67,68,69,70,71,72,73,74,75,76,77,78,79,80,81,82,83,84,85,86,87,88,89,90,91,92,93,94,95,96,97,98,99,100,101,102,103,104,105,106,107,108,109,110,111,112,113,114,115,116,117,118,119,120,121,122,123,124,125,126,127""
 Will use up to    1 processors via Linda.
 ----------------------------------------------------------------------
 #p PBE1PBE empiricaldispersion=gd3 6-31+G(2df,p) opt=(cartesian,calcal
 l,maxcycles=500) freq scf=(maxcycles=500,xqc,maxconventional=50)
 ----------------------------------------------------------------------
 1/6=500,10=4,18=10,26=3,38=1/1,3;
 2/12=2,17=6,18=5,29=2,40=1/2;
 3/5=1,6=6,7=114,11=2,25=1,30=1,71=2,74=-13,124=31,140=1/1,2,3;
 4//1;
 5/5=2,7=500,8=3,13=1,38=5,85=50/2,8;
 8/6=4,10=90,11=11/1;
 11/6=1,8=1,9=11,15=111,16=1/1,2,10;
 10/6=1/2;
 6/7=2,8=2,9=2,10=2,18=1,28=1/1;
 7/7=1,10=1,25=1/1,2,3,16;
 1/6=500,10=4,18=10,26=3/3(3);
 2/29=1/2;
 7/7=1,8=1,9=1,25=1,44=-1/16;
 99/12=1/99;
 2/29=1/2;
 3/5=1,6=6,7=114,11=2,25=1,30=1,71=2,74=-13,124=31,140=1/1,2,3;
 4/5=5,16=3,69=1/1;
 5/5=2,7=500,8=3,13=1,38=5,85=50/2,8;
 8/6=4,10=90,11=11/1;
 11/6=1,8=1,9=11,15=111,16=1/1,2,10;
 10/6=1/2;
 7/7=1,10=1,25=1/1,2,3,16;
 1/6=500,10=4,18=10,26=3/3(-8);
 2/29=1/2;
 6/7=2,8=2,9=2,10=2,18=1,19=2,28=1/1;
 7/7=1,8=1,9=1,25=1,44=-1/16;
 99/12=1/99;
 Leave Link    1 at Thu May 23 14:49:39 2024, MaxMem=           0 cpu:               2.0 elap:               0.1
 (Enter /gpfs/fs1/soft/improv/software/custom-built/gaussian/g16/l101.exe)
 -----
 Title
 -----
 Symbolic Z-matrix:
 Charge =  3 Multiplicity = 5
 Mn                   -0.79304   0.81881  -0.09491 
 O                    -1.20497   2.57394  -0.35687 
 H                    -2.12106   2.64974  -0.63312 
 O                     0.99012   1.19063  -0.05794 
 H                     1.42696   0.5998    0.55971 
 O                    -0.81752   1.03069   1.71365 
 H                    -1.02108   0.1906    2.13133 
 O                    -0.38507  -0.93351   0.17118 
 H                    -1.15682  -1.47369  -0.01433 
 O                    -2.57341   0.45178  -0.12186 
 H                    -2.77756  -0.08744  -0.88929 
 O                    -0.76966   0.60461  -1.90111 
 H                     0.09872   0.83457  -2.23949 
 H                    -0.96534  -0.30999  -2.11742 
 H                     1.12208   2.09943   0.22124 
 H                    -1.07671   3.0584    0.46184 
 H                    -2.81407  -0.02398   0.6765 
 H                     0.0422    1.33615   2.01181 
 H                    -0.11532  -1.06446   1.08312 
 
 ITRead=  0  0  0  0  0  0  0  0  0  0  0  0  0  0  0  0  0  0  0
 MicOpt= -1 -1 -1 -1 -1 -1 -1 -1 -1 -1 -1 -1 -1 -1 -1 -1 -1 -1 -1
 NAtoms=     19 NQM=       19 NQMF=       0 NMMI=      0 NMMIF=      0
                NMic=       0 NMicF=      0.
                    Isotopes and Nuclear Properties:
 (Nuclear quadrupole moments (NQMom) in fm**2, nuclear magnetic moments (NMagM)
  in nuclear magnetons)

  Atom         1           2           3           4           5           6           7           8           9          10
 IAtWgt=          55          16           1          16           1          16           1          16           1          16
 AtmWgt=  54.9380463  15.9949146   1.0078250  15.9949146   1.0078250  15.9949146   1.0078250  15.9949146   1.0078250  15.9949146
 NucSpn=           5           0           1           0           1           0           1           0           1           0
 AtZEff=  -0.0000000  -0.0000000  -0.0000000  -0.0000000  -0.0000000  -0.0000000  -0.0000000  -0.0000000  -0.0000000  -0.0000000
 NQMom=   33.0000000   0.0000000   0.0000000   0.0000000   0.0000000   0.0000000   0.0000000   0.0000000   0.0000000   0.0000000
 NMagM=    3.4532000   0.0000000   2.7928460   0.0000000   2.7928460   0.0000000   2.7928460   0.0000000   2.7928460   0.0000000
 AtZNuc=  25.0000000   8.0000000   1.0000000   8.0000000   1.0000000   8.0000000   1.0000000   8.0000000   1.0000000   8.0000000

  Atom        11          12          13          14          15          16          17          18          19
 IAtWgt=           1          16           1           1           1           1           1           1           1
 AtmWgt=   1.0078250  15.9949146   1.0078250   1.0078250   1.0078250   1.0078250   1.0078250   1.0078250   1.0078250
 NucSpn=           1           0           1           1           1           1           1           1           1
 AtZEff=  -0.0000000  -0.0000000  -0.0000000  -0.0000000  -0.0000000  -0.0000000  -0.0000000  -0.0000000  -0.0000000
 NQMom=    0.0000000   0.0000000   0.0000000   0.0000000   0.0000000   0.0000000   0.0000000   0.0000000   0.0000000
 NMagM=    2.7928460   0.0000000   2.7928460   2.7928460   2.7928460   2.7928460   2.7928460   2.7928460   2.7928460
 AtZNuc=   1.0000000   8.0000000   1.0000000   1.0000000   1.0000000   1.0000000   1.0000000   1.0000000   1.0000000
 Leave Link  101 at Thu May 23 14:49:39 2024, MaxMem= 26843545600 cpu:               0.4 elap:               0.1
 (Enter /gpfs/fs1/soft/improv/software/custom-built/gaussian/g16/l103.exe)

 GradGradGradGradGradGradGradGradGradGradGradGradGradGradGradGradGradGrad
 Berny optimization.
 Initialization pass.
 No Z-matrix variables, so optimization will use Cartesian coordinates.
 Trust Radius=3.00D-01 FncErr=1.00D-07 GrdErr=1.00D-06 EigMax=2.50D+02 EigMin=1.00D-04
 Number of steps in this run=    114 maximum allowed number of steps=    114.
 GradGradGradGradGradGradGradGradGradGradGradGradGradGradGradGradGradGrad

 Leave Link  103 at Thu May 23 14:49:39 2024, MaxMem= 26843545600 cpu:               0.4 elap:               0.0
 (Enter /gpfs/fs1/soft/improv/software/custom-built/gaussian/g16/l202.exe)
 ---------------------------------------------------------------------------------------------------
                            Z-MATRIX (ANGSTROMS AND DEGREES)
   CD    Cent   Atom    N1       Length/X        N2       Alpha/Y        N3        Beta/Z          J
 ---------------------------------------------------------------------------------------------------
      1      1  Mn       0  -0.793037          0.818805         -0.094905
      2      2  O        0  -1.204971          2.573941         -0.356874
      3      3  H        0  -2.121063          2.649743         -0.633122
      4      4  O        0   0.990122          1.190635         -0.057941
      5      5  H        0   1.426962          0.599798          0.559707
      6      6  O        0  -0.817519          1.030691          1.713650
      7      7  H        0  -1.021079          0.190602          2.131326
      8      8  O        0  -0.385068         -0.933506          0.171177
      9      9  H        0  -1.156817         -1.473692         -0.014327
     10     10  O        0  -2.573405          0.451778         -0.121857
     11     11  H        0  -2.777557         -0.087440         -0.889285
     12     12  O        0  -0.769659          0.604612         -1.901109
     13     13  H        0   0.098725          0.834573         -2.239490
     14     14  H        0  -0.965336         -0.309994         -2.117418
     15     15  H        0   1.122081          2.099426          0.221242
     16     16  H        0  -1.076711          3.058396          0.461841
     17     17  H        0  -2.814074         -0.023981          0.676500
     18     18  H        0   0.042204          1.336153          2.011809
     19     19  H        0  -0.115315         -1.064459          1.083123
 ---------------------------------------------------------------------------------------------------
                         Z-Matrix orientation:                         
 ---------------------------------------------------------------------
 Center     Atomic      Atomic             Coordinates (Angstroms)
 Number     Number       Type             X           Y           Z
 ---------------------------------------------------------------------
      1         25           0       -0.793037    0.818805   -0.094905
      2          8           0       -1.204971    2.573941   -0.356874
      3          1           0       -2.121063    2.649743   -0.633122
      4          8           0        0.990122    1.190635   -0.057941
      5          1           0        1.426962    0.599798    0.559707
      6          8           0       -0.817519    1.030691    1.713650
      7          1           0       -1.021079    0.190602    2.131326
      8          8           0       -0.385068   -0.933506    0.171177
      9          1           0       -1.156817   -1.473692   -0.014327
     10          8           0       -2.573405    0.451778   -0.121857
     11          1           0       -2.777557   -0.087440   -0.889285
     12          8           0       -0.769659    0.604612   -1.901109
     13          1           0        0.098725    0.834573   -2.239490
     14          1           0       -0.965336   -0.309994   -2.117418
     15          1           0        1.122081    2.099426    0.221242
     16          1           0       -1.076711    3.058396    0.461841
     17          1           0       -2.814074   -0.023981    0.676500
     18          1           0        0.042204    1.336153    2.011809
     19          1           0       -0.115315   -1.064459    1.083123
 ---------------------------------------------------------------------
                    Distance matrix (angstroms):
                    1          2          3          4          5
     1  Mn   0.000000
     2  O    1.821762   0.000000
     3  H    2.325008   0.959835   0.000000
     4  O    1.821889   2.611767   3.484150   0.000000
     5  H    2.324839   3.415322   4.267739   0.959899   0.000000
     6  O    1.821090   2.611285   3.134947   2.536076   2.560263
     7  H    2.324381   3.450400   3.859988   3.136540   2.937743
     8  O    1.818745   3.640503   4.062050   2.540791   2.405292
     9  H    2.322579   4.062387   4.279649   3.421971   3.362259
    10  O    1.818006   2.536025   2.301533   3.639880   4.060711
    11  H    2.321775   3.136788   2.826442   4.064482   4.499984
    12  O    1.819010   2.540161   2.759827   2.614866   3.298603
    13  H    2.322657   2.875634   3.286750   2.383386   3.107223
    14  H    2.322591   3.387332   3.506977   3.212032   3.703756
    15  H    2.325429   2.444290   3.398642   0.959822   1.567289
    16  H    2.325125   0.959918   1.567358   2.833814   3.510364
    17  H    2.321626   3.225876   3.056824   4.060370   4.288255
    18  H    2.324547   2.949275   3.660724   2.281137   2.137375
    19  H    2.322443   4.061883   4.556733   2.758526   2.328591
                    6          7          8          9         10
     6  O    0.000000
     7  H    0.960021   0.000000
     8  O    2.534622   2.347406   0.000000
     9  H    3.061530   2.718847   0.960108   0.000000
    10  O    2.605257   2.748593   2.606473   2.392848   0.000000
    11  H    3.444886   3.505227   2.750347   2.305222   0.959885
    12  O    3.640099   4.061422   2.609231   2.833582   2.538227
    13  H    4.062670   4.557707   3.028445   3.443229   3.430916
    14  H    4.061572   4.278496   2.441955   2.411193   2.673658
    15  H    2.670492   3.447487   3.387136   4.244531   4.060675
    16  H    2.397039   3.318813   4.061790   4.557738   3.061904
    17  H    2.484803   2.318921   2.642472   2.307685   0.960023
    18  H    0.959858   1.567527   2.953276   3.665802   3.489421
    19  H    2.297892   1.869309   0.959980   1.567353   3.129403
                   11         12         13         14         15
    11  H    0.000000
    12  O    2.352526   0.000000
    13  H    3.308498   0.959935   0.000000
    14  H    2.200452   0.959991   1.567533   0.000000
    15  H    4.606825   3.212091   2.949969   3.953725   0.000000
    16  H    3.822919   3.420362   3.691102   4.243941   2.410850
    17  H    1.567497   3.349453   4.210050   3.362383   4.495491
    18  H    4.288824   4.062660   4.281159   4.558009   2.225950
    19  H    3.454344   3.481323   3.833001   3.396353   3.504877
                   16         17         18         19
    16  H    0.000000
    17  H    3.544793   0.000000
    18  H    2.573032   3.433851   0.000000
    19  H    4.278809   2.920828   2.578800   0.000000
 Stoichiometry    H12MnO6(3+,5)
 Framework group  C1[X(H12MnO6)]
 Deg. of freedom    51
 Full point group                 C1      NOp   1
 Largest Abelian subgroup         C1      NOp   1
 Largest concise Abelian subgroup C1      NOp   1
                         Standard orientation:                         
 ---------------------------------------------------------------------
 Center     Atomic      Atomic             Coordinates (Angstroms)
 Number     Number       Type             X           Y           Z
 ---------------------------------------------------------------------
      1         25           0       -0.020445   -0.030121    0.009875
      2          8           0       -0.320808   -1.687588   -0.683958
      3          1           0       -1.137042   -1.679899   -1.188920
      4          8           0        1.254655   -0.678279    1.138277
      5          1           0        1.943361   -0.019749    1.254154
      6          8           0        1.298207    0.294245   -1.203513
      7          1           0        1.382040    1.240910   -1.339297
      8          8           0        0.280486    1.626554    0.697409
      9          1           0       -0.431358    2.215648    0.436540
     10          8           0       -1.285904    0.615907   -1.124325
     11          1           0       -2.034842    0.938661   -0.618064
     12          8           0       -1.338362   -0.351446    1.221751
     13          1           0       -0.971739   -0.815561    1.977832
     14          1           0       -1.717277    0.481861    1.510897
     15          1           0        1.635399   -1.477016    0.766376
     16          1           0        0.408515   -1.930884   -1.258706
     17          1           0       -0.915243    1.335169   -1.640964
     18          1           0        2.129003   -0.056571   -0.874826
     19          1           0        1.114126    1.965325    0.362984
 ---------------------------------------------------------------------
 Rotational constants (GHZ):           2.0396948           1.9739407           1.9252755
 Leave Link  202 at Thu May 23 14:49:39 2024, MaxMem= 26843545600 cpu:               0.4 elap:               0.0
 (Enter /gpfs/fs1/soft/improv/software/custom-built/gaussian/g16/l301.exe)
 Standard basis: 6-31+G(2df,p) (6D, 7F)
 Ernie: Thresh=  0.10000D-02 Tol=  0.10000D-05 Strict=F.
 There are   347 symmetry adapted cartesian basis functions of A   symmetry.
 There are   317 symmetry adapted basis functions of A   symmetry.
   317 basis functions,   514 primitive gaussians,   347 cartesian basis functions
    43 alpha electrons       39 beta electrons
       nuclear repulsion energy       751.0997080055 Hartrees.
 IExCor= 1009 DFT=T Ex+Corr=PBE1PBE ExCW=0 ScaHFX=  0.250000
 ScaDFX=  0.750000  0.750000  1.000000  1.000000 ScalE2=  1.000000  1.000000
 IRadAn=      5 IRanWt=     -1 IRanGd=            0 ICorTp=0 IEmpDi=131
 NAtoms=   19 NActive=   19 NUniq=   19 SFac= 1.00D+00 NAtFMM=   60 NAOKFM=F Big=F
 Integral buffers will be    131072 words long.
 Raffenetti 2 integral format.
 Two-electron integral symmetry is turned on.
 R6Disp:  Grimme-D3 Dispersion energy=       -0.0133890801 Hartrees.
 Nuclear repulsion after empirical dispersion term =      751.0863189255 Hartrees.
 Leave Link  301 at Thu May 23 14:49:39 2024, MaxMem= 26843545600 cpu:               0.4 elap:               0.0
 (Enter /gpfs/fs1/soft/improv/software/custom-built/gaussian/g16/l302.exe)
 NPDir=0 NMtPBC=     1 NCelOv=     1 NCel=       1 NClECP=     1 NCelD=      1
         NCelK=      1 NCelE2=     1 NClLst=     1 CellRange=     0.0.
 One-electron integrals computed using PRISM.
 One-electron integral symmetry used in STVInt
 NBasis=   317 RedAO= T EigKep=  1.52D-05  NBF=   317
 NBsUse=   317 1.00D-06 EigRej= -1.00D+00 NBFU=   317
 Precomputing XC quadrature grid using
 IXCGrd= 4 IRadAn=           5 IRanWt=          -1 IRanGd=           0 AccXCQ= 0.00D+00.
 Generated NRdTot=       0 NPtTot=           0 NUsed=           0 NTot=          32
 NSgBfM=   347   346   347   347   347 MxSgAt=    19 MxSgA2=    19.
 Leave Link  302 at Thu May 23 14:49:40 2024, MaxMem= 26843545600 cpu:              21.6 elap:               0.3
 (Enter /gpfs/fs1/soft/improv/software/custom-built/gaussian/g16/l303.exe)
 DipDrv:  MaxL=1.
 Leave Link  303 at Thu May 23 14:49:40 2024, MaxMem= 26843545600 cpu:               1.0 elap:               0.0
 (Enter /gpfs/fs1/soft/improv/software/custom-built/gaussian/g16/l401.exe)
 ExpMin= 1.19D-02 ExpMax= 5.63D+04 ExpMxC= 8.46D+03 IAcc=3 IRadAn=         5 AccDes= 0.00D+00
 Harris functional with IExCor= 1009 and IRadAn=       5 diagonalized for initial guess.
 HarFok:  IExCor= 1009 AccDes= 0.00D+00 IRadAn=         5 IDoV= 1 UseB2=F ITyADJ=14
 ICtDFT=  3500011 ScaDFX=  1.000000  1.000000  1.000000  1.000000
 FoFCou: FMM=F IPFlag=           0 FMFlag=      100000 FMFlg1=           0
         NFxFlg=           0 DoJE=T BraDBF=F KetDBF=T FulRan=T
         wScrn=  0.000000 ICntrl=       500 IOpCl=  0 I1Cent=   200000004 NGrid=           0
         NMat0=    1 NMatS0=      1 NMatT0=    0 NMatD0=    1 NMtDS0=    0 NMtDT0=    0
 Petite list used in FoFCou.
 Harris En= -1608.07706479048    
 JPrj=0 DoOrth=F DoCkMO=F.
 Initial guess <Sx>= 0.0000 <Sy>= 0.0000 <Sz>= 2.0000 <S**2>= 6.0000 S= 2.0000
 Leave Link  401 at Thu May 23 14:49:40 2024, MaxMem= 26843545600 cpu:              38.4 elap:               0.4
 (Enter /gpfs/fs1/soft/improv/software/custom-built/gaussian/g16/l502.exe)
 Integral symmetry usage will be decided dynamically.
 UHF open shell SCF:
 Using DIIS extrapolation, IDIIS=  1040.
 NGot= 26843545600 LenX= 26843256607 LenY= 26843135757
 Requested convergence on RMS density matrix=1.00D-08 within  50 cycles.
 Requested convergence on MAX density matrix=1.00D-06.
 Requested convergence on             energy=1.00D-06.
 No special actions if energy rises.
 Fock matrices will be formed incrementally for  20 cycles.

 Cycle   1  Pass 1  IDiag  1:
 FoFJK:  IHMeth= 1 ICntrl=       0 DoSepK=F KAlg= 0 I1Cent=           0 FoldK=F
 IRaf= 990000000 NMat=       1 IRICut=       1 DoRegI=T DoRafI=F ISym2E= 0 IDoP0=0 IntGTp=1.
 FoFCou: FMM=F IPFlag=           0 FMFlag=      100000 FMFlg1=           0
         NFxFlg=           0 DoJE=F BraDBF=F KetDBF=F FulRan=T
         wScrn=  0.000000 ICntrl=         0 IOpCl=  1 I1Cent=           0 NGrid=           0
         NMat0=    1 NMatS0=      1 NMatT0=    0 NMatD0=    1 NMtDS0=    0 NMtDT0=    0
 Symmetry not used in FoFCou.
 E= -1606.62916909893    
 DIIS: error= 4.33D-02 at cycle   1 NSaved=   1.
 NSaved= 1 IEnMin= 1 EnMin= -1606.62916909893     IErMin= 1 ErrMin= 4.33D-02
 ErrMax= 4.33D-02  0.00D+00 EMaxC= 1.00D-01 BMatC= 5.40D+00 BMatP= 5.40D+00
 IDIUse=3 WtCom= 5.67D-01 WtEn= 4.33D-01
 Coeff-Com:  0.100D+01
 Coeff-En:   0.100D+01
 Coeff:      0.100D+01
 Gap=    -0.621 Goal=   None    Shift=    0.000
 Gap=    -0.416 Goal=   None    Shift=    0.000
 GapD=   -0.621 DampG=0.250 DampE=0.250 DampFc=0.1250 IDamp=-1.
 Damping current iteration by 1.25D-01
 RMSDP=2.68D-02 MaxDP=2.86D+00              OVMax= 9.22D-01

 Cycle   2  Pass 1  IDiag  1:
 RMSU=  3.35D-03    CP:  9.97D-01
 E= -1606.91253333454     Delta-E=       -0.283364235610 Rises=F Damp=T
 DIIS: error= 1.94D-02 at cycle   2 NSaved=   2.
 NSaved= 2 IEnMin= 2 EnMin= -1606.91253333454     IErMin= 2 ErrMin= 1.94D-02
 ErrMax= 1.94D-02  0.00D+00 EMaxC= 1.00D-01 BMatC= 1.13D+00 BMatP= 5.40D+00
 IDIUse=3 WtCom= 8.06D-01 WtEn= 1.94D-01
 Coeff-Com: -0.594D+00 0.159D+01
 Coeff-En:   0.742D-02 0.993D+00
 Coeff:     -0.477D+00 0.148D+01
 Gap=    -0.042 Goal=   None    Shift=    0.000
 Gap=     0.036 Goal=   None    Shift=    0.000
 RMSDP=1.22D-02 MaxDP=1.67D+00 DE=-2.83D-01 OVMax= 9.60D-01

 Cycle   3  Pass 1  IDiag  1:
 RMSU=  1.09D-02    CP:  7.87D-01  1.60D+00
 E= -1607.43996329156     Delta-E=       -0.527429957024 Rises=F Damp=F
 DIIS: error= 1.32D-02 at cycle   3 NSaved=   3.
 NSaved= 3 IEnMin= 3 EnMin= -1607.43996329156     IErMin= 3 ErrMin= 1.32D-02
 ErrMax= 1.32D-02  0.00D+00 EMaxC= 1.00D-01 BMatC= 5.63D-01 BMatP= 1.13D+00
 IDIUse=3 WtCom= 8.68D-01 WtEn= 1.32D-01
 Coeff-Com: -0.413D+00 0.917D+00 0.496D+00
 Coeff-En:   0.000D+00 0.000D+00 0.100D+01
 Coeff:     -0.359D+00 0.796D+00 0.562D+00
 Gap=     0.025 Goal=   None    Shift=    0.000
 Gap=     0.267 Goal=   None    Shift=    0.000
 RMSDP=8.00D-03 MaxDP=9.09D-01 DE=-5.27D-01 OVMax= 4.72D-01

 Cycle   4  Pass 1  IDiag  1:
 RMSU=  6.62D-03    CP:  7.20D-01  1.85D+00  6.22D-01
 E= -1607.56809166309     Delta-E=       -0.128128371534 Rises=F Damp=F
 DIIS: error= 6.53D-03 at cycle   4 NSaved=   4.
 NSaved= 4 IEnMin= 4 EnMin= -1607.56809166309     IErMin= 4 ErrMin= 6.53D-03
 ErrMax= 6.53D-03  0.00D+00 EMaxC= 1.00D-01 BMatC= 7.60D-02 BMatP= 5.63D-01
 IDIUse=3 WtCom= 9.35D-01 WtEn= 6.53D-02
 Coeff-Com: -0.120D+00 0.177D+00 0.272D+00 0.671D+00
 Coeff-En:   0.000D+00 0.000D+00 0.000D+00 0.100D+01
 Coeff:     -0.112D+00 0.166D+00 0.254D+00 0.693D+00
 Gap=     0.111 Goal=   None    Shift=    0.000
 Gap=     0.282 Goal=   None    Shift=    0.000
 RMSDP=1.04D-03 MaxDP=5.09D-02 DE=-1.28D-01 OVMax= 6.60D-02

 Cycle   5  Pass 1  IDiag  1:
 RMSU=  9.61D-04    CP:  7.15D-01  1.85D+00  6.00D-01  1.05D+00
 E= -1607.58502139733     Delta-E=       -0.016929734239 Rises=F Damp=F
 DIIS: error= 1.06D-03 at cycle   5 NSaved=   5.
 NSaved= 5 IEnMin= 5 EnMin= -1607.58502139733     IErMin= 5 ErrMin= 1.06D-03
 ErrMax= 1.06D-03  0.00D+00 EMaxC= 1.00D-01 BMatC= 4.00D-03 BMatP= 7.60D-02
 IDIUse=3 WtCom= 9.89D-01 WtEn= 1.06D-02
 Coeff-Com: -0.227D-01 0.454D-01-0.322D-01-0.912D-02 0.102D+01
 Coeff-En:   0.000D+00 0.000D+00 0.000D+00 0.000D+00 0.100D+01
 Coeff:     -0.224D-01 0.449D-01-0.319D-01-0.903D-02 0.102D+01
 Gap=     0.132 Goal=   None    Shift=    0.000
 Gap=     0.291 Goal=   None    Shift=    0.000
 RMSDP=5.53D-04 MaxDP=3.20D-02 DE=-1.69D-02 OVMax= 5.41D-02

 Cycle   6  Pass 1  IDiag  1:
 RMSU=  3.90D-04    CP:  7.13D-01  1.84D+00  5.80D-01  1.07D+00  1.27D+00
 E= -1607.58633951614     Delta-E=       -0.001318118807 Rises=F Damp=F
 DIIS: error= 9.51D-04 at cycle   6 NSaved=   6.
 NSaved= 6 IEnMin= 6 EnMin= -1607.58633951614     IErMin= 6 ErrMin= 9.51D-04
 ErrMax= 9.51D-04  0.00D+00 EMaxC= 1.00D-01 BMatC= 2.54D-03 BMatP= 4.00D-03
 IDIUse=3 WtCom= 9.90D-01 WtEn= 9.51D-03
 Coeff-Com: -0.242D-02 0.739D-02-0.520D-01-0.802D-01 0.557D+00 0.570D+00
 Coeff-En:   0.000D+00 0.000D+00 0.000D+00 0.000D+00 0.000D+00 0.100D+01
 Coeff:     -0.240D-02 0.732D-02-0.515D-01-0.795D-01 0.552D+00 0.575D+00
 Gap=     0.134 Goal=   None    Shift=    0.000
 Gap=     0.288 Goal=   None    Shift=    0.000
 RMSDP=1.50D-04 MaxDP=8.28D-03 DE=-1.32D-03 OVMax= 1.29D-02

 Cycle   7  Pass 1  IDiag  1:
 RMSU=  1.06D-04    CP:  7.12D-01  1.84D+00  5.77D-01  1.08D+00  1.36D+00
                    CP:  1.10D+00
 E= -1607.58683103465     Delta-E=       -0.000491518511 Rises=F Damp=F
 DIIS: error= 3.06D-04 at cycle   7 NSaved=   7.
 NSaved= 7 IEnMin= 7 EnMin= -1607.58683103465     IErMin= 7 ErrMin= 3.06D-04
 ErrMax= 3.06D-04  0.00D+00 EMaxC= 1.00D-01 BMatC= 2.14D-04 BMatP= 2.54D-03
 IDIUse=3 WtCom= 9.97D-01 WtEn= 3.06D-03
 Coeff-Com: -0.590D-02 0.747D-02-0.278D-02-0.633D-02-0.296D-01 0.160D+00
 Coeff-Com:  0.877D+00
 Coeff-En:   0.000D+00 0.000D+00 0.000D+00 0.000D+00 0.000D+00 0.000D+00
 Coeff-En:   0.100D+01
 Coeff:     -0.588D-02 0.745D-02-0.277D-02-0.631D-02-0.295D-01 0.160D+00
 Coeff:      0.877D+00
 Gap=     0.133 Goal=   None    Shift=    0.000
 Gap=     0.288 Goal=   None    Shift=    0.000
 RMSDP=6.04D-05 MaxDP=4.20D-03 DE=-4.92D-04 OVMax= 8.92D-03

 Cycle   8  Pass 1  IDiag  1:
 RMSU=  4.56D-05    CP:  7.13D-01  1.84D+00  5.75D-01  1.08D+00  1.39D+00
                    CP:  1.16D+00  1.01D+00
 E= -1607.58689658738     Delta-E=       -0.000065552729 Rises=F Damp=F
 DIIS: error= 1.40D-04 at cycle   8 NSaved=   8.
 NSaved= 8 IEnMin= 8 EnMin= -1607.58689658738     IErMin= 8 ErrMin= 1.40D-04
 ErrMax= 1.40D-04  0.00D+00 EMaxC= 1.00D-01 BMatC= 3.61D-05 BMatP= 2.14D-04
 IDIUse=3 WtCom= 9.99D-01 WtEn= 1.40D-03
 Coeff-Com: -0.367D-02 0.407D-02 0.481D-02 0.816D-02-0.686D-01-0.248D-01
 Coeff-Com:  0.215D+00 0.865D+00
 Coeff-En:   0.000D+00 0.000D+00 0.000D+00 0.000D+00 0.000D+00 0.000D+00
 Coeff-En:   0.000D+00 0.100D+01
 Coeff:     -0.367D-02 0.406D-02 0.480D-02 0.815D-02-0.685D-01-0.248D-01
 Coeff:      0.215D+00 0.865D+00
 Gap=     0.132 Goal=   None    Shift=    0.000
 Gap=     0.288 Goal=   None    Shift=    0.000
 RMSDP=3.96D-05 MaxDP=2.75D-03 DE=-6.56D-05 OVMax= 8.85D-03

 Cycle   9  Pass 1  IDiag  1:
 RMSU=  2.61D-05    CP:  7.13D-01  1.84D+00  5.75D-01  1.08D+00  1.38D+00
                    CP:  1.18D+00  1.13D+00  1.54D+00
 E= -1607.58692691536     Delta-E=       -0.000030327983 Rises=F Damp=F
 DIIS: error= 1.09D-04 at cycle   9 NSaved=   9.
 NSaved= 9 IEnMin= 9 EnMin= -1607.58692691536     IErMin= 9 ErrMin= 1.09D-04
 ErrMax= 1.09D-04  0.00D+00 EMaxC= 1.00D-01 BMatC= 1.34D-05 BMatP= 3.61D-05
 IDIUse=3 WtCom= 9.99D-01 WtEn= 1.09D-03
 Coeff-Com: -0.124D-02 0.145D-02 0.235D-02 0.363D-02-0.238D-01-0.309D-01
 Coeff-Com: -0.347D-01 0.375D+00 0.708D+00
 Coeff-En:   0.000D+00 0.000D+00 0.000D+00 0.000D+00 0.000D+00 0.000D+00
 Coeff-En:   0.000D+00 0.000D+00 0.100D+01
 Coeff:     -0.124D-02 0.145D-02 0.235D-02 0.363D-02-0.238D-01-0.309D-01
 Coeff:     -0.346D-01 0.375D+00 0.708D+00
 Gap=     0.132 Goal=   None    Shift=    0.000
 Gap=     0.289 Goal=   None    Shift=    0.000
 RMSDP=3.19D-05 MaxDP=2.05D-03 DE=-3.03D-05 OVMax= 7.49D-03

 Cycle  10  Pass 1  IDiag  1:
 RMSU=  8.57D-06    CP:  7.13D-01  1.84D+00  5.75D-01  1.08D+00  1.39D+00
                    CP:  1.20D+00  1.19D+00  2.06D+00  1.68D+00
 E= -1607.58694821554     Delta-E=       -0.000021300182 Rises=F Damp=F
 DIIS: error= 1.04D-04 at cycle  10 NSaved=  10.
 NSaved=10 IEnMin=10 EnMin= -1607.58694821554     IErMin=10 ErrMin= 1.04D-04
 ErrMax= 1.04D-04  0.00D+00 EMaxC= 1.00D-01 BMatC= 9.50D-06 BMatP= 1.34D-05
 IDIUse=3 WtCom= 9.99D-01 WtEn= 1.04D-03
 Coeff-Com:  0.237D-03-0.309D-03 0.244D-03 0.188D-03 0.370D-02-0.865D-02
 Coeff-Com: -0.801D-01 0.112D-01 0.347D+00 0.726D+00
 Coeff-En:   0.000D+00 0.000D+00 0.000D+00 0.000D+00 0.000D+00 0.000D+00
 Coeff-En:   0.000D+00 0.000D+00 0.000D+00 0.100D+01
 Coeff:      0.236D-03-0.309D-03 0.244D-03 0.188D-03 0.369D-02-0.864D-02
 Coeff:     -0.800D-01 0.112D-01 0.347D+00 0.727D+00
 Gap=     0.132 Goal=   None    Shift=    0.000
 Gap=     0.289 Goal=   None    Shift=    0.000
 RMSDP=3.42D-05 MaxDP=2.13D-03 DE=-2.13D-05 OVMax= 8.14D-03

 Cycle  11  Pass 1  IDiag  1:
 RMSU=  4.71D-06    CP:  7.13D-01  1.84D+00  5.75D-01  1.08D+00  1.39D+00
                    CP:  1.21D+00  1.26D+00  2.60D+00  2.46D+00  1.81D+00
 E= -1607.58697025940     Delta-E=       -0.000022043851 Rises=F Damp=F
 DIIS: error= 1.01D-04 at cycle  11 NSaved=  11.
 NSaved=11 IEnMin=11 EnMin= -1607.58697025940     IErMin=11 ErrMin= 1.01D-04
 ErrMax= 1.01D-04  0.00D+00 EMaxC= 1.00D-01 BMatC= 8.80D-06 BMatP= 9.50D-06
 IDIUse=3 WtCom= 9.99D-01 WtEn= 1.01D-03
 Coeff-Com:  0.318D-03-0.470D-03 0.509D-03 0.111D-02 0.363D-03 0.957D-02
 Coeff-Com: -0.441D-02-0.127D-01-0.252D+00-0.100D+00 0.136D+01
 Coeff-En:   0.000D+00 0.000D+00 0.000D+00 0.000D+00 0.000D+00 0.000D+00
 Coeff-En:   0.000D+00 0.000D+00 0.000D+00 0.000D+00 0.100D+01
 Coeff:      0.318D-03-0.469D-03 0.508D-03 0.111D-02 0.363D-03 0.956D-02
 Coeff:     -0.441D-02-0.127D-01-0.251D+00-0.100D+00 0.136D+01
 Gap=     0.132 Goal=   None    Shift=    0.000
 Gap=     0.289 Goal=   None    Shift=    0.000
 RMSDP=5.64D-05 MaxDP=3.44D-03 DE=-2.20D-05 OVMax= 1.34D-02

 Cycle  12  Pass 1  IDiag  1:
 RMSU=  2.98D-05    CP:  7.13D-01  1.84D+00  5.75D-01  1.07D+00  1.39D+00
                    CP:  1.22D+00  1.37D+00  3.00D+00  3.00D+00  3.00D+00
                    CP:  2.40D+00
 E= -1607.58700575512     Delta-E=       -0.000035495723 Rises=F Damp=F
 DIIS: error= 9.72D-05 at cycle  12 NSaved=  12.
 NSaved=12 IEnMin=12 EnMin= -1607.58700575512     IErMin=12 ErrMin= 9.72D-05
 ErrMax= 9.72D-05  0.00D+00 EMaxC= 1.00D-01 BMatC= 8.48D-06 BMatP= 8.80D-06
 IDIUse=1 WtCom= 1.00D+00 WtEn= 0.00D+00
 Coeff-Com: -0.178D-03 0.529D-04 0.161D-02 0.326D-02-0.122D-01 0.148D-01
 Coeff-Com:  0.674D-01 0.106D+00-0.542D+00-0.116D+01-0.101D+01 0.353D+01
 Coeff:     -0.178D-03 0.529D-04 0.161D-02 0.326D-02-0.122D-01 0.148D-01
 Coeff:      0.674D-01 0.106D+00-0.542D+00-0.116D+01-0.101D+01 0.353D+01
 Gap=     0.133 Goal=   None    Shift=    0.000
 Gap=     0.291 Goal=   None    Shift=    0.000
 RMSDP=2.29D-04 MaxDP=1.50D-02 DE=-3.55D-05 OVMax= 5.43D-02

 Cycle  13  Pass 1  IDiag  1:
 RMSU=  1.63D-04    CP:  7.13D-01  1.84D+00  5.74D-01  1.07D+00  1.39D+00
                    CP:  1.29D+00  1.81D+00  3.00D+00  3.00D+00  3.00D+00
                    CP:  3.00D+00  3.00D+00
 E= -1607.58714182613     Delta-E=       -0.000136071011 Rises=F Damp=F
 DIIS: error= 8.01D-05 at cycle  13 NSaved=  13.
 NSaved=13 IEnMin=13 EnMin= -1607.58714182613     IErMin=13 ErrMin= 8.01D-05
 ErrMax= 8.01D-05  0.00D+00 EMaxC= 1.00D-01 BMatC= 7.99D-06 BMatP= 8.48D-06
 IDIUse=1 WtCom= 1.00D+00 WtEn= 0.00D+00
 Coeff-Com: -0.917D-04-0.274D-03 0.151D-02 0.393D-02 0.148D-03-0.435D-02
 Coeff-Com: -0.867D-01 0.568D-01 0.241D+00-0.191D+00-0.241D+01 0.225D+01
 Coeff-Com:  0.114D+01
 Coeff:     -0.917D-04-0.274D-03 0.151D-02 0.393D-02 0.148D-03-0.435D-02
 Coeff:     -0.867D-01 0.568D-01 0.241D+00-0.191D+00-0.241D+01 0.225D+01
 Coeff:      0.114D+01
 Gap=     0.134 Goal=   None    Shift=    0.000
 Gap=     0.292 Goal=   None    Shift=    0.000
 RMSDP=1.90D-04 MaxDP=1.39D-02 DE=-1.36D-04 OVMax= 4.51D-02

 Cycle  14  Pass 1  IDiag  1:
 RMSU=  1.87D-05    CP:  7.13D-01  1.84D+00  5.73D-01  1.07D+00  1.38D+00
                    CP:  1.35D+00  2.16D+00  3.00D+00  3.00D+00  3.00D+00
                    CP:  3.00D+00  3.00D+00  2.12D+00
 E= -1607.58724343963     Delta-E=       -0.000101613501 Rises=F Damp=F
 DIIS: error= 9.39D-05 at cycle  14 NSaved=  14.
 NSaved=14 IEnMin=14 EnMin= -1607.58724343963     IErMin=13 ErrMin= 8.01D-05
 ErrMax= 9.39D-05  0.00D+00 EMaxC= 1.00D-01 BMatC= 8.84D-06 BMatP= 7.99D-06
 IDIUse=1 WtCom= 1.00D+00 WtEn= 0.00D+00
 Coeff-Com:  0.362D-03-0.778D-03 0.101D-02 0.384D-02 0.166D-01-0.130D-01
 Coeff-Com: -0.217D+00-0.714D-01 0.725D+00 0.878D+00-0.108D+01-0.520D+00
 Coeff-Com:  0.371D+00 0.908D+00
 Coeff:      0.362D-03-0.778D-03 0.101D-02 0.384D-02 0.166D-01-0.130D-01
 Coeff:     -0.217D+00-0.714D-01 0.725D+00 0.878D+00-0.108D+01-0.520D+00
 Coeff:      0.371D+00 0.908D+00
 Gap=     0.133 Goal=   None    Shift=    0.000
 Gap=     0.292 Goal=   None    Shift=    0.000
 RMSDP=2.10D-05 MaxDP=1.77D-03 DE=-1.02D-04 OVMax= 4.89D-03

 Cycle  15  Pass 1  IDiag  1:
 RMSU=  5.45D-06    CP:  7.13D-01  1.84D+00  5.73D-01  1.07D+00  1.38D+00
                    CP:  1.36D+00  2.19D+00  3.00D+00  3.00D+00  3.00D+00
                    CP:  3.00D+00  3.00D+00  2.24D+00  1.20D+00
 E= -1607.58725431737     Delta-E=       -0.000010877741 Rises=F Damp=F
 DIIS: error= 7.29D-05 at cycle  15 NSaved=  15.
 NSaved=15 IEnMin=15 EnMin= -1607.58725431737     IErMin=15 ErrMin= 7.29D-05
 ErrMax= 7.29D-05  0.00D+00 EMaxC= 1.00D-01 BMatC= 6.45D-06 BMatP= 7.99D-06
 IDIUse=1 WtCom= 1.00D+00 WtEn= 0.00D+00
 Coeff-Com:  0.912D-03-0.113D-02 0.139D-03 0.197D-02 0.814D-02-0.111D-01
 Coeff-Com: -0.111D+00 0.313D-01 0.474D+00 0.459D+00-0.283D+01-0.303D+00
 Coeff-Com:  0.609D+00 0.150D-01 0.265D+01
 Coeff:      0.912D-03-0.113D-02 0.139D-03 0.197D-02 0.814D-02-0.111D-01
 Coeff:     -0.111D+00 0.313D-01 0.474D+00 0.459D+00-0.283D+01-0.303D+00
 Coeff:      0.609D+00 0.150D-01 0.265D+01
 Gap=     0.140 Goal=   None    Shift=    0.000
 Gap=     0.298 Goal=   None    Shift=    0.000
 RMSDP=8.48D-04 MaxDP=7.39D-02 DE=-1.09D-05 OVMax= 2.00D-01

 Cycle  16  Pass 1  IDiag  1:
 RMSU=  6.97D-04    CP:  7.12D-01  1.83D+00  5.68D-01  1.05D+00  1.37D+00
                    CP:  1.58D+00  3.00D+00  3.00D+00  3.00D+00  3.00D+00
                    CP:  3.00D+00  3.00D+00  3.00D+00  3.00D+00 -3.00D+00
 E= -1607.58746931119     Delta-E=       -0.000214993815 Rises=F Damp=F
 DIIS: error= 1.02D-03 at cycle  16 NSaved=  16.
 NSaved=16 IEnMin=16 EnMin= -1607.58746931119     IErMin=15 ErrMin= 7.29D-05
 ErrMax= 1.02D-03  0.00D+00 EMaxC= 1.00D-01 BMatC= 5.10D-04 BMatP= 6.45D-06
 IDIUse=1 WtCom= 1.00D+00 WtEn= 0.00D+00
 Coeff-Com:  0.918D-03-0.975D-03 0.155D-04 0.124D-02-0.395D-02 0.871D-02
 Coeff-Com:  0.639D-01 0.727D-01-0.318D+00-0.536D+00-0.115D+01 0.122D+01
 Coeff-Com: -0.831D+00-0.106D+01 0.339D+01 0.139D+00
 Coeff:      0.918D-03-0.975D-03 0.155D-04 0.124D-02-0.395D-02 0.871D-02
 Coeff:      0.639D-01 0.727D-01-0.318D+00-0.536D+00-0.115D+01 0.122D+01
 Coeff:     -0.831D+00-0.106D+01 0.339D+01 0.139D+00
 Gap=     0.143 Goal=   None    Shift=    0.000
 Gap=     0.295 Goal=   None    Shift=    0.000
 RMSDP=1.64D-04 MaxDP=1.49D-02 DE=-2.15D-04 OVMax= 3.79D-02

 Cycle  17  Pass 1  IDiag  1:
 RMSU=  3.11D-05    CP:  7.12D-01  1.83D+00  5.69D-01  1.06D+00  1.37D+00
                    CP:  1.55D+00  3.00D+00  3.00D+00  3.00D+00  3.00D+00
                    CP:  3.00D+00  3.00D+00  3.00D+00  3.00D+00 -3.00D+00
                    CP:  7.74D-01
 E= -1607.58749890093     Delta-E=       -0.000029589747 Rises=F Damp=F
 DIIS: error= 5.04D-04 at cycle  17 NSaved=  17.
 NSaved=17 IEnMin=17 EnMin= -1607.58749890093     IErMin=15 ErrMin= 7.29D-05
 ErrMax= 5.04D-04  0.00D+00 EMaxC= 1.00D-01 BMatC= 1.36D-04 BMatP= 6.45D-06
 IDIUse=1 WtCom= 1.00D+00 WtEn= 0.00D+00
 Coeff-Com:  0.108D-02-0.126D-02 0.189D-03 0.149D-02-0.616D-02 0.136D-01
 Coeff-Com:  0.928D-01 0.695D-01-0.492D+00-0.757D+00-0.598D+00 0.151D+01
 Coeff-Com: -0.122D+01-0.151D+01 0.347D+01-0.758D-01 0.496D+00
 Coeff:      0.108D-02-0.126D-02 0.189D-03 0.149D-02-0.616D-02 0.136D-01
 Coeff:      0.928D-01 0.695D-01-0.492D+00-0.757D+00-0.598D+00 0.151D+01
 Coeff:     -0.122D+01-0.151D+01 0.347D+01-0.758D-01 0.496D+00
 Gap=     0.142 Goal=   None    Shift=    0.000
 Gap=     0.295 Goal=   None    Shift=    0.000
 RMSDP=5.20D-05 MaxDP=5.12D-03 DE=-2.96D-05 OVMax= 1.24D-02

 Cycle  18  Pass 1  IDiag  1:
 RMSU=  8.13D-06    CP:  7.12D-01  1.83D+00  5.69D-01  1.06D+00  1.37D+00
                    CP:  1.56D+00  3.00D+00  3.00D+00  3.00D+00  3.00D+00
                    CP:  3.00D+00  3.00D+00  3.00D+00  3.00D+00 -2.43D+00
                    CP:  8.46D-01  9.07D-01
 E= -1607.58751975615     Delta-E=       -0.000020855212 Rises=F Damp=F
 DIIS: error= 4.53D-04 at cycle  18 NSaved=  18.
 NSaved=18 IEnMin=18 EnMin= -1607.58751975615     IErMin=15 ErrMin= 7.29D-05
 ErrMax= 4.53D-04  0.00D+00 EMaxC= 1.00D-01 BMatC= 1.07D-04 BMatP= 6.45D-06
 IDIUse=1 WtCom= 1.00D+00 WtEn= 0.00D+00
 Coeff-Com:  0.940D-03-0.109D-02 0.983D-03 0.125D-02-0.870D-02 0.143D-01
 Coeff-Com:  0.977D-01 0.650D-01-0.520D+00-0.983D+00-0.571D+00 0.231D+01
 Coeff-Com: -0.872D+00-0.183D+01 0.203D+01-0.715D+00-0.685D+00 0.267D+01
 Coeff:      0.940D-03-0.109D-02 0.983D-03 0.125D-02-0.870D-02 0.143D-01
 Coeff:      0.977D-01 0.650D-01-0.520D+00-0.983D+00-0.571D+00 0.231D+01
 Coeff:     -0.872D+00-0.183D+01 0.203D+01-0.715D+00-0.685D+00 0.267D+01
 Gap=     0.141 Goal=   None    Shift=    0.000
 Gap=     0.297 Goal=   None    Shift=    0.000
 RMSDP=3.15D-04 MaxDP=3.13D-02 DE=-2.09D-05 OVMax= 7.49D-02

 Cycle  19  Pass 1  IDiag  1:
 RMSU=  4.14D-05    CP:  7.12D-01  1.83D+00  5.66D-01  1.05D+00  1.36D+00
                    CP:  1.62D+00  3.00D+00  3.00D+00  3.00D+00  3.00D+00
                    CP:  3.00D+00  3.00D+00  3.00D+00  3.00D+00 -2.29D+00
                    CP:  1.28D+00 -2.88D-01  3.00D+00
 E= -1607.58759650629     Delta-E=       -0.000076750140 Rises=F Damp=F
 DIIS: error= 5.17D-04 at cycle  19 NSaved=  19.
 NSaved=19 IEnMin=19 EnMin= -1607.58759650629     IErMin=15 ErrMin= 7.29D-05
 ErrMax= 5.17D-04  0.00D+00 EMaxC= 1.00D-01 BMatC= 1.24D-04 BMatP= 6.45D-06
 IDIUse=1 WtCom= 1.00D+00 WtEn= 0.00D+00
 Coeff-Com:  0.188D-03-0.243D-03 0.589D-03-0.313D-03-0.409D-02-0.252D-03
 Coeff-Com:  0.263D-01 0.398D-01-0.433D-01-0.460D+00-0.167D+01 0.168D+01
 Coeff-Com:  0.725D+00-0.205D+00-0.194D+00-0.984D+00-0.841D+00 0.167D+01
 Coeff-Com:  0.126D+01
 Coeff:      0.188D-03-0.243D-03 0.589D-03-0.313D-03-0.409D-02-0.252D-03
 Coeff:      0.263D-01 0.398D-01-0.433D-01-0.460D+00-0.167D+01 0.168D+01
 Coeff:      0.725D+00-0.205D+00-0.194D+00-0.984D+00-0.841D+00 0.167D+01
 Coeff:      0.126D+01
 Gap=     0.142 Goal=   None    Shift=    0.000
 Gap=     0.297 Goal=   None    Shift=    0.000
 RMSDP=2.10D-04 MaxDP=2.16D-02 DE=-7.68D-05 OVMax= 5.01D-02

 Cycle  20  Pass 1  IDiag  1:
 RMSU=  7.82D-06    CP:  7.12D-01  1.83D+00  5.65D-01  1.04D+00  1.35D+00
                    CP:  1.66D+00  3.00D+00  3.00D+00  3.00D+00  3.00D+00
                    CP:  3.00D+00  3.00D+00  3.00D+00  3.00D+00 -2.02D+00
                    CP:  1.56D+00 -1.54D+00  3.00D+00  2.35D+00
 E= -1607.58764285991     Delta-E=       -0.000046353623 Rises=F Damp=F
 DIIS: error= 5.15D-04 at cycle  20 NSaved=  20.
 NSaved=20 IEnMin=20 EnMin= -1607.58764285991     IErMin=15 ErrMin= 7.29D-05
 ErrMax= 5.15D-04  0.00D+00 EMaxC= 1.00D-01 BMatC= 1.23D-04 BMatP= 6.45D-06
 IDIUse=1 WtCom= 1.00D+00 WtEn= 0.00D+00
 Coeff-Com: -0.548D-04 0.683D-04 0.472D-03 0.393D-04-0.320D-02 0.152D-02
 Coeff-Com:  0.235D-01 0.251D-01-0.753D-01-0.384D+00-0.104D+01 0.113D+01
 Coeff-Com:  0.391D+00-0.331D+00 0.873D-01-0.103D+01-0.849D-01 0.154D+01
 Coeff-Com: -0.218D+00 0.973D+00
 Coeff:     -0.548D-04 0.683D-04 0.472D-03 0.393D-04-0.320D-02 0.152D-02
 Coeff:      0.235D-01 0.251D-01-0.753D-01-0.384D+00-0.104D+01 0.113D+01
 Coeff:      0.391D+00-0.331D+00 0.873D-01-0.103D+01-0.849D-01 0.154D+01
 Coeff:     -0.218D+00 0.973D+00
 Gap=     0.141 Goal=   None    Shift=    0.000
 Gap=     0.297 Goal=   None    Shift=    0.000
 RMSDP=5.44D-05 MaxDP=5.67D-03 DE=-4.64D-05 OVMax= 1.30D-02

 Cycle  21  Pass 1  IDiag  1:
 Restarting incremental Fock formation.
 E= -1607.58765875894     Delta-E=       -0.000015899030 Rises=F Damp=F
 DIIS: error= 4.64D-04 at cycle  21 NSaved=  20.
 NSaved=20 IEnMin=20 EnMin= -1607.58765875894     IErMin=14 ErrMin= 7.29D-05
 ErrMax= 4.64D-04  0.00D+00 EMaxC= 1.00D-01 BMatC= 1.00D-04 BMatP= 6.45D-06
 IDIUse=1 WtCom= 1.00D+00 WtEn= 0.00D+00
 Coeff-Com: -0.339D-04 0.289D-03 0.645D-04-0.334D-02 0.447D-02 0.350D-01
 Coeff-Com:  0.127D-01-0.188D+00-0.439D+00-0.492D+00 0.912D+00 0.428D-01
 Coeff-Com: -0.724D+00 0.442D+00-0.834D+00 0.122D+00 0.186D+01-0.985D+00
 Coeff-Com: -0.192D+01 0.315D+01
 Coeff:     -0.339D-04 0.289D-03 0.645D-04-0.334D-02 0.447D-02 0.350D-01
 Coeff:      0.127D-01-0.188D+00-0.439D+00-0.492D+00 0.912D+00 0.428D-01
 Coeff:     -0.724D+00 0.442D+00-0.834D+00 0.122D+00 0.186D+01-0.985D+00
 Coeff:     -0.192D+01 0.315D+01
 Gap=     0.144 Goal=   None    Shift=    0.000
 Gap=     0.297 Goal=   None    Shift=    0.000
 RMSDP=2.04D-04 MaxDP=2.10D-02 DE=-1.59D-05 OVMax= 4.85D-02

 Cycle  22  Pass 1  IDiag  1:
 RMSU=  2.04D-04    CP:  1.00D+00
 E= -1607.58768501020     Delta-E=       -0.000026251260 Rises=F Damp=F
 DIIS: error= 6.28D-04 at cycle  22 NSaved=  20.
 NSaved=20 IEnMin=20 EnMin= -1607.58768501020     IErMin=13 ErrMin= 7.29D-05
 ErrMax= 6.28D-04  0.00D+00 EMaxC= 1.00D-01 BMatC= 1.80D-04 BMatP= 6.45D-06
 IDIUse=1 WtCom= 1.00D+00 WtEn= 0.00D+00
 Coeff-Com:  0.487D-04 0.874D-04 0.414D-05-0.331D-02-0.185D-01 0.106D-01
 Coeff-Com:  0.772D-01-0.248D-02-0.907D+00 0.865D-02 0.343D+00-0.142D+00
 Coeff-Com:  0.513D+00-0.672D+00-0.376D+00 0.853D+00-0.464D+00 0.165D+01
 Coeff-Com:  0.138D+01-0.125D+01
 Coeff:      0.487D-04 0.874D-04 0.414D-05-0.331D-02-0.185D-01 0.106D-01
 Coeff:      0.772D-01-0.248D-02-0.907D+00 0.865D-02 0.343D+00-0.142D+00
 Coeff:      0.513D+00-0.672D+00-0.376D+00 0.853D+00-0.464D+00 0.165D+01
 Coeff:      0.138D+01-0.125D+01
 Gap=     0.153 Goal=   None    Shift=    0.000
 Gap=     0.296 Goal=   None    Shift=    0.000
 RMSDP=2.88D-05 MaxDP=1.72D-03 DE=-2.63D-05 OVMax= 1.79D-03

 Cycle  23  Pass 1  IDiag  1:
 RMSU=  2.83D-05    CP:  1.00D+00  1.02D+00
 E= -1607.58761613847     Delta-E=        0.000068871729 Rises=F Damp=F
 DIIS: error= 1.09D-03 at cycle  23 NSaved=  20.
 NSaved=20 IEnMin=19 EnMin= -1607.58768501020     IErMin=12 ErrMin= 7.29D-05
 ErrMax= 1.09D-03  0.00D+00 EMaxC= 1.00D-01 BMatC= 5.41D-04 BMatP= 6.45D-06
 IDIUse=1 WtCom= 1.00D+00 WtEn= 0.00D+00
 Coeff-Com: -0.801D-03 0.938D-03-0.700D-02-0.327D-01 0.775D-02 0.230D+00
 Coeff-Com:  0.147D+00-0.136D+01-0.236D-01 0.984D+00 0.335D+00-0.470D+00
 Coeff-Com: -0.459D+00-0.875D+00 0.777D+00 0.677D+00 0.290D+00 0.380D+00
 Coeff-Com:  0.139D+01-0.987D+00
 Coeff:     -0.801D-03 0.938D-03-0.700D-02-0.327D-01 0.775D-02 0.230D+00
 Coeff:      0.147D+00-0.136D+01-0.236D-01 0.984D+00 0.335D+00-0.470D+00
 Coeff:     -0.459D+00-0.875D+00 0.777D+00 0.677D+00 0.290D+00 0.380D+00
 Coeff:      0.139D+01-0.987D+00
 Gap=     0.155 Goal=   None    Shift=    0.000
 Gap=     0.297 Goal=   None    Shift=    0.000
 RMSDP=3.36D-04 MaxDP=3.49D-02 DE= 6.89D-05 OVMax= 7.99D-02

 Cycle  24  Pass 1  IDiag  1:
 RMSU=  4.43D-05    CP:  9.99D-01  2.66D+00  8.15D-01
 E= -1607.58763306458     Delta-E=       -0.000016926115 Rises=F Damp=F
 DIIS: error= 1.31D-03 at cycle  24 NSaved=  20.
 NSaved=20 IEnMin=18 EnMin= -1607.58768501020     IErMin=11 ErrMin= 7.29D-05
 ErrMax= 1.31D-03  0.00D+00 EMaxC= 1.00D-01 BMatC= 8.31D-04 BMatP= 6.45D-06
 IDIUse=1 WtCom= 1.00D+00 WtEn= 0.00D+00
 Coeff-Com:  0.116D-02-0.620D-02-0.326D-01 0.803D-02 0.184D+00 0.138D+00
 Coeff-Com: -0.111D+01-0.238D+00 0.696D+00 0.190D+00 0.392D-01-0.459D+00
 Coeff-Com: -0.564D+00 0.631D+00 0.673D-01 0.114D+01 0.521D+00 0.536D+00
 Coeff-Com: -0.789D+00 0.499D-01
 Coeff:      0.116D-02-0.620D-02-0.326D-01 0.803D-02 0.184D+00 0.138D+00
 Coeff:     -0.111D+01-0.238D+00 0.696D+00 0.190D+00 0.392D-01-0.459D+00
 Coeff:     -0.564D+00 0.631D+00 0.673D-01 0.114D+01 0.521D+00 0.536D+00
 Coeff:     -0.789D+00 0.499D-01
 Gap=     0.156 Goal=   None    Shift=    0.000
 Gap=     0.296 Goal=   None    Shift=    0.000
 RMSDP=1.05D-04 MaxDP=1.08D-02 DE=-1.69D-05 OVMax= 2.49D-02

 Cycle  25  Pass 1  IDiag  1:
 RMSU=  7.37D-07    CP:  9.99D-01  2.16D+00  9.20D-01  5.61D-01
 E= -1607.58762576491     Delta-E=        0.000007299674 Rises=F Damp=F
 DIIS: error= 1.26D-03 at cycle  25 NSaved=  20.
 NSaved=20 IEnMin=17 EnMin= -1607.58768501020     IErMin=10 ErrMin= 7.29D-05
 ErrMax= 1.26D-03  0.00D+00 EMaxC= 1.00D-01 BMatC= 7.47D-04 BMatP= 6.45D-06
 IDIUse=1 WtCom= 1.00D+00 WtEn= 0.00D+00
 Coeff-Com: -0.588D-02-0.255D-01 0.144D-01 0.161D+00 0.923D-01-0.112D+01
 Coeff-Com: -0.148D+00 0.707D+00 0.185D+00 0.557D-02-0.461D+00-0.578D+00
 Coeff-Com:  0.621D+00 0.111D+00 0.117D+01 0.457D+00 0.584D+00-0.945D+00
 Coeff-Com: -0.175D+00 0.347D+00
 Coeff:     -0.588D-02-0.255D-01 0.144D-01 0.161D+00 0.923D-01-0.112D+01
 Coeff:     -0.148D+00 0.707D+00 0.185D+00 0.557D-02-0.461D+00-0.578D+00
 Coeff:      0.621D+00 0.111D+00 0.117D+01 0.457D+00 0.584D+00-0.945D+00
 Coeff:     -0.175D+00 0.347D+00
 Gap=     0.156 Goal=   None    Shift=    0.000
 Gap=     0.296 Goal=   None    Shift=    0.000
 RMSDP=5.81D-06 MaxDP=6.05D-04 DE= 7.30D-06 OVMax= 1.38D-03

 Cycle  26  Pass 1  IDiag  1:
 RMSU=  8.11D-08    CP:  9.99D-01  2.18D+00  9.11D-01  5.82D-01  9.32D-01
 E= -1607.58762662231     Delta-E=       -0.000000857395 Rises=F Damp=F
 DIIS: error= 1.26D-03 at cycle  26 NSaved=  20.
 NSaved=20 IEnMin=16 EnMin= -1607.58768501020     IErMin= 9 ErrMin= 7.29D-05
 ErrMax= 1.26D-03  0.00D+00 EMaxC= 1.00D-01 BMatC= 7.49D-04 BMatP= 6.45D-06
 IDIUse=1 WtCom= 1.00D+00 WtEn= 0.00D+00
 Large coefficients: NSaved= 20 BigCof=   21.38 CofMax=   10.00 Det=-3.40D-11
 Inversion failed.  Reducing to 19 matrices.
 Large coefficients: NSaved= 19 BigCof=   19.14 CofMax=   10.00 Det=-3.58D-11
 Inversion failed.  Reducing to 18 matrices.
 Large coefficients: NSaved= 18 BigCof=   18.11 CofMax=   10.00 Det=-3.66D-11
 Inversion failed.  Reducing to 17 matrices.
 Large coefficients: NSaved= 17 BigCof=   14.38 CofMax=   10.00 Det=-4.30D-11
 Inversion failed.  Reducing to 16 matrices.
 Large coefficients: NSaved= 16 BigCof=   16.30 CofMax=   10.00 Det=-4.69D-11
 Inversion failed.  Reducing to 15 matrices.
 Large coefficients: NSaved= 15 BigCof=   14.45 CofMax=   10.00 Det=-4.72D-11
 Inversion failed.  Reducing to 14 matrices.
 Coeff-Com: -0.122D+00-0.423D+00 0.156D+00-0.445D+00-0.389D+00 0.121D+01
 Coeff-Com: -0.394D+00-0.213D+01 0.241D+01 0.183D+01-0.421D+00-0.964D+00
 Coeff-Com: -0.775D+01 0.843D+01
 Coeff:     -0.122D+00-0.423D+00 0.156D+00-0.445D+00-0.389D+00 0.121D+01
 Coeff:     -0.394D+00-0.213D+01 0.241D+01 0.183D+01-0.421D+00-0.964D+00
 Coeff:     -0.775D+01 0.843D+01
 Gap=     0.148 Goal=   None    Shift=    0.000
 Gap=     0.297 Goal=   None    Shift=    0.000
 RMSDP=1.09D-04 MaxDP=1.11D-02 DE=-8.57D-07 OVMax= 2.54D-02

 Cycle  27  Pass 1  IDiag  1:
 RMSU=  3.02D-06    CP:  9.99D-01  2.68D+00 -3.16D-01  1.02D+00 -3.00D+00
                    CP: -3.00D+00
 E= -1607.58773288913     Delta-E=       -0.000106266823 Rises=F Damp=F
 DIIS: error= 8.15D-04 at cycle  27 NSaved=  15.
 NSaved=15 IEnMin=15 EnMin= -1607.58773288913     IErMin= 3 ErrMin= 7.29D-05
 ErrMax= 8.15D-04  0.00D+00 EMaxC= 1.00D-01 BMatC= 3.19D-04 BMatP= 6.45D-06
 IDIUse=1 WtCom= 1.00D+00 WtEn= 0.00D+00
 Coeff-Com: -0.109D+00-0.246D+00-0.208D+00-0.164D+00-0.353D+00 0.105D+01
 Coeff-Com: -0.424D+00-0.156D+01 0.154D+01 0.181D+01-0.962D+00-0.888D+00
 Coeff-Com:  0.522D+01-0.521D+01 0.151D+01
 Coeff:     -0.109D+00-0.246D+00-0.208D+00-0.164D+00-0.353D+00 0.105D+01
 Coeff:     -0.424D+00-0.156D+01 0.154D+01 0.181D+01-0.962D+00-0.888D+00
 Coeff:      0.522D+01-0.521D+01 0.151D+01
 Gap=     0.156 Goal=   None    Shift=    0.000
 Gap=     0.297 Goal=   None    Shift=    0.000
 RMSDP=4.04D-04 MaxDP=4.04D-02 DE=-1.06D-04 OVMax= 9.58D-02

 Cycle  28  Pass 1  IDiag  1:
 RMSU=  3.21D-04    CP:  9.98D-01  3.00D+00 -1.94D-01  3.00D+00 -3.00D+00
                    CP: -3.00D+00  2.85D+00
 E= -1607.58771106614     Delta-E=        0.000021822985 Rises=F Damp=F
 DIIS: error= 1.31D-03 at cycle  28 NSaved=  16.
 NSaved=16 IEnMin=15 EnMin= -1607.58773288913     IErMin= 3 ErrMin= 7.29D-05
 ErrMax= 1.31D-03  0.00D+00 EMaxC= 1.00D-01 BMatC= 9.46D-04 BMatP= 6.45D-06
 IDIUse=1 WtCom= 1.00D+00 WtEn= 0.00D+00
 Coeff-Com: -0.136D+00-0.307D+00-0.977D-01-0.156D+00-0.428D+00 0.108D+01
 Coeff-Com: -0.356D+00-0.228D+01 0.198D+01 0.199D+01-0.383D+00-0.207D+01
 Coeff-Com:  0.244D+01-0.183D+01 0.120D+01 0.336D+00
 Coeff:     -0.136D+00-0.307D+00-0.977D-01-0.156D+00-0.428D+00 0.108D+01
 Coeff:     -0.356D+00-0.228D+01 0.198D+01 0.199D+01-0.383D+00-0.207D+01
 Coeff:      0.244D+01-0.183D+01 0.120D+01 0.336D+00
 Gap=     0.158 Goal=   None    Shift=    0.000
 Gap=     0.297 Goal=   None    Shift=    0.000
 RMSDP=1.67D-05 MaxDP=1.61D-03 DE= 2.18D-05 OVMax= 3.88D-03

 Cycle  29  Pass 1  IDiag  1:
 RMSU=  4.79D-06    CP:  9.98D-01  3.00D+00 -2.71D-01  3.00D+00 -3.00D+00
                    CP: -3.00D+00  2.98D+00  9.51D-01
 E= -1607.58772215837     Delta-E=       -0.000011092225 Rises=F Damp=F
 DIIS: error= 1.26D-03 at cycle  29 NSaved=  17.
 NSaved=17 IEnMin=15 EnMin= -1607.58773288913     IErMin= 3 ErrMin= 7.29D-05
 ErrMax= 1.26D-03  0.00D+00 EMaxC= 1.00D-01 BMatC= 8.64D-04 BMatP= 6.45D-06
 IDIUse=1 WtCom= 1.00D+00 WtEn= 0.00D+00
 Coeff-Com: -0.156D+00-0.324D+00-0.810D-01-0.185D+00-0.347D+00 0.112D+01
 Coeff-Com: -0.482D+00-0.187D+01 0.186D+01 0.178D+01-0.517D+00-0.891D+00
 Coeff-Com:  0.946D+01-0.987D+01 0.145D+01 0.164D+01-0.160D+01
 Coeff:     -0.156D+00-0.324D+00-0.810D-01-0.185D+00-0.347D+00 0.112D+01
 Coeff:     -0.482D+00-0.187D+01 0.186D+01 0.178D+01-0.517D+00-0.891D+00
 Coeff:      0.946D+01-0.987D+01 0.145D+01 0.164D+01-0.160D+01
 Gap=     0.157 Goal=   None    Shift=    0.000
 Gap=     0.297 Goal=   None    Shift=    0.000
 RMSDP=4.55D-05 MaxDP=4.48D-03 DE=-1.11D-05 OVMax= 1.08D-02

 Cycle  30  Pass 1  IDiag  1:
 RMSU=  3.14D-06    CP:  9.98D-01  3.00D+00 -2.00D-01  3.00D+00 -3.00D+00
                    CP: -3.00D+00  2.56D+00  8.15D-01  3.00D+00
 E= -1607.58771880067     Delta-E=        0.000003357694 Rises=F Damp=F
 DIIS: error= 1.24D-03 at cycle  30 NSaved=  18.
 NSaved=18 IEnMin=15 EnMin= -1607.58773288913     IErMin= 3 ErrMin= 7.29D-05
 ErrMax= 1.24D-03  0.00D+00 EMaxC= 1.00D-01 BMatC= 8.21D-04 BMatP= 6.45D-06
 IDIUse=1 WtCom= 1.00D+00 WtEn= 0.00D+00
 Coeff-Com: -0.156D+00-0.325D+00-0.661D-01-0.134D+00-0.424D+00 0.108D+01
 Coeff-Com: -0.344D+00-0.207D+01 0.186D+01 0.187D+01-0.511D+00-0.114D+01
 Coeff-Com:  0.340D+01-0.347D+01 0.151D+01 0.791D+00 0.680D+00-0.156D+01
 Coeff:     -0.156D+00-0.325D+00-0.661D-01-0.134D+00-0.424D+00 0.108D+01
 Coeff:     -0.344D+00-0.207D+01 0.186D+01 0.187D+01-0.511D+00-0.114D+01
 Coeff:      0.340D+01-0.347D+01 0.151D+01 0.791D+00 0.680D+00-0.156D+01
 Gap=     0.157 Goal=   None    Shift=    0.000
 Gap=     0.297 Goal=   None    Shift=    0.000
 RMSDP=2.74D-05 MaxDP=2.69D-03 DE= 3.36D-06 OVMax= 6.52D-03

 Cycle  31  Pass 1  IDiag  1:
 RMSU=  5.50D-07    CP:  9.98D-01  3.00D+00 -2.37D-01  3.00D+00 -3.00D+00
                    CP: -3.00D+00  2.79D+00  8.97D-01  2.06D+00  8.51D-02
 E= -1607.58772024597     Delta-E=       -0.000001445296 Rises=F Damp=F
 DIIS: error= 1.25D-03 at cycle  31 NSaved=  19.
 NSaved=19 IEnMin=15 EnMin= -1607.58773288913     IErMin= 3 ErrMin= 7.29D-05
 ErrMax= 1.25D-03  0.00D+00 EMaxC= 1.00D-01 BMatC= 8.50D-04 BMatP= 6.45D-06
 IDIUse=1 WtCom= 1.00D+00 WtEn= 0.00D+00
 Large coefficients: NSaved= 19 BigCof=   10.94 CofMax=   10.00 Det=-1.32D-11
 Inversion failed.  Reducing to 18 matrices.
 Large coefficients: NSaved= 18 BigCof=   11.25 CofMax=   10.00 Det=-1.35D-11
 Inversion failed.  Reducing to 17 matrices.
 Large coefficients: NSaved= 17 BigCof=   11.44 CofMax=   10.00 Det=-1.42D-11
 Inversion failed.  Reducing to 16 matrices.
 Large coefficients: NSaved= 16 BigCof=   34.41 CofMax=   10.00 Det=-1.88D-11
 Inversion failed.  Reducing to 15 matrices.
 Large coefficients: NSaved= 15 BigCof=   31.54 CofMax=   10.00 Det=-2.57D-11
 Inversion failed.  Reducing to 14 matrices.
 Coeff-Com: -0.236D+00 0.278D+00-0.178D+01 0.775D+00 0.254D+01-0.695D+00
 Coeff-Com: -0.225D+00 0.238D+01-0.258D+01 0.126D+01-0.985D-01 0.291D+01
 Coeff-Com: -0.636D+01 0.283D+01
 Coeff:     -0.236D+00 0.278D+00-0.178D+01 0.775D+00 0.254D+01-0.695D+00
 Coeff:     -0.225D+00 0.238D+01-0.258D+01 0.126D+01-0.985D-01 0.291D+01
 Coeff:     -0.636D+01 0.283D+01
 Gap=     0.135 Goal=   None    Shift=    0.000
 Gap=     0.299 Goal=   None    Shift=    0.000
 RMSDP=3.65D-04 MaxDP=3.59D-02 DE=-1.45D-06 OVMax= 8.55D-02

 Cycle  32  Pass 1  IDiag  1:
 RMSU=  1.83D-06    CP:  9.99D-01  2.71D+00 -1.71D+00  1.06D+00 -3.00D+00
                    CP: -3.00D+00  2.86D+00  9.25D-05  3.72D-02 -2.71D-01
                    CP: -3.00D+00
 E= -1607.58779243579     Delta-E=       -0.000072189816 Rises=F Damp=F
 DIIS: error= 2.06D-04 at cycle  32 NSaved=  15.
 NSaved=15 IEnMin=15 EnMin= -1607.58779243579     IErMin=15 ErrMin= 2.06D-04
 ErrMax= 2.06D-04  0.00D+00 EMaxC= 1.00D-01 BMatC= 1.93D-05 BMatP= 1.00D-04
 IDIUse=1 WtCom= 1.00D+00 WtEn= 0.00D+00
 Coeff-Com: -0.866D+00 0.387D+00-0.815D+00 0.705D+00 0.977D+00 0.400D+00
 Coeff-Com: -0.161D+01-0.490D+00 0.176D+01-0.678D-01-0.505D+00 0.366D+01
 Coeff-Com: -0.813D+01 0.457D+01 0.103D+01
 Coeff:     -0.866D+00 0.387D+00-0.815D+00 0.705D+00 0.977D+00 0.400D+00
 Coeff:     -0.161D+01-0.490D+00 0.176D+01-0.678D-01-0.505D+00 0.366D+01
 Coeff:     -0.813D+01 0.457D+01 0.103D+01
 Gap=     0.142 Goal=   None    Shift=    0.000
 Gap=     0.298 Goal=   None    Shift=    0.000
 RMSDP=2.46D-04 MaxDP=2.46D-02 DE=-7.22D-05 OVMax= 5.86D-02

 Cycle  33  Pass 1  IDiag  1:
 RMSU=  7.39D-06    CP:  9.99D-01  3.00D+00 -1.61D+00  2.57D+00 -3.00D+00
                    CP: -3.00D+00  3.00D+00  5.50D-01  3.00D+00  1.53D+00
                    CP: -3.00D+00  1.21D+00
 E= -1607.58782690708     Delta-E=       -0.000034471291 Rises=F Damp=F
 DIIS: error= 5.23D-04 at cycle  33 NSaved=  16.
 NSaved=16 IEnMin=16 EnMin= -1607.58782690708     IErMin=15 ErrMin= 2.06D-04
 ErrMax= 5.23D-04  0.00D+00 EMaxC= 1.00D-01 BMatC= 1.39D-04 BMatP= 1.93D-05
 IDIUse=1 WtCom= 1.00D+00 WtEn= 0.00D+00
 Coeff-Com: -0.863D+00 0.381D+00-0.814D+00 0.714D+00 0.974D+00 0.403D+00
 Coeff-Com: -0.161D+01-0.675D+00 0.192D+01-0.349D-01-0.557D+00 0.375D+01
 Coeff-Com: -0.811D+01 0.452D+01 0.104D+01-0.361D-01
 Coeff:     -0.863D+00 0.381D+00-0.814D+00 0.714D+00 0.974D+00 0.403D+00
 Coeff:     -0.161D+01-0.675D+00 0.192D+01-0.349D-01-0.557D+00 0.375D+01
 Coeff:     -0.811D+01 0.452D+01 0.104D+01-0.361D-01
 Gap=     0.143 Goal=   None    Shift=    0.000
 Gap=     0.298 Goal=   None    Shift=    0.000
 RMSDP=6.51D-06 MaxDP=6.46D-04 DE=-3.45D-05 OVMax= 1.56D-03

 Cycle  34  Pass 1  IDiag  1:
 RMSU=  2.10D-07    CP:  9.99D-01  3.00D+00 -1.60D+00  2.52D+00 -3.00D+00
                    CP: -3.00D+00  3.00D+00  5.31D-01  3.00D+00  1.33D+00
                    CP: -3.00D+00  1.18D+00  9.55D-01
 E= -1607.58782569969     Delta-E=        0.000001207384 Rises=F Damp=F
 DIIS: error= 5.20D-04 at cycle  34 NSaved=  17.
 NSaved=17 IEnMin=16 EnMin= -1607.58782690708     IErMin=15 ErrMin= 2.06D-04
 ErrMax= 5.20D-04  0.00D+00 EMaxC= 1.00D-01 BMatC= 1.37D-04 BMatP= 1.93D-05
 IDIUse=1 WtCom= 1.00D+00 WtEn= 0.00D+00
 Large coefficients: NSaved= 17 BigCof=  101.06 CofMax=   10.00 Det=-6.80D-12
 Inversion failed.  Reducing to 16 matrices.
 Large coefficients: NSaved= 16 BigCof=  116.07 CofMax=   10.00 Det=-6.93D-12
 Inversion failed.  Reducing to 15 matrices.
 Large coefficients: NSaved= 15 BigCof=   70.55 CofMax=   10.00 Det=-1.05D-11
 Inversion failed.  Reducing to 14 matrices.
 Large coefficients: NSaved= 14 BigCof=   69.85 CofMax=   10.00 Det=-1.10D-11
 Inversion failed.  Reducing to 13 matrices.
 Large coefficients: NSaved= 13 BigCof=   66.33 CofMax=   10.00 Det=-1.18D-11
 Inversion failed.  Reducing to 12 matrices.
 Large coefficients: NSaved= 12 BigCof=   48.36 CofMax=   10.00 Det=-1.50D-11
 Inversion failed.  Reducing to 11 matrices.
 Large coefficients: NSaved= 11 BigCof=   55.49 CofMax=   10.00 Det=-1.78D-11
 Inversion failed.  Reducing to 10 matrices.
 Large coefficients: NSaved= 10 BigCof=   40.93 CofMax=   10.00 Det=-1.85D-11
 Inversion failed.  Reducing to  9 matrices.
 Large coefficients: NSaved=  9 BigCof=   39.89 CofMax=   10.00 Det=-1.91D-11
 Inversion failed.  Reducing to  8 matrices.
 Large coefficients: NSaved=  8 BigCof=   42.27 CofMax=   10.00 Det=-1.93D-11
 Inversion failed.  Reducing to  7 matrices.
 Large coefficients: NSaved=  7 BigCof=   38.11 CofMax=   10.00 Det=-2.15D-11
 Inversion failed.  Reducing to  6 matrices.
 Coeff-Com: -0.715D+00 0.373D+00-0.510D+00 0.669D+00-0.951D-01 0.128D+01
 Coeff:     -0.715D+00 0.373D+00-0.510D+00 0.669D+00-0.951D-01 0.128D+01
 Gap=     0.133 Goal=   None    Shift=    0.000
 Gap=     0.299 Goal=   None    Shift=    0.000
 RMSDP=4.04D-05 MaxDP=2.22D-03 DE= 1.21D-06 OVMax= 5.59D-03

 Cycle  35  Pass 1  IDiag  1:
 RMSU=  2.17D-06    CP:  9.99D-01  3.00D+00 -2.81D+00  2.67D+00 -3.00D+00
                    CP: -3.00D+00  3.00D+00  5.88D-01  3.00D+00  1.72D+00
                    CP: -3.00D+00  2.35D+00  2.22D+00 -8.26D-01
 E= -1607.58785681010     Delta-E=       -0.000031110403 Rises=F Damp=F
 DIIS: error= 3.29D-05 at cycle  35 NSaved=   7.
 NSaved= 7 IEnMin= 7 EnMin= -1607.58785681010     IErMin= 7 ErrMin= 3.29D-05
 ErrMax= 3.29D-05  0.00D+00 EMaxC= 1.00D-01 BMatC= 1.96D-06 BMatP= 1.93D-05
 IDIUse=1 WtCom= 1.00D+00 WtEn= 0.00D+00
 Large coefficients: NSaved=  7 BigCof=   17.47 CofMax=   10.00 Det=-2.45D-11
 Inversion failed.  Reducing to  6 matrices.
 Large coefficients: NSaved=  6 BigCof=   16.89 CofMax=   10.00 Det=-2.45D-11
 Inversion failed.  Reducing to  5 matrices.
 Coeff-Com: -0.539D+00 0.529D+00 0.708D+01-0.651D+01 0.436D+00
 Coeff:     -0.539D+00 0.529D+00 0.708D+01-0.651D+01 0.436D+00
 Gap=     0.133 Goal=   None    Shift=    0.000
 Gap=     0.299 Goal=   None    Shift=    0.000
 RMSDP=5.63D-05 MaxDP=5.52D-03 DE=-3.11D-05 OVMax= 1.35D-02

 Cycle  36  Pass 1  IDiag  1:
 RMSU=  9.49D-07    CP:  9.99D-01  3.00D+00 -2.96D+00  3.00D+00 -3.00D+00
                    CP: -3.00D+00  3.00D+00  7.52D-01  3.00D+00  1.97D+00
                    CP: -3.00D+00  2.99D+00  2.69D+00 -3.00D+00  1.15D+00
 E= -1607.58787069358     Delta-E=       -0.000013883480 Rises=F Damp=F
 DIIS: error= 3.25D-05 at cycle  36 NSaved=   6.
 NSaved= 6 IEnMin= 6 EnMin= -1607.58787069358     IErMin= 6 ErrMin= 3.25D-05
 ErrMax= 3.25D-05  0.00D+00 EMaxC= 1.00D-01 BMatC= 1.69D-06 BMatP= 1.96D-06
 IDIUse=1 WtCom= 1.00D+00 WtEn= 0.00D+00
 Large coefficients: NSaved=  6 BigCof=   11.21 CofMax=   10.00 Det=-3.54D-11
 Inversion failed.  Reducing to  5 matrices.
 Large coefficients: NSaved=  5 BigCof=   38.59 CofMax=   10.00 Det=-4.28D-10
 Inversion failed.  Reducing to  4 matrices.
 Large coefficients: NSaved=  4 BigCof=   33.89 CofMax=   10.00 Det=-9.17D-10
 Inversion failed.  Reducing to  3 matrices.
 Coeff-Com: -0.128D-01-0.335D+00 0.135D+01
 Coeff:     -0.128D-01-0.335D+00 0.135D+01
 Gap=     0.133 Goal=   None    Shift=    0.000
 Gap=     0.299 Goal=   None    Shift=    0.000
 RMSDP=3.36D-05 MaxDP=3.25D-03 DE=-1.39D-05 OVMax= 8.01D-03

 Cycle  37  Pass 1  IDiag  1:
 RMSU=  2.88D-06    CP:  9.99D-01  3.00D+00 -3.00D+00  3.00D+00 -3.00D+00
                    CP: -3.00D+00  3.00D+00  8.52D-01  3.00D+00 -6.62D-01
                    CP: -3.00D+00  3.00D+00  2.86D+00  3.00D+00  1.53D+00
                    CP:  1.75D+00
 E= -1607.58787908409     Delta-E=       -0.000008390514 Rises=F Damp=F
 DIIS: error= 2.71D-05 at cycle  37 NSaved=   4.
 NSaved= 4 IEnMin= 4 EnMin= -1607.58787908409     IErMin= 4 ErrMin= 2.71D-05
 ErrMax= 2.71D-05  0.00D+00 EMaxC= 1.00D-01 BMatC= 1.29D-06 BMatP= 1.69D-06
 IDIUse=1 WtCom= 1.00D+00 WtEn= 0.00D+00
 Coeff-Com: -0.482D-02-0.418D-01 0.351D+00 0.696D+00
 Coeff:     -0.482D-02-0.418D-01 0.351D+00 0.696D+00
 Gap=     0.133 Goal=   None    Shift=    0.000
 Gap=     0.299 Goal=   None    Shift=    0.000
 RMSDP=6.90D-06 MaxDP=6.48D-04 DE=-8.39D-06 OVMax= 1.66D-03

 Cycle  38  Pass 1  IDiag  1:
 RMSU=  1.27D-06    CP:  9.99D-01  3.00D+00 -3.00D+00  3.00D+00 -3.00D+00
                    CP: -3.00D+00  3.00D+00  8.72D-01  2.65D+00 -7.52D-01
                    CP: -3.00D+00  3.00D+00  2.96D+00  3.00D+00  1.68D+00
                    CP:  1.55D+00  9.03D-01
 E= -1607.58788072736     Delta-E=       -0.000001643274 Rises=F Damp=F
 DIIS: error= 3.31D-05 at cycle  38 NSaved=   5.
 NSaved= 5 IEnMin= 5 EnMin= -1607.58788072736     IErMin= 4 ErrMin= 2.71D-05
 ErrMax= 3.31D-05  0.00D+00 EMaxC= 1.00D-01 BMatC= 1.56D-06 BMatP= 1.29D-06
 IDIUse=1 WtCom= 1.00D+00 WtEn= 0.00D+00
 Coeff-Com:  0.119D-01 0.558D+00-0.198D+01 0.660D+00 0.175D+01
 Coeff:      0.119D-01 0.558D+00-0.198D+01 0.660D+00 0.175D+01
 Gap=     0.133 Goal=   None    Shift=    0.000
 Gap=     0.299 Goal=   None    Shift=    0.000
 RMSDP=3.44D-05 MaxDP=3.31D-03 DE=-1.64D-06 OVMax= 8.24D-03

 Cycle  39  Pass 1  IDiag  1:
 RMSU=  3.16D-06    CP:  9.98D-01  3.00D+00 -3.00D+00  3.00D+00 -3.00D+00
                    CP: -3.00D+00  3.00D+00  9.74D-01  6.75D-01 -9.56D-01
                    CP: -3.00D+00  3.00D+00  3.00D+00  3.00D+00  1.93D+00
                    CP:  2.09D+00  1.35D+00  2.21D+00
 E= -1607.58788935784     Delta-E=       -0.000008630474 Rises=F Damp=F
 DIIS: error= 3.34D-05 at cycle  39 NSaved=   6.
 NSaved= 6 IEnMin= 6 EnMin= -1607.58788935784     IErMin= 4 ErrMin= 2.71D-05
 ErrMax= 3.34D-05  0.00D+00 EMaxC= 1.00D-01 BMatC= 1.59D-06 BMatP= 1.29D-06
 IDIUse=1 WtCom= 1.00D+00 WtEn= 0.00D+00
 Coeff-Com:  0.539D-02 0.415D+00-0.961D+00 0.816D+00 0.319D+01-0.247D+01
 Coeff:      0.539D-02 0.415D+00-0.961D+00 0.816D+00 0.319D+01-0.247D+01
 Gap=     0.133 Goal=   None    Shift=    0.000
 Gap=     0.299 Goal=   None    Shift=    0.000
 RMSDP=1.13D-04 MaxDP=1.09D-02 DE=-8.63D-06 OVMax= 2.70D-02

 Cycle  40  Pass 1  IDiag  1:
 RMSU=  8.43D-07    CP:  9.99D-01  3.00D+00 -2.84D+00  2.81D+00 -3.00D+00
                    CP: -3.00D+00  3.00D+00  6.41D-01  3.00D+00  2.18D+00
                    CP: -3.00D+00  2.77D+00  2.36D+00 -3.00D+00  9.31D-01
                    CP:  1.13D+00 -1.72D-01 -2.02D-02  1.38D-01
 E= -1607.58786133225     Delta-E=        0.000028025588 Rises=F Damp=F
 DIIS: error= 2.97D-05 at cycle  40 NSaved=   7.
 NSaved= 7 IEnMin= 6 EnMin= -1607.58788935784     IErMin= 4 ErrMin= 2.71D-05
 ErrMax= 2.97D-05  0.00D+00 EMaxC= 1.00D-01 BMatC= 1.66D-06 BMatP= 1.29D-06
 IDIUse=1 WtCom= 1.00D+00 WtEn= 0.00D+00
 Large coefficients: NSaved=  7 BigCof=   10.42 CofMax=   10.00 Det=-3.43D-09
 Inversion failed.  Reducing to  6 matrices.
 Coeff-Com:  0.898D+00-0.224D+01 0.976D+00 0.719D+01-0.800D+01 0.217D+01
 Coeff:      0.898D+00-0.224D+01 0.976D+00 0.719D+01-0.800D+01 0.217D+01
 Gap=     0.134 Goal=   None    Shift=    0.000
 Gap=     0.298 Goal=   None    Shift=    0.000
 RMSDP=3.51D-04 MaxDP=3.53D-02 DE= 2.80D-05 OVMax= 8.41D-02

 Cycle  41  Pass 1  IDiag  1:
 Restarting incremental Fock formation.
 E= -1607.58777776316     Delta-E=        0.000083569087 Rises=F Damp=F
 DIIS: error= 1.66D-04 at cycle  41 NSaved=   7.
 NSaved= 7 IEnMin= 5 EnMin= -1607.58788935784     IErMin= 3 ErrMin= 2.71D-05
 ErrMax= 1.66D-04  0.00D+00 EMaxC= 1.00D-01 BMatC= 1.30D-05 BMatP= 1.29D-06
 IDIUse=1 WtCom= 1.00D+00 WtEn= 0.00D+00
 Large coefficients: NSaved=  7 BigCof=   10.04 CofMax=   10.00 Det=-3.85D-09
 Inversion failed.  Reducing to  6 matrices.
 Large coefficients: NSaved=  6 BigCof=   10.05 CofMax=   10.00 Det=-3.85D-09
 Inversion failed.  Reducing to  5 matrices.
 Coeff-Com:  0.975D+00 0.698D+01-0.944D+01 0.262D+01-0.138D+00
 Coeff:      0.975D+00 0.698D+01-0.944D+01 0.262D+01-0.138D+00
 Gap=     0.137 Goal=   None    Shift=    0.000
 Gap=     0.298 Goal=   None    Shift=    0.000
 RMSDP=2.68D-05 MaxDP=2.75D-03 DE= 8.36D-05 OVMax= 6.38D-03

 Cycle  42  Pass 1  IDiag  1:
 RMSU=  2.68D-05    CP:  1.00D+00
 E= -1607.58777032785     Delta-E=        0.000007435318 Rises=F Damp=F
 DIIS: error= 2.09D-04 at cycle  42 NSaved=   6.
 NSaved= 6 IEnMin= 3 EnMin= -1607.58788935784     IErMin= 1 ErrMin= 2.71D-05
 ErrMax= 2.09D-04  0.00D+00 EMaxC= 1.00D-01 BMatC= 2.18D-05 BMatP= 1.29D-06
 IDIUse=1 WtCom= 1.00D+00 WtEn= 0.00D+00
 Large coefficients: NSaved=  6 BigCof=   10.11 CofMax=   10.00 Det=-4.01D-09
 Inversion failed.  Reducing to  5 matrices.
 Coeff-Com:  0.793D+00 0.276D+01-0.262D+01 0.309D+00-0.249D+00
 Coeff:      0.793D+00 0.276D+01-0.262D+01 0.309D+00-0.249D+00
 Gap=     0.131 Goal=   None    Shift=    0.000
 Gap=     0.299 Goal=   None    Shift=    0.000
 RMSDP=3.56D-04 MaxDP=3.59D-02 DE= 7.44D-06 OVMax= 8.52D-02

 Cycle  43  Pass 1  IDiag  1:
 RMSU=  2.49D-04    CP:  1.00D+00 -3.00D+00
 E= -1607.58785594666     Delta-E=       -0.000085618810 Rises=F Damp=F
 DIIS: error= 2.92D-05 at cycle  43 NSaved=   6.
 NSaved= 6 IEnMin= 3 EnMin= -1607.58788935784     IErMin= 1 ErrMin= 2.71D-05
 ErrMax= 2.92D-05  0.00D+00 EMaxC= 1.00D-01 BMatC= 1.74D-06 BMatP= 1.29D-06
 IDIUse=1 WtCom= 1.00D+00 WtEn= 0.00D+00
 Large coefficients: NSaved=  6 BigCof=   10.84 CofMax=   10.00 Det=-4.64D-09
 Inversion failed.  Reducing to  5 matrices.
 Coeff-Com:  0.916D+00 0.566D+01-0.712D+01-0.112D+00 0.166D+01
 Coeff:      0.916D+00 0.566D+01-0.712D+01-0.112D+00 0.166D+01
 Gap=     0.134 Goal=   None    Shift=    0.000
 Gap=     0.298 Goal=   None    Shift=    0.000
 RMSDP=2.49D-04 MaxDP=2.49D-02 DE=-8.56D-05 OVMax= 5.96D-02

 Cycle  44  Pass 1  IDiag  1:
 RMSU=  6.59D-06    CP:  1.00D+00 -2.99D+00  3.46D-03
 E= -1607.58779645325     Delta-E=        0.000059493405 Rises=F Damp=F
 DIIS: error= 1.33D-04 at cycle  44 NSaved=   6.
 NSaved= 6 IEnMin= 3 EnMin= -1607.58788935784     IErMin= 1 ErrMin= 2.71D-05
 ErrMax= 1.33D-04  0.00D+00 EMaxC= 1.00D-01 BMatC= 8.52D-06 BMatP= 1.29D-06
 IDIUse=1 WtCom= 1.00D+00 WtEn= 0.00D+00
 Coeff-Com:  0.896D+00 0.699D+01-0.943D+01-0.556D+00 0.239D+01 0.712D+00
 Coeff:      0.896D+00 0.699D+01-0.943D+01-0.556D+00 0.239D+01 0.712D+00
 Gap=     0.137 Goal=   None    Shift=    0.000
 Gap=     0.298 Goal=   None    Shift=    0.000
 RMSDP=1.90D-04 MaxDP=1.96D-02 DE= 5.95D-05 OVMax= 4.56D-02

 Cycle  45  Pass 1  IDiag  1:
 RMSU=  6.54D-06    CP:  1.00D+00  3.00D+00 -1.19D-01 -1.52D-01
 E= -1607.58774967370     Delta-E=        0.000046779554 Rises=F Damp=F
 DIIS: error= 2.79D-04 at cycle  45 NSaved=   7.
 NSaved= 7 IEnMin= 3 EnMin= -1607.58788935784     IErMin= 1 ErrMin= 2.71D-05
 ErrMax= 2.79D-04  0.00D+00 EMaxC= 1.00D-01 BMatC= 3.68D-05 BMatP= 1.29D-06
 IDIUse=1 WtCom= 1.00D+00 WtEn= 0.00D+00
 Coeff-Com:  0.283D+00 0.329D+01-0.417D+01 0.207D+01 0.279D+00 0.150D+01
 Coeff-Com: -0.225D+01
 Coeff:      0.283D+00 0.329D+01-0.417D+01 0.207D+01 0.279D+00 0.150D+01
 Coeff:     -0.225D+01
 Gap=     0.136 Goal=   None    Shift=    0.000
 Gap=     0.298 Goal=   None    Shift=    0.000
 RMSDP=1.31D-04 MaxDP=1.35D-02 DE= 4.68D-05 OVMax= 3.13D-02

 Cycle  46  Pass 1  IDiag  1:
 RMSU=  9.54D-07    CP:  1.00D+00 -7.60D-01  1.60D-03  5.54D-01 -1.17D-01
 E= -1607.58778155211     Delta-E=       -0.000031878416 Rises=F Damp=F
 DIIS: error= 1.93D-04 at cycle  46 NSaved=   8.
 NSaved= 8 IEnMin= 3 EnMin= -1607.58788935784     IErMin= 1 ErrMin= 2.71D-05
 ErrMax= 1.93D-04  0.00D+00 EMaxC= 1.00D-01 BMatC= 1.72D-05 BMatP= 1.29D-06
 IDIUse=1 WtCom= 1.00D+00 WtEn= 0.00D+00
 Coeff-Com: -0.948D-02 0.920D+00-0.918D+00 0.285D+01-0.875D+00 0.150D+01
 Coeff-Com: -0.345D+01 0.987D+00
 Coeff:     -0.948D-02 0.920D+00-0.918D+00 0.285D+01-0.875D+00 0.150D+01
 Coeff:     -0.345D+01 0.987D+00
 Gap=     0.135 Goal=   None    Shift=    0.000
 Gap=     0.298 Goal=   None    Shift=    0.000
 RMSDP=1.14D-04 MaxDP=1.16D-02 DE=-3.19D-05 OVMax= 2.73D-02

 Cycle  47  Pass 1  IDiag  1:
 RMSU=  6.85D-07    CP:  1.00D+00 -3.00D+00  2.20D-01  1.10D+00 -4.88D-01
                    CP:  1.16D+00
 E= -1607.58780832735     Delta-E=       -0.000026775237 Rises=F Damp=F
 DIIS: error= 1.48D-04 at cycle  47 NSaved=   9.
 NSaved= 9 IEnMin= 3 EnMin= -1607.58788935784     IErMin= 1 ErrMin= 2.71D-05
 ErrMax= 1.48D-04  0.00D+00 EMaxC= 1.00D-01 BMatC= 1.06D-05 BMatP= 1.29D-06
 IDIUse=1 WtCom= 1.00D+00 WtEn= 0.00D+00
 Coeff-Com: -0.515D-02 0.101D+01-0.101D+01 0.292D+01-0.875D+00 0.155D+01
 Coeff-Com: -0.349D+01 0.105D+01-0.146D+00
 Coeff:     -0.515D-02 0.101D+01-0.101D+01 0.292D+01-0.875D+00 0.155D+01
 Coeff:     -0.349D+01 0.105D+01-0.146D+00
 Gap=     0.135 Goal=   None    Shift=    0.000
 Gap=     0.298 Goal=   None    Shift=    0.000
 RMSDP=1.19D-05 MaxDP=1.20D-03 DE=-2.68D-05 OVMax= 2.84D-03

 Cycle  48  Pass 1  IDiag  1:
 RMSU=  1.74D-07    CP:  1.00D+00 -3.00D+00  1.72D-01  1.13D+00 -4.21D-01
                    CP:  9.40D-01  8.61D-01
 E= -1607.58780559874     Delta-E=        0.000002728609 Rises=F Damp=F
 DIIS: error= 1.50D-04 at cycle  48 NSaved=  10.
 NSaved=10 IEnMin= 3 EnMin= -1607.58788935784     IErMin= 1 ErrMin= 2.71D-05
 ErrMax= 1.50D-04  0.00D+00 EMaxC= 1.00D-01 BMatC= 1.07D-05 BMatP= 1.29D-06
 IDIUse=1 WtCom= 1.00D+00 WtEn= 0.00D+00
 Large coefficients: NSaved= 10 BigCof=   21.64 CofMax=   10.00 Det=-7.62D-11
 Inversion failed.  Reducing to  9 matrices.
 Large coefficients: NSaved=  9 BigCof=   17.56 CofMax=   10.00 Det=-2.66D-10
 Inversion failed.  Reducing to  8 matrices.
 Large coefficients: NSaved=  8 BigCof=   16.18 CofMax=   10.00 Det=-2.69D-10
 Inversion failed.  Reducing to  7 matrices.
 Large coefficients: NSaved=  7 BigCof=   11.44 CofMax=   10.00 Det=-3.13D-10
 Inversion failed.  Reducing to  6 matrices.
 Large coefficients: NSaved=  6 BigCof=   13.99 CofMax=   10.00 Det=-3.21D-10
 Inversion failed.  Reducing to  5 matrices.
 Large coefficients: NSaved=  5 BigCof=   15.91 CofMax=   10.00 Det=-3.24D-10
 Inversion failed.  Reducing to  4 matrices.
 Large coefficients: NSaved=  4 BigCof=   28.18 CofMax=   10.00 Det=-4.06D-10
 Inversion failed.  Reducing to  3 matrices.
 Large coefficients: NSaved=  3 BigCof=   28.51 CofMax=   10.00 Det=-4.07D-10
 Inversion failed.  Reducing to  2 matrices.
 Large coefficients: NSaved=  2 BigCof=   90.05 CofMax=   10.00 Det=-7.69D-10
 Coeff-Com:  0.901D+02-0.891D+02
 Coeff:      0.901D+02-0.891D+02
 Gap=     0.133 Goal=   None    Shift=    0.000
 Gap=     0.300 Goal=   None    Shift=    0.000
 RMSDP=9.92D-04 MaxDP=9.30D-02 DE= 2.73D-06 OVMax= 2.37D-01

 Cycle  49  Pass 1  IDiag  1:
 RMSU=  3.17D-04    CP:  9.98D-01 -3.00D+00  3.00D+00  3.00D+00  3.00D+00
                    CP: -3.00D+00  3.00D+00  3.00D+00
 E= -1607.58799185732     Delta-E=       -0.000186258574 Rises=F Damp=F
 DIIS: error= 6.91D-04 at cycle  49 NSaved=   3.
 NSaved= 3 IEnMin= 3 EnMin= -1607.58799185732     IErMin= 1 ErrMin= 1.48D-04
 ErrMax= 6.91D-04  0.00D+00 EMaxC= 1.00D-01 BMatC= 3.46D-04 BMatP= 1.06D-05
 IDIUse=1 WtCom= 1.00D+00 WtEn= 0.00D+00
 Large coefficients: NSaved=  3 BigCof=   71.16 CofMax=   10.00 Det=-6.32D-10
 Inversion failed.  Reducing to  2 matrices.
 Coeff-Com:  0.113D+01-0.127D+00
 Coeff:      0.113D+01-0.127D+00
 Gap=     0.116 Goal=   None    Shift=    0.000
 Gap=     0.300 Goal=   None    Shift=    0.000
 RMSDP=1.10D-03 MaxDP=1.04D-01 DE=-1.86D-04 OVMax= 2.63D-01

 Cycle  50  Pass 1  IDiag  1:
 RMSU=  3.21D-06    CP:  1.00D+00 -4.71D-01 -1.05D-03 -3.47D-01  2.19D-01
                    CP:  9.40D-01  9.99D-01 -3.00D+00  1.99D-04
 E= -1607.58778161417     Delta-E=        0.000210243147 Rises=F Damp=F
 DIIS: error= 1.18D-04 at cycle  50 NSaved=   3.
 NSaved= 3 IEnMin= 2 EnMin= -1607.58799185732     IErMin= 3 ErrMin= 1.18D-04
 ErrMax= 1.18D-04  0.00D+00 EMaxC= 1.00D-01 BMatC= 7.04D-06 BMatP= 1.07D-05
 IDIUse=1 WtCom= 1.00D+00 WtEn= 0.00D+00
 Coeff-Com:  0.479D+00-0.108D+00 0.629D+00
 Coeff:      0.479D+00-0.108D+00 0.629D+00
 Gap=     0.135 Goal=   None    Shift=    0.000
 Gap=     0.298 Goal=   None    Shift=    0.000
 RMSDP=4.98D-05 MaxDP=5.17D-03 DE= 2.10D-04 OVMax= 1.18D-02

 >>>>>>>>>> Convergence criterion not met.
 SCF Done:  E(UPBE1PBE) =  -1607.58778161     A.U. after   51 cycles
            NFock= 50  Conv=0.50D-04     -V/T= 2.0011
 <Sx>= 0.0000 <Sy>= 0.0000 <Sz>= 2.0000 <S**2>= 6.0140 S= 2.0028
 <L.S>=  0.00000000000    
 KE= 1.605847293002D+03 PE=-5.268225049722D+03 EE= 1.303703656181D+03
 Annihilation of the first spin contaminant:
 S**2 before annihilation     6.0140,   after     6.0000
 Leave Link  502 at Thu May 23 14:51:02 2024, MaxMem= 26843545600 cpu:            9285.1 elap:              81.5
 (Enter /gpfs/fs1/soft/improv/software/custom-built/gaussian/g16/l508.exe)
 Integral symmetry usage will be decided dynamically.
 Tight linear equation convergence will be used.
 UPBE1PBE wavefunction.
 Quadratic Convergence SCF Method.
 Line search only if initial step raises energy.
 Fock matrices will be formed incrementally for  20 cycles.
 FoFJK:  IHMeth= 1 ICntrl=       0 DoSepK=F KAlg= 0 I1Cent=           0 FoldK=F
 IRaf= 990000000 NMat=       1 IRICut=       1 DoRegI=T DoRafI=F ISym2E= 1 IDoP0=0 IntGTp=1.
 FoFCou: FMM=F IPFlag=           0 FMFlag=      100000 FMFlg1=           0
         NFxFlg=           0 DoJE=F BraDBF=F KetDBF=F FulRan=T
         wScrn=  0.000000 ICntrl=         0 IOpCl=  1 I1Cent=           0 NGrid=           0
         NMat0=    1 NMatS0=      1 NMatT0=    0 NMatD0=    1 NMtDS0=    0 NMtDT0=    0
 Petite list used in FoFCou.
 Iteration   1 EE= -1607.58777069673                                    Grad=1.871D-03 Max rot=    0.0249 deg.
 QCNR:  CnvC1=1.50D-08 CnvC2=1.50D-07
 LinEq1:  Iter=  0 NonCon=     1 RMS=2.22D-05 Max=2.84D-03 NDo=     1
 AX will form     1 AO Fock derivatives at one time.
 LinEq1:  Iter=  1 NonCon=     1 RMS=2.34D-05 Max=1.63D-03 NDo=     1
 LinEq1:  Iter=  2 NonCon=     1 RMS=9.63D-06 Max=4.26D-04 NDo=     1
 LinEq1:  Iter=  3 NonCon=     1 RMS=8.58D-06 Max=4.31D-04 NDo=     1
 LinEq1:  Iter=  4 NonCon=     1 RMS=2.33D-06 Max=9.59D-05 NDo=     1
 LinEq1:  Iter=  5 NonCon=     1 RMS=8.06D-07 Max=3.08D-05 NDo=     1
 LinEq1:  Iter=  6 NonCon=     1 RMS=5.50D-07 Max=2.26D-05 NDo=     1
 LinEq1:  Iter=  7 NonCon=     1 RMS=2.66D-07 Max=1.40D-05 NDo=     1
 LinEq1:  Iter=  8 NonCon=     1 RMS=1.49D-07 Max=7.18D-06 NDo=     1
 LinEq1:  Iter=  9 NonCon=     1 RMS=9.76D-08 Max=3.81D-06 NDo=     1
 LinEq1:  Iter= 10 NonCon=     1 RMS=2.85D-08 Max=8.80D-07 NDo=     1
 LinEq1:  Iter= 11 NonCon=     1 RMS=1.49D-08 Max=4.84D-07 NDo=     1
 LinEq1:  Iter= 12 NonCon=     1 RMS=1.00D-08 Max=3.53D-07 NDo=     1
 LinEq1:  Iter= 13 NonCon=     1 RMS=3.89D-09 Max=2.32D-07 NDo=     1
 LinEq1:  Iter= 14 NonCon=     0 RMS=1.29D-09 Max=4.47D-08 NDo=     1
 Linear equations converged to 1.504D-08 1.504D-07 after    14 iterations.
 Angle between quadratic step and gradient= 103.71 degrees.
 Incorrect curvature in search direction -- initial direction reversed.
     ILin= 1 X=0.000D+00 Y=-1.607587770697D+03 DE= 0.00D+00 F= -1.16D-03
 RMSU=  2.91D-03    CP:  9.91D-01
     ILin= 2 X=6.000D-01 Y=-1.607583405717D+03 DE= 4.36D-03 F=  2.98D-02 OKLS=F
 RMSU=  5.26D-04    CP:  9.95D-01  6.83D-01
     ILin= 3 X=4.000D-01 Y=-1.607587192195D+03 DE= 5.79D-04 F=  9.57D-03
 RMSU=  9.75D-06    CP:  9.97D-01  5.00D-01  1.13D+00
     ILin= 4 X=3.000D-01 Y=-1.607587815370D+03 DE=-4.47D-05 F=  3.38D-03
     A contracting polynomial of degree  4 produced  0.2126
 RMSU=  4.86D-08    CP:  9.98D-01  3.41D-01  1.03D+00  1.71D+00
 Iteration   2 EE= -1607.58796048024     Delta-E=       -0.000189783502 Grad=1.756D-02 Max rot=    0.3321 deg.
 Gradient too large for Newton-Raphson -- use scaled steepest descent instead.
 Alpha Gap=     0.136 HL deriv= 6.46D-06
  Beta Gap=     0.302 HL deriv= 8.63D-05
     ILin= 1 X=0.000D+00 Y=-1.607587960480D+03 DE= 0.00D+00 F= -2.77D-04
 RMSU=  2.28D-05    CP:  9.98D-01  3.40D-01  1.03D+00  1.40D+00  1.60D-01
     ILin= 2 X=3.000D-01 Y=-1.607588020945D+03 DE=-6.05D-05 F= -1.26D-04 OKLS=F
 RMSU=  6.10D-08    CP:  9.98D-01  3.40D-01  1.03D+00  1.09D+00 -1.20D+00
                    CP:  2.00D+00
     ILin= 3 X=6.000D-01 Y=-1.607588036268D+03 DE=-7.58D-05 F=  2.41D-05
     Accept linear search using points  2 and  3.
[...]
    14  H   -0.012815   0.280130  -0.000002  -0.000000  -0.000047   0.000000
    15  H   -0.000046  -0.000002   0.256997   0.000000  -0.000000  -0.000046
    16  H   -0.000000  -0.000000   0.000000   0.255246   0.000002  -0.000067
    17  H   -0.000002  -0.000047  -0.000000   0.000002   0.256999  -0.000002
    18  H    0.000000   0.000000  -0.000046  -0.000067  -0.000002   0.280127
    19  H   -0.000000  -0.000000   0.000002   0.000001   0.000000  -0.000067
              19
     1  Mn  -0.007845
     2  O   -0.000419
     3  H   -0.000000
     4  O   -0.000010
     5  H    0.000000
     6  O    0.003038
     7  H   -0.000067
     8  O    0.299367
     9  H   -0.011653
    10  O   -0.000011
    11  H    0.000002
    12  O    0.000898
    13  H   -0.000000
    14  H   -0.000000
    15  H    0.000002
    16  H    0.000001
    17  H    0.000000
    18  H   -0.000067
    19  H    0.255249
          Atomic-Atomic Spin Densities.
               1          2          3          4          5          6
     1  Mn   4.201621  -0.039384  -0.000681  -0.043193  -0.000078  -0.065314
     2  O   -0.039384   0.018364   0.000595   0.024219  -0.000444  -0.014847
     3  H   -0.000681   0.000595   0.001364  -0.000644   0.000002   0.000235
     4  O   -0.043193   0.024219  -0.000644   0.026356  -0.000094  -0.017274
     5  H   -0.000078  -0.000444   0.000002  -0.000094   0.000861   0.000487
     6  O   -0.065314  -0.014847   0.000235  -0.017274   0.000487   0.159801
     7  H    0.001895   0.000482  -0.000001   0.000300  -0.000002  -0.004560
     8  O   -0.039381   0.002673  -0.000065   0.024218  -0.000548  -0.014846
     9  H   -0.000680  -0.000065  -0.000000  -0.000645   0.000023   0.000235
    10  O   -0.043194   0.024218  -0.000644   0.003520  -0.000073  -0.017279
    11  H   -0.000078  -0.000548   0.000023  -0.000073   0.000000   0.000488
    12  O   -0.065317  -0.014848   0.001051  -0.017273   0.000487   0.009094
    13  H    0.001896   0.000482  -0.000024   0.001120  -0.000022  -0.000121
    14  H    0.001895   0.000482  -0.000024   0.000300  -0.000002  -0.000121
    15  H   -0.000079  -0.000548   0.000023  -0.000093  -0.000290   0.000487
    16  H   -0.000680   0.000594  -0.000522  -0.000645   0.000002   0.001052
    17  H   -0.000078  -0.000444   0.000002  -0.000073  -0.000000   0.000487
    18  H    0.001896   0.000482  -0.000001   0.001120  -0.000022  -0.004561
    19  H   -0.000681  -0.000065   0.000000  -0.000644   0.000023   0.001051
               7          8          9         10         11         12
     1  Mn   0.001895  -0.039381  -0.000680  -0.043194  -0.000078  -0.065317
     2  O    0.000482   0.002673  -0.000065   0.024218  -0.000548  -0.014848
     3  H   -0.000001  -0.000065  -0.000000  -0.000644   0.000023   0.001051
     4  O    0.000300   0.024218  -0.000645   0.003520  -0.000073  -0.017273
     5  H   -0.000002  -0.000548   0.000023  -0.000073   0.000000   0.000487
     6  O   -0.004560  -0.014846   0.000235  -0.017279   0.000488   0.009094
     7  H    0.002943   0.000482  -0.000001   0.001121  -0.000022  -0.000121
     8  O    0.000482   0.018354   0.000594   0.024219  -0.000444  -0.014846
     9  H   -0.000001   0.000594   0.001363  -0.000645   0.000002   0.001051
    10  O    0.001121   0.024219  -0.000645   0.026364  -0.000095  -0.017279
    11  H   -0.000022  -0.000444   0.000002  -0.000095   0.000862   0.000487
    12  O   -0.000121  -0.014846   0.001051  -0.017279   0.000487   0.159812
    13  H    0.000000   0.000482  -0.000024   0.000300  -0.000002  -0.004561
    14  H    0.000000   0.000482  -0.000024   0.001121  -0.000022  -0.004560
    15  H   -0.000002  -0.000444   0.000002  -0.000073  -0.000000   0.000487
    16  H   -0.000024  -0.000065   0.000000  -0.000645   0.000023   0.000235
    17  H   -0.000022  -0.000549   0.000023  -0.000094  -0.000290   0.000488
    18  H    0.000763   0.000482  -0.000001   0.000300  -0.000002  -0.000121
    19  H   -0.000024   0.000595  -0.000522  -0.000644   0.000002   0.000235
              13         14         15         16         17         18
     1  Mn   0.001896   0.001895  -0.000079  -0.000680  -0.000078   0.001896
     2  O    0.000482   0.000482  -0.000548   0.000594  -0.000444   0.000482
     3  H   -0.000024  -0.000024   0.000023  -0.000522   0.000002  -0.000001
     4  O    0.001120   0.000300  -0.000093  -0.000645  -0.000073   0.001120
     5  H   -0.000022  -0.000002  -0.000290   0.000002  -0.000000  -0.000022
     6  O   -0.000121  -0.000121   0.000487   0.001052   0.000487  -0.004561
     7  H    0.000000   0.000000  -0.000002  -0.000024  -0.000022   0.000763
     8  O    0.000482   0.000482  -0.000444  -0.000065  -0.000549   0.000482
     9  H   -0.000024  -0.000024   0.000002   0.000000   0.000023  -0.000001
    10  O    0.000300   0.001121  -0.000073  -0.000645  -0.000094   0.000300
    11  H   -0.000002  -0.000022  -0.000000   0.000023  -0.000290  -0.000002
    12  O   -0.004561  -0.004560   0.000487   0.000235   0.000488  -0.000121
    13  H    0.002944   0.000763  -0.000022  -0.000001  -0.000002   0.000000
    14  H    0.000763   0.002942  -0.000002  -0.000001  -0.000022   0.000000
    15  H   -0.000022  -0.000002   0.000861   0.000023   0.000000  -0.000022
    16  H   -0.000001  -0.000001   0.000023   0.001363   0.000002  -0.000024
    17  H   -0.000002  -0.000022   0.000000   0.000002   0.000862  -0.000002
    18  H    0.000000   0.000000  -0.000022  -0.000024  -0.000002   0.002944
    19  H   -0.000001  -0.000001   0.000002  -0.000000   0.000023  -0.000024
              19
     1  Mn  -0.000681
     2  O   -0.000065
     3  H    0.000000
     4  O   -0.000644
     5  H    0.000023
     6  O    0.001051
     7  H   -0.000024
     8  O    0.000595
     9  H   -0.000522
    10  O   -0.000644
    11  H    0.000002
    12  O    0.000235
    13  H   -0.000001
    14  H   -0.000001
    15  H    0.000002
    16  H   -0.000000
    17  H    0.000023
    18  H   -0.000024
    19  H    0.001364
 Mulliken charges and spin densities:
               1          2
     1  Mn   1.573181   3.910384
     2  O   -0.659268   0.001396
     3  H    0.461517   0.000690
     4  O   -0.661888   0.000501
     5  H    0.459844   0.000312
     6  O   -0.679767   0.034495
     7  H    0.435814   0.003206
     8  O   -0.659270   0.001393
     9  H    0.461518   0.000689
    10  O   -0.661934   0.000497
    11  H    0.459845   0.000313
    12  O   -0.679754   0.034501
    13  H    0.435822   0.003207
    14  H    0.435812   0.003206
    15  H    0.459839   0.000312
    16  H    0.461514   0.000689
    17  H    0.459838   0.000312
    18  H    0.435822   0.003207
    19  H    0.461515   0.000690
 Sum of Mulliken charges =   3.00000   4.00000
 Mulliken charges and spin densities with hydrogens summed into heavy atoms:
               1          2
     1  Mn   1.573181   3.910384
     2  O    0.263763   0.002775
     4  O    0.257795   0.001124
     6  O    0.191869   0.040909
     8  O    0.263763   0.002772
    10  O    0.257749   0.001122
    12  O    0.191881   0.040914
 Electronic spatial extent (au):  <R**2>=           1033.0137
 Charge=              3.0000 electrons
 Dipole moment (field-independent basis, Debye):
    X=             -0.0001    Y=             -0.0001    Z=              0.0001  Tot=              0.0002
 Quadrupole moment (field-independent basis, Debye-Ang):
   XX=             -8.7281   YY=             -7.2535   ZZ=             -6.9135
   XY=             -0.0007   XZ=             -0.0057   YZ=             -0.0006
 Traceless Quadrupole moment (field-independent basis, Debye-Ang):
   XX=             -1.0964   YY=              0.3782   ZZ=              0.7182
   XY=             -0.0007   XZ=             -0.0057   YZ=             -0.0006
 Octapole moment (field-independent basis, Debye-Ang**2):
  XXX=              0.0014  YYY=             -0.0006  ZZZ=              0.0027  XYY=             -0.0046
  XXY=              0.0065  XXZ=             -0.0029  XZZ=              0.0017  YZZ=             -0.0083
  YYZ=              0.0009  XYZ=             -0.0031
 Hexadecapole moment (field-independent basis, Debye-Ang**3):
 XXXX=            -67.3574 YYYY=            -44.4525 ZZZZ=            -44.9256 XXXY=              0.0170
 XXXZ=              0.0449 YYYX=             -0.0193 YYYZ=              0.7800 ZZZX=             -0.0392
 ZZZY=             -0.7641 XXYY=            -87.6865 XXZZ=            -91.4472 YYZZ=            -77.6617
 XXYZ=              0.0145 YYXZ=             -0.0453 ZZXY=             -0.0000
 N-N= 6.750850502817D+02 E-N=-5.117475183425D+03  KE= 1.603575367064D+03
                          Isotropic Fermi Contact Couplings
        Atom                 a.u.       MegaHertz       Gauss      10(-4) cm-1
     1  Mn(55)             0.27454      75.86578      27.07080      25.30610
     2  O(17)             -0.01533       2.32372       0.82916       0.77511
     3  H(1)               0.00035       0.38978       0.13908       0.13002
     4  O(17)             -0.01671       2.53286       0.90379       0.84487
     5  H(1)               0.00008       0.08586       0.03064       0.02864
     6  O(17)              0.13459     -20.39701      -7.27816      -6.80371
     7  H(1)               0.00161       1.79856       0.64177       0.59994
     8  O(17)             -0.01534       2.32446       0.82943       0.77536
     9  H(1)               0.00035       0.38938       0.13894       0.12988
    10  O(17)             -0.01670       2.53053       0.90296       0.84409
    11  H(1)               0.00008       0.08642       0.03084       0.02883
    12  O(17)              0.13459     -20.39772      -7.27841      -6.80395
    13  H(1)               0.00161       1.79934       0.64205       0.60019
    14  H(1)               0.00161       1.79836       0.64170       0.59987
    15  H(1)               0.00008       0.08581       0.03062       0.02862
    16  H(1)               0.00035       0.38901       0.13881       0.12976
    17  H(1)               0.00008       0.08616       0.03074       0.02874
    18  H(1)               0.00161       1.79931       0.64204       0.60018
    19  H(1)               0.00035       0.38968       0.13905       0.12998
 --------------------------------------------------------
       Center         ----  Spin Dipole Couplings  ----
                      3XX-RR        3YY-RR        3ZZ-RR
 --------------------------------------------------------
     1   Atom        2.173126     -1.069922     -1.103204
     2   Atom       -0.091668      0.121952     -0.030283
     3   Atom       -0.022616     -0.029628      0.052244
     4   Atom        0.117615     -0.025966     -0.091650
     5   Atom       -0.028351      0.051659     -0.023308
     6   Atom        0.191860     -0.165593     -0.026267
     7   Atom        0.043987     -0.013141     -0.030846
     8   Atom       -0.091660      0.121943     -0.030283
     9   Atom       -0.022601     -0.029625      0.052226
    10   Atom        0.117556     -0.025923     -0.091633
    11   Atom       -0.028350      0.051660     -0.023309
    12   Atom        0.191853     -0.165607     -0.026246
    13   Atom        0.044000     -0.013156     -0.030844
    14   Atom        0.043995     -0.013148     -0.030847
    15   Atom       -0.028350      0.051191     -0.022841
    16   Atom       -0.022595     -0.029627      0.052222
    17   Atom       -0.028350      0.051189     -0.022840
    18   Atom        0.044007     -0.013164     -0.030843
    19   Atom       -0.022611     -0.029630      0.052241
 --------------------------------------------------------
                        XY            XZ            YZ
 --------------------------------------------------------
     1   Atom        0.000288      0.000489      0.000140
     2   Atom        0.000000     -0.000009      0.000623
     3   Atom       -0.000118      0.028896     -0.000332
     4   Atom       -0.000004      0.000187      0.000273
     5   Atom        0.000022     -0.000003     -0.028311
     6   Atom        0.000081      0.000008     -0.000545
     7   Atom        0.026837      0.000115      0.000074
     8   Atom       -0.000042     -0.000018      0.000664
     9   Atom        0.000122     -0.028912     -0.000345
    10   Atom        0.000025      0.000226      0.000271
    11   Atom        0.000024     -0.000002     -0.028306
    12   Atom       -0.000031      0.000019     -0.000584
    13   Atom        0.026821      0.000127      0.000080
    14   Atom       -0.026831     -0.000098      0.000068
    15   Atom       -0.000032     -0.000007      0.028917
    16   Atom        0.000118     -0.028922     -0.000332
    17   Atom       -0.000043     -0.000009      0.028917
    18   Atom       -0.026812     -0.000094      0.000064
    19   Atom       -0.000119      0.028905     -0.000333
 --------------------------------------------------------


 ---------------------------------------------------------------------------------
              Anisotropic Spin Dipole Couplings in Principal Axis System
 ---------------------------------------------------------------------------------

       Atom             a.u.   MegaHertz   Gauss  10(-4) cm-1        Axes

              Baa    -1.1032  -145.559   -51.939   -48.553 -0.0001 -0.0042  1.0000
     1 Mn(55) Bbb    -1.0699  -141.167   -50.372   -47.088 -0.0001  1.0000  0.0042
              Bcc     2.1731   286.726   102.311    95.641  1.0000  0.0001  0.0001
 
              Baa    -0.0917     6.633     2.367     2.213  1.0000 -0.0000  0.0002
     2 O(17)  Bbb    -0.0303     2.191     0.782     0.731 -0.0002 -0.0041  1.0000
              Bcc     0.1220    -8.825    -3.149    -2.944  0.0000  1.0000  0.0041
 
              Baa    -0.0325   -17.326    -6.182    -5.779  0.9465  0.0015 -0.3228
     3 H(1)   Bbb    -0.0296   -15.809    -5.641    -5.273 -0.0001  1.0000  0.0041
              Bcc     0.0621    33.135    11.823    11.053  0.3228 -0.0038  0.9465
 
              Baa    -0.0917     6.632     2.366     2.212 -0.0009 -0.0042  1.0000
     4 O(17)  Bbb    -0.0260     1.879     0.670     0.627  0.0000  1.0000  0.0042
              Bcc     0.1176    -8.511    -3.037    -2.839  1.0000 -0.0000  0.0009
 
              Baa    -0.0328   -17.499    -6.244    -5.837 -0.0010  0.3178  0.9481
     5 H(1)   Bbb    -0.0284   -15.127    -5.398    -5.046  1.0000  0.0001  0.0010
              Bcc     0.0611    32.626    11.642    10.883  0.0002  0.9481 -0.3178
 
              Baa    -0.1656    11.982     4.276     3.997 -0.0002  1.0000  0.0039
     6 O(17)  Bbb    -0.0263     1.901     0.678     0.634 -0.0000 -0.0039  1.0000
              Bcc     0.1919   -13.883    -4.954    -4.631  1.0000  0.0002  0.0000
 
              Baa    -0.0308   -16.458    -5.873    -5.490 -0.0001 -0.0040  1.0000
     7 H(1)   Bbb    -0.0238   -12.683    -4.526    -4.231 -0.3682  0.9297  0.0037
              Bcc     0.0546    29.141    10.398     9.720  0.9297  0.3682  0.0016
 
              Baa    -0.0917     6.632     2.367     2.212  1.0000  0.0002  0.0003
     8 O(17)  Bbb    -0.0303     2.191     0.782     0.731 -0.0003 -0.0044  1.0000
              Bcc     0.1219    -8.824    -3.149    -2.943 -0.0002  1.0000  0.0044
 
              Baa    -0.0325   -17.325    -6.182    -5.779  0.9464 -0.0013  0.3231
     9 H(1)   Bbb    -0.0296   -15.807    -5.640    -5.273 -0.0001  1.0000  0.0042
              Bcc     0.0621    33.132    11.822    11.052 -0.3231 -0.0040  0.9464
 
              Baa    -0.0916     6.631     2.366     2.212 -0.0011 -0.0041  1.0000
    10 O(17)  Bbb    -0.0259     1.876     0.669     0.626 -0.0002  1.0000  0.0041
              Bcc     0.1176    -8.506    -3.035    -2.837  1.0000  0.0002  0.0011
 
              Baa    -0.0328   -17.499    -6.244    -5.837 -0.0012  0.3178  0.9482
    11 H(1)   Bbb    -0.0284   -15.126    -5.397    -5.046  1.0000  0.0001  0.0012
              Bcc     0.0611    32.625    11.641    10.883  0.0003  0.9482 -0.3178
 
              Baa    -0.1656    11.983     4.276     3.997  0.0001  1.0000  0.0042
    12 O(17)  Bbb    -0.0262     1.899     0.678     0.633 -0.0001 -0.0042  1.0000
              Bcc     0.1919   -13.882    -4.954    -4.631  1.0000 -0.0001  0.0001
 
              Baa    -0.0308   -16.457    -5.872    -5.489 -0.0002 -0.0043  1.0000
    13 H(1)   Bbb    -0.0238   -12.683    -4.526    -4.231 -0.3680  0.9298  0.0039
              Bcc     0.0546    29.140    10.398     9.720  0.9298  0.3680  0.0017
 
              Baa    -0.0308   -16.459    -5.873    -5.490 -0.0002 -0.0041  1.0000
    14 H(1)   Bbb    -0.0238   -12.683    -4.526    -4.231  0.3681  0.9298  0.0039
              Bcc     0.0546    29.142    10.399     9.721  0.9298 -0.3681 -0.0014
 
              Baa    -0.0328   -17.499    -6.244    -5.837 -0.0010 -0.3255  0.9455
    15 H(1)   Bbb    -0.0283   -15.126    -5.397    -5.046  1.0000  0.0000  0.0010
              Bcc     0.0611    32.625    11.641    10.883 -0.0004  0.9455  0.3255
 
              Baa    -0.0325   -17.325    -6.182    -5.779  0.9463 -0.0015  0.3232
    16 H(1)   Bbb    -0.0296   -15.808    -5.641    -5.273  0.0002  1.0000  0.0041
              Bcc     0.0621    33.134    11.823    11.052 -0.3232 -0.0038  0.9463
 
              Baa    -0.0328   -17.499    -6.244    -5.837 -0.0012 -0.3256  0.9455
    17 H(1)   Bbb    -0.0283   -15.126    -5.397    -5.046  1.0000  0.0001  0.0012
              Bcc     0.0611    32.625    11.641    10.882 -0.0005  0.9455  0.3256
 
              Baa    -0.0308   -16.457    -5.872    -5.489 -0.0001 -0.0038  1.0000
    18 H(1)   Bbb    -0.0238   -12.683    -4.525    -4.230  0.3679  0.9299  0.0036
              Bcc     0.0546    29.139    10.398     9.720  0.9299 -0.3678 -0.0013
 
              Baa    -0.0325   -17.326    -6.182    -5.779  0.9464  0.0018 -0.3229
    19 H(1)   Bbb    -0.0296   -15.810    -5.641    -5.274 -0.0004  1.0000  0.0042
              Bcc     0.0621    33.136    11.824    11.053  0.3229 -0.0039  0.9464
 

 ---------------------------------------------------------------------------------

 No NMR shielding tensors so no spin-rotation constants.
 Leave Link  601 at Thu May 23 16:29:28 2024, MaxMem= 26843545600 cpu:              28.7 elap:               0.3
 (Enter /gpfs/fs1/soft/improv/software/custom-built/gaussian/g16/l9999.exe)
 Unable to Open any file for archive entry.
 1\1\GINC-I219\SP\UPBE1PBE\Gen\H12Mn1O6(3+,5)\HHARB\23-May-2024\0\\#p P
 BE1PBE empiricaldispersion=gd3 scf=(maxcycles=500,xqc,maxconventional=
 50) scrf=(cpcm,solvent=water) geom=allcheck guess=read chkbasis\\Title
 \\3,5\Mn,-0.7847340812,0.7129590858,0.0317747484\O,-1.3215025008,2.570
 2633013,-0.2628851278\H,-1.4435282506,2.9903891088,-1.1340207563\O,1.0
 998949701,1.2573716066,0.0302765304\H,1.8628266042,0.6639364047,0.1483
 40917\O,-0.8731204583,1.0237843827,2.1507896147\H,-1.6407743052,0.8941
 098497,2.7309616581\O,-0.2478510344,-1.1442879566,0.3266025962\H,-0.06
 02837764,-1.7950983641,-0.3744937446\O,-2.6693745857,0.1684822348,0.03
 32060357\H,-3.4323323676,0.7618981335,-0.08476827\O,-0.6968813015,0.40
 21148273,-2.0872393567\H,0.0704773207,0.5319352174,-2.6677692891\H,-1.
 416315225,0.1023069448,-2.6662359067\H,1.4287464072,2.16614639,-0.0886
 928613\H,-1.508789632,3.221033789,0.4383226851\H,-2.9981749916,-0.7403
 406425,0.1519331589\H,-0.1538747227,1.3233735524,2.7301339268\H,-0.125
 9256391,-1.5642980957,1.1978088511\\Version=ES64L-G16RevC.02\State=5-A
 \HF=-1608.4501138\S2=6.0207\S2-1=0.\S2A=6.000053\RMSD=9.014e-09\Dipole
 =0.0000603,-0.0000245,-0.0000279\Quadrupole=0.2981219,0.4875898,-0.785
 7116,-0.0591138,0.054241,-0.1895085\PG=C01 [X(H12Mn1O6)]\\@
 The archive entry for this job was punched.


 When cryptography is outlawed, bayl bhgynjf jvyy unir cevinpl.
 Job cpu time:       0 days  0 hours 46 minutes 15.3 seconds.
 Elapsed time:       0 days  0 hours  0 minutes 25.3 seconds.
 File lengths (MBytes):  RWF=    120 Int=      0 D2E=      0 Chk=     32 Scr=      1
 Normal termination of Gaussian 16 at Thu May 23 16:29:28 2024.
