 Entering Gaussian System, Link 0=g16
 Input=Cr_2_B3LYP-secondrun.com
 Output=Cr_2_B3LYP-secondrun.log
 Initial command:
 /gpfs/fs1/soft/improv/software/custom-built/gaussian/g16/l1.exe "/scratch/Gau-214863.inp" -scrdir="/scratch/"
 Default CPUs for threads: 0-127
 Default linda workers: i736.lcrc.anl.gov
 Default is to use 128 SMP processors on each worker.
 Entering Link 1 = /gpfs/fs1/soft/improv/software/custom-built/gaussian/g16/l1.exe PID=    214864.
  
 Copyright (c) 1988-2021, Gaussian, Inc.  All Rights Reserved.
  
 This is part of the Gaussian(R) 16 program.  It is based on
 the Gaussian(R) 09 system (copyright 2009, Gaussian, Inc.),
 the Gaussian(R) 03 system (copyright 2003, Gaussian, Inc.),
 the Gaussian(R) 98 system (copyright 1998, Gaussian, Inc.),
 the Gaussian(R) 94 system (copyright 1995, Gaussian, Inc.),
 the Gaussian 92(TM) system (copyright 1992, Gaussian, Inc.),
 the Gaussian 90(TM) system (copyright 1990, Gaussian, Inc.),
 the Gaussian 88(TM) system (copyright 1988, Gaussian, Inc.),
 the Gaussian 86(TM) system (copyright 1986, Carnegie Mellon
 University), and the Gaussian 82(TM) system (copyright 1983,
 Carnegie Mellon University). Gaussian is a federally registered
 trademark of Gaussian, Inc.
  
 This software contains proprietary and confidential information,
 including trade secrets, belonging to Gaussian, Inc.
  
 This software is provided under written license and may be
 used, copied, transmitted, or stored only in accord with that
 written license.
  
 The following legend is applicable only to US Government
 contracts under FAR:
  
                    RESTRICTED RIGHTS LEGEND
  
 Use, reproduction and disclosure by the US Government is
 subject to restrictions as set forth in subparagraphs (a)
 and (c) of the Commercial Computer Software - Restricted
 Rights clause in FAR 52.227-19.
  
 Gaussian, Inc.
 340 Quinnipiac St., Bldg. 40, Wallingford CT 06492
  
  
 ---------------------------------------------------------------
 Warning -- This program may not be used in any manner that
 competes with the business of Gaussian, Inc. or will provide
 assistance to any competitor of Gaussian, Inc.  The licensee
 of this program is prohibited from giving any competitor of
 Gaussian, Inc. access to this program.  By using this program,
 the user acknowledges that Gaussian, Inc. is engaged in the
 business of creating and licensing software in the field of
 computational chemistry and represents and warrants to the
 licensee that it is not a competitor of Gaussian, Inc. and that
 it will not use this program in any manner prohibited above.
 ---------------------------------------------------------------
  

 Cite this work as:
 Gaussian 16, Revision C.02,
 M. J. Frisch, G. W. Trucks, H. B. Schlegel, G. E. Scuseria, 
 M. A. Robb, J. R. Cheeseman, G. Scalmani, V. Barone, 
 G. A. Petersson, H. Nakatsuji, X. Li, M. Caricato, A. V. Marenich, 
 J. Bloino, B. G. Janesko, R. Gomperts, B. Mennucci, H. P. Hratchian, 
 J. V. Ortiz, A. F. Izmaylov, J. L. Sonnenberg, D. Williams-Young, 
 F. Ding, F. Lipparini, F. Egidi, J. Goings, B. Peng, A. Petrone, 
 T. Henderson, D. Ranasinghe, V. G. Zakrzewski, J. Gao, N. Rega, 
 G. Zheng, W. Liang, M. Hada, M. Ehara, K. Toyota, R. Fukuda, 
 J. Hasegawa, M. Ishida, T. Nakajima, Y. Honda, O. Kitao, H. Nakai, 
 T. Vreven, K. Throssell, J. A. Montgomery, Jr., J. E. Peralta, 
 F. Ogliaro, M. J. Bearpark, J. J. Heyd, E. N. Brothers, K. N. Kudin, 
 V. N. Staroverov, T. A. Keith, R. Kobayashi, J. Normand, 
 K. Raghavachari, A. P. Rendell, J. C. Burant, S. S. Iyengar, 
 J. Tomasi, M. Cossi, J. M. Millam, M. Klene, C. Adamo, R. Cammi, 
 J. W. Ochterski, R. L. Martin, K. Morokuma, O. Farkas, 
 J. B. Foresman, and D. J. Fox, Gaussian, Inc., Wallingford CT, 2019.
 
 ******************************************
 Gaussian 16:  ES64L-G16RevC.02  7-Dec-2021
                25-May-2024 
 ******************************************
 %oldchk=Cr_2_BLYP.chk
 %chk=Cr_2_B3LYP.chk
 SetSPE:  set environment variable "OMP_PROC_BIND" = "true"
 SetSPE:  set environment variable "OMP_PLACES" = "{0},{1},{2},{3},{4},{5},{6},{7},{8},{9},{10},{11},{12},{13},{14},{15},{16},{17},{18},{19},{20},{21},{22},{23},{24},{25},{26},{27},{28},{29},{30},{31},{32},{33},{34},{35},{36},{37},{38},{39},{40},{41},{42},{43},{44},{45},{46},{47},{48},{49},{50},{51},{52},{53},{54},{55},{56},{57},{58},{59},{60},{61},{62},{63},{64},{65},{66},{67},{68},{69},{70},{71},{72},{73},{74},{75},{76},{77},{78},{79},{80},{81},{82},{83},{84},{85},{86},{87},{88},{89},{90},{91},{92},{93},{94},{95},{96},{97},{98},{99},{100},{101},{102},{103},{104},{105},{106},{107},{108},{109},{110},{111},{112},{113},{114},{115},{116},{117},{118},{119},{120},{121},{122},{123},{124},{125},{126},{127}"
 SetLPE:    new flags="-opt 'Tsnet.Node.lindarsharg: ssh'  -nodelist 'i736.lcrc.anl.gov' -env GAUSS_MDEF=26843545600 -env GAUSS_EXEDIR="/gpfs/fs1/soft/improv/software/custom-built/gaussian/g16/bsd:/gpfs/fs1/soft/improv/software/custom-built/gaussian/g16" -env "OMP_PROC_BIND=true" -env "OMP_PLACES={0},{1},{2},{3},{4},{5},{6},{7},{8},{9},{10},{11},{12},{13},{14},{15},{16},{17},{18},{19},{20},{21},{22},{23},{24},{25},{26},{27},{28},{29},{30},{31},{32},{33},{34},{35},{36},{37},{38},{39},{40},{41},{42},{43},{44},{45},{46},{47},{48},{49},{50},{51},{52},{53},{54},{55},{56},{57},{58},{59},{60},{61},{62},{63},{64},{65},{66},{67},{68},{69},{70},{71},{72},{73},{74},{75},{76},{77},{78},{79},{80},{81},{82},{83},{84},{85},{86},{87},{88},{89},{90},{91},{92},{93},{94},{95},{96},{97},{98},{99},{100},{101},{102},{103},{104},{105},{106},{107},{108},{109},{110},{111},{112},{113},{114},{115},{116},{117},{118},{119},{120},{121},{122},{123},{124},{125},{126},{127}" -env GAUSS_ADEF="0,1,2,3,4,5,6,7,8,9,10,11,12,13,14,15,16,17,18,19,20,21,22,23,24,25,26,27,28,29,30,31,32,33,34,35,36,37,38,39,40,41,42,43,44,45,46,47,48,49,50,51,52,53,54,55,56,57,58,59,60,61,62,63,64,65,66,67,68,69,70,71,72,73,74,75,76,77,78,79,80,81,82,83,84,85,86,87,88,89,90,91,92,93,94,95,96,97,98,99,100,101,102,103,104,105,106,107,108,109,110,111,112,113,114,115,116,117,118,119,120,121,122,123,124,125,126,127""
 Will use up to    1 processors via Linda.
 Copying data from "Cr_2_BLYP.chk" to current chk file "Cr_2_B3LYP.chk"
 IOpt=  2 FromEx=T IUOpen= 4 IOptOp= 5 NList=   0 IFRang= 0 IUIn= 4 IUOut= 2.
 ----------------------------------------------------------------------
 #p B3LYP empiricaldispersion=gd3 geom=allcheck guess=read chkbasis opt
 =(loose,cartesian,calcall,maxcycles=500) freq scf=(maxcycles=500,xqc,m
 axconventional=50)
 ----------------------------------------------------------------------
 1/6=500,7=-1,10=4,18=10,26=3,29=7,38=1/1,3;
 2/12=2,29=2,40=1/2;
 3/5=7,6=2,11=2,14=-4,25=1,30=1,67=1,71=2,74=-5,116=-2,124=31,140=1/1,2,3;
 4/5=1/1;
 5/5=2,7=500,8=3,13=1,38=6,85=50/2,8;
 8/6=4,10=90,11=11/1;
 11/6=1,8=1,9=11,15=111,16=1/1,2,10;
 10/6=1/2;
 6/7=2,8=2,9=2,10=2,18=1,28=1/1;
 7/7=1,10=1,25=1/1,2,3,16;
 1/6=500,7=-1,10=4,18=10,26=3/3(3);
 2/29=1/2;
 7/7=1,8=1,9=1,25=1,44=-1/16;
 99/12=1/99;
 2/29=1/2;
 3/5=7,6=1,11=2,14=-2,25=1,30=1,71=2,74=-5,82=7,124=31,140=1/1,2,3;
 4/5=5,16=3,69=1/1;
 5/5=2,7=500,8=3,13=1,38=5,85=50/2,8;
 8/6=4,10=90,11=11/1;
 11/6=1,8=1,9=11,15=111,16=1/1,2,10;
 10/6=1/2;
 7/7=1,10=1,25=1/1,2,3,16;
 1/6=500,7=-1,10=4,18=10,26=3/3(-8);
 2/29=1/2;
 6/7=2,8=2,9=2,10=2,18=1,19=2,28=1/1;
 7/7=1,8=1,9=1,25=1,44=-1/16;
 99/12=1/99;
 Leave Link    1 at Sat May 25 12:56:33 2024, MaxMem= 26843545600 cpu:               4.7 elap:               0.3
 (Enter /gpfs/fs1/soft/improv/software/custom-built/gaussian/g16/l101.exe)
 Structure from the checkpoint file:  "Cr_2_B3LYP.chk"
 -----
 Title
 -----
 Charge =  2 Multiplicity = 5
 No Z-Matrix found in chk file; cartesian coordinates used.
  Cr                                               -0.784810661947      0.712958783750      0.031790937836
  O                                                -1.342345346310      2.683133272811     -0.392579552944
  H                                                -1.430407162741      3.009706825525     -1.310292028242
  O                                                 1.229401007542      1.285229305967      0.042309432588
  H                                                 1.995074858777      0.694784072123      0.182142357388
  O                                                -0.842674582083      0.872420654670      2.455785047936
  H                                                -1.629989553742      0.794977364750      3.030565981494
  O                                                -0.227274067004     -1.257217653618      0.456147899722
  H                                                -0.015987870826     -1.989674478373     -0.155472595603
  O                                                -2.799024405852      0.140688028469      0.021269723835
  H                                                -3.564706993142      0.731161076816     -0.118402403012
  O                                                -0.726978486479      0.553453317112     -2.392195547679
  H                                                 0.060330249469      0.630845091061     -2.966992980722
  H                                                -1.431913202403      0.206935741285     -2.974628616908
  H                                                 1.571573784938      2.190400352795     -0.091928769429
  H                                                -1.553569084968      3.415616045820      0.219032151743
  H                                                -3.141192221908     -0.764499493773      0.155402448601
  H                                                -0.137772196016      1.218974527612      3.038236061932
  H                                                -0.139251635306     -1.583813064802      1.373855861462
 Recover connectivity data from disk.
 ITRead=  0  0  0  0  0  0  0  0  0  0  0  0  0  0  0  0  0  0  0
 MicOpt= -1 -1 -1 -1 -1 -1 -1 -1 -1 -1 -1 -1 -1 -1 -1 -1 -1 -1 -1
 NAtoms=     19 NQM=       19 NQMF=       0 NMMI=      0 NMMIF=      0
                NMic=       0 NMicF=      0.
                    Isotopes and Nuclear Properties:
 (Nuclear quadrupole moments (NQMom) in fm**2, nuclear magnetic moments (NMagM)
  in nuclear magnetons)

  Atom         1           2           3           4           5           6           7           8           9          10
 IAtWgt=          52          16           1          16           1          16           1          16           1          16
 AtmWgt=  51.9405097  15.9949146   1.0078250  15.9949146   1.0078250  15.9949146   1.0078250  15.9949146   1.0078250  15.9949146
 NucSpn=           0           0           1           0           1           0           1           0           1           0
 AtZEff=  24.7200000   5.6000000   1.0000000   5.6000000   1.0000000   5.6000000   1.0000000   5.6000000   1.0000000   5.6000000
 NQMom=    0.0000000   0.0000000   0.0000000   0.0000000   0.0000000   0.0000000   0.0000000   0.0000000   0.0000000   0.0000000
 NMagM=    0.0000000   0.0000000   2.7928460   0.0000000   2.7928460   0.0000000   2.7928460   0.0000000   2.7928460   0.0000000
 AtZNuc=  24.0000000   8.0000000   1.0000000   8.0000000   1.0000000   8.0000000   1.0000000   8.0000000   1.0000000   8.0000000

  Atom        11          12          13          14          15          16          17          18          19
 IAtWgt=           1          16           1           1           1           1           1           1           1
 AtmWgt=   1.0078250  15.9949146   1.0078250   1.0078250   1.0078250   1.0078250   1.0078250   1.0078250   1.0078250
 NucSpn=           1           0           1           1           1           1           1           1           1
 AtZEff=   1.0000000   5.6000000   1.0000000   1.0000000   1.0000000   1.0000000   1.0000000   1.0000000   1.0000000
 NQMom=    0.0000000   0.0000000   0.0000000   0.0000000   0.0000000   0.0000000   0.0000000   0.0000000   0.0000000
 NMagM=    2.7928460   0.0000000   2.7928460   2.7928460   2.7928460   2.7928460   2.7928460   2.7928460   2.7928460
 AtZNuc=   1.0000000   8.0000000   1.0000000   1.0000000   1.0000000   1.0000000   1.0000000   1.0000000   1.0000000
 Leave Link  101 at Sat May 25 12:56:33 2024, MaxMem= 26843545600 cpu:               0.4 elap:               0.1
 (Enter /gpfs/fs1/soft/improv/software/custom-built/gaussian/g16/l103.exe)

 GradGradGradGradGradGradGradGradGradGradGradGradGradGradGradGradGradGrad
 Berny optimization.
 Initialization pass.
 No Z-matrix variables, so optimization will use Cartesian coordinates.
 Trust Radius=3.00D-01 FncErr=1.00D-07 GrdErr=1.00D-06 EigMax=2.50D+02 EigMin=1.00D-04
 Number of steps in this run=    114 maximum allowed number of steps=    114.
 GradGradGradGradGradGradGradGradGradGradGradGradGradGradGradGradGradGrad

 Leave Link  103 at Sat May 25 12:56:33 2024, MaxMem= 26843545600 cpu:               0.3 elap:               0.0
 (Enter /gpfs/fs1/soft/improv/software/custom-built/gaussian/g16/l202.exe)
                          Input orientation:                          
 ---------------------------------------------------------------------
 Center     Atomic      Atomic             Coordinates (Angstroms)
 Number     Number       Type             X           Y           Z
 ---------------------------------------------------------------------
      1         24           0       -0.784811    0.712959    0.031791
      2          8           0       -1.342345    2.683133   -0.392580
      3          1           0       -1.430407    3.009707   -1.310292
      4          8           0        1.229401    1.285229    0.042309
      5          1           0        1.995075    0.694784    0.182142
      6          8           0       -0.842675    0.872421    2.455785
      7          1           0       -1.629990    0.794977    3.030566
      8          8           0       -0.227274   -1.257218    0.456148
      9          1           0       -0.015988   -1.989674   -0.155473
     10          8           0       -2.799024    0.140688    0.021270
     11          1           0       -3.564707    0.731161   -0.118402
     12          8           0       -0.726978    0.553453   -2.392196
     13          1           0        0.060330    0.630845   -2.966993
     14          1           0       -1.431913    0.206936   -2.974629
     15          1           0        1.571574    2.190400   -0.091929
     16          1           0       -1.553569    3.415616    0.219032
     17          1           0       -3.141192   -0.764499    0.155402
     18          1           0       -0.137772    1.218975    3.038236
     19          1           0       -0.139252   -1.583813    1.373856
 ---------------------------------------------------------------------
                    Distance matrix (angstroms):
                    1          2          3          4          5
     1  Cr   0.000000
     2  O    2.091058   0.000000
     3  H    2.737341   0.978060   0.000000
     4  O    2.093956   2.959247   3.446438   0.000000
     5  H    2.784008   3.927112   4.395470   0.976952   0.000000
     6  O    2.429923   3.411969   4.369984   3.207612   3.640581
     7  H    3.116682   3.919923   4.877285   4.164870   4.611361
     8  O    2.091057   4.182115   4.772262   2.959257   2.970560
     9  H    2.816094   4.863186   5.322406   3.509289   3.371153
    10  O    2.093958   2.959259   3.446366   4.187915   4.828694
    11  H    2.784010   2.970566   3.341797   4.828695   5.568018
    12  O    2.429917   2.985411   2.774619   3.207761   3.749235
    13  H    3.116683   3.578686   3.259745   3.294062   3.696536
    14  H    3.116626   3.578625   3.259685   4.165000   4.684810
    15  H    2.784006   2.970539   3.341790   0.976953   1.578397
    16  H    2.816097   0.977351   1.587061   3.509231   4.471819
    17  H    2.784007   3.927124   4.395416   4.828692   5.339613
    18  H    3.116636   3.919854   4.877225   3.293802   3.602927
    19  H    2.737343   4.772270   5.474683   3.446394   3.341786
                    6          7          8          9         10
     6  O    0.000000
     7  H    0.977873   0.000000
     8  O    2.985402   3.578651   0.000000
     9  H    3.961523   4.528811   0.977351   0.000000
    10  O    3.207741   3.294025   2.959250   3.509270   0.000000
    11  H    3.749114   3.696377   3.927113   4.471882   0.976953
    12  O    4.859840   5.502736   3.411934   3.460627   3.207579
    13  H    5.502754   6.233365   3.919871   3.844164   4.164838
    14  H    5.502678   6.037167   3.919838   3.844162   3.293750
    15  H    3.749201   4.684782   3.927125   4.471847   4.828692
    16  H    3.460676   3.844257   4.863194   5.632191   3.509334
    17  H    3.640666   3.603091   2.970545   3.371142   0.976952
    18  H    0.977873   1.551304   3.578647   4.528801   4.164979
    19  H    2.774610   3.259698   0.978060   1.587061   3.446416
                   11         12         13         14         15
    11  H    0.000000
    12  O    3.640662   0.000000
    13  H    4.611445   0.977874   0.000000
    14  H    3.603006   0.977873   1.551305   0.000000
    15  H    5.339612   3.640627   3.603063   4.611402   0.000000
    16  H    3.371177   3.961532   4.528838   4.528786   3.371108
    17  H    1.578396   3.749091   4.684665   3.696271   5.568013
    18  H    4.684678   5.502697   6.037211   6.233263   3.696412
    19  H    4.395416   4.369951   4.877244   4.877199   4.395468
                   16         17         18         19
    16  H    0.000000
    17  H    4.471908   0.000000
    18  H    3.844168   4.611446   0.000000
    19  H    5.322425   3.341789   3.259721   0.000000
 Stoichiometry    CrH12O6(2+,5)
 Framework group  C1[X(CrH12O6)]
 Deg. of freedom    51
 Full point group                 C1      NOp   1
 RotChk:  IX=1 Diff= 1.33D-15
 Largest Abelian subgroup         C1      NOp   1
 Largest concise Abelian subgroup C1      NOp   1
                         Standard orientation:                         
 ---------------------------------------------------------------------
 Center     Atomic      Atomic             Coordinates (Angstroms)
 Number     Number       Type             X           Y           Z
 ---------------------------------------------------------------------
      1         24           0       -0.000000   -0.000005   -0.000004
      2          8           0       -0.867660   -0.000737   -1.902552
      3          1           0       -1.837520   -0.000841   -2.028933
      4          8           0        0.000282   -2.093962    0.000664
      5          1           0        0.306168   -2.669539    0.728386
      6          8           0        2.326224   -0.000012   -0.702287
      7          1           0        2.859229    0.775584   -0.967980
      8          8           0        0.867646    0.000725    1.902549
      9          1           0        0.440200    0.000958    2.781471
     10          8           0       -0.000285    2.093953   -0.000672
     11          1           0       -0.306021    2.669530   -0.728458
     12          8           0       -2.326210    0.000044    0.702310
     13          1           0       -2.859220   -0.775532    0.968052
     14          1           0       -2.859289    0.775773    0.967465
     15          1           0       -0.305628   -2.670082   -0.726620
     16          1           0       -0.440224   -0.001037   -2.781480
     17          1           0        0.305525    2.670074    0.726652
     18          1           0        2.859311   -0.775720   -0.967489
     19          1           0        1.837505    0.000873    2.028941
 ---------------------------------------------------------------------
 Rotational constants (GHZ):           1.5185839           1.2663207           1.2352077
 Leave Link  202 at Sat May 25 12:56:33 2024, MaxMem= 26843545600 cpu:               0.5 elap:               0.0
 (Enter /gpfs/fs1/soft/improv/software/custom-built/gaussian/g16/l301.exe)
 Basis read from chk: "Cr_2_B3LYP.chk" (6D, 7F)
 No pseudopotential information found on chk file.
 There are   347 symmetry adapted cartesian basis functions of A   symmetry.
 There are   317 symmetry adapted basis functions of A   symmetry.
   317 basis functions,   514 primitive gaussians,   347 cartesian basis functions
    43 alpha electrons       39 beta electrons
       nuclear repulsion energy       612.7495301045 Hartrees.
 IExCor=  402 DFT=T Ex+Corr=B3LYP ExCW=0 ScaHFX=  0.200000
 ScaDFX=  0.800000  0.720000  1.000000  0.810000 ScalE2=  1.000000  1.000000
 IRadAn=      5 IRanWt=     -1 IRanGd=            0 ICorTp=0 IEmpDi=131
 NAtoms=   19 NActive=   19 NUniq=   19 SFac= 1.00D+00 NAtFMM=   60 NAOKFM=F Big=F
 Integral buffers will be    131072 words long.
 Raffenetti 2 integral format.
 Two-electron integral symmetry is turned on.
 R6Disp:  Grimme-D3 Dispersion energy=       -0.0128300495 Hartrees.
 Nuclear repulsion after empirical dispersion term =      612.7367000550 Hartrees.
 No density basis found on file  20724.
 Leave Link  301 at Sat May 25 12:56:33 2024, MaxMem= 26843545600 cpu:               0.4 elap:               0.0
 (Enter /gpfs/fs1/soft/improv/software/custom-built/gaussian/g16/l302.exe)
 NPDir=0 NMtPBC=     1 NCelOv=     1 NCel=       1 NClECP=     1 NCelD=      1
         NCelK=      1 NCelE2=     1 NClLst=     1 CellRange=     0.0.
 One-electron integrals computed using PRISM.
 One-electron integral symmetry used in STVInt
 NBasis=   317 RedAO= T EigKep=  2.73D-05  NBF=   317
 NBsUse=   317 1.00D-06 EigRej= -1.00D+00 NBFU=   317
 Precomputing XC quadrature grid using
 IXCGrd= 4 IRadAn=           5 IRanWt=          -1 IRanGd=           0 AccXCQ= 0.00D+00.
 Generated NRdTot=       0 NPtTot=           0 NUsed=           0 NTot=          32
 NSgBfM=   346   346   346   346   346 MxSgAt=    19 MxSgA2=    19.
 Leave Link  302 at Sat May 25 12:56:34 2024, MaxMem= 26843545600 cpu:              21.9 elap:               0.3
 (Enter /gpfs/fs1/soft/improv/software/custom-built/gaussian/g16/l303.exe)
 DipDrv:  MaxL=1.
 Leave Link  303 at Sat May 25 12:56:34 2024, MaxMem= 26843545600 cpu:               1.0 elap:               0.0
 (Enter /gpfs/fs1/soft/improv/software/custom-built/gaussian/g16/l401.exe)
 Initial guess from the checkpoint file:  "Cr_2_B3LYP.chk"
 B after Tr=    -0.000000    0.000000   -0.000000
         Rot=    1.000000    0.000000   -0.000000    0.000000 Ang=   0.00 deg.
 Guess basis will be translated and rotated to current coordinates.
 JPrj=2 DoOrth=T DoCkMO=T.
 Initial guess <Sx>= 0.0000 <Sy>= 0.0000 <Sz>= 2.0000 <S**2>= 6.0052 S= 2.0010
 Leave Link  401 at Sat May 25 12:56:34 2024, MaxMem= 26843545600 cpu:              11.4 elap:               0.2
 (Enter /gpfs/fs1/soft/improv/software/custom-built/gaussian/g16/l502.exe)
 Integral symmetry usage will be decided dynamically.
 UHF open shell SCF:
 Using DIIS extrapolation, IDIIS=  1040.
 NGot= 26843545600 LenX= 26843256607 LenY= 26843135757
 Requested convergence on RMS density matrix=1.00D-08 within  50 cycles.
 Requested convergence on MAX density matrix=1.00D-06.
 Requested convergence on             energy=1.00D-06.
 No special actions if energy rises.
 Fock matrices will be formed incrementally for  20 cycles.

 Cycle   1  Pass 1  IDiag  1:
 FoFJK:  IHMeth= 1 ICntrl=       0 DoSepK=F KAlg= 0 I1Cent=           0 FoldK=F
 IRaf= 950000000 NMat=       1 IRICut=       1 DoRegI=T DoRafI=F ISym2E= 0 IDoP0=0 IntGTp=1.
 FoFCou: FMM=F IPFlag=           0 FMFlag=      100000 FMFlg1=           0
         NFxFlg=           0 DoJE=F BraDBF=F KetDBF=F FulRan=T
         wScrn=  0.000000 ICntrl=         0 IOpCl=  1 I1Cent=           0 NGrid=           0
         NMat0=    1 NMatS0=      1 NMatT0=    0 NMatD0=    1 NMtDS0=    0 NMtDT0=    0
 Symmetry not used in FoFCou.
 E= -1502.63256718852    
 DIIS: error= 5.37D-03 at cycle   1 NSaved=   1.
 NSaved= 1 IEnMin= 1 EnMin= -1502.63256718852     IErMin= 1 ErrMin= 5.37D-03
 ErrMax= 5.37D-03  0.00D+00 EMaxC= 1.00D-01 BMatC= 3.09D-02 BMatP= 3.09D-02
 IDIUse=3 WtCom= 9.46D-01 WtEn= 5.37D-02
 Coeff-Com:  0.100D+01
 Coeff-En:   0.100D+01
 Coeff:      0.100D+01
 Gap=     0.149 Goal=   None    Shift=    0.000
 Gap=     0.321 Goal=   None    Shift=    0.000
 GapD=    0.149 DampG=1.000 DampE=1.000 DampFc=1.0000 IDamp=-1.
 RMSDP=8.38D-04 MaxDP=3.83D-02              OVMax= 3.69D-02

 Cycle   2  Pass 1  IDiag  1:
 RMSU=  8.24D-04    CP:  9.92D-01
 E= -1502.63833694201     Delta-E=       -0.005769753488 Rises=F Damp=F
 DIIS: error= 1.03D-03 at cycle   2 NSaved=   2.
 NSaved= 2 IEnMin= 2 EnMin= -1502.63833694201     IErMin= 2 ErrMin= 1.03D-03
 ErrMax= 1.03D-03  0.00D+00 EMaxC= 1.00D-01 BMatC= 1.79D-03 BMatP= 3.09D-02
 IDIUse=3 WtCom= 9.90D-01 WtEn= 1.03D-02
 Coeff-Com:  0.238D-01 0.976D+00
 Coeff-En:   0.000D+00 0.100D+01
 Coeff:      0.236D-01 0.976D+00
 Gap=     0.152 Goal=   None    Shift=    0.000
 Gap=     0.309 Goal=   None    Shift=    0.000
 RMSDP=1.59D-04 MaxDP=8.17D-03 DE=-5.77D-03 OVMax= 7.30D-03

 Cycle   3  Pass 1  IDiag  1:
 RMSU=  1.51D-04    CP:  9.92D-01  9.41D-01
 E= -1502.63798757605     Delta-E=        0.000349365960 Rises=F Damp=F
 DIIS: error= 1.42D-03 at cycle   3 NSaved=   3.
 NSaved= 3 IEnMin= 2 EnMin= -1502.63833694201     IErMin= 2 ErrMin= 1.03D-03
 ErrMax= 1.42D-03  0.00D+00 EMaxC= 1.00D-01 BMatC= 4.16D-03 BMatP= 1.79D-03
 IDIUse=3 WtCom= 2.10D-01 WtEn= 7.90D-01
 Coeff-Com: -0.123D-01 0.616D+00 0.396D+00
 Coeff-En:   0.000D+00 0.648D+00 0.352D+00
 Coeff:     -0.258D-02 0.641D+00 0.361D+00
 Gap=     0.152 Goal=   None    Shift=    0.000
 Gap=     0.312 Goal=   None    Shift=    0.000
 RMSDP=1.03D-04 MaxDP=7.89D-03 DE= 3.49D-04 OVMax= 4.56D-03

 Cycle   4  Pass 1  IDiag  1:
 RMSU=  6.48D-05    CP:  9.91D-01  9.88D-01  5.49D-01
 E= -1502.63869212006     Delta-E=       -0.000704544008 Rises=F Damp=F
 DIIS: error= 1.39D-04 at cycle   4 NSaved=   4.
 NSaved= 4 IEnMin= 4 EnMin= -1502.63869212006     IErMin= 4 ErrMin= 1.39D-04
 ErrMax= 1.39D-04  0.00D+00 EMaxC= 1.00D-01 BMatC= 3.33D-05 BMatP= 1.79D-03
 IDIUse=3 WtCom= 9.99D-01 WtEn= 1.39D-03
 Coeff-Com: -0.101D-02-0.151D-01-0.108D+00 0.112D+01
 Coeff-En:   0.000D+00 0.000D+00 0.000D+00 0.100D+01
 Coeff:     -0.101D-02-0.151D-01-0.108D+00 0.112D+01
 Gap=     0.152 Goal=   None    Shift=    0.000
 Gap=     0.312 Goal=   None    Shift=    0.000
 RMSDP=1.20D-05 MaxDP=8.79D-04 DE=-7.05D-04 OVMax= 8.65D-04

 Cycle   5  Pass 1  IDiag  1:
 RMSU=  6.49D-06    CP:  9.91D-01  9.95D-01  5.31D-01  1.12D+00
 E= -1502.63869841930     Delta-E=       -0.000006299239 Rises=F Damp=F
 DIIS: error= 2.90D-05 at cycle   5 NSaved=   5.
 NSaved= 5 IEnMin= 5 EnMin= -1502.63869841930     IErMin= 5 ErrMin= 2.90D-05
 ErrMax= 2.90D-05  0.00D+00 EMaxC= 1.00D-01 BMatC= 1.24D-06 BMatP= 3.33D-05
 IDIUse=1 WtCom= 1.00D+00 WtEn= 0.00D+00
 Coeff-Com: -0.401D-04-0.275D-01-0.650D-01 0.558D+00 0.535D+00
 Coeff:     -0.401D-04-0.275D-01-0.650D-01 0.558D+00 0.535D+00
 Gap=     0.152 Goal=   None    Shift=    0.000
 Gap=     0.312 Goal=   None    Shift=    0.000
 RMSDP=5.75D-06 MaxDP=4.68D-04 DE=-6.30D-06 OVMax= 1.38D-04

 Cycle   6  Pass 1  IDiag  1:
 RMSU=  2.54D-06    CP:  9.91D-01  9.96D-01  5.20D-01  1.18D+00  7.43D-01
 E= -1502.63869860901     Delta-E=       -0.000000189718 Rises=F Damp=F
 DIIS: error= 8.41D-06 at cycle   6 NSaved=   6.
 NSaved= 6 IEnMin= 6 EnMin= -1502.63869860901     IErMin= 6 ErrMin= 8.41D-06
 ErrMax= 8.41D-06  0.00D+00 EMaxC= 1.00D-01 BMatC= 7.37D-08 BMatP= 1.24D-06
 IDIUse=1 WtCom= 1.00D+00 WtEn= 0.00D+00
 Coeff-Com:  0.111D-03-0.579D-02 0.182D-03-0.192D-01 0.159D+00 0.866D+00
 Coeff:      0.111D-03-0.579D-02 0.182D-03-0.192D-01 0.159D+00 0.866D+00
 Gap=     0.152 Goal=   None    Shift=    0.000
 Gap=     0.312 Goal=   None    Shift=    0.000
 RMSDP=9.11D-07 MaxDP=4.11D-05 DE=-1.90D-07 OVMax= 1.19D-04

 Cycle   7  Pass 1  IDiag  1:
 RMSU=  6.64D-07    CP:  9.91D-01  9.97D-01  5.23D-01  1.19D+00  8.07D-01
                    CP:  9.77D-01
 E= -1502.63869862578     Delta-E=       -0.000000016762 Rises=F Damp=F
 DIIS: error= 3.47D-06 at cycle   7 NSaved=   7.
 NSaved= 7 IEnMin= 7 EnMin= -1502.63869862578     IErMin= 7 ErrMin= 3.47D-06
 ErrMax= 3.47D-06  0.00D+00 EMaxC= 1.00D-01 BMatC= 1.15D-08 BMatP= 7.37D-08
 IDIUse=1 WtCom= 1.00D+00 WtEn= 0.00D+00
 Coeff-Com:  0.405D-04-0.798D-03 0.362D-02-0.356D-01 0.404D-01 0.413D+00
 Coeff-Com:  0.579D+00
 Coeff:      0.405D-04-0.798D-03 0.362D-02-0.356D-01 0.404D-01 0.413D+00
 Coeff:      0.579D+00
 Gap=     0.152 Goal=   None    Shift=    0.000
 Gap=     0.312 Goal=   None    Shift=    0.000
 RMSDP=3.31D-07 MaxDP=1.83D-05 DE=-1.68D-08 OVMax= 2.95D-05

 Cycle   8  Pass 1  IDiag  1:
 RMSU=  2.12D-07    CP:  9.91D-01  9.96D-01  5.24D-01  1.18D+00  8.26D-01
                    CP:  9.71D-01  9.67D-01
 E= -1502.63869862800     Delta-E=       -0.000000002227 Rises=F Damp=F
 DIIS: error= 1.18D-06 at cycle   8 NSaved=   8.
 NSaved= 8 IEnMin= 8 EnMin= -1502.63869862800     IErMin= 8 ErrMin= 1.18D-06
 ErrMax= 1.18D-06  0.00D+00 EMaxC= 1.00D-01 BMatC= 1.58D-09 BMatP= 1.15D-08
 IDIUse=1 WtCom= 1.00D+00 WtEn= 0.00D+00
 Coeff-Com:  0.967D-05 0.356D-03 0.160D-02-0.144D-01-0.472D-02 0.719D-01
 Coeff-Com:  0.273D+00 0.672D+00
 Coeff:      0.967D-05 0.356D-03 0.160D-02-0.144D-01-0.472D-02 0.719D-01
 Coeff:      0.273D+00 0.672D+00
 Gap=     0.152 Goal=   None    Shift=    0.000
 Gap=     0.312 Goal=   None    Shift=    0.000
 RMSDP=1.90D-07 MaxDP=1.23D-05 DE=-2.23D-09 OVMax= 2.91D-05

 Cycle   9  Pass 1  IDiag  1:
 RMSU=  1.22D-07    CP:  9.91D-01  9.96D-01  5.23D-01  1.18D+00  8.23D-01
                    CP:  1.00D+00  1.04D+00  1.32D+00
 E= -1502.63869862865     Delta-E=       -0.000000000652 Rises=F Damp=F
 DIIS: error= 7.64D-07 at cycle   9 NSaved=   9.
 NSaved= 9 IEnMin= 9 EnMin= -1502.63869862865     IErMin= 9 ErrMin= 7.64D-07
 ErrMax= 7.64D-07  0.00D+00 EMaxC= 1.00D-01 BMatC= 2.63D-10 BMatP= 1.58D-09
 IDIUse=1 WtCom= 1.00D+00 WtEn= 0.00D+00
 Coeff-Com: -0.539D-05 0.287D-03-0.262D-03 0.269D-02-0.716D-02-0.614D-01
 Coeff-Com: -0.598D-01 0.163D+00 0.963D+00
 Coeff:     -0.539D-05 0.287D-03-0.262D-03 0.269D-02-0.716D-02-0.614D-01
 Coeff:     -0.598D-01 0.163D+00 0.963D+00
 Gap=     0.152 Goal=   None    Shift=    0.000
 Gap=     0.312 Goal=   None    Shift=    0.000
 RMSDP=1.70D-07 MaxDP=1.73D-05 DE=-6.52D-10 OVMax= 3.64D-05

 Cycle  10  Pass 1  IDiag  1:
 RMSU=  6.80D-08    CP:  9.91D-01  9.96D-01  5.23D-01  1.18D+00  8.25D-01
                    CP:  1.00D+00  1.15D+00  1.84D+00  1.63D+00
 E= -1502.63869862909     Delta-E=       -0.000000000439 Rises=F Damp=F
 DIIS: error= 6.01D-07 at cycle  10 NSaved=  10.
 NSaved=10 IEnMin=10 EnMin= -1502.63869862909     IErMin=10 ErrMin= 6.01D-07
 ErrMax= 6.01D-07  0.00D+00 EMaxC= 1.00D-01 BMatC= 1.02D-10 BMatP= 2.63D-10
 IDIUse=1 WtCom= 1.00D+00 WtEn= 0.00D+00
 Coeff-Com:  0.340D-05-0.370D-03 0.740D-04-0.928D-03 0.997D-02 0.607D-01
 Coeff-Com:  0.298D-02-0.377D+00-0.109D+01 0.239D+01
 Coeff:      0.340D-05-0.370D-03 0.740D-04-0.928D-03 0.997D-02 0.607D-01
 Coeff:      0.298D-02-0.377D+00-0.109D+01 0.239D+01
 Gap=     0.152 Goal=   None    Shift=    0.000
 Gap=     0.312 Goal=   None    Shift=    0.000
 RMSDP=3.19D-07 MaxDP=3.28D-05 DE=-4.39D-10 OVMax= 7.07D-05

 Cycle  11  Pass 1  IDiag  1:
 RMSU=  3.74D-08    CP:  9.91D-01  9.96D-01  5.23D-01  1.18D+00  8.24D-01
                    CP:  1.01D+00  1.30D+00  2.75D+00  3.00D+00  2.98D+00
 E= -1502.63869862959     Delta-E=       -0.000000000492 Rises=F Damp=F
 DIIS: error= 3.42D-07 at cycle  11 NSaved=  11.
 NSaved=11 IEnMin=11 EnMin= -1502.63869862959     IErMin=11 ErrMin= 3.42D-07
 ErrMax= 3.42D-07  0.00D+00 EMaxC= 1.00D-01 BMatC= 3.20D-11 BMatP= 1.02D-10
 IDIUse=1 WtCom= 1.00D+00 WtEn= 0.00D+00
 Coeff-Com:  0.262D-05-0.132D-03 0.191D-03-0.173D-02 0.355D-02 0.331D-01
 Coeff-Com:  0.316D-01-0.895D-01-0.499D+00-0.776D-03 0.152D+01
 Coeff:      0.262D-05-0.132D-03 0.191D-03-0.173D-02 0.355D-02 0.331D-01
 Coeff:      0.316D-01-0.895D-01-0.499D+00-0.776D-03 0.152D+01
 Gap=     0.152 Goal=   None    Shift=    0.000
 Gap=     0.312 Goal=   None    Shift=    0.000
 RMSDP=2.63D-07 MaxDP=2.70D-05 DE=-4.92D-10 OVMax= 5.85D-05

 Cycle  12  Pass 1  IDiag  1:
 RMSU=  1.94D-07    CP:  9.91D-01  9.96D-01  5.23D-01  1.18D+00  8.24D-01
                    CP:  1.01D+00  1.41D+00  3.00D+00  3.00D+00  3.00D+00
                    CP:  3.00D+00
 E= -1502.63869862975     Delta-E=       -0.000000000164 Rises=F Damp=F
 DIIS: error= 1.14D-07 at cycle  12 NSaved=  12.
 NSaved=12 IEnMin=12 EnMin= -1502.63869862975     IErMin=12 ErrMin= 1.14D-07
 ErrMax= 1.14D-07  0.00D+00 EMaxC= 1.00D-01 BMatC= 5.26D-12 BMatP= 3.20D-11
 IDIUse=1 WtCom= 1.00D+00 WtEn= 0.00D+00
 Coeff-Com: -0.387D-06 0.612D-04 0.497D-05 0.245D-04-0.158D-02-0.776D-02
 Coeff-Com:  0.463D-02 0.649D-01 0.156D+00-0.470D+00 0.127D+00 0.113D+01
 Coeff:     -0.387D-06 0.612D-04 0.497D-05 0.245D-04-0.158D-02-0.776D-02
 Coeff:      0.463D-02 0.649D-01 0.156D+00-0.470D+00 0.127D+00 0.113D+01
 Gap=     0.152 Goal=   None    Shift=    0.000
 Gap=     0.312 Goal=   None    Shift=    0.000
 RMSDP=8.26D-08 MaxDP=8.24D-06 DE=-1.64D-10 OVMax= 1.82D-05

 Cycle  13  Pass 1  IDiag  1:
 RMSU=  3.35D-08    CP:  9.91D-01  9.96D-01  5.23D-01  1.18D+00  8.24D-01
                    CP:  1.02D+00  1.45D+00  3.00D+00  3.00D+00  3.00D+00
                    CP:  3.00D+00  1.37D+00
 E= -1502.63869862976     Delta-E=       -0.000000000012 Rises=F Damp=F
 DIIS: error= 5.73D-08 at cycle  13 NSaved=  13.
 NSaved=13 IEnMin=13 EnMin= -1502.63869862976     IErMin=13 ErrMin= 5.73D-08
 ErrMax= 5.73D-08  0.00D+00 EMaxC= 1.00D-01 BMatC= 1.99D-12 BMatP= 5.26D-12
 IDIUse=1 WtCom= 1.00D+00 WtEn= 0.00D+00
 Coeff-Com: -0.515D-06 0.399D-04-0.318D-04 0.288D-03-0.109D-02-0.802D-02
 Coeff-Com: -0.357D-02 0.358D-01 0.127D+00-0.137D+00-0.189D+00 0.278D+00
 Coeff-Com:  0.898D+00
 Coeff:     -0.515D-06 0.399D-04-0.318D-04 0.288D-03-0.109D-02-0.802D-02
 Coeff:     -0.357D-02 0.358D-01 0.127D+00-0.137D+00-0.189D+00 0.278D+00
 Coeff:      0.898D+00
 Gap=     0.152 Goal=   None    Shift=    0.000
 Gap=     0.312 Goal=   None    Shift=    0.000
 RMSDP=1.86D-08 MaxDP=1.98D-06 DE=-1.18D-11 OVMax= 3.35D-06

 Cycle  14  Pass 1  IDiag  1:
 RMSU=  7.50D-09    CP:  9.91D-01  9.96D-01  5.23D-01  1.18D+00  8.24D-01
                    CP:  1.02D+00  1.46D+00  3.00D+00  3.00D+00  3.00D+00
                    CP:  3.00D+00  1.43D+00  1.32D+00
 E= -1502.63869862978     Delta-E=       -0.000000000020 Rises=F Damp=F
 DIIS: error= 3.81D-08 at cycle  14 NSaved=  14.
 NSaved=14 IEnMin=14 EnMin= -1502.63869862978     IErMin=14 ErrMin= 3.81D-08
 ErrMax= 3.81D-08  0.00D+00 EMaxC= 1.00D-01 BMatC= 1.41D-12 BMatP= 1.99D-12
 IDIUse=1 WtCom= 1.00D+00 WtEn= 0.00D+00
 Coeff-Com: -0.156D-06-0.993D-05-0.284D-04 0.212D-03 0.193D-03-0.112D-02
 Coeff-Com: -0.551D-02-0.147D-01-0.758D-02 0.194D+00-0.200D+00-0.585D+00
 Coeff-Com:  0.648D+00 0.971D+00
 Coeff:     -0.156D-06-0.993D-05-0.284D-04 0.212D-03 0.193D-03-0.112D-02
 Coeff:     -0.551D-02-0.147D-01-0.758D-02 0.194D+00-0.200D+00-0.585D+00
 Coeff:      0.648D+00 0.971D+00
 Gap=     0.152 Goal=   None    Shift=    0.000
 Gap=     0.312 Goal=   None    Shift=    0.000
 RMSDP=2.23D-08 MaxDP=2.40D-06 DE=-2.00D-11 OVMax= 3.80D-06

 Cycle  15  Pass 1  IDiag  1:
 RMSU=  3.17D-09    CP:  9.91D-01  9.96D-01  5.23D-01  1.18D+00  8.24D-01
                    CP:  1.02D+00  1.46D+00  3.00D+00  3.00D+00  3.00D+00
                    CP:  3.00D+00  1.50D+00  1.72D+00  2.24D+00
 E= -1502.63869862978     Delta-E=        0.000000000001 Rises=F Damp=F
 DIIS: error= 1.70D-08 at cycle  15 NSaved=  15.
 NSaved=15 IEnMin=14 EnMin= -1502.63869862978     IErMin=15 ErrMin= 1.70D-08
 ErrMax= 1.70D-08  0.00D+00 EMaxC= 1.00D-01 BMatC= 1.86D-13 BMatP= 1.41D-12
 IDIUse=1 WtCom= 1.00D+00 WtEn= 0.00D+00
 Coeff-Com:  0.108D-06-0.121D-04 0.102D-04-0.696D-04 0.322D-03 0.258D-02
 Coeff-Com:  0.143D-02-0.115D-01-0.399D-01 0.327D-01 0.760D-01-0.904D-01
 Coeff-Com: -0.308D+00-0.365D-01 0.137D+01
 Coeff:      0.108D-06-0.121D-04 0.102D-04-0.696D-04 0.322D-03 0.258D-02
 Coeff:      0.143D-02-0.115D-01-0.399D-01 0.327D-01 0.760D-01-0.904D-01
 Coeff:     -0.308D+00-0.365D-01 0.137D+01
 Gap=     0.152 Goal=   None    Shift=    0.000
 Gap=     0.312 Goal=   None    Shift=    0.000
 RMSDP=1.37D-08 MaxDP=1.52D-06 DE= 9.09D-13 OVMax= 2.23D-06

 Cycle  16  Pass 1  IDiag  1:
 RMSU=  1.22D-09    CP:  9.91D-01  9.96D-01  5.23D-01  1.18D+00  8.24D-01
                    CP:  1.02D+00  1.47D+00  3.00D+00  3.00D+00  3.00D+00
                    CP:  3.00D+00  1.54D+00  1.98D+00  3.00D+00  1.49D+00
 E= -1502.63869862978     Delta-E=        0.000000000004 Rises=F Damp=F
 DIIS: error= 3.64D-09 at cycle  16 NSaved=  16.
 NSaved=16 IEnMin=14 EnMin= -1502.63869862978     IErMin=16 ErrMin= 3.64D-09
 ErrMax= 3.64D-09  0.00D+00 EMaxC= 1.00D-01 BMatC= 1.69D-14 BMatP= 1.86D-13
 IDIUse=1 WtCom= 1.00D+00 WtEn= 0.00D+00
 Coeff-Com:  0.383D-07 0.642D-06 0.562D-05-0.418D-04-0.132D-04 0.343D-03
 Coeff-Com:  0.117D-02 0.219D-02-0.204D-02-0.324D-01 0.422D-01 0.933D-01
 Coeff-Com: -0.136D+00-0.169D+00 0.140D+00 0.106D+01
 Coeff:      0.383D-07 0.642D-06 0.562D-05-0.418D-04-0.132D-04 0.343D-03
 Coeff:      0.117D-02 0.219D-02-0.204D-02-0.324D-01 0.422D-01 0.933D-01
 Coeff:     -0.136D+00-0.169D+00 0.140D+00 0.106D+01
 Gap=     0.152 Goal=   None    Shift=    0.000
 Gap=     0.312 Goal=   None    Shift=    0.000
 RMSDP=2.79D-09 MaxDP=3.26D-07 DE= 3.64D-12 OVMax= 4.98D-07

 SCF Done:  E(UB3LYP) =  -1502.63869863     A.U. after   16 cycles
            NFock= 16  Conv=0.28D-08     -V/T= 2.0032
 <Sx>= 0.0000 <Sy>= 0.0000 <Sz>= 2.0000 <S**2>= 6.0042 S= 2.0008
 <L.S>=  0.00000000000    
 KE= 1.497898651616D+03 PE=-4.760414765886D+03 EE= 1.147140715585D+03
 Annihilation of the first spin contaminant:
 S**2 before annihilation     6.0042,   after     6.0000
 Leave Link  502 at Sat May 25 12:57:00 2024, MaxMem= 26843545600 cpu:            2891.4 elap:              25.5
 (Enter /gpfs/fs1/soft/improv/software/custom-built/gaussian/g16/l508.exe)
 QCSCF skips out because SCF is already converged.
 Leave Link  508 at Sat May 25 12:57:00 2024, MaxMem= 26843545600 cpu:               0.2 elap:               0.0
 (Enter /gpfs/fs1/soft/improv/software/custom-built/gaussian/g16/l801.exe)
 DoSCS=F DFT=T ScalE2(SS,OS)=  1.000000  1.000000
 Range of M.O.s used for correlation:     1   317
 NBasis=   317 NAE=    43 NBE=    39 NFC=     0 NFV=     0
 NROrb=    317 NOA=    43 NOB=    39 NVA=   274 NVB=   278

 **** Warning!!: The largest alpha MO coefficient is  0.83655614D+02


 **** Warning!!: The largest beta MO coefficient is  0.69682410D+02

 Leave Link  801 at Sat May 25 12:57:00 2024, MaxMem= 26843545600 cpu:               0.4 elap:               0.0
 (Enter /gpfs/fs1/soft/improv/software/custom-built/gaussian/g16/l1101.exe)
 Using compressed storage, NAtomX=    19.
 Will process     20 centers per pass.
 R6Disp: Adding Grimme-D3 dispersion energy 1st derivatives to the gradient.
 Leave Link 1101 at Sat May 25 12:57:00 2024, MaxMem= 26843545600 cpu:              50.5 elap:               0.5
 (Enter /gpfs/fs1/soft/improv/software/custom-built/gaussian/g16/l1102.exe)
 Symmetrizing basis deriv contribution to polar:
 IMax=3 JMax=2 DiffMx= 0.00D+00
 Leave Link 1102 at Sat May 25 12:57:01 2024, MaxMem= 26843545600 cpu:               0.9 elap:               0.0
 (Enter /gpfs/fs1/soft/improv/software/custom-built/gaussian/g16/l1110.exe)
 Forming Gx(P) for the SCF density, NAtomX=    19.
 Integral derivatives from FoFJK, PRISM(SPDF).
 Do as many integral derivatives as possible in FoFJK.
 G2DrvN: MDV=   26843543431.
 G2DrvN: will do    20 centers at a time, making    1 passes.
 Calling FoFCou, ICntrl=  3107 FMM=F I1Cent=   0 AccDes= 0.00D+00.
 FoFJK:  IHMeth= 1 ICntrl=    3107 DoSepK=F KAlg= 0 I1Cent=           0 FoldK=F
 IRaf=         0 NMat=       1 IRICut=       1 DoRegI=T DoRafI=F ISym2E= 0 IDoP0=0 IntGTp=1.
 FoFCou: FMM=F IPFlag=           0 FMFlag=      100000 FMFlg1=           0
         NFxFlg=           0 DoJE=F BraDBF=F KetDBF=F FulRan=T
         wScrn=  0.000000 ICntrl=      3107 IOpCl=  1 I1Cent=           0 NGrid=           0
         NMat0=    1 NMatS0=      1 NMatT0=    0 NMatD0=    1 NMtDS0=    0 NMtDT0=    0
 Symmetry not used in FoFCou.
 End of G2Drv F.D. properties file   721 does not exist.
 End of G2Drv F.D. properties file   722 does not exist.
 End of G2Drv F.D. properties file   788 does not exist.
 Leave Link 1110 at Sat May 25 12:57:13 2024, MaxMem= 26843545600 cpu:            1591.5 elap:              12.7
 (Enter /gpfs/fs1/soft/improv/software/custom-built/gaussian/g16/l1002.exe)
 Minotr:  UHF open shell wavefunction.
          IDoAtm=1111111111111111111
          Direct CPHF calculation.
          Differentiating once with respect to electric field.
                with respect to dipole field.
          Differentiating once with respect to nuclear coordinates.
          Requested convergence is 1.0D-08 RMS, and 1.0D-07 maximum.
          Secondary convergence is 1.0D-12 RMS, and 1.0D-12 maximum.
          NewPWx=T KeepS1=F KeepF1=F KeepIn=T MapXYZ=F SortEE=F KeepMc=T.
         6034 words used for storage of precomputed grid.
 Two-electron integrals replicated using symmetry.
          MDV=   26843545600 using IRadAn=       1.
          Solving linear equations simultaneously, MaxMat=     384.
 FoF2E skips out because all densities are zero.
 CalDSu exits because no D1Ps are significant.
 FoFJK:  IHMeth= 1 ICntrl=       0 DoSepK=F KAlg= 0 I1Cent=           0 FoldK=F
 IRaf= 950000000 NMat=      57 IRICut=     142 DoRegI=T DoRafI=T ISym2E= 2 IDoP0=3 IntGTp=2.
 FoFCou: FMM=F IPFlag=           0 FMFlag=      100000 FMFlg1=           0
         NFxFlg=           0 DoJE=F BraDBF=F KetDBF=F FulRan=T
         wScrn=  0.000000 ICntrl=         0 IOpCl=  1 I1Cent=           0 NGrid=           0
         NMat0=   57 NMatS0=     57 NMatT0=    0 NMatD0=   57 NMtDS0=    0 NMtDT0=    0
 Integrals replicated using symmetry in FoFCou.
 Raff kept on since  92.54% of shell-pairs survive, threshold=   0.20 IRatSp=93.
          There are    60 degrees of freedom in the 1st order CPHF.  IDoFFX=6 NUNeed=     3.
     57 vectors produced by pass  0 Test12= 3.77D-14 1.67D-09 XBig12= 5.96D+01 2.37D+00.
 AX will form    57 AO Fock derivatives at one time.
     57 vectors produced by pass  1 Test12= 3.77D-14 1.67D-09 XBig12= 2.33D+00 3.69D-01.
     57 vectors produced by pass  2 Test12= 3.77D-14 1.67D-09 XBig12= 3.74D-02 5.35D-02.
     57 vectors produced by pass  3 Test12= 3.77D-14 1.67D-09 XBig12= 3.18D-04 4.36D-03.
     57 vectors produced by pass  4 Test12= 3.77D-14 1.67D-09 XBig12= 2.67D-06 2.83D-04.
     57 vectors produced by pass  5 Test12= 3.77D-14 1.67D-09 XBig12= 1.88D-08 2.34D-05.
     47 vectors produced by pass  6 Test12= 3.77D-14 1.67D-09 XBig12= 8.31D-11 1.30D-06.
     11 vectors produced by pass  7 Test12= 3.77D-14 1.67D-09 XBig12= 2.09D-13 6.98D-08.
      3 vectors produced by pass  8 Test12= 3.77D-14 1.67D-09 XBig12= 5.27D-16 3.21D-09.
 InvSVY:  IOpt=1 It=  1 EMax= 2.66D-15
 Solved reduced A of dimension   403 with    60 vectors.
 FullF1:  Do perturbations      1 to       3.
 Isotropic polarizability for W=    0.000000       58.75 Bohr**3.
 End of Minotr F.D. properties file   721 does not exist.
 End of Minotr F.D. properties file   722 does not exist.
 End of Minotr F.D. properties file   788 does not exist.
 Leave Link 1002 at Sat May 25 12:58:14 2024, MaxMem= 26843545600 cpu:            7329.4 elap:              60.8
 (Enter /gpfs/fs1/soft/improv/software/custom-built/gaussian/g16/l601.exe)
 Copying SCF densities to generalized density rwf, IOpCl= 1 IROHF=0.

 **********************************************************************

            Population analysis using the SCF Density.

 **********************************************************************

 Orbital symmetries:
 Alpha Orbitals:
       Occupied  (A) (A) (A) (A) (A) (A) (A) (A) (A) (A) (A) (A)
                 (A) (A) (A) (A) (A) (A) (A) (A) (A) (A) (A) (A)
                 (A) (A) (A) (A) (A) (A) (A) (A) (A) (A) (A) (A)
                 (A) (A) (A) (A) (A) (A) (A)
       Virtual   (A) (A) (A) (A) (A) (A) (A) (A) (A) (A) (A) (A)
                 (A) (A) (A) (A) (A) (A) (A) (A) (A) (A) (A) (A)
                 (A) (A) (A) (A) (A) (A) (A) (A) (A) (A) (A) (A)
                 (A) (A) (A) (A) (A) (A) (A) (A) (A) (A) (A) (A)
                 (A) (A) (A) (A) (A) (A) (A) (A) (A) (A) (A) (A)
                 (A) (A) (A) (A) (A) (A) (A) (A) (A) (A) (A) (A)
                 (A) (A) (A) (A) (A) (A) (A) (A) (A) (A) (A) (A)
                 (A) (A) (A) (A) (A) (A) (A) (A) (A) (A) (A) (A)
                 (A) (A) (A) (A) (A) (A) (A) (A) (A) (A) (A) (A)
                 (A) (A) (A) (A) (A) (A) (A) (A) (A) (A) (A) (A)
                 (A) (A) (A) (A) (A) (A) (A) (A) (A) (A) (A) (A)
                 (A) (A) (A) (A) (A) (A) (A) (A) (A) (A) (A) (A)
                 (A) (A) (A) (A) (A) (A) (A) (A) (A) (A) (A) (A)
                 (A) (A) (A) (A) (A) (A) (A) (A) (A) (A) (A) (A)
                 (A) (A) (A) (A) (A) (A) (A) (A) (A) (A) (A) (A)
                 (A) (A) (A) (A) (A) (A) (A) (A) (A) (A) (A) (A)
                 (A) (A) (A) (A) (A) (A) (A) (A) (A) (A) (A) (A)
                 (A) (A) (A) (A) (A) (A) (A) (A) (A) (A) (A) (A)
                 (A) (A) (A) (A) (A) (A) (A) (A) (A) (A) (A) (A)
                 (A) (A) (A) (A) (A) (A) (A) (A) (A) (A) (A) (A)
                 (A) (A) (A) (A) (A) (A) (A) (A) (A) (A) (A) (A)
                 (A) (A) (A) (A) (A) (A) (A) (A) (A) (A) (A) (A)
                 (A) (A) (A) (A) (A) (A) (A) (A) (A) (A)
 Beta  Orbitals:
       Occupied  (A) (A) (A) (A) (A) (A) (A) (A) (A) (A) (A) (A)
                 (A) (A) (A) (A) (A) (A) (A) (A) (A) (A) (A) (A)
                 (A) (A) (A) (A) (A) (A) (A) (A) (A) (A) (A) (A)
                 (A) (A) (A)
       Virtual   (A) (A) (A) (A) (A) (A) (A) (A) (A) (A) (A) (A)
                 (A) (A) (A) (A) (A) (A) (A) (A) (A) (A) (A) (A)
                 (A) (A) (A) (A) (A) (A) (A) (A) (A) (A) (A) (A)
                 (A) (A) (A) (A) (A) (A) (A) (A) (A) (A) (A) (A)
                 (A) (A) (A) (A) (A) (A) (A) (A) (A) (A) (A) (A)
                 (A) (A) (A) (A) (A) (A) (A) (A) (A) (A) (A) (A)
                 (A) (A) (A) (A) (A) (A) (A) (A) (A) (A) (A) (A)
                 (A) (A) (A) (A) (A) (A) (A) (A) (A) (A) (A) (A)
                 (A) (A) (A) (A) (A) (A) (A) (A) (A) (A) (A) (A)
                 (A) (A) (A) (A) (A) (A) (A) (A) (A) (A) (A) (A)
                 (A) (A) (A) (A) (A) (A) (A) (A) (A) (A) (A) (A)
                 (A) (A) (A) (A) (A) (A) (A) (A) (A) (A) (A) (A)
                 (A) (A) (A) (A) (A) (A) (A) (A) (A) (A) (A) (A)
                 (A) (A) (A) (A) (A) (A) (A) (A) (A) (A) (A) (A)
                 (A) (A) (A) (A) (A) (A) (A) (A) (A) (A) (A) (A)
                 (A) (A) (A) (A) (A) (A) (A) (A) (A) (A) (A) (A)
                 (A) (A) (A) (A) (A) (A) (A) (A) (A) (A) (A) (A)
                 (A) (A) (A) (A) (A) (A) (A) (A) (A) (A) (A) (A)
                 (A) (A) (A) (A) (A) (A) (A) (A) (A) (A) (A) (A)
                 (A) (A) (A) (A) (A) (A) (A) (A) (A) (A) (A) (A)
                 (A) (A) (A) (A) (A) (A) (A) (A) (A) (A) (A) (A)
                 (A) (A) (A) (A) (A) (A) (A) (A) (A) (A) (A) (A)
                 (A) (A) (A) (A) (A) (A) (A) (A) (A) (A) (A) (A)
                 (A) (A)
 The electronic state is 5-A.
 Alpha  occ. eigenvalues -- -216.01799 -25.02814 -21.32000 -21.31985 -21.30908
 Alpha  occ. eigenvalues --  -19.50471 -19.50471 -19.50189 -19.50189 -19.46364
 Alpha  occ. eigenvalues --  -19.46364  -3.24872  -2.20298  -2.20215  -2.19428
 Alpha  occ. eigenvalues --   -1.36244  -1.35838  -1.35612  -1.35588  -1.31680
 Alpha  occ. eigenvalues --   -1.31663  -0.88005  -0.87884  -0.87760  -0.87591
 Alpha  occ. eigenvalues --   -0.83188  -0.83157  -0.80579  -0.77882  -0.76668
 Alpha  occ. eigenvalues --   -0.76659  -0.73165  -0.72223  -0.68141  -0.67674
 Alpha  occ. eigenvalues --   -0.67092  -0.66657  -0.63112  -0.62798  -0.56569
 Alpha  occ. eigenvalues --   -0.54824  -0.54054  -0.50697
 Alpha virt. eigenvalues --   -0.35465  -0.31427  -0.27404  -0.27271  -0.26222
 Alpha virt. eigenvalues --   -0.21888  -0.21501  -0.18717  -0.18329  -0.17389
 Alpha virt. eigenvalues --   -0.17212  -0.16587  -0.16171  -0.15728  -0.12709
 Alpha virt. eigenvalues --   -0.11490  -0.11135  -0.10818  -0.10153  -0.09931
 Alpha virt. eigenvalues --   -0.09928  -0.09459  -0.08975  -0.08452  -0.08250
 Alpha virt. eigenvalues --   -0.07394  -0.06291  -0.06120  -0.05293  -0.04916
 Alpha virt. eigenvalues --    0.00336   0.00722   0.01468   0.02086   0.02314
 Alpha virt. eigenvalues --    0.02378   0.03683   0.03790   0.03990   0.06246
 Alpha virt. eigenvalues --    0.07127   0.08390   0.09883   0.11607   0.14149
 Alpha virt. eigenvalues --    0.14178   0.14204   0.14730   0.15853   0.19209
 Alpha virt. eigenvalues --    0.20050   0.20181   0.29012   0.32733   0.44487
 Alpha virt. eigenvalues --    0.47797   0.48526   0.51137   0.51945   0.52437
 Alpha virt. eigenvalues --    0.54325   0.56137   0.57938   0.58207   0.58232
 Alpha virt. eigenvalues --    0.59363   0.59883   0.61246   0.61387   0.61973
 Alpha virt. eigenvalues --    0.62207   0.62341   0.63588   0.63824   0.64269
 Alpha virt. eigenvalues --    0.64422   0.65443   0.67197   0.70833   0.70959
 Alpha virt. eigenvalues --    0.71206   0.72194   0.72394   0.73604   0.76320
 Alpha virt. eigenvalues --    0.77510   0.79272   0.80277   0.80550   0.81527
 Alpha virt. eigenvalues --    0.83918   0.84152   0.84407   0.85389   0.86639
 Alpha virt. eigenvalues --    0.88569   0.93966   0.94314   0.95377   0.96002
 Alpha virt. eigenvalues --    0.98811   1.00245   1.03565   1.06288   1.09042
 Alpha virt. eigenvalues --    1.10099   1.14016   1.14419   1.20630   1.21482
 Alpha virt. eigenvalues --    1.22761   1.27179   1.32363   1.32828   1.35064
 Alpha virt. eigenvalues --    1.42611   1.49552   1.49856   1.50348   1.56232
 Alpha virt. eigenvalues --    1.67110   1.67310   1.71015   1.88901   1.89009
 Alpha virt. eigenvalues --    1.90838   1.92352   1.92511   1.94077   1.94777
 Alpha virt. eigenvalues --    1.94864   1.98555   2.00999   2.01029   2.03530
 Alpha virt. eigenvalues --    2.06962   2.11885   2.14682   2.16352   2.16883
 Alpha virt. eigenvalues --    2.17800   2.18817   2.19122   2.21625   2.21690
 Alpha virt. eigenvalues --    2.21745   2.23646   2.23827   2.24873   2.27199
 Alpha virt. eigenvalues --    2.27488   2.50489   2.51387   2.51576   2.56155
 Alpha virt. eigenvalues --    2.62830   2.64155   2.64502   2.64778   2.66156
 Alpha virt. eigenvalues --    2.72765   2.75625   2.81095   2.81241   2.82756
 Alpha virt. eigenvalues --    2.84396   2.84738   2.85746   2.87431   2.87458
 Alpha virt. eigenvalues --    2.87820   2.93119   3.04245   3.31479   3.31764
 Alpha virt. eigenvalues --    3.33422   3.38361   3.41388   3.49438   3.50190
 Alpha virt. eigenvalues --    3.52609   3.67275   3.74075   3.76960   3.78505
 Alpha virt. eigenvalues --    3.79321   3.80153   3.82666   3.88260   3.89280
 Alpha virt. eigenvalues --    3.90635   3.98584   3.99768   4.00925   4.01474
 Alpha virt. eigenvalues --    4.02614   4.02693   4.03047   4.04655   4.15371
 Alpha virt. eigenvalues --    4.15706   4.17467   4.17971   4.19976   4.20237
 Alpha virt. eigenvalues --    4.22387   4.23806   4.26702   4.27503   4.28272
 Alpha virt. eigenvalues --    4.42883   4.46734   4.49193   4.50717   4.52705
 Alpha virt. eigenvalues --    4.52761   4.54564   4.55807   4.58920   4.69693
 Alpha virt. eigenvalues --    4.74513   4.74751   4.76308   4.85929   4.87224
 Alpha virt. eigenvalues --    4.87744   4.98613   5.00208   5.00745   5.02312
 Alpha virt. eigenvalues --    5.02730   5.02954   5.04604   5.05393   5.06590
 Alpha virt. eigenvalues --    5.06827   5.07836   5.10203   5.11771   5.12229
 Alpha virt. eigenvalues --    5.12423   5.12564   5.12566   5.12601   5.13802
 Alpha virt. eigenvalues --    5.16496   5.17669   5.18619   5.24391   5.44673
 Alpha virt. eigenvalues --    5.46492   5.46665   5.48053   5.52050   5.52837
 Alpha virt. eigenvalues --    5.57750   5.59264   5.60542   5.66608   5.66939
 Alpha virt. eigenvalues --    5.70619   6.97009   6.99293   7.05606   7.09084
 Alpha virt. eigenvalues --    7.10519   7.31270  12.96195  13.24063  13.34439
 Alpha virt. eigenvalues --   13.38050  13.44740  13.77601  15.06817
  Beta  occ. eigenvalues -- -216.01728 -24.97079 -21.27637 -21.27625 -21.25230
  Beta  occ. eigenvalues --  -19.50454 -19.50454 -19.50173 -19.50173 -19.46261
  Beta  occ. eigenvalues --  -19.46261  -3.08349  -2.04293  -2.04247  -1.98925
  Beta  occ. eigenvalues --   -1.36157  -1.35745  -1.35526  -1.35519  -1.31525
  Beta  occ. eigenvalues --   -1.31507  -0.87876  -0.87816  -0.87629  -0.87537
  Beta  occ. eigenvalues --   -0.83071  -0.83059  -0.80030  -0.77485  -0.76626
  Beta  occ. eigenvalues --   -0.76622  -0.72095  -0.71851  -0.67215  -0.66853
  Beta  occ. eigenvalues --   -0.66853  -0.66390  -0.62661  -0.62599
  Beta virt. eigenvalues --   -0.31351  -0.30884  -0.29817  -0.29000  -0.28839
  Beta virt. eigenvalues --   -0.27321  -0.27189  -0.26514  -0.26085  -0.20953
  Beta virt. eigenvalues --   -0.20429  -0.18582  -0.18229  -0.17218  -0.16894
  Beta virt. eigenvalues --   -0.16556  -0.15602  -0.15417  -0.12393  -0.11466
  Beta virt. eigenvalues --   -0.10998  -0.10609  -0.10021  -0.09917  -0.09139
  Beta virt. eigenvalues --   -0.08550  -0.08072  -0.07872  -0.07597  -0.07119
  Beta virt. eigenvalues --   -0.06103  -0.05794  -0.05247  -0.04288   0.01840
  Beta virt. eigenvalues --    0.02130   0.02217   0.02395   0.02654   0.03140
  Beta virt. eigenvalues --    0.04070   0.04593   0.04883   0.07189   0.07264
  Beta virt. eigenvalues --    0.08570   0.10496   0.12737   0.14624   0.14826
  Beta virt. eigenvalues --    0.14884   0.15795   0.16053   0.19962   0.21010
  Beta virt. eigenvalues --    0.21445   0.29929   0.32928   0.45114   0.48258
  Beta virt. eigenvalues --    0.48919   0.51920   0.52368   0.53149   0.54980
  Beta virt. eigenvalues --    0.56134   0.57976   0.58733   0.58918   0.59521
  Beta virt. eigenvalues --    0.60038   0.61317   0.61537   0.62065   0.62342
  Beta virt. eigenvalues --    0.62633   0.63770   0.64280   0.64311   0.64514
  Beta virt. eigenvalues --    0.65801   0.67759   0.71241   0.71566   0.71873
  Beta virt. eigenvalues --    0.72524   0.72542   0.73983   0.76577   0.77686
  Beta virt. eigenvalues --    0.79546   0.80336   0.81729   0.81826   0.84209
  Beta virt. eigenvalues --    0.84568   0.85419   0.86093   0.86830   0.89545
  Beta virt. eigenvalues --    0.94741   0.95409   0.96699   1.00790   1.01146
  Beta virt. eigenvalues --    1.01391   1.04859   1.06988   1.14263   1.14517
  Beta virt. eigenvalues --    1.16861   1.17706   1.23238   1.24099   1.29037
  Beta virt. eigenvalues --    1.29493   1.35615   1.36023   1.37254   1.43423
  Beta virt. eigenvalues --    1.51459   1.51559   1.52034   1.56648   1.67846
  Beta virt. eigenvalues --    1.70972   1.71359   1.89351   1.89367   1.92252
  Beta virt. eigenvalues --    1.92463   1.92732   1.94162   1.95538   1.97803
  Beta virt. eigenvalues --    1.99762   2.01134   2.03308   2.05483   2.08228
  Beta virt. eigenvalues --    2.14149   2.16294   2.17088   2.17871   2.18042
  Beta virt. eigenvalues --    2.18921   2.19695   2.21733   2.21870   2.21980
  Beta virt. eigenvalues --    2.23808   2.23945   2.25114   2.27458   2.27640
  Beta virt. eigenvalues --    2.52451   2.53961   2.54162   2.57834   2.63070
  Beta virt. eigenvalues --    2.64500   2.64953   2.65020   2.66763   2.73251
  Beta virt. eigenvalues --    2.76128   2.81273   2.81527   2.83796   2.84499
  Beta virt. eigenvalues --    2.85450   2.86496   2.87706   2.88633   2.90251
  Beta virt. eigenvalues --    2.96159   3.07477   3.39809   3.39824   3.41264
  Beta virt. eigenvalues --    3.45035   3.48739   3.55054   3.55779   3.58440
  Beta virt. eigenvalues --    3.70880   3.74798   3.77070   3.78856   3.79598
  Beta virt. eigenvalues --    3.80598   3.82856   3.88914   3.89921   3.91190
  Beta virt. eigenvalues --    3.99031   4.00195   4.01098   4.01905   4.02800
  Beta virt. eigenvalues --    4.02953   4.05077   4.05137   4.16474   4.18741
  Beta virt. eigenvalues --    4.18835   4.21045   4.22650   4.26892   4.27615
  Beta virt. eigenvalues --    4.28894   4.30883   4.31185   4.37317   4.48228
  Beta virt. eigenvalues --    4.50885   4.52872   4.53082   4.53758   4.54288
  Beta virt. eigenvalues --    4.54717   4.58611   4.63065   4.69831   4.74985
  Beta virt. eigenvalues --    4.75209   4.77858   4.86075   4.88514   4.90087
  Beta virt. eigenvalues --    5.00008   5.00605   5.01665   5.02572   5.02822
  Beta virt. eigenvalues --    5.03049   5.05098   5.06222   5.06748   5.07616
  Beta virt. eigenvalues --    5.08223   5.10299   5.11850   5.12268   5.12486
  Beta virt. eigenvalues --    5.12595   5.12670   5.13790   5.13877   5.17259
  Beta virt. eigenvalues --    5.17779   5.20756   5.26240   5.44881   5.46557
  Beta virt. eigenvalues --    5.47044   5.48096   5.52142   5.52931   5.57778
  Beta virt. eigenvalues --    5.59370   5.60802   5.66687   5.67501   5.71211
  Beta virt. eigenvalues --    6.97217   6.99406   7.05657   7.09121   7.10725
  Beta virt. eigenvalues --    7.31396  12.97049  13.24125  13.34487  13.38114
  Beta virt. eigenvalues --   13.44849  13.78332  15.12696
          Condensed to atoms (all electrons):
               1          2          3          4          5          6
     1  Cr  22.858166   0.024314  -0.010193  -0.006242  -0.009385  -0.001660
     2  O    0.024314   8.192150   0.295087  -0.037331   0.000754  -0.023321
     3  H   -0.010193   0.295087   0.303567   0.001237   0.000000   0.000288
     4  O   -0.006242  -0.037331   0.001237   8.201675   0.298140  -0.033294
     5  H   -0.009385   0.000754   0.000000   0.298140   0.305678   0.000921
     6  O   -0.001660  -0.023321   0.000288  -0.033294   0.000921   8.222315
     7  H    0.001414   0.000607  -0.000000   0.000527  -0.000001   0.284161
     8  O    0.024314   0.029047  -0.000411  -0.037329   0.003788  -0.052249
     9  H   -0.008257  -0.000330   0.000000   0.000794  -0.000040   0.001033
    10  O   -0.006234  -0.037328   0.001237   0.029141  -0.000347  -0.033290
    11  H   -0.009384   0.003788  -0.000040  -0.000347   0.000000   0.000985
    12  O   -0.001658  -0.052249   0.007184  -0.033287   0.000985   0.010733
    13  H    0.001414   0.001524  -0.000109   0.002168  -0.000037  -0.000104
    14  H    0.001413   0.001524  -0.000109   0.000527  -0.000002  -0.000104
    15  H   -0.009386   0.003789  -0.000040   0.298142  -0.016094   0.000985
    16  H   -0.008257   0.296500  -0.015973   0.000795   0.000000   0.001142
    17  H   -0.009386   0.000754   0.000000  -0.000347   0.000000   0.000921
    18  H    0.001413   0.000607  -0.000000   0.002169  -0.000042   0.284162
    19  H   -0.010194  -0.000411   0.000000   0.001237  -0.000040   0.007184
               7          8          9         10         11         12
     1  Cr   0.001414   0.024314  -0.008257  -0.006234  -0.009384  -0.001658
     2  O    0.000607   0.029047  -0.000330  -0.037328   0.003788  -0.052249
     3  H   -0.000000  -0.000411   0.000000   0.001237  -0.000040   0.007184
     4  O    0.000527  -0.037329   0.000794   0.029141  -0.000347  -0.033287
     5  H   -0.000001   0.003788  -0.000040  -0.000347   0.000000   0.000985
     6  O    0.284161  -0.052249   0.001033  -0.033290   0.000985   0.010733
     7  H    0.325023   0.001524  -0.000003   0.002169  -0.000037  -0.000104
     8  O    0.001524   8.192149   0.296500  -0.037330   0.000754  -0.023323
     9  H   -0.000003   0.296500   0.302700   0.000795   0.000000   0.001142
    10  O    0.002169  -0.037330   0.000795   8.201673   0.298138  -0.033298
    11  H   -0.000037   0.000754   0.000000   0.298138   0.305678   0.000921
    12  O   -0.000104  -0.023323   0.001142  -0.033298   0.000921   8.222314
    13  H    0.000000   0.000607  -0.000025   0.000527  -0.000001   0.284161
    14  H    0.000000   0.000607  -0.000025   0.002170  -0.000042   0.284162
    15  H   -0.000002   0.000754   0.000000  -0.000347   0.000000   0.000921
    16  H   -0.000025  -0.000330  -0.000000   0.000794  -0.000040   0.001033
    17  H   -0.000042   0.003788  -0.000040   0.298141  -0.016094   0.000986
    18  H   -0.014258   0.001524  -0.000003   0.000527  -0.000002  -0.000104
    19  H   -0.000109   0.295088  -0.015973   0.001237   0.000000   0.000288
              13         14         15         16         17         18
     1  Cr   0.001414   0.001413  -0.009386  -0.008257  -0.009386   0.001413
     2  O    0.001524   0.001524   0.003789   0.296500   0.000754   0.000607
     3  H   -0.000109  -0.000109  -0.000040  -0.015973   0.000000  -0.000000
     4  O    0.002168   0.000527   0.298142   0.000795  -0.000347   0.002169
     5  H   -0.000037  -0.000002  -0.016094   0.000000   0.000000  -0.000042
     6  O   -0.000104  -0.000104   0.000985   0.001142   0.000921   0.284162
     7  H    0.000000   0.000000  -0.000002  -0.000025  -0.000042  -0.014258
     8  O    0.000607   0.000607   0.000754  -0.000330   0.003788   0.001524
     9  H   -0.000025  -0.000025   0.000000  -0.000000  -0.000040  -0.000003
    10  O    0.000527   0.002170  -0.000347   0.000794   0.298141   0.000527
    11  H   -0.000001  -0.000042   0.000000  -0.000040  -0.016094  -0.000002
    12  O    0.284161   0.284162   0.000921   0.001033   0.000986  -0.000104
    13  H    0.325022  -0.014258  -0.000042  -0.000003  -0.000002   0.000000
    14  H   -0.014258   0.325023  -0.000001  -0.000003  -0.000037   0.000000
    15  H   -0.000042  -0.000001   0.305677  -0.000040   0.000000  -0.000037
    16  H   -0.000003  -0.000003  -0.000040   0.302700   0.000000  -0.000025
    17  H   -0.000002  -0.000037   0.000000   0.000000   0.305677  -0.000001
    18  H    0.000000   0.000000  -0.000037  -0.000025  -0.000001   0.325023
    19  H   -0.000000  -0.000000   0.000000   0.000000  -0.000040  -0.000109
              19
     1  Cr  -0.010194
     2  O   -0.000411
     3  H    0.000000
     4  O    0.001237
     5  H   -0.000040
     6  O    0.007184
     7  H   -0.000109
     8  O    0.295088
     9  H   -0.015973
    10  O    0.001237
    11  H    0.000000
    12  O    0.000288
    13  H   -0.000000
    14  H   -0.000000
    15  H    0.000000
    16  H    0.000000
    17  H   -0.000040
    18  H   -0.000109
    19  H    0.303567
          Atomic-Atomic Spin Densities.
               1          2          3          4          5          6
     1  Cr   4.202127  -0.025985  -0.002700  -0.030458  -0.001148  -0.057342
     2  O   -0.025985   0.015774   0.001068   0.015696  -0.000368  -0.011240
     3  H   -0.002700   0.001068   0.003965  -0.000312   0.000001   0.000125
     4  O   -0.030458   0.015696  -0.000312   0.026410   0.000331  -0.013910
     5  H   -0.001148  -0.000368   0.000001   0.000331   0.002928   0.000396
     6  O   -0.057342  -0.011240   0.000125  -0.013910   0.000396   0.105303
     7  H    0.003136   0.000331  -0.000001   0.000249  -0.000001  -0.006176
     8  O   -0.025985   0.003456  -0.000075   0.015696  -0.000017  -0.014282
     9  H   -0.001939  -0.000056  -0.000000  -0.000485   0.000011   0.000090
    10  O   -0.030459   0.015696  -0.000312   0.004263  -0.000072  -0.013910
    11  H   -0.001148  -0.000017   0.000012  -0.000072   0.000000   0.000346
    12  O   -0.057342  -0.014282   0.001693  -0.013910   0.000346   0.005197
    13  H    0.003137   0.000609  -0.000039   0.000978  -0.000013  -0.000054
    14  H    0.003136   0.000609  -0.000039   0.000249  -0.000001  -0.000054
    15  H   -0.001148  -0.000017   0.000012   0.000331  -0.000862   0.000346
    16  H   -0.001938   0.001833  -0.001064  -0.000485   0.000001   0.000471
    17  H   -0.001148  -0.000368   0.000001  -0.000072  -0.000000   0.000396
    18  H    0.003136   0.000331  -0.000001   0.000978  -0.000017  -0.006175
    19  H   -0.002700  -0.000075   0.000000  -0.000312   0.000012   0.001693
               7          8          9         10         11         12
     1  Cr   0.003136  -0.025985  -0.001939  -0.030459  -0.001148  -0.057342
     2  O    0.000331   0.003456  -0.000056   0.015696  -0.000017  -0.014282
     3  H   -0.000001  -0.000075  -0.000000  -0.000312   0.000012   0.001693
     4  O    0.000249   0.015696  -0.000485   0.004263  -0.000072  -0.013910
     5  H   -0.000001  -0.000017   0.000011  -0.000072   0.000000   0.000346
     6  O   -0.006176  -0.014282   0.000090  -0.013910   0.000346   0.005197
     7  H    0.003809   0.000609  -0.000001   0.000978  -0.000013  -0.000054
     8  O    0.000609   0.015775   0.001833   0.015696  -0.000368  -0.011241
     9  H   -0.000001   0.001833   0.002713  -0.000485   0.000001   0.000471
    10  O    0.000978   0.015696  -0.000485   0.026411   0.000331  -0.013911
    11  H   -0.000013  -0.000368   0.000001   0.000331   0.002928   0.000396
    12  O   -0.000054  -0.011241   0.000471  -0.013911   0.000396   0.105304
    13  H    0.000000   0.000331  -0.000008   0.000249  -0.000001  -0.006176
    14  H    0.000000   0.000331  -0.000008   0.000978  -0.000017  -0.006175
    15  H   -0.000001  -0.000368   0.000001  -0.000072  -0.000000   0.000396
    16  H   -0.000008  -0.000056   0.000000  -0.000485   0.000011   0.000090
    17  H   -0.000017  -0.000017   0.000011   0.000331  -0.000862   0.000346
    18  H    0.000966   0.000609  -0.000001   0.000249  -0.000001  -0.000054
    19  H   -0.000039   0.001068  -0.001064  -0.000312   0.000001   0.000125
              13         14         15         16         17         18
     1  Cr   0.003137   0.003136  -0.001148  -0.001938  -0.001148   0.003136
     2  O    0.000609   0.000609  -0.000017   0.001833  -0.000368   0.000331
     3  H   -0.000039  -0.000039   0.000012  -0.001064   0.000001  -0.000001
     4  O    0.000978   0.000249   0.000331  -0.000485  -0.000072   0.000978
     5  H   -0.000013  -0.000001  -0.000862   0.000001  -0.000000  -0.000017
     6  O   -0.000054  -0.000054   0.000346   0.000471   0.000396  -0.006175
     7  H    0.000000   0.000000  -0.000001  -0.000008  -0.000017   0.000966
     8  O    0.000331   0.000331  -0.000368  -0.000056  -0.000017   0.000609
     9  H   -0.000008  -0.000008   0.000001   0.000000   0.000011  -0.000001
    10  O    0.000249   0.000978  -0.000072  -0.000485   0.000331   0.000249
    11  H   -0.000001  -0.000017  -0.000000   0.000011  -0.000862  -0.000001
    12  O   -0.006176  -0.006175   0.000396   0.000090   0.000346  -0.000054
    13  H    0.003809   0.000966  -0.000017  -0.000001  -0.000001   0.000000
    14  H    0.000966   0.003809  -0.000001  -0.000001  -0.000013   0.000000
    15  H   -0.000017  -0.000001   0.002928   0.000011   0.000000  -0.000013
    16  H   -0.000001  -0.000001   0.000011   0.002713   0.000001  -0.000008
    17  H   -0.000001  -0.000013   0.000000   0.000001   0.002928  -0.000001
    18  H    0.000000   0.000000  -0.000013  -0.000008  -0.000001   0.003808
    19  H   -0.000001  -0.000001   0.000001  -0.000000   0.000012  -0.000039
              19
     1  Cr  -0.002700
     2  O   -0.000075
     3  H    0.000000
     4  O   -0.000312
     5  H    0.000012
     6  O    0.001693
     7  H   -0.000039
     8  O    0.001068
     9  H   -0.001064
    10  O   -0.000312
    11  H    0.000001
    12  O    0.000125
    13  H   -0.000001
    14  H   -0.000001
    15  H    0.000001
    16  H   -0.000000
    17  H    0.000012
    18  H   -0.000039
    19  H    0.003965
 Mulliken charges and spin densities:
               1          2
     1  Cr   1.177789   3.973230
     2  O   -0.699473   0.002991
     3  H    0.418273   0.002334
     4  O   -0.688375   0.005166
     5  H    0.415721   0.001527
     6  O   -0.670807  -0.008781
     7  H    0.399157   0.003768
     8  O   -0.699471   0.002991
     9  H    0.421731   0.001086
    10  O   -0.688376   0.005166
    11  H    0.415721   0.001527
    12  O   -0.670807  -0.008781
    13  H    0.399158   0.003768
    14  H    0.399156   0.003767
    15  H    0.415721   0.001527
    16  H    0.421731   0.001086
    17  H    0.415721   0.001527
    18  H    0.399156   0.003767
    19  H    0.418273   0.002334
 Sum of Mulliken charges =   2.00000   4.00000
 Mulliken charges and spin densities with hydrogens summed into heavy atoms:
               1          2
     1  Cr   1.177789   3.973230
     2  O    0.140531   0.006411
     4  O    0.143067   0.008220
     6  O    0.127506  -0.001246
     8  O    0.140533   0.006412
    10  O    0.143067   0.008220
    12  O    0.127507  -0.001246
 APT charges:
               1
     1  Cr   1.657074
     2  O   -0.624284
     3  H    0.352862
     4  O   -0.608377
     5  H    0.345078
     6  O   -0.608675
     7  H    0.307501
     8  O   -0.624284
     9  H    0.354780
    10  O   -0.608377
    11  H    0.345078
    12  O   -0.608676
    13  H    0.307501
    14  H    0.307501
    15  H    0.345078
    16  H    0.354780
    17  H    0.345077
    18  H    0.307501
    19  H    0.352861
 Sum of APT charges =   2.00000
 APT charges with hydrogens summed into heavy atoms:
               1
     1  Cr   1.657074
     2  O    0.083358
     4  O    0.081780
     6  O    0.006326
     8  O    0.083357
    10  O    0.081779
    12  O    0.006326
 Electronic spatial extent (au):  <R**2>=           1230.4559
 Charge=              2.0000 electrons
 Dipole moment (field-independent basis, Debye):
    X=              0.0001    Y=             -0.0000    Z=             -0.0000  Tot=              0.0001
 Quadrupole moment (field-independent basis, Debye-Ang):
   XX=            -13.2436   YY=            -14.9260   ZZ=            -16.3650
   XY=              0.0011   XZ=              1.2492   YZ=             -0.0004
 Traceless Quadrupole moment (field-independent basis, Debye-Ang):
   XX=              1.6013   YY=             -0.0811   ZZ=             -1.5201
   XY=              0.0011   XZ=              1.2492   YZ=             -0.0004
 Octapole moment (field-independent basis, Debye-Ang**2):
  XXX=              0.0004  YYY=             -0.0001  ZZZ=             -0.0003  XYY=              0.0008
  XXY=              0.0002  XXZ=              0.0001  XZZ=             -0.0005  YZZ=             -0.0002
  YYZ=             -0.0004  XYZ=             -0.0007
 Hexadecapole moment (field-independent basis, Debye-Ang**3):
 XXXX=           -206.0062 YYYY=           -105.8552 ZZZZ=           -143.0211 XXXY=             -0.0030
 XXXZ=            -75.1627 YYYX=             -0.0126 YYYZ=             -0.0697 ZZZX=             55.9548
 ZZZY=              0.0553 XXYY=           -119.0334 XXZZ=            -74.1174 YYZZ=            -99.0636
 XXYZ=              0.0066 YYXZ=              0.4913 ZZXY=              0.0233
 N-N= 6.127367000550D+02 E-N=-4.760414766119D+03  KE= 1.497898651616D+03
  Exact polarizability:      60.543       0.000      57.682      -0.004       0.000      58.028
 Approx polarizability:      72.292       0.000      71.403       0.013       0.000      71.989
                          Isotropic Fermi Contact Couplings
        Atom                 a.u.       MegaHertz       Gauss      10(-4) cm-1
     1  Cr(53)             0.23178     -14.66926      -5.23436      -4.89314
     2  O(17)             -0.00986       1.49451       0.53328       0.49852
     3  H(1)               0.00153       1.70694       0.60908       0.56937
     4  O(17)             -0.01018       1.54237       0.55036       0.51448
     5  H(1)               0.00103       1.14550       0.40874       0.38210
     6  O(17)              0.09513     -14.41728      -5.14445      -4.80909
     7  H(1)               0.00126       1.40716       0.50211       0.46938
     8  O(17)             -0.00986       1.49444       0.53326       0.49849
     9  H(1)               0.00105       1.16776       0.41669       0.38952
    10  O(17)             -0.01018       1.54228       0.55032       0.51445
    11  H(1)               0.00103       1.14551       0.40875       0.38210
    12  O(17)              0.09513     -14.41742      -5.14449      -4.80913
    13  H(1)               0.00126       1.40719       0.50212       0.46939
    14  H(1)               0.00126       1.40694       0.50203       0.46930
    15  H(1)               0.00103       1.14549       0.40874       0.38210
    16  H(1)               0.00105       1.16779       0.41670       0.38953
    17  H(1)               0.00103       1.14550       0.40874       0.38210
    18  H(1)               0.00126       1.40692       0.50202       0.46930
    19  H(1)               0.00153       1.70694       0.60908       0.56937
 --------------------------------------------------------
       Center         ----  Spin Dipole Couplings  ----
                      3XX-RR        3YY-RR        3ZZ-RR
 --------------------------------------------------------
     1   Atom        1.332260     -0.886603     -0.445657
     2   Atom       -0.052625      0.025750      0.026875
     3   Atom        0.010818     -0.027580      0.016762
     4   Atom        0.015637      0.042011     -0.057648
     5   Atom       -0.024511      0.045105     -0.020594
     6   Atom        0.106656     -0.077847     -0.028808
     7   Atom        0.029909     -0.014109     -0.015800
     8   Atom       -0.052626      0.025750      0.026876
     9   Atom       -0.024364     -0.025293      0.049658
    10   Atom        0.015647      0.042012     -0.057659
    11   Atom       -0.024512      0.045105     -0.020593
    12   Atom        0.106655     -0.077848     -0.028807
    13   Atom        0.029909     -0.014110     -0.015799
    14   Atom        0.029915     -0.014107     -0.015808
    15   Atom       -0.024515      0.045137     -0.020622
    16   Atom       -0.024364     -0.025293      0.049658
    17   Atom       -0.024516      0.045137     -0.020621
    18   Atom        0.029915     -0.014108     -0.015808
    19   Atom        0.010818     -0.027580      0.016762
 --------------------------------------------------------
                        XY            XZ            YZ
 --------------------------------------------------------
     1   Atom       -0.000056     -0.980145      0.000029
     2   Atom        0.000011      0.042608      0.000002
     3   Atom        0.000017      0.041050      0.000018
     4   Atom       -0.000019     -0.038362     -0.000036
     5   Atom       -0.008907      0.002008     -0.021038
     6   Atom        0.000005     -0.030632      0.000013
     7   Atom        0.015629     -0.017305     -0.005594
     8   Atom        0.000005      0.042608      0.000006
     9   Atom        0.000004      0.010902      0.000026
    10   Atom       -0.000020     -0.038350     -0.000035
    11   Atom       -0.008903      0.002008     -0.021039
    12   Atom        0.000002     -0.030635      0.000016
    13   Atom        0.015628     -0.017307     -0.005594
    14   Atom       -0.015634     -0.017297      0.005591
    15   Atom        0.008894      0.001998      0.020994
    16   Atom        0.000004      0.010903      0.000028
    17   Atom        0.008891      0.001998      0.020995
    18   Atom       -0.015633     -0.017297      0.005590
    19   Atom        0.000018      0.041050      0.000019
 --------------------------------------------------------


 ---------------------------------------------------------------------------------
              Anisotropic Spin Dipole Couplings in Principal Axis System
 ---------------------------------------------------------------------------------

       Atom             a.u.   MegaHertz   Gauss  10(-4) cm-1        Axes

              Baa    -0.8866    26.792     9.560     8.937 -0.0002  1.0000 -0.0005
     1 Cr(53) Bbb    -0.8799    26.591     9.488     8.870  0.4051  0.0005  0.9143
              Bcc     1.7665   -53.383   -19.048   -17.807  0.9143 -0.0000 -0.4051
 
              Baa    -0.0711     5.148     1.837     1.717  0.9171 -0.0001 -0.3986
     2 O(17)  Bbb     0.0257    -1.863    -0.665    -0.622 -0.0000  1.0000 -0.0003
              Bcc     0.0454    -3.285    -1.172    -1.096  0.3986  0.0003  0.9171
 
              Baa    -0.0276   -14.715    -5.251    -4.909 -0.0003  1.0000 -0.0002
     3 H(1)   Bbb    -0.0274   -14.602    -5.210    -4.871  0.7322  0.0001 -0.6811
              Bcc     0.0549    29.318    10.461     9.779  0.6811  0.0003  0.7322
 
              Baa    -0.0741     5.359     1.912     1.787  0.3932  0.0003  0.9194
     4 O(17)  Bbb     0.0320    -2.319    -0.827    -0.773  0.9194  0.0003 -0.3932
              Bcc     0.0420    -3.040    -1.085    -1.014 -0.0004  1.0000 -0.0002
 
              Baa    -0.0270   -14.399    -5.138    -4.803  0.3763  0.3021  0.8759
     5 H(1)   Bbb    -0.0254   -13.530    -4.828    -4.513  0.9190 -0.0015 -0.3942
              Bcc     0.0523    27.929     9.966     9.316 -0.1177  0.9533 -0.2782
 
              Baa    -0.0778     5.633     2.010     1.879 -0.0001  1.0000 -0.0003
     6 O(17)  Bbb    -0.0354     2.562     0.914     0.855  0.2108  0.0003  0.9775
              Bcc     0.1133    -8.195    -2.924    -2.734  0.9775  0.0000 -0.2108
 
              Baa    -0.0217   -11.552    -4.122    -3.853  0.2835  0.1183  0.9516
     7 H(1)   Bbb    -0.0191   -10.187    -3.635    -3.398 -0.3118  0.9498 -0.0252
              Bcc     0.0407    21.739     7.757     7.251  0.9068  0.2896 -0.3062
 
              Baa    -0.0711     5.148     1.837     1.717  0.9171 -0.0000 -0.3986
     8 O(17)  Bbb     0.0257    -1.863    -0.665    -0.622 -0.0001  1.0000 -0.0003
              Bcc     0.0454    -3.285    -1.172    -1.096  0.3986  0.0004  0.9171
 
              Baa    -0.0259   -13.839    -4.938    -4.616  0.9898  0.0001 -0.1427
     9 H(1)   Bbb    -0.0253   -13.495    -4.815    -4.502 -0.0001  1.0000 -0.0003
              Bcc     0.0512    27.334     9.753     9.118  0.1427  0.0003  0.9898
 
              Baa    -0.0741     5.359     1.912     1.787  0.3931  0.0003  0.9195
    10 O(17)  Bbb     0.0320    -2.319    -0.827    -0.773  0.9195  0.0005 -0.3931
              Bcc     0.0420    -3.040    -1.085    -1.014 -0.0006  1.0000 -0.0001
 
              Baa    -0.0270   -14.399    -5.138    -4.803  0.3761  0.3021  0.8760
    11 H(1)   Bbb    -0.0254   -13.530    -4.828    -4.513  0.9191 -0.0015 -0.3941
              Bcc     0.0523    27.929     9.966     9.316 -0.1177  0.9533 -0.2782
 
              Baa    -0.0778     5.633     2.010     1.879 -0.0001  1.0000 -0.0004
    12 O(17)  Bbb    -0.0354     2.562     0.914     0.855  0.2108  0.0004  0.9775
              Bcc     0.1133    -8.195    -2.924    -2.734  0.9775 -0.0000 -0.2108
 
              Baa    -0.0217   -11.552    -4.122    -3.853  0.2835  0.1183  0.9516
    13 H(1)   Bbb    -0.0191   -10.187    -3.635    -3.398 -0.3118  0.9498 -0.0252
              Bcc     0.0407    21.739     7.757     7.251  0.9068  0.2896 -0.3062
 
              Baa    -0.0217   -11.553    -4.122    -3.854  0.2836 -0.1176  0.9517
    14 H(1)   Bbb    -0.0191   -10.187    -3.635    -3.398  0.3117  0.9499  0.0245
              Bcc     0.0407    21.740     7.757     7.252  0.9069 -0.2897 -0.3060
 
              Baa    -0.0270   -14.399    -5.138    -4.803  0.3764 -0.3014  0.8760
    15 H(1)   Bbb    -0.0254   -13.530    -4.828    -4.513  0.9190  0.0015 -0.3944
              Bcc     0.0523    27.929     9.966     9.316  0.1176  0.9535  0.2776
 
              Baa    -0.0259   -13.839    -4.938    -4.616  0.9898 -0.0001 -0.1427
    16 H(1)   Bbb    -0.0253   -13.495    -4.815    -4.502 -0.0000  1.0000 -0.0004
              Bcc     0.0512    27.334     9.753     9.118  0.1427  0.0004  0.9898
 
              Baa    -0.0270   -14.399    -5.138    -4.803  0.3763 -0.3014  0.8761
    17 H(1)   Bbb    -0.0254   -13.530    -4.828    -4.513  0.9190  0.0015 -0.3942
              Bcc     0.0523    27.929     9.966     9.316  0.1175  0.9535  0.2776
 
[...]
    15  H   -0.000046  -0.000002   0.304469  -0.000033   0.000000  -0.000045
    16  H   -0.000001  -0.000001  -0.000033   0.303887   0.000000  -0.000049
    17  H   -0.000002  -0.000045   0.000000   0.000000   0.304469  -0.000002
    18  H    0.000000   0.000000  -0.000045  -0.000049  -0.000002   0.327057
    19  H   -0.000000  -0.000000   0.000000   0.000000  -0.000031  -0.000068
              19
     1  Cr  -0.009434
     2  O   -0.000395
     3  H   -0.000000
     4  O    0.001062
     5  H   -0.000031
     6  O    0.004278
     7  H   -0.000068
     8  O    0.299739
     9  H   -0.016760
    10  O    0.001062
    11  H    0.000000
    12  O    0.000560
    13  H   -0.000000
    14  H   -0.000000
    15  H    0.000000
    16  H    0.000000
    17  H   -0.000031
    18  H   -0.000068
    19  H    0.304659
          Atomic-Atomic Spin Densities.
               1          2          3          4          5          6
     1  Cr   4.244311  -0.027033  -0.002410  -0.033979  -0.000973  -0.071914
     2  O   -0.027033   0.017416   0.001438   0.018483  -0.000389  -0.015945
     3  H   -0.002410   0.001438   0.003428  -0.000424   0.000001   0.000148
     4  O   -0.033979   0.018483  -0.000424   0.036435  -0.000081  -0.020828
     5  H   -0.000973  -0.000389   0.000001  -0.000081   0.002942   0.000524
     6  O   -0.071914  -0.015945   0.000148  -0.020828   0.000524   0.135615
     7  H    0.003888   0.000488  -0.000001   0.000339  -0.000001  -0.007450
     8  O   -0.027033   0.003816  -0.000068   0.018483  -0.000079  -0.016781
     9  H   -0.002252  -0.000063  -0.000000  -0.000453   0.000011   0.000137
    10  O   -0.033979   0.018483  -0.000424   0.005694  -0.000085  -0.020828
    11  H   -0.000973  -0.000079   0.000012  -0.000085   0.000000   0.000508
    12  O   -0.071914  -0.016781   0.001225  -0.020828   0.000508   0.008696
    13  H    0.003888   0.000559  -0.000022   0.001280  -0.000018  -0.000083
    14  H    0.003888   0.000559  -0.000022   0.000339  -0.000001  -0.000083
    15  H   -0.000973  -0.000079   0.000012  -0.000081  -0.000783   0.000508
    16  H   -0.002252   0.001615  -0.001097  -0.000453   0.000001   0.000924
    17  H   -0.000973  -0.000389   0.000001  -0.000085  -0.000000   0.000524
    18  H    0.003888   0.000488  -0.000001   0.001280  -0.000019  -0.007450
    19  H   -0.002410  -0.000068   0.000000  -0.000424   0.000012   0.001225
               7          8          9         10         11         12
     1  Cr   0.003888  -0.027033  -0.002252  -0.033979  -0.000973  -0.071914
     2  O    0.000488   0.003816  -0.000063   0.018483  -0.000079  -0.016781
     3  H   -0.000001  -0.000068  -0.000000  -0.000424   0.000012   0.001225
     4  O    0.000339   0.018483  -0.000453   0.005694  -0.000085  -0.020828
     5  H   -0.000001  -0.000079   0.000011  -0.000085   0.000000   0.000508
     6  O   -0.007450  -0.016781   0.000137  -0.020828   0.000508   0.008696
     7  H    0.004361   0.000559  -0.000001   0.001280  -0.000018  -0.000083
     8  O    0.000559   0.017417   0.001615   0.018483  -0.000389  -0.015945
     9  H   -0.000001   0.001615   0.003170  -0.000453   0.000001   0.000924
    10  O    0.001280   0.018483  -0.000453   0.036435  -0.000081  -0.020828
    11  H   -0.000018  -0.000389   0.000001  -0.000081   0.002942   0.000524
    12  O   -0.000083  -0.015945   0.000924  -0.020828   0.000524   0.135615
    13  H    0.000000   0.000488  -0.000015   0.000339  -0.000001  -0.007450
    14  H    0.000000   0.000488  -0.000015   0.001280  -0.000019  -0.007450
    15  H   -0.000001  -0.000389   0.000001  -0.000085  -0.000000   0.000524
    16  H   -0.000015  -0.000063   0.000000  -0.000453   0.000011   0.000137
    17  H   -0.000019  -0.000079   0.000011  -0.000081  -0.000783   0.000508
    18  H    0.000981   0.000559  -0.000001   0.000339  -0.000001  -0.000083
    19  H   -0.000022   0.001438  -0.001097  -0.000424   0.000001   0.000148
              13         14         15         16         17         18
     1  Cr   0.003888   0.003888  -0.000973  -0.002252  -0.000973   0.003888
     2  O    0.000559   0.000559  -0.000079   0.001615  -0.000389   0.000488
     3  H   -0.000022  -0.000022   0.000012  -0.001097   0.000001  -0.000001
     4  O    0.001280   0.000339  -0.000081  -0.000453  -0.000085   0.001280
     5  H   -0.000018  -0.000001  -0.000783   0.000001  -0.000000  -0.000019
     6  O   -0.000083  -0.000083   0.000508   0.000924   0.000524  -0.007450
     7  H    0.000000   0.000000  -0.000001  -0.000015  -0.000019   0.000981
     8  O    0.000488   0.000488  -0.000389  -0.000063  -0.000079   0.000559
     9  H   -0.000015  -0.000015   0.000001   0.000000   0.000011  -0.000001
    10  O    0.000339   0.001280  -0.000085  -0.000453  -0.000081   0.000339
    11  H   -0.000001  -0.000019  -0.000000   0.000011  -0.000783  -0.000001
    12  O   -0.007450  -0.007450   0.000524   0.000137   0.000508  -0.000083
    13  H    0.004361   0.000981  -0.000019  -0.000001  -0.000001   0.000000
    14  H    0.000981   0.004361  -0.000001  -0.000001  -0.000018   0.000000
    15  H   -0.000019  -0.000001   0.002942   0.000011   0.000000  -0.000018
    16  H   -0.000001  -0.000001   0.000011   0.003170   0.000001  -0.000015
    17  H   -0.000001  -0.000018   0.000000   0.000001   0.002942  -0.000001
    18  H    0.000000   0.000000  -0.000018  -0.000015  -0.000001   0.004361
    19  H   -0.000001  -0.000001   0.000001  -0.000000   0.000012  -0.000022
              19
     1  Cr  -0.002410
     2  O   -0.000068
     3  H    0.000000
     4  O   -0.000424
     5  H    0.000012
     6  O    0.001225
     7  H   -0.000022
     8  O    0.001438
     9  H   -0.001097
    10  O   -0.000424
    11  H    0.000001
    12  O    0.000148
    13  H   -0.000001
    14  H   -0.000001
    15  H    0.000001
    16  H   -0.000000
    17  H    0.000012
    18  H   -0.000022
    19  H    0.003428
 Mulliken charges and spin densities:
               1          2
     1  Cr   1.212864   3.980793
     2  O   -0.694206   0.002519
     3  H    0.415429   0.001797
     4  O   -0.691400   0.004613
     5  H    0.414435   0.001568
     6  O   -0.670579  -0.012551
     7  H    0.394392   0.004285
     8  O   -0.694206   0.002519
     9  H    0.416670   0.001520
    10  O   -0.691400   0.004613
    11  H    0.414435   0.001568
    12  O   -0.670579  -0.012551
    13  H    0.394392   0.004285
    14  H    0.394392   0.004285
    15  H    0.414435   0.001568
    16  H    0.416670   0.001520
    17  H    0.414435   0.001568
    18  H    0.394392   0.004285
    19  H    0.415429   0.001797
 Sum of Mulliken charges =   2.00000   4.00000
 Mulliken charges and spin densities with hydrogens summed into heavy atoms:
               1          2
     1  Cr   1.212864   3.980793
     2  O    0.137892   0.005836
     4  O    0.137470   0.007749
     6  O    0.118206  -0.003982
     8  O    0.137892   0.005836
    10  O    0.137470   0.007749
    12  O    0.118206  -0.003982
 Electronic spatial extent (au):  <R**2>=           1213.5357
 Charge=              2.0000 electrons
 Dipole moment (field-independent basis, Debye):
    X=             -0.0000    Y=              0.0000    Z=             -0.0000  Tot=              0.0000
 Quadrupole moment (field-independent basis, Debye-Ang):
   XX=            -16.4773   YY=            -15.5464   ZZ=            -15.4393
   XY=             -0.0000   XZ=              0.5594   YZ=              0.0000
 Traceless Quadrupole moment (field-independent basis, Debye-Ang):
   XX=             -0.6563   YY=              0.2746   ZZ=              0.3817
   XY=             -0.0000   XZ=              0.5594   YZ=              0.0000
 Octapole moment (field-independent basis, Debye-Ang**2):
  XXX=              0.0000  YYY=              0.0000  ZZZ=             -0.0001  XYY=              0.0000
  XXY=              0.0000  XXZ=              0.0000  XZZ=             -0.0000  YZZ=              0.0000
  YYZ=             -0.0000  XYZ=              0.0000
 Hexadecapole moment (field-independent basis, Debye-Ang**3):
 XXXX=           -161.1754 YYYY=           -113.2964 ZZZZ=           -117.7181 XXXY=              0.0003
 XXXZ=            -27.8688 YYYX=             -0.0003 YYYZ=              0.0001 ZZZX=             24.6117
 ZZZY=             -0.0001 XXYY=           -116.7981 XXZZ=           -119.5878 YYZZ=           -102.1716
 XXYZ=             -0.0000 YYXZ=              0.2876 ZZXY=             -0.0000
 N-N= 6.166042445771D+02 E-N=-4.767855264989D+03  KE= 1.498111736824D+03
                          Isotropic Fermi Contact Couplings
        Atom                 a.u.       MegaHertz       Gauss      10(-4) cm-1
     1  Cr(53)             0.20277     -12.83323      -4.57922      -4.28071
     2  O(17)             -0.00897       1.35936       0.48505       0.45343
     3  H(1)               0.00133       1.48990       0.53163       0.49698
     4  O(17)             -0.00805       1.22069       0.43557       0.40718
     5  H(1)               0.00103       1.15499       0.41213       0.38526
     6  O(17)              0.10538     -15.97096      -5.69884      -5.32734
     7  H(1)               0.00142       1.58244       0.56466       0.52785
     8  O(17)             -0.00897       1.35935       0.48505       0.45343
     9  H(1)               0.00123       1.37454       0.49047       0.45850
    10  O(17)             -0.00805       1.22069       0.43557       0.40718
    11  H(1)               0.00103       1.15499       0.41213       0.38526
    12  O(17)              0.10538     -15.97096      -5.69884      -5.32734
    13  H(1)               0.00142       1.58244       0.56466       0.52785
    14  H(1)               0.00142       1.58244       0.56465       0.52785
    15  H(1)               0.00103       1.15499       0.41213       0.38526
    16  H(1)               0.00123       1.37454       0.49047       0.45850
    17  H(1)               0.00103       1.15499       0.41213       0.38526
    18  H(1)               0.00142       1.58244       0.56465       0.52785
    19  H(1)               0.00133       1.48990       0.53163       0.49698
 --------------------------------------------------------
       Center         ----  Spin Dipole Couplings  ----
                      3XX-RR        3YY-RR        3ZZ-RR
 --------------------------------------------------------
     1   Atom        1.739338     -0.877275     -0.862063
     2   Atom       -0.068963      0.023919      0.045044
     3   Atom       -0.012652     -0.026738      0.039389
     4   Atom        0.027592      0.044722     -0.072314
     5   Atom       -0.025451      0.045526     -0.020075
     6   Atom        0.110212     -0.079909     -0.030303
     7   Atom        0.036918     -0.014934     -0.021984
     8   Atom       -0.068963      0.023919      0.045044
     9   Atom       -0.024439     -0.026233      0.050672
    10   Atom        0.027592      0.044722     -0.072314
    11   Atom       -0.025451      0.045526     -0.020075
    12   Atom        0.110212     -0.079909     -0.030302
    13   Atom        0.036918     -0.014934     -0.021984
    14   Atom        0.036918     -0.014934     -0.021984
    15   Atom       -0.025451      0.045526     -0.020075
    16   Atom       -0.024439     -0.026233      0.050672
    17   Atom       -0.025451      0.045526     -0.020075
    18   Atom        0.036918     -0.014934     -0.021984
    19   Atom       -0.012652     -0.026738      0.039389
 --------------------------------------------------------
                        XY            XZ            YZ
 --------------------------------------------------------
     1   Atom        0.000004     -0.338223     -0.000000
     2   Atom       -0.000000      0.014637     -0.000000
     3   Atom       -0.000000      0.030805     -0.000000
     4   Atom       -0.000000     -0.012737      0.000000
     5   Atom       -0.002824      0.000679     -0.022642
     6   Atom        0.000000     -0.011426     -0.000000
     7   Atom        0.017401     -0.006334     -0.001915
     8   Atom       -0.000000      0.014637      0.000000
     9   Atom        0.000000     -0.013040     -0.000000
    10   Atom       -0.000000     -0.012737      0.000000
    11   Atom       -0.002824      0.000679     -0.022642
    12   Atom        0.000000     -0.011426     -0.000000
    13   Atom        0.017401     -0.006334     -0.001915
    14   Atom       -0.017401     -0.006334      0.001915
    15   Atom        0.002823      0.000679      0.022642
    16   Atom        0.000000     -0.013040     -0.000000
    17   Atom        0.002823      0.000679      0.022642
    18   Atom       -0.017401     -0.006334      0.001915
    19   Atom        0.000000      0.030805      0.000000
 --------------------------------------------------------


 ---------------------------------------------------------------------------------
              Anisotropic Spin Dipole Couplings in Principal Axis System
 ---------------------------------------------------------------------------------

       Atom             a.u.   MegaHertz   Gauss  10(-4) cm-1        Axes

              Baa    -0.9053    27.358     9.762     9.126  0.1269 -0.0000  0.9919
     1 Cr(53) Bbb    -0.8773    26.510     9.460     8.843 -0.0000  1.0000  0.0000
              Bcc     1.7826   -53.868   -19.222   -17.969  0.9919  0.0000 -0.1269
 
              Baa    -0.0708     5.124     1.828     1.709  0.9921  0.0000 -0.1253
     2 O(17)  Bbb     0.0239    -1.731    -0.618    -0.577 -0.0000  1.0000  0.0000
              Bcc     0.0469    -3.393    -1.211    -1.132  0.1253 -0.0000  0.9921
 
              Baa    -0.0270   -14.382    -5.132    -4.797  0.9070  0.0000 -0.4211
     3 H(1)   Bbb    -0.0267   -14.266    -5.090    -4.759 -0.0000  1.0000  0.0000
              Bcc     0.0537    28.648    10.222     9.556  0.4211 -0.0000  0.9070
 
              Baa    -0.0739     5.348     1.908     1.784  0.1245 -0.0000  0.9922
     4 O(17)  Bbb     0.0292    -2.112    -0.754    -0.705  0.9922  0.0000 -0.1245
              Bcc     0.0447    -3.236    -1.155    -1.079 -0.0000  1.0000  0.0000
 
              Baa    -0.0272   -14.488    -5.170    -4.833  0.1191  0.2995  0.9466
     5 H(1)   Bbb    -0.0255   -13.625    -4.862    -4.545  0.9922 -0.0003 -0.1247
              Bcc     0.0527    28.113    10.031     9.377 -0.0371  0.9541 -0.2972
 
              Baa    -0.0799     5.782     2.063     1.929 -0.0000  1.0000  0.0000
     6 O(17)  Bbb    -0.0312     2.259     0.806     0.754  0.0805 -0.0000  0.9968
              Bcc     0.1111    -8.042    -2.869    -2.682  0.9968  0.0000 -0.0805
 
              Baa    -0.0227   -12.090    -4.314    -4.033  0.0986  0.0246  0.9948
     7 H(1)   Bbb    -0.0202   -10.795    -3.852    -3.601 -0.2907  0.9568  0.0052
              Bcc     0.0429    22.885     8.166     7.634  0.9517  0.2898 -0.1015
 
              Baa    -0.0708     5.124     1.828     1.709  0.9921  0.0000 -0.1253
     8 O(17)  Bbb     0.0239    -1.731    -0.618    -0.577 -0.0000  1.0000  0.0000
              Bcc     0.0469    -3.393    -1.211    -1.132  0.1253 -0.0000  0.9921
 
              Baa    -0.0266   -14.213    -5.072    -4.741  0.9861  0.0000  0.1663
     9 H(1)   Bbb    -0.0262   -13.997    -4.994    -4.669 -0.0000  1.0000  0.0000
              Bcc     0.0529    28.210    10.066     9.410 -0.1663 -0.0000  0.9861
 
              Baa    -0.0739     5.348     1.908     1.784  0.1245 -0.0000  0.9922
    10 O(17)  Bbb     0.0292    -2.112    -0.754    -0.705  0.9922  0.0000 -0.1245
              Bcc     0.0447    -3.236    -1.155    -1.079 -0.0000  1.0000  0.0000
 
              Baa    -0.0272   -14.488    -5.170    -4.833  0.1191  0.2995  0.9466
    11 H(1)   Bbb    -0.0255   -13.625    -4.862    -4.545  0.9922 -0.0003 -0.1247
              Bcc     0.0527    28.113    10.031     9.377 -0.0371  0.9541 -0.2972
 
              Baa    -0.0799     5.782     2.063     1.929 -0.0000  1.0000 -0.0000
    12 O(17)  Bbb    -0.0312     2.259     0.806     0.754  0.0805  0.0000  0.9968
              Bcc     0.1111    -8.042    -2.869    -2.682  0.9968  0.0000 -0.0805
 
              Baa    -0.0227   -12.090    -4.314    -4.033  0.0986  0.0246  0.9948
    13 H(1)   Bbb    -0.0202   -10.795    -3.852    -3.601 -0.2907  0.9568  0.0052
              Bcc     0.0429    22.885     8.166     7.634  0.9517  0.2898 -0.1015
 
              Baa    -0.0227   -12.090    -4.314    -4.033  0.0986 -0.0246  0.9948
    14 H(1)   Bbb    -0.0202   -10.795    -3.852    -3.601  0.2907  0.9568 -0.0052
              Bcc     0.0429    22.885     8.166     7.634  0.9517 -0.2898 -0.1015
 
              Baa    -0.0272   -14.488    -5.170    -4.833  0.1191 -0.2995  0.9466
    15 H(1)   Bbb    -0.0255   -13.625    -4.862    -4.545  0.9922  0.0003 -0.1247
              Bcc     0.0527    28.113    10.031     9.377  0.0371  0.9541  0.2972
 
              Baa    -0.0266   -14.213    -5.072    -4.741  0.9861  0.0000  0.1663
    16 H(1)   Bbb    -0.0262   -13.997    -4.994    -4.669 -0.0000  1.0000  0.0000
              Bcc     0.0529    28.210    10.066     9.410 -0.1663 -0.0000  0.9861
 
              Baa    -0.0272   -14.488    -5.170    -4.833  0.1191 -0.2995  0.9466
    17 H(1)   Bbb    -0.0255   -13.625    -4.862    -4.545  0.9922  0.0003 -0.1247
              Bcc     0.0527    28.113    10.031     9.377  0.0371  0.9541  0.2972
 
              Baa    -0.0227   -12.090    -4.314    -4.033  0.0986 -0.0246  0.9948
    18 H(1)   Bbb    -0.0202   -10.795    -3.852    -3.601  0.2907  0.9568 -0.0052
              Bcc     0.0429    22.885     8.166     7.634  0.9517 -0.2898 -0.1015
 
              Baa    -0.0270   -14.382    -5.132    -4.797  0.9070  0.0000 -0.4211
    19 H(1)   Bbb    -0.0267   -14.266    -5.090    -4.759 -0.0000  1.0000  0.0000
              Bcc     0.0537    28.648    10.222     9.556  0.4211  0.0000  0.9070
 

 ---------------------------------------------------------------------------------

 No NMR shielding tensors so no spin-rotation constants.
 Leave Link  601 at Sat May 25 13:09:46 2024, MaxMem= 26843545600 cpu:              29.2 elap:               0.3
 (Enter /gpfs/fs1/soft/improv/software/custom-built/gaussian/g16/l9999.exe)
 Unable to Open any file for archive entry.
 1\1\GINC-I736\SP\UB3LYP\Gen\Cr1H12O6(2+,5)\HHARB\25-May-2024\0\\#p B3L
 YP empiricaldispersion=gd3 scf=(maxcycles=500,xqc,maxconventional=50) 
 scrf=(cpcm,solvent=water) geom=allcheck guess=read chkbasis\\Title\\2,
 5\Cr,-0.7848168153,0.7129520314,0.0317918271\O,-1.3470078956,2.6979808
 404,-0.3097857141\H,-1.4574556271,3.1026320592,-1.1824243639\O,1.23044
 90659,1.2855015571,0.0422221249\H,1.9896386795,0.6992332047,0.16785623
 09\O,-0.8826278184,1.0142665096,2.3902305469\H,-1.6536618767,0.8990882
 07,2.9634999266\O,-0.2226257006,-1.2720767512,0.3733691264\H,-0.028570
 3699,-1.9428999199,-0.2971096691\O,-2.8000827634,0.1404027141,0.021361
 5361\H,-3.5592724031,0.7266713583,-0.1042710066\O,-0.6870050656,0.4116
 344062,-2.326646411\H,0.0840292076,0.5268118179,-2.8999157091\H,-1.397
 8963542,0.1057889707,-2.9075848546\H,1.5691659087,2.1836918318,-0.0777
 299782\H,-1.5410627344,3.3688043535,0.3606929205\H,-3.1387996181,-0.75
 77877382,0.1413122336\H,-0.1717367545,1.3201125914,2.971168955\H,-0.11
 21786349,-1.6767282737,1.2460076884\\Version=ES64L-G16RevC.02\State=5-
 A\HF=-1502.9147262\S2=6.004073\S2-1=0.\S2A=6.000005\RMSD=5.287e-09\Dip
 ole=-0.0000004,0.000001,-0.0000002\Quadrupole=0.2067506,0.2517454,-0.4
 58496,-0.0113228,0.1237995,-0.4236669\PG=C01 [X(Cr1H12O6)]\\@
 The archive entry for this job was punched.


 TIME IS NATURE'S WAY OF MAKING SURE EVERYTHING
 DOESN'T HAPPEN AT ONCE.
                     - WOODY ALLEN
 Job cpu time:       0 days  0 hours 53 minutes  8.8 seconds.
 Elapsed time:       0 days  0 hours  0 minutes 29.0 seconds.
 File lengths (MBytes):  RWF=    124 Int=      0 D2E=      0 Chk=     32 Scr=      1
 Normal termination of Gaussian 16 at Sat May 25 13:09:46 2024.
