 Entering Gaussian System, Link 0=g16
 Input=Cr_2_BLYP.com
 Output=Cr_2_BLYP.log
 Initial command:
 /gpfs/fs1/soft/improv/software/custom-built/gaussian/g16/l1.exe "/scratch/Gau-188798.inp" -scrdir="/scratch/"
 Default CPUs for threads: 0-127
 Default linda workers: i255.lcrc.anl.gov
 Default is to use 128 SMP processors on each worker.
 Entering Link 1 = /gpfs/fs1/soft/improv/software/custom-built/gaussian/g16/l1.exe PID=    188799.
  
 Copyright (c) 1988-2021, Gaussian, Inc.  All Rights Reserved.
  
 This is part of the Gaussian(R) 16 program.  It is based on
 the Gaussian(R) 09 system (copyright 2009, Gaussian, Inc.),
 the Gaussian(R) 03 system (copyright 2003, Gaussian, Inc.),
 the Gaussian(R) 98 system (copyright 1998, Gaussian, Inc.),
 the Gaussian(R) 94 system (copyright 1995, Gaussian, Inc.),
 the Gaussian 92(TM) system (copyright 1992, Gaussian, Inc.),
 the Gaussian 90(TM) system (copyright 1990, Gaussian, Inc.),
 the Gaussian 88(TM) system (copyright 1988, Gaussian, Inc.),
 the Gaussian 86(TM) system (copyright 1986, Carnegie Mellon
 University), and the Gaussian 82(TM) system (copyright 1983,
 Carnegie Mellon University). Gaussian is a federally registered
 trademark of Gaussian, Inc.
  
 This software contains proprietary and confidential information,
 including trade secrets, belonging to Gaussian, Inc.
  
 This software is provided under written license and may be
 used, copied, transmitted, or stored only in accord with that
 written license.
  
 The following legend is applicable only to US Government
 contracts under FAR:
  
                    RESTRICTED RIGHTS LEGEND
  
 Use, reproduction and disclosure by the US Government is
 subject to restrictions as set forth in subparagraphs (a)
 and (c) of the Commercial Computer Software - Restricted
 Rights clause in FAR 52.227-19.
  
 Gaussian, Inc.
 340 Quinnipiac St., Bldg. 40, Wallingford CT 06492
  
  
 ---------------------------------------------------------------
 Warning -- This program may not be used in any manner that
 competes with the business of Gaussian, Inc. or will provide
 assistance to any competitor of Gaussian, Inc.  The licensee
 of this program is prohibited from giving any competitor of
 Gaussian, Inc. access to this program.  By using this program,
 the user acknowledges that Gaussian, Inc. is engaged in the
 business of creating and licensing software in the field of
 computational chemistry and represents and warrants to the
 licensee that it is not a competitor of Gaussian, Inc. and that
 it will not use this program in any manner prohibited above.
 ---------------------------------------------------------------
  

 Cite this work as:
 Gaussian 16, Revision C.02,
 M. J. Frisch, G. W. Trucks, H. B. Schlegel, G. E. Scuseria, 
 M. A. Robb, J. R. Cheeseman, G. Scalmani, V. Barone, 
 G. A. Petersson, H. Nakatsuji, X. Li, M. Caricato, A. V. Marenich, 
 J. Bloino, B. G. Janesko, R. Gomperts, B. Mennucci, H. P. Hratchian, 
 J. V. Ortiz, A. F. Izmaylov, J. L. Sonnenberg, D. Williams-Young, 
 F. Ding, F. Lipparini, F. Egidi, J. Goings, B. Peng, A. Petrone, 
 T. Henderson, D. Ranasinghe, V. G. Zakrzewski, J. Gao, N. Rega, 
 G. Zheng, W. Liang, M. Hada, M. Ehara, K. Toyota, R. Fukuda, 
 J. Hasegawa, M. Ishida, T. Nakajima, Y. Honda, O. Kitao, H. Nakai, 
 T. Vreven, K. Throssell, J. A. Montgomery, Jr., J. E. Peralta, 
 F. Ogliaro, M. J. Bearpark, J. J. Heyd, E. N. Brothers, K. N. Kudin, 
 V. N. Staroverov, T. A. Keith, R. Kobayashi, J. Normand, 
 K. Raghavachari, A. P. Rendell, J. C. Burant, S. S. Iyengar, 
 J. Tomasi, M. Cossi, J. M. Millam, M. Klene, C. Adamo, R. Cammi, 
 J. W. Ochterski, R. L. Martin, K. Morokuma, O. Farkas, 
 J. B. Foresman, and D. J. Fox, Gaussian, Inc., Wallingford CT, 2019.
 
 ******************************************
 Gaussian 16:  ES64L-G16RevC.02  7-Dec-2021
                23-May-2024 
 ******************************************
 %chk=Cr_2_BLYP.chk
 SetSPE:  set environment variable "OMP_PROC_BIND" = "true"
 SetSPE:  set environment variable "OMP_PLACES" = "{0},{1},{2},{3},{4},{5},{6},{7},{8},{9},{10},{11},{12},{13},{14},{15},{16},{17},{18},{19},{20},{21},{22},{23},{24},{25},{26},{27},{28},{29},{30},{31},{32},{33},{34},{35},{36},{37},{38},{39},{40},{41},{42},{43},{44},{45},{46},{47},{48},{49},{50},{51},{52},{53},{54},{55},{56},{57},{58},{59},{60},{61},{62},{63},{64},{65},{66},{67},{68},{69},{70},{71},{72},{73},{74},{75},{76},{77},{78},{79},{80},{81},{82},{83},{84},{85},{86},{87},{88},{89},{90},{91},{92},{93},{94},{95},{96},{97},{98},{99},{100},{101},{102},{103},{104},{105},{106},{107},{108},{109},{110},{111},{112},{113},{114},{115},{116},{117},{118},{119},{120},{121},{122},{123},{124},{125},{126},{127}"
 SetLPE:    new flags="-opt 'Tsnet.Node.lindarsharg: ssh'  -nodelist 'i255.lcrc.anl.gov' -env GAUSS_MDEF=26843545600 -env GAUSS_EXEDIR="/gpfs/fs1/soft/improv/software/custom-built/gaussian/g16/bsd:/gpfs/fs1/soft/improv/software/custom-built/gaussian/g16" -env "OMP_PROC_BIND=true" -env "OMP_PLACES={0},{1},{2},{3},{4},{5},{6},{7},{8},{9},{10},{11},{12},{13},{14},{15},{16},{17},{18},{19},{20},{21},{22},{23},{24},{25},{26},{27},{28},{29},{30},{31},{32},{33},{34},{35},{36},{37},{38},{39},{40},{41},{42},{43},{44},{45},{46},{47},{48},{49},{50},{51},{52},{53},{54},{55},{56},{57},{58},{59},{60},{61},{62},{63},{64},{65},{66},{67},{68},{69},{70},{71},{72},{73},{74},{75},{76},{77},{78},{79},{80},{81},{82},{83},{84},{85},{86},{87},{88},{89},{90},{91},{92},{93},{94},{95},{96},{97},{98},{99},{100},{101},{102},{103},{104},{105},{106},{107},{108},{109},{110},{111},{112},{113},{114},{115},{116},{117},{118},{119},{120},{121},{122},{123},{124},{125},{126},{127}" -env GAUSS_ADEF="0,1,2,3,4,5,6,7,8,9,10,11,12,13,14,15,16,17,18,19,20,21,22,23,24,25,26,27,28,29,30,31,32,33,34,35,36,37,38,39,40,41,42,43,44,45,46,47,48,49,50,51,52,53,54,55,56,57,58,59,60,61,62,63,64,65,66,67,68,69,70,71,72,73,74,75,76,77,78,79,80,81,82,83,84,85,86,87,88,89,90,91,92,93,94,95,96,97,98,99,100,101,102,103,104,105,106,107,108,109,110,111,112,113,114,115,116,117,118,119,120,121,122,123,124,125,126,127""
 Will use up to    1 processors via Linda.
 ----------------------------------------------------------------------
 #p BLYP empiricaldispersion=gd3 6-31+G(2df,p) opt=(cartesian,calcall,m
 axcycles=500) freq scf=(maxcycles=500,xqc,maxconventional=50)
 ----------------------------------------------------------------------
 1/6=500,10=4,18=10,26=3,38=1/1,3;
 2/12=2,17=6,18=5,29=2,40=1/2;
 3/5=1,6=6,7=114,11=2,25=1,30=1,71=2,74=402,124=31,140=1/1,2,3;
 4//1;
 5/5=2,7=500,8=3,13=1,38=5,85=50/2,8;
 8/6=4,10=90,11=11/1;
 11/6=1,8=1,9=11,15=111,16=1/1,2,10;
 10/6=1/2;
 6/7=2,8=2,9=2,10=2,18=1,28=1/1;
 7/7=1,10=1,25=1/1,2,3,16;
 1/6=500,10=4,18=10,26=3/3(3);
 2/29=1/2;
 7/7=1,8=1,9=1,25=1,44=-1/16;
 99/12=1/99;
 2/29=1/2;
 3/5=1,6=6,7=114,11=2,25=1,30=1,71=2,74=402,124=31,140=1/1,2,3;
 4/5=5,16=3,69=1/1;
 5/5=2,7=500,8=3,13=1,38=5,85=50/2,8;
 8/6=4,10=90,11=11/1;
 11/6=1,8=1,9=11,15=111,16=1/1,2,10;
 10/6=1/2;
 7/7=1,10=1,25=1/1,2,3,16;
 1/6=500,10=4,18=10,26=3/3(-8);
 2/29=1/2;
 6/7=2,8=2,9=2,10=2,18=1,19=2,28=1/1;
 7/7=1,8=1,9=1,25=1,44=-1/16;
 99/12=1/99;
 Leave Link    1 at Thu May 23 12:33:04 2024, MaxMem=           0 cpu:               3.0 elap:               0.1
 (Enter /gpfs/fs1/soft/improv/software/custom-built/gaussian/g16/l101.exe)
 -----
 Title
 -----
 Symbolic Z-matrix:
 Charge =  2 Multiplicity = 5
 Cr                   -0.79304   0.81881  -0.09491 
 O                    -1.20497   2.57394  -0.35687 
 H                    -2.12106   2.64974  -0.63312 
 O                     0.99012   1.19063  -0.05794 
 H                     1.42696   0.5998    0.55971 
 O                    -0.81752   1.03069   1.71365 
 H                    -1.02108   0.1906    2.13133 
 O                    -0.38507  -0.93351   0.17118 
 H                    -1.15682  -1.47369  -0.01433 
 O                    -2.57341   0.45178  -0.12186 
 H                    -2.77756  -0.08744  -0.88929 
 O                    -0.76966   0.60461  -1.90111 
 H                     0.09872   0.83457  -2.23949 
 H                    -0.96534  -0.30999  -2.11742 
 H                     1.12208   2.09943   0.22124 
 H                    -1.07671   3.0584    0.46184 
 H                    -2.81407  -0.02398   0.6765 
 H                     0.0422    1.33615   2.01181 
 H                    -0.11532  -1.06446   1.08312 
 
 ITRead=  0  0  0  0  0  0  0  0  0  0  0  0  0  0  0  0  0  0  0
 MicOpt= -1 -1 -1 -1 -1 -1 -1 -1 -1 -1 -1 -1 -1 -1 -1 -1 -1 -1 -1
 NAtoms=     19 NQM=       19 NQMF=       0 NMMI=      0 NMMIF=      0
                NMic=       0 NMicF=      0.
                    Isotopes and Nuclear Properties:
 (Nuclear quadrupole moments (NQMom) in fm**2, nuclear magnetic moments (NMagM)
  in nuclear magnetons)

  Atom         1           2           3           4           5           6           7           8           9          10
 IAtWgt=          52          16           1          16           1          16           1          16           1          16
 AtmWgt=  51.9405097  15.9949146   1.0078250  15.9949146   1.0078250  15.9949146   1.0078250  15.9949146   1.0078250  15.9949146
 NucSpn=           0           0           1           0           1           0           1           0           1           0
 AtZEff=  -0.0000000  -0.0000000  -0.0000000  -0.0000000  -0.0000000  -0.0000000  -0.0000000  -0.0000000  -0.0000000  -0.0000000
 NQMom=    0.0000000   0.0000000   0.0000000   0.0000000   0.0000000   0.0000000   0.0000000   0.0000000   0.0000000   0.0000000
 NMagM=    0.0000000   0.0000000   2.7928460   0.0000000   2.7928460   0.0000000   2.7928460   0.0000000   2.7928460   0.0000000
 AtZNuc=  24.0000000   8.0000000   1.0000000   8.0000000   1.0000000   8.0000000   1.0000000   8.0000000   1.0000000   8.0000000

  Atom        11          12          13          14          15          16          17          18          19
 IAtWgt=           1          16           1           1           1           1           1           1           1
 AtmWgt=   1.0078250  15.9949146   1.0078250   1.0078250   1.0078250   1.0078250   1.0078250   1.0078250   1.0078250
 NucSpn=           1           0           1           1           1           1           1           1           1
 AtZEff=  -0.0000000  -0.0000000  -0.0000000  -0.0000000  -0.0000000  -0.0000000  -0.0000000  -0.0000000  -0.0000000
 NQMom=    0.0000000   0.0000000   0.0000000   0.0000000   0.0000000   0.0000000   0.0000000   0.0000000   0.0000000
 NMagM=    2.7928460   0.0000000   2.7928460   2.7928460   2.7928460   2.7928460   2.7928460   2.7928460   2.7928460
 AtZNuc=   1.0000000   8.0000000   1.0000000   1.0000000   1.0000000   1.0000000   1.0000000   1.0000000   1.0000000
 Leave Link  101 at Thu May 23 12:33:04 2024, MaxMem= 26843545600 cpu:               0.4 elap:               0.0
 (Enter /gpfs/fs1/soft/improv/software/custom-built/gaussian/g16/l103.exe)

 GradGradGradGradGradGradGradGradGradGradGradGradGradGradGradGradGradGrad
 Berny optimization.
 Initialization pass.
 No Z-matrix variables, so optimization will use Cartesian coordinates.
 Trust Radius=3.00D-01 FncErr=1.00D-07 GrdErr=1.00D-06 EigMax=2.50D+02 EigMin=1.00D-04
 Number of steps in this run=    114 maximum allowed number of steps=    114.
 GradGradGradGradGradGradGradGradGradGradGradGradGradGradGradGradGradGrad

 Leave Link  103 at Thu May 23 12:33:04 2024, MaxMem= 26843545600 cpu:               0.4 elap:               0.0
 (Enter /gpfs/fs1/soft/improv/software/custom-built/gaussian/g16/l202.exe)
 ---------------------------------------------------------------------------------------------------
                            Z-MATRIX (ANGSTROMS AND DEGREES)
   CD    Cent   Atom    N1       Length/X        N2       Alpha/Y        N3        Beta/Z          J
 ---------------------------------------------------------------------------------------------------
      1      1  Cr       0  -0.793037          0.818805         -0.094905
      2      2  O        0  -1.204971          2.573941         -0.356874
      3      3  H        0  -2.121063          2.649743         -0.633122
      4      4  O        0   0.990122          1.190635         -0.057941
      5      5  H        0   1.426962          0.599798          0.559707
      6      6  O        0  -0.817519          1.030691          1.713650
      7      7  H        0  -1.021079          0.190602          2.131326
      8      8  O        0  -0.385068         -0.933506          0.171177
      9      9  H        0  -1.156817         -1.473692         -0.014327
     10     10  O        0  -2.573405          0.451778         -0.121857
     11     11  H        0  -2.777557         -0.087440         -0.889285
     12     12  O        0  -0.769659          0.604612         -1.901109
     13     13  H        0   0.098725          0.834573         -2.239490
     14     14  H        0  -0.965336         -0.309994         -2.117418
     15     15  H        0   1.122081          2.099426          0.221242
     16     16  H        0  -1.076711          3.058396          0.461841
     17     17  H        0  -2.814074         -0.023981          0.676500
     18     18  H        0   0.042204          1.336153          2.011809
     19     19  H        0  -0.115315         -1.064459          1.083123
 ---------------------------------------------------------------------------------------------------
                         Z-Matrix orientation:                         
 ---------------------------------------------------------------------
 Center     Atomic      Atomic             Coordinates (Angstroms)
 Number     Number       Type             X           Y           Z
 ---------------------------------------------------------------------
      1         24           0       -0.793037    0.818805   -0.094905
      2          8           0       -1.204971    2.573941   -0.356874
      3          1           0       -2.121063    2.649743   -0.633122
      4          8           0        0.990122    1.190635   -0.057941
      5          1           0        1.426962    0.599798    0.559707
      6          8           0       -0.817519    1.030691    1.713650
      7          1           0       -1.021079    0.190602    2.131326
      8          8           0       -0.385068   -0.933506    0.171177
      9          1           0       -1.156817   -1.473692   -0.014327
     10          8           0       -2.573405    0.451778   -0.121857
     11          1           0       -2.777557   -0.087440   -0.889285
     12          8           0       -0.769659    0.604612   -1.901109
     13          1           0        0.098725    0.834573   -2.239490
     14          1           0       -0.965336   -0.309994   -2.117418
     15          1           0        1.122081    2.099426    0.221242
     16          1           0       -1.076711    3.058396    0.461841
     17          1           0       -2.814074   -0.023981    0.676500
     18          1           0        0.042204    1.336153    2.011809
     19          1           0       -0.115315   -1.064459    1.083123
 ---------------------------------------------------------------------
                    Distance matrix (angstroms):
                    1          2          3          4          5
     1  Cr   0.000000
     2  O    1.821762   0.000000
     3  H    2.325008   0.959835   0.000000
     4  O    1.821889   2.611767   3.484150   0.000000
     5  H    2.324839   3.415322   4.267739   0.959899   0.000000
     6  O    1.821090   2.611285   3.134947   2.536076   2.560263
     7  H    2.324381   3.450400   3.859988   3.136540   2.937743
     8  O    1.818745   3.640503   4.062050   2.540791   2.405292
     9  H    2.322579   4.062387   4.279649   3.421971   3.362259
    10  O    1.818006   2.536025   2.301533   3.639880   4.060711
    11  H    2.321775   3.136788   2.826442   4.064482   4.499984
    12  O    1.819010   2.540161   2.759827   2.614866   3.298603
    13  H    2.322657   2.875634   3.286750   2.383386   3.107223
    14  H    2.322591   3.387332   3.506977   3.212032   3.703756
    15  H    2.325429   2.444290   3.398642   0.959822   1.567289
    16  H    2.325125   0.959918   1.567358   2.833814   3.510364
    17  H    2.321626   3.225876   3.056824   4.060370   4.288255
    18  H    2.324547   2.949275   3.660724   2.281137   2.137375
    19  H    2.322443   4.061883   4.556733   2.758526   2.328591
                    6          7          8          9         10
     6  O    0.000000
     7  H    0.960021   0.000000
     8  O    2.534622   2.347406   0.000000
     9  H    3.061530   2.718847   0.960108   0.000000
    10  O    2.605257   2.748593   2.606473   2.392848   0.000000
    11  H    3.444886   3.505227   2.750347   2.305222   0.959885
    12  O    3.640099   4.061422   2.609231   2.833582   2.538227
    13  H    4.062670   4.557707   3.028445   3.443229   3.430916
    14  H    4.061572   4.278496   2.441955   2.411193   2.673658
    15  H    2.670492   3.447487   3.387136   4.244531   4.060675
    16  H    2.397039   3.318813   4.061790   4.557738   3.061904
    17  H    2.484803   2.318921   2.642472   2.307685   0.960023
    18  H    0.959858   1.567527   2.953276   3.665802   3.489421
    19  H    2.297892   1.869309   0.959980   1.567353   3.129403
                   11         12         13         14         15
    11  H    0.000000
    12  O    2.352526   0.000000
    13  H    3.308498   0.959935   0.000000
    14  H    2.200452   0.959991   1.567533   0.000000
    15  H    4.606825   3.212091   2.949969   3.953725   0.000000
    16  H    3.822919   3.420362   3.691102   4.243941   2.410850
    17  H    1.567497   3.349453   4.210050   3.362383   4.495491
    18  H    4.288824   4.062660   4.281159   4.558009   2.225950
    19  H    3.454344   3.481323   3.833001   3.396353   3.504877
                   16         17         18         19
    16  H    0.000000
    17  H    3.544793   0.000000
    18  H    2.573032   3.433851   0.000000
    19  H    4.278809   2.920828   2.578800   0.000000
 Stoichiometry    CrH12O6(2+,5)
 Framework group  C1[X(CrH12O6)]
 Deg. of freedom    51
 Full point group                 C1      NOp   1
 Largest Abelian subgroup         C1      NOp   1
 Largest concise Abelian subgroup C1      NOp   1
                         Standard orientation:                         
 ---------------------------------------------------------------------
 Center     Atomic      Atomic             Coordinates (Angstroms)
 Number     Number       Type             X           Y           Z
 ---------------------------------------------------------------------
      1         24           0       -0.020685   -0.030482    0.009994
      2          8           0       -0.320844   -1.688023   -0.683750
      3          1           0       -1.137089   -1.680465   -1.188697
      4          8           0        1.254521   -0.678417    1.138405
      5          1           0        1.943144   -0.019792    1.254236
      6          8           0        1.297903    0.293995   -1.203435
      7          1           0        1.381609    1.240665   -1.339268
      8          8           0        0.280044    1.626266    0.697440
      9          1           0       -0.431883    2.215255    0.436555
     10          8           0       -1.286249    0.615324   -1.124214
     11          1           0       -2.035220    0.938006   -0.617955
     12          8           0       -1.338537   -0.351919    1.221911
     13          1           0       -0.971839   -0.815948    1.978009
     14          1           0       -1.717555    0.481353    1.511023
     15          1           0        1.635363   -1.477123    0.766536
     16          1           0        0.408500   -1.931252   -1.258500
     17          1           0       -0.915691    1.334609   -1.640895
     18          1           0        2.128750   -0.056695   -0.874745
     19          1           0        1.113633    1.965130    0.362982
 ---------------------------------------------------------------------
 Rotational constants (GHZ):           2.0397002           1.9739464           1.9252837
 Leave Link  202 at Thu May 23 12:33:04 2024, MaxMem= 26843545600 cpu:               0.5 elap:               0.1
 (Enter /gpfs/fs1/soft/improv/software/custom-built/gaussian/g16/l301.exe)
 Standard basis: 6-31+G(2df,p) (6D, 7F)
 Ernie: Thresh=  0.10000D-02 Tol=  0.10000D-05 Strict=F.
 There are   347 symmetry adapted cartesian basis functions of A   symmetry.
 There are   317 symmetry adapted basis functions of A   symmetry.
   317 basis functions,   514 primitive gaussians,   347 cartesian basis functions
    43 alpha electrons       39 beta electrons
       nuclear repulsion energy       734.4111157916 Hartrees.
 IExCor=  402 DFT=T Ex=B Corr=LYP ExCW=0 ScaHFX=  0.000000
 ScaDFX=  1.000000  1.000000  1.000000  1.000000 ScalE2=  1.000000  1.000000
 IRadAn=      5 IRanWt=     -1 IRanGd=            0 ICorTp=0 IEmpDi=131
 NAtoms=   19 NActive=   19 NUniq=   19 SFac= 1.00D+00 NAtFMM=   60 NAOKFM=F Big=F
 Integral buffers will be    131072 words long.
 Raffenetti 2 integral format.
 Two-electron integral symmetry is turned on.
 R6Disp:  Grimme-D3 Dispersion energy=       -0.0235646312 Hartrees.
 Nuclear repulsion after empirical dispersion term =      734.3875511604 Hartrees.
 Leave Link  301 at Thu May 23 12:33:04 2024, MaxMem= 26843545600 cpu:               0.4 elap:               0.0
 (Enter /gpfs/fs1/soft/improv/software/custom-built/gaussian/g16/l302.exe)
 NPDir=0 NMtPBC=     1 NCelOv=     1 NCel=       1 NClECP=     1 NCelD=      1
         NCelK=      1 NCelE2=     1 NClLst=     1 CellRange=     0.0.
 One-electron integrals computed using PRISM.
 One-electron integral symmetry used in STVInt
 NBasis=   317 RedAO= T EigKep=  2.57D-05  NBF=   317
 NBsUse=   317 1.00D-06 EigRej= -1.00D+00 NBFU=   317
 Precomputing XC quadrature grid using
 IXCGrd= 4 IRadAn=           5 IRanWt=          -1 IRanGd=           0 AccXCQ= 0.00D+00.
 Generated NRdTot=       0 NPtTot=           0 NUsed=           0 NTot=          32
 NSgBfM=   347   346   347   347   347 MxSgAt=    19 MxSgA2=    19.
 Leave Link  302 at Thu May 23 12:33:05 2024, MaxMem= 26843545600 cpu:              22.0 elap:               0.3
 (Enter /gpfs/fs1/soft/improv/software/custom-built/gaussian/g16/l303.exe)
 DipDrv:  MaxL=1.
 Leave Link  303 at Thu May 23 12:33:05 2024, MaxMem= 26843545600 cpu:               1.0 elap:               0.0
 (Enter /gpfs/fs1/soft/improv/software/custom-built/gaussian/g16/l401.exe)
 ExpMin= 1.13D-02 ExpMax= 5.18D+04 ExpMxC= 7.78D+03 IAcc=3 IRadAn=         5 AccDes= 0.00D+00
 Harris functional with IExCor=  402 and IRadAn=       5 diagonalized for initial guess.
 HarFok:  IExCor=  402 AccDes= 0.00D+00 IRadAn=         5 IDoV= 1 UseB2=F ITyADJ=14
 ICtDFT=  3500011 ScaDFX=  1.000000  1.000000  1.000000  1.000000
 FoFCou: FMM=F IPFlag=           0 FMFlag=      100000 FMFlg1=           0
         NFxFlg=           0 DoJE=T BraDBF=F KetDBF=T FulRan=T
         wScrn=  0.000000 ICntrl=       500 IOpCl=  0 I1Cent=   200000004 NGrid=           0
         NMat0=    1 NMatS0=      1 NMatT0=    0 NMatD0=    1 NMtDS0=    0 NMtDT0=    0
 Petite list used in FoFCou.
 Harris En= -1502.72220150256    
 JPrj=0 DoOrth=F DoCkMO=F.
 Initial guess <Sx>= 0.0000 <Sy>= 0.0000 <Sz>= 2.0000 <S**2>= 6.0000 S= 2.0000
 Leave Link  401 at Thu May 23 12:33:06 2024, MaxMem= 26843545600 cpu:              37.4 elap:               0.5
 (Enter /gpfs/fs1/soft/improv/software/custom-built/gaussian/g16/l502.exe)
 Integral symmetry usage will be decided dynamically.
 UHF open shell SCF:
 Using DIIS extrapolation, IDIIS=  1040.
 NGot= 26843545600 LenX= 26843256607 LenY= 26843135757
 Requested convergence on RMS density matrix=1.00D-08 within  50 cycles.
 Requested convergence on MAX density matrix=1.00D-06.
 Requested convergence on             energy=1.00D-06.
 No special actions if energy rises.
 Fock matrices will be formed incrementally for  20 cycles.

 Cycle   1  Pass 1  IDiag  1:
 FoFJK:  IHMeth= 1 ICntrl=     500 DoSepK=F KAlg= 0 I1Cent=           0 FoldK=F
 IRaf= 990000000 NMat=       1 IRICut=       1 DoRegI=T DoRafI=F ISym2E= 0 IDoP0=0 IntGTp=1.
 FoFCou: FMM=F IPFlag=           0 FMFlag=      100000 FMFlg1=           0
         NFxFlg=           0 DoJE=T BraDBF=F KetDBF=F FulRan=T
         wScrn=  0.000000 ICntrl=       500 IOpCl=  0 I1Cent=           0 NGrid=           0
         NMat0=    1 NMatS0=      1 NMatT0=    0 NMatD0=    1 NMtDS0=    0 NMtDT0=    0
 Symmetry not used in FoFCou.
 E= -1500.95735893253    
 DIIS: error= 4.82D-02 at cycle   1 NSaved=   1.
 NSaved= 1 IEnMin= 1 EnMin= -1500.95735893253     IErMin= 1 ErrMin= 4.82D-02
 ErrMax= 4.82D-02  0.00D+00 EMaxC= 1.00D-01 BMatC= 7.25D+00 BMatP= 7.25D+00
 IDIUse=3 WtCom= 5.18D-01 WtEn= 4.82D-01
 Coeff-Com:  0.100D+01
 Coeff-En:   0.100D+01
 Coeff:      0.100D+01
 Gap=     0.325 Goal=   None    Shift=    0.000
 Gap=     0.183 Goal=   None    Shift=    0.000
 GapD=    0.183 DampG=1.000 DampE=0.250 DampFc=0.2500 IDamp=-1.
 Damping current iteration by 2.50D-01
 RMSDP=4.49D-02 MaxDP=2.77D+00              OVMax= 9.64D-01

 Cycle   2  Pass 1  IDiag  1:
 RMSU=  1.08D-02    CP:  9.10D-01
 E= -1501.12594121788     Delta-E=       -0.168582285348 Rises=F Damp=T
 DIIS: error= 2.25D-02 at cycle   2 NSaved=   2.
 NSaved= 2 IEnMin= 2 EnMin= -1501.12594121788     IErMin= 2 ErrMin= 2.25D-02
 ErrMax= 2.25D-02  0.00D+00 EMaxC= 1.00D-01 BMatC= 8.62D-01 BMatP= 7.25D+00
 IDIUse=3 WtCom= 7.75D-01 WtEn= 2.25D-01
 Coeff-Com:  0.183D+00 0.817D+00
 Coeff-En:   0.452D+00 0.548D+00
 Coeff:      0.243D+00 0.757D+00
 Gap=    -0.012 Goal=   None    Shift=    0.000
 Gap=     0.011 Goal=   None    Shift=    0.000
 RMSDP=2.50D-02 MaxDP=4.14D+00 DE=-1.69D-01 OVMax= 9.85D-01

 Cycle   3  Pass 1  IDiag  1:
 RMSU=  2.08D-02    CP:  5.47D-01  3.60D-01
 E= -1502.07514076369     Delta-E=       -0.949199545803 Rises=F Damp=F
 DIIS: error= 1.82D-02 at cycle   3 NSaved=   3.
 NSaved= 3 IEnMin= 3 EnMin= -1502.07514076369     IErMin= 3 ErrMin= 1.82D-02
 ErrMax= 1.82D-02  0.00D+00 EMaxC= 1.00D-01 BMatC= 1.20D+00 BMatP= 8.62D-01
 IDIUse=2 WtCom= 0.00D+00 WtEn= 1.00D+00
 Coeff-En:   0.000D+00 0.000D+00 0.100D+01
 Coeff:      0.000D+00 0.000D+00 0.100D+01
 Gap=     0.057 Goal=   None    Shift=    0.000
 Gap=     0.109 Goal=   None    Shift=    0.000
 RMSDP=2.22D-02 MaxDP=2.74D+00 DE=-9.49D-01 OVMax= 9.47D-01

 Cycle   4  Pass 1  IDiag  1:
 RMSU=  1.18D-02    CP:  3.96D-01  1.20D+00  2.48D-01
 E= -1499.90251187675     Delta-E=        2.172628886934 Rises=F Damp=F
 DIIS: error= 1.00D-01 at cycle   4 NSaved=   4.
 NSaved= 4 IEnMin= 3 EnMin= -1502.07514076369     IErMin= 3 ErrMin= 1.82D-02
 ErrMax= 1.00D-01  0.00D+00 EMaxC= 1.00D-01 BMatC= 1.55D+01 BMatP= 8.62D-01
 IDIUse=2 WtCom= 0.00D+00 WtEn= 1.00D+00
 Coeff-En:   0.000D+00 0.000D+00 0.860D+00 0.140D+00
 Coeff:      0.000D+00 0.000D+00 0.860D+00 0.140D+00
 Gap=    -0.007 Goal=   None    Shift=    0.000
 Gap=     0.177 Goal=   None    Shift=    0.000
 RMSDP=7.19D-03 MaxDP=3.12D-01 DE= 2.17D+00 OVMax= 7.90D-01

 Cycle   5  Pass 1  IDiag  1:
 RMSU=  4.63D-03    CP:  3.63D-01  7.06D-01  2.90D-01  9.91D-01
 E= -1501.89852049836     Delta-E=       -1.996008621611 Rises=F Damp=F
 DIIS: error= 2.28D-02 at cycle   5 NSaved=   5.
 NSaved= 5 IEnMin= 3 EnMin= -1502.07514076369     IErMin= 3 ErrMin= 1.82D-02
 ErrMax= 2.28D-02  0.00D+00 EMaxC= 1.00D-01 BMatC= 1.82D+00 BMatP= 8.62D-01
 IDIUse=2 WtCom= 0.00D+00 WtEn= 1.00D+00
 Coeff-En:   0.000D+00 0.000D+00 0.604D+00 0.000D+00 0.396D+00
 Coeff:      0.000D+00 0.000D+00 0.604D+00 0.000D+00 0.396D+00
 Gap=    -0.007 Goal=   None    Shift=    0.000
 Gap=     0.222 Goal=   None    Shift=    0.000
 RMSDP=1.76D-02 MaxDP=2.08D+00 DE=-2.00D+00 OVMax= 9.99D-01

 Cycle   6  Pass 1  IDiag  1:
 RMSU=  5.13D-03    CP:  5.47D-01  5.61D-01  8.34D-01  2.03D-01 -1.24D-01
 E= -1502.25479184536     Delta-E=       -0.356271346996 Rises=F Damp=F
 DIIS: error= 4.90D-03 at cycle   6 NSaved=   6.
 NSaved= 6 IEnMin= 6 EnMin= -1502.25479184536     IErMin= 6 ErrMin= 4.90D-03
 ErrMax= 4.90D-03  0.00D+00 EMaxC= 1.00D-01 BMatC= 1.24D-01 BMatP= 8.62D-01
 IDIUse=3 WtCom= 9.51D-01 WtEn= 4.90D-02
 Coeff-Com: -0.254D-01 0.483D-01 0.351D+00-0.570D-02 0.273D+00 0.359D+00
 Coeff-En:   0.000D+00 0.000D+00 0.000D+00 0.000D+00 0.341D-01 0.966D+00
 Coeff:     -0.241D-01 0.459D-01 0.334D+00-0.542D-02 0.262D+00 0.388D+00
 Gap=     0.034 Goal=   None    Shift=    0.000
 Gap=     0.251 Goal=   None    Shift=    0.000
 RMSDP=4.17D-03 MaxDP=4.20D-01 DE=-3.56D-01 OVMax= 1.53D-01

 Cycle   7  Pass 1  IDiag  1:
 RMSU=  1.52D-03    CP:  5.36D-01  5.04D-01  8.95D-01  1.63D-01 -8.54D-02
                    CP:  3.04D-01
 E= -1502.26262457496     Delta-E=       -0.007832729602 Rises=F Damp=F
 DIIS: error= 5.98D-03 at cycle   7 NSaved=   7.
 NSaved= 7 IEnMin= 7 EnMin= -1502.26262457496     IErMin= 6 ErrMin= 4.90D-03
 ErrMax= 5.98D-03  0.00D+00 EMaxC= 1.00D-01 BMatC= 9.77D-02 BMatP= 1.24D-01
 IDIUse=3 WtCom= 9.51D-01 WtEn= 4.90D-02
 EnCoef did     1 forward-backward iterations
 Coeff-Com: -0.477D-01 0.180D-01 0.110D+00 0.105D-01 0.136D+00 0.229D+00
 Coeff-Com:  0.544D+00
 Coeff-En:   0.000D+00 0.000D+00 0.000D+00 0.000D+00 0.506D-01 0.274D+00
 Coeff-En:   0.676D+00
 Coeff:     -0.453D-01 0.171D-01 0.105D+00 0.997D-02 0.132D+00 0.231D+00
 Coeff:      0.551D+00
 Gap=     0.022 Goal=   None    Shift=    0.000
 Gap=     0.213 Goal=   None    Shift=    0.000
 RMSDP=1.94D-03 MaxDP=2.25D-01 DE=-7.83D-03 OVMax= 5.00D-02

 Cycle   8  Pass 1  IDiag  1:
 RMSU=  7.77D-04    CP:  5.46D-01  5.21D-01  8.79D-01  1.62D-01 -1.37D-01
                    CP:  6.12D-01  6.12D-01
 E= -1502.27623688599     Delta-E=       -0.013612311030 Rises=F Damp=F
 DIIS: error= 2.99D-03 at cycle   8 NSaved=   8.
 NSaved= 8 IEnMin= 8 EnMin= -1502.27623688599     IErMin= 8 ErrMin= 2.99D-03
 ErrMax= 2.99D-03  0.00D+00 EMaxC= 1.00D-01 BMatC= 2.10D-02 BMatP= 9.77D-02
 IDIUse=3 WtCom= 9.70D-01 WtEn= 2.99D-02
 Coeff-Com: -0.227D-01 0.461D-02-0.255D-01 0.110D-01 0.346D-01-0.440D-01
 Coeff-Com:  0.288D-01 0.101D+01
 Coeff-En:   0.000D+00 0.000D+00 0.000D+00 0.000D+00 0.000D+00 0.000D+00
 Coeff-En:   0.000D+00 0.100D+01
 Coeff:     -0.221D-01 0.448D-02-0.248D-01 0.107D-01 0.336D-01-0.427D-01
 Coeff:      0.279D-01 0.101D+01
 Gap=     0.012 Goal=   None    Shift=    0.000
 Gap=     0.201 Goal=   None    Shift=    0.000
 RMSDP=2.24D-03 MaxDP=3.45D-01 DE=-1.36D-02 OVMax= 6.20D-02

 Cycle   9  Pass 1  IDiag  1:
 RMSU=  9.85D-04    CP:  5.47D-01  5.61D-01  9.17D-01  1.31D-01 -1.79D-01
                    CP:  4.15D-01  1.22D+00 -4.26D-01
 E= -1502.27869396208     Delta-E=       -0.002457076088 Rises=F Damp=F
 DIIS: error= 1.17D-03 at cycle   9 NSaved=   9.
 NSaved= 9 IEnMin= 9 EnMin= -1502.27869396208     IErMin= 9 ErrMin= 1.17D-03
 ErrMax= 1.17D-03  0.00D+00 EMaxC= 1.00D-01 BMatC= 6.07D-03 BMatP= 2.10D-02
 IDIUse=3 WtCom= 9.88D-01 WtEn= 1.17D-02
 Coeff-Com: -0.212D-02-0.256D-02-0.399D-01 0.380D-02 0.325D-02-0.119D+00
 Coeff-Com: -0.257D+00 0.886D+00 0.528D+00
 Coeff-En:   0.000D+00 0.000D+00 0.000D+00 0.000D+00 0.000D+00 0.000D+00
 Coeff-En:   0.000D+00 0.681D-01 0.932D+00
 Coeff:     -0.209D-02-0.253D-02-0.395D-01 0.375D-02 0.322D-02-0.118D+00
 Coeff:     -0.254D+00 0.876D+00 0.533D+00
 Gap=     0.009 Goal=   None    Shift=    0.000
 Gap=     0.199 Goal=   None    Shift=    0.000
 RMSDP=2.20D-03 MaxDP=2.42D-01 DE=-2.46D-03 OVMax= 5.89D-02

 Cycle  10  Pass 1  IDiag  1:
 RMSU=  2.03D-04    CP:  5.53D-01  5.53D-01  8.85D-01  1.49D-01 -1.84D-01
                    CP:  6.83D-01  6.88D-01  1.10D+00  4.22D-01
 E= -1502.27987838067     Delta-E=       -0.001184418592 Rises=F Damp=F
 DIIS: error= 5.07D-04 at cycle  10 NSaved=  10.
 NSaved=10 IEnMin=10 EnMin= -1502.27987838067     IErMin=10 ErrMin= 5.07D-04
 ErrMax= 5.07D-04  0.00D+00 EMaxC= 1.00D-01 BMatC= 4.64D-04 BMatP= 6.07D-03
 IDIUse=3 WtCom= 9.95D-01 WtEn= 5.07D-03
 Coeff-Com:  0.329D-03-0.153D-02-0.208D-01 0.141D-02 0.224D-02-0.705D-01
 Coeff-Com: -0.158D+00 0.465D+00 0.347D+00 0.435D+00
 Coeff-En:   0.000D+00 0.000D+00 0.000D+00 0.000D+00 0.000D+00 0.000D+00
 Coeff-En:   0.000D+00 0.000D+00 0.542D-01 0.946D+00
 Coeff:      0.328D-03-0.153D-02-0.207D-01 0.141D-02 0.223D-02-0.702D-01
 Coeff:     -0.157D+00 0.462D+00 0.346D+00 0.438D+00
 Gap=     0.009 Goal=   None    Shift=    0.000
 Gap=     0.198 Goal=   None    Shift=    0.000
 RMSDP=7.84D-04 MaxDP=8.87D-02 DE=-1.18D-03 OVMax= 1.90D-02

 Cycle  11  Pass 1  IDiag  1:
 RMSU=  8.89D-05    CP:  5.51D-01  5.57D-01  8.98D-01  1.42D-01 -1.87D-01
                    CP:  5.88D-01  8.93D-01  6.31D-01  6.49D-01  6.47D-01
 E= -1502.27998089099     Delta-E=       -0.000102510324 Rises=F Damp=F
 DIIS: error= 1.54D-04 at cycle  11 NSaved=  11.
 NSaved=11 IEnMin=11 EnMin= -1502.27998089099     IErMin=11 ErrMin= 1.54D-04
 ErrMax= 1.54D-04  0.00D+00 EMaxC= 1.00D-01 BMatC= 7.34D-05 BMatP= 4.64D-04
 IDIUse=3 WtCom= 9.98D-01 WtEn= 1.54D-03
 Coeff-Com:  0.651D-03-0.557D-03-0.615D-02 0.375D-03 0.124D-02-0.242D-01
 Coeff-Com: -0.536D-01 0.137D+00 0.133D+00 0.308D+00 0.505D+00
 Coeff-En:   0.000D+00 0.000D+00 0.000D+00 0.000D+00 0.000D+00 0.000D+00
 Coeff-En:   0.000D+00 0.000D+00 0.000D+00 0.130D+00 0.870D+00
 Coeff:      0.650D-03-0.557D-03-0.614D-02 0.375D-03 0.124D-02-0.242D-01
 Coeff:     -0.535D-01 0.137D+00 0.133D+00 0.307D+00 0.505D+00
 Gap=     0.009 Goal=   None    Shift=    0.000
 Gap=     0.198 Goal=   None    Shift=    0.000
 RMSDP=2.19D-04 MaxDP=4.21D-02 DE=-1.03D-04 OVMax= 6.72D-03

 Cycle  12  Pass 1  IDiag  1:
 RMSU=  4.17D-05    CP:  5.51D-01  5.55D-01  8.94D-01  1.46D-01 -1.84D-01
                    CP:  5.99D-01  8.56D-01  7.97D-01  5.60D-01  8.20D-01
                    CP:  4.37D-01
 E= -1502.27999592060     Delta-E=       -0.000015029605 Rises=F Damp=F
 DIIS: error= 4.58D-05 at cycle  12 NSaved=  12.
 NSaved=12 IEnMin=12 EnMin= -1502.27999592060     IErMin=12 ErrMin= 4.58D-05
 ErrMax= 4.58D-05  0.00D+00 EMaxC= 1.00D-01 BMatC= 4.57D-06 BMatP= 7.34D-05
 IDIUse=1 WtCom= 1.00D+00 WtEn= 0.00D+00
 Coeff-Com:  0.213D-03-0.118D-03-0.736D-03 0.302D-04 0.725D-03-0.466D-02
 Coeff-Com: -0.114D-01 0.240D-01 0.299D-01 0.104D+00 0.269D+00 0.589D+00
 Coeff:      0.213D-03-0.118D-03-0.736D-03 0.302D-04 0.725D-03-0.466D-02
 Coeff:     -0.114D-01 0.240D-01 0.299D-01 0.104D+00 0.269D+00 0.589D+00
 Gap=     0.009 Goal=   None    Shift=    0.000
 Gap=     0.198 Goal=   None    Shift=    0.000
 RMSDP=6.78D-05 MaxDP=1.45D-02 DE=-1.50D-05 OVMax= 2.88D-03

 Cycle  13  Pass 1  IDiag  1:
 RMSU=  8.09D-06    CP:  5.51D-01  5.56D-01  8.95D-01  1.44D-01 -1.86D-01
                    CP:  6.02D-01  8.56D-01  7.58D-01  5.88D-01  7.60D-01
                    CP:  6.61D-01  5.02D-01
 E= -1502.27999712469     Delta-E=       -0.000001204089 Rises=F Damp=F
 DIIS: error= 1.63D-05 at cycle  13 NSaved=  13.
 NSaved=13 IEnMin=13 EnMin= -1502.27999712469     IErMin=13 ErrMin= 1.63D-05
 ErrMax= 1.63D-05  0.00D+00 EMaxC= 1.00D-01 BMatC= 7.74D-07 BMatP= 4.57D-06
 IDIUse=1 WtCom= 1.00D+00 WtEn= 0.00D+00
 Coeff-Com:  0.183D-04-0.381D-04 0.307D-03-0.330D-06 0.205D-03 0.128D-03
 Coeff-Com:  0.407D-03-0.512D-02-0.131D-03 0.180D-01 0.717D-01 0.290D+00
 Coeff-Com:  0.625D+00
 Coeff:      0.183D-04-0.381D-04 0.307D-03-0.330D-06 0.205D-03 0.128D-03
 Coeff:      0.407D-03-0.512D-02-0.131D-03 0.180D-01 0.717D-01 0.290D+00
 Coeff:      0.625D+00
 Gap=     0.009 Goal=   None    Shift=    0.000
 Gap=     0.198 Goal=   None    Shift=    0.000
 RMSDP=1.62D-05 MaxDP=3.16D-03 DE=-1.20D-06 OVMax= 8.58D-04

 Cycle  14  Pass 1  IDiag  1:
 RMSU=  2.57D-06    CP:  5.51D-01  5.56D-01  8.95D-01  1.44D-01 -1.86D-01
                    CP:  6.01D-01  8.56D-01  7.68D-01  5.83D-01  7.90D-01
                    CP:  6.26D-01  6.13D-01  5.57D-01
 E= -1502.27999729986     Delta-E=       -0.000000175169 Rises=F Damp=F
 DIIS: error= 5.89D-06 at cycle  14 NSaved=  14.
 NSaved=14 IEnMin=14 EnMin= -1502.27999729986     IErMin=14 ErrMin= 5.89D-06
 ErrMax= 5.89D-06  0.00D+00 EMaxC= 1.00D-01 BMatC= 7.82D-08 BMatP= 7.74D-07
 IDIUse=1 WtCom= 1.00D+00 WtEn= 0.00D+00
 Coeff-Com: -0.161D-04 0.291D-06 0.209D-03-0.164D-05 0.107D-04 0.424D-03
 Coeff-Com:  0.123D-02-0.510D-02-0.319D-02-0.551D-02-0.401D-02 0.431D-01
 Coeff-Com:  0.239D+00 0.734D+00
 Coeff:     -0.161D-04 0.291D-06 0.209D-03-0.164D-05 0.107D-04 0.424D-03
 Coeff:      0.123D-02-0.510D-02-0.319D-02-0.551D-02-0.401D-02 0.431D-01
 Coeff:      0.239D+00 0.734D+00
 Gap=     0.009 Goal=   None    Shift=    0.000
 Gap=     0.198 Goal=   None    Shift=    0.000
 RMSDP=4.91D-06 MaxDP=7.72D-04 DE=-1.75D-07 OVMax= 1.52D-04

 Cycle  15  Pass 1  IDiag  1:
 RMSU=  9.94D-07    CP:  5.51D-01  5.56D-01  8.95D-01  1.44D-01 -1.86D-01
                    CP:  6.01D-01  8.57D-01  7.66D-01  5.85D-01  7.88D-01
                    CP:  6.34D-01  6.09D-01  6.89D-01  7.73D-01
 E= -1502.27999731385     Delta-E=       -0.000000013997 Rises=F Damp=F
 DIIS: error= 1.79D-06 at cycle  15 NSaved=  15.
 NSaved=15 IEnMin=15 EnMin= -1502.27999731385     IErMin=15 ErrMin= 1.79D-06
 ErrMax= 1.79D-06  0.00D+00 EMaxC= 1.00D-01 BMatC= 1.58D-08 BMatP= 7.82D-08
 IDIUse=1 WtCom= 1.00D+00 WtEn= 0.00D+00
 Coeff-Com: -0.115D-04 0.139D-05 0.106D-03-0.138D-06-0.640D-05 0.239D-03
 Coeff-Com:  0.686D-03-0.274D-02-0.196D-02-0.490D-02-0.879D-02 0.338D-02
 Coeff-Com:  0.101D+00 0.474D+00 0.438D+00
 Coeff:     -0.115D-04 0.139D-05 0.106D-03-0.138D-06-0.640D-05 0.239D-03
 Coeff:      0.686D-03-0.274D-02-0.196D-02-0.490D-02-0.879D-02 0.338D-02
 Coeff:      0.101D+00 0.474D+00 0.438D+00
 Gap=     0.009 Goal=   None    Shift=    0.000
 Gap=     0.198 Goal=   None    Shift=    0.000
 RMSDP=1.39D-06 MaxDP=1.41D-04 DE=-1.40D-08 OVMax= 6.44D-05

 Cycle  16  Pass 1  IDiag  1:
 RMSU=  4.52D-07    CP:  5.51D-01  5.56D-01  8.95D-01  1.44D-01 -1.86D-01
                    CP:  6.01D-01  8.57D-01  7.66D-01  5.85D-01  7.90D-01
                    CP:  6.34D-01  6.17D-01  6.68D-01  8.52D-01  5.71D-01
 E= -1502.27999731682     Delta-E=       -0.000000002967 Rises=F Damp=F
 DIIS: error= 5.38D-07 at cycle  16 NSaved=  16.
 NSaved=16 IEnMin=16 EnMin= -1502.27999731682     IErMin=16 ErrMin= 5.38D-07
 ErrMax= 5.38D-07  0.00D+00 EMaxC= 1.00D-01 BMatC= 9.55D-10 BMatP= 1.58D-08
 IDIUse=1 WtCom= 1.00D+00 WtEn= 0.00D+00
 Coeff-Com: -0.180D-05 0.209D-08 0.732D-05 0.197D-06-0.362D-05 0.271D-04
 Coeff-Com:  0.660D-04-0.246D-03-0.272D-03-0.115D-02-0.323D-02-0.658D-02
 Coeff-Com:  0.122D-02 0.768D-01 0.216D+00 0.717D+00
 Coeff:     -0.180D-05 0.209D-08 0.732D-05 0.197D-06-0.362D-05 0.271D-04
 Coeff:      0.660D-04-0.246D-03-0.272D-03-0.115D-02-0.323D-02-0.658D-02
 Coeff:      0.122D-02 0.768D-01 0.216D+00 0.717D+00
 Gap=     0.009 Goal=   None    Shift=    0.000
 Gap=     0.198 Goal=   None    Shift=    0.000
 RMSDP=7.45D-07 MaxDP=1.05D-04 DE=-2.97D-09 OVMax= 1.84D-05

 Cycle  17  Pass 1  IDiag  1:
 RMSU=  9.42D-08    CP:  5.51D-01  5.56D-01  8.95D-01  1.44D-01 -1.86D-01
                    CP:  6.01D-01  8.57D-01  7.67D-01  5.84D-01  7.91D-01
                    CP:  6.34D-01  6.17D-01  6.74D-01  8.37D-01  7.09D-01
                    CP:  9.14D-01
 E= -1502.27999731695     Delta-E=       -0.000000000131 Rises=F Damp=F
 DIIS: error= 2.68D-07 at cycle  17 NSaved=  17.
 NSaved=17 IEnMin=17 EnMin= -1502.27999731695     IErMin=17 ErrMin= 2.68D-07
 ErrMax= 2.68D-07  0.00D+00 EMaxC= 1.00D-01 BMatC= 3.16D-10 BMatP= 9.55D-10
 IDIUse=1 WtCom= 1.00D+00 WtEn= 0.00D+00
 Coeff-Com:  0.924D-07-0.210D-07-0.663D-05-0.215D-07-0.156D-05-0.676D-05
 Coeff-Com: -0.267D-04 0.138D-03 0.439D-04-0.228D-03-0.104D-02-0.473D-02
 Coeff-Com: -0.994D-02-0.284D-02 0.903D-01 0.459D+00 0.469D+00
 Coeff:      0.924D-07-0.210D-07-0.663D-05-0.215D-07-0.156D-05-0.676D-05
 Coeff:     -0.267D-04 0.138D-03 0.439D-04-0.228D-03-0.104D-02-0.473D-02
 Coeff:     -0.994D-02-0.284D-02 0.903D-01 0.459D+00 0.469D+00
 Gap=     0.009 Goal=   None    Shift=    0.000
 Gap=     0.198 Goal=   None    Shift=    0.000
 RMSDP=5.79D-07 MaxDP=6.96D-05 DE=-1.31D-10 OVMax= 1.34D-05

 Cycle  18  Pass 1  IDiag  1:
 RMSU=  3.87D-08    CP:  5.51D-01  5.56D-01  8.95D-01  1.44D-01 -1.86D-01
                    CP:  6.01D-01  8.57D-01  7.66D-01  5.85D-01  7.90D-01
                    CP:  6.35D-01  6.16D-01  6.72D-01  8.46D-01  6.64D-01
                    CP:  9.34D-01  5.82D-01
 E= -1502.27999731702     Delta-E=       -0.000000000070 Rises=F Damp=F
 DIIS: error= 9.47D-08 at cycle  18 NSaved=  18.
 NSaved=18 IEnMin=18 EnMin= -1502.27999731702     IErMin=18 ErrMin= 9.47D-08
 ErrMax= 9.47D-08  0.00D+00 EMaxC= 1.00D-01 BMatC= 2.83D-11 BMatP= 3.16D-10
 IDIUse=1 WtCom= 1.00D+00 WtEn= 0.00D+00
 Coeff-Com:  0.201D-06-0.132D-06-0.422D-05-0.134D-08-0.325D-06-0.541D-05
 Coeff-Com: -0.198D-04 0.105D-03 0.517D-04 0.213D-05-0.201D-03-0.182D-02
 Coeff-Com: -0.514D-02-0.954D-02 0.245D-01 0.173D+00 0.272D+00 0.548D+00
 Coeff:      0.201D-06-0.132D-06-0.422D-05-0.134D-08-0.325D-06-0.541D-05
 Coeff:     -0.198D-04 0.105D-03 0.517D-04 0.213D-05-0.201D-03-0.182D-02
 Coeff:     -0.514D-02-0.954D-02 0.245D-01 0.173D+00 0.272D+00 0.548D+00
 Gap=     0.009 Goal=   None    Shift=    0.000
 Gap=     0.198 Goal=   None    Shift=    0.000
 RMSDP=5.93D-08 MaxDP=5.01D-06 DE=-7.00D-11 OVMax= 2.21D-06

 Cycle  19  Pass 1  IDiag  1:
 RMSU=  1.45D-08    CP:  5.51D-01  5.56D-01  8.95D-01  1.44D-01 -1.86D-01
                    CP:  6.01D-01  8.57D-01  7.66D-01  5.85D-01  7.91D-01
                    CP:  6.35D-01  6.16D-01  6.74D-01  8.41D-01  6.95D-01
                    CP:  9.49D-01  6.53D-01  5.96D-01
 E= -1502.27999731700     Delta-E=        0.000000000019 Rises=F Damp=F
 DIIS: error= 2.62D-08 at cycle  19 NSaved=  19.
 NSaved=19 IEnMin=18 EnMin= -1502.27999731702     IErMin=19 ErrMin= 2.62D-08
 ErrMax= 2.62D-08  0.00D+00 EMaxC= 1.00D-01 BMatC= 3.21D-12 BMatP= 2.83D-11
 IDIUse=1 WtCom= 1.00D+00 WtEn= 0.00D+00
 Coeff-Com:  0.123D-06-0.996D-09-0.180D-05-0.235D-07-0.876D-07-0.232D-05
 Coeff-Com: -0.870D-05 0.484D-04 0.247D-04 0.295D-04-0.109D-04-0.545D-03
 Coeff-Com: -0.191D-02-0.511D-02 0.408D-02 0.499D-01 0.104D+00 0.311D+00
 Coeff-Com:  0.539D+00
 Coeff:      0.123D-06-0.996D-09-0.180D-05-0.235D-07-0.876D-07-0.232D-05
 Coeff:     -0.870D-05 0.484D-04 0.247D-04 0.295D-04-0.109D-04-0.545D-03
 Coeff:     -0.191D-02-0.511D-02 0.408D-02 0.499D-01 0.104D+00 0.311D+00
 Coeff:      0.539D+00
 Gap=     0.009 Goal=   None    Shift=    0.000
 Gap=     0.198 Goal=   None    Shift=    0.000
 RMSDP=6.59D-08 MaxDP=8.35D-06 DE= 1.86D-11 OVMax= 1.66D-06

 Cycle  20  Pass 1  IDiag  1:
 RMSU=  3.75D-09    CP:  5.51D-01  5.56D-01  8.95D-01  1.44D-01 -1.86D-01
                    CP:  6.01D-01  8.57D-01  7.66D-01  5.85D-01  7.91D-01
                    CP:  6.35D-01  6.16D-01  6.74D-01  8.41D-01  6.89D-01
                    CP:  9.50D-01  6.55D-01  6.15D-01  8.09D-01
 E= -1502.27999731700     Delta-E=        0.000000000006 Rises=F Damp=F
 DIIS: error= 9.62D-09 at cycle  20 NSaved=  20.
 NSaved=20 IEnMin=18 EnMin= -1502.27999731702     IErMin=20 ErrMin= 9.62D-09
 ErrMax= 9.62D-09  0.00D+00 EMaxC= 1.00D-01 BMatC= 3.34D-13 BMatP= 3.21D-12
 IDIUse=1 WtCom= 1.00D+00 WtEn= 0.00D+00
 Coeff-Com:  0.117D-07 0.195D-07 0.404D-07-0.783D-08 0.188D-07 0.206D-07
 Coeff-Com:  0.235D-06 0.107D-05 0.140D-05 0.118D-04 0.384D-04 0.124D-03
 Coeff-Com:  0.219D-03-0.293D-03-0.343D-02-0.137D-01-0.952D-02 0.392D-01
 Coeff-Com:  0.266D+00 0.721D+00
 Coeff:      0.117D-07 0.195D-07 0.404D-07-0.783D-08 0.188D-07 0.206D-07
 Coeff:      0.235D-06 0.107D-05 0.140D-05 0.118D-04 0.384D-04 0.124D-03
 Coeff:      0.219D-03-0.293D-03-0.343D-02-0.137D-01-0.952D-02 0.392D-01
 Coeff:      0.266D+00 0.721D+00
 Gap=     0.009 Goal=   None    Shift=    0.000
 Gap=     0.198 Goal=   None    Shift=    0.000
 RMSDP=2.43D-08 MaxDP=2.64D-06 DE= 5.91D-12 OVMax= 5.28D-07

 Cycle  21  Pass 1  IDiag  1:
 Restarting incremental Fock formation.
 E= -1502.27999731701     Delta-E=       -0.000000000012 Rises=F Damp=F
 DIIS: error= 2.36D-09 at cycle  21 NSaved=  20.
 NSaved=20 IEnMin=17 EnMin= -1502.27999731702     IErMin=20 ErrMin= 2.36D-09
 ErrMax= 2.36D-09  0.00D+00 EMaxC= 1.00D-01 BMatC= 1.66D-14 BMatP= 3.34D-13
 IDIUse=1 WtCom= 1.00D+00 WtEn= 0.00D+00
 Coeff-Com: -0.621D-08 0.829D-08 0.155D-06 0.267D-08 0.222D-06 0.730D-06
 Coeff-Com: -0.334D-05-0.150D-05 0.164D-05 0.124D-04 0.803D-04 0.215D-03
 Coeff-Com:  0.256D-03-0.144D-02-0.882D-02-0.115D-01-0.100D-01 0.522D-01
 Coeff-Com:  0.265D+00 0.714D+00
 Coeff:     -0.621D-08 0.829D-08 0.155D-06 0.267D-08 0.222D-06 0.730D-06
 Coeff:     -0.334D-05-0.150D-05 0.164D-05 0.124D-04 0.803D-04 0.215D-03
 Coeff:      0.256D-03-0.144D-02-0.882D-02-0.115D-01-0.100D-01 0.522D-01
 Coeff:      0.265D+00 0.714D+00
 Gap=     0.009 Goal=   None    Shift=    0.000
 Gap=     0.198 Goal=   None    Shift=    0.000
 RMSDP=4.55D-09 MaxDP=4.63D-07 DE=-1.18D-11 OVMax= 1.15D-07

 SCF Done:  E(UB-LYP) =  -1502.27999732     A.U. after   21 cycles
            NFock= 21  Conv=0.46D-08     -V/T= 2.0015
 <Sx>= 0.0000 <Sy>= 0.0000 <Sz>= 2.0000 <S**2>= 6.0067 S= 2.0013
 <L.S>=  0.00000000000    
 KE= 1.499960126920D+03 PE=-4.996034532939D+03 EE= 1.259406857542D+03
 Annihilation of the first spin contaminant:
 S**2 before annihilation     6.0067,   after     6.0000
 Leave Link  502 at Thu May 23 12:34:18 2024, MaxMem= 26843545600 cpu:            8658.0 elap:              72.0
 (Enter /gpfs/fs1/soft/improv/software/custom-built/gaussian/g16/l508.exe)
 QCSCF skips out because SCF is already converged.
 Leave Link  508 at Thu May 23 12:34:18 2024, MaxMem= 26843545600 cpu:               0.2 elap:               0.0
 (Enter /gpfs/fs1/soft/improv/software/custom-built/gaussian/g16/l801.exe)
 DoSCS=F DFT=T ScalE2(SS,OS)=  1.000000  1.000000
 Range of M.O.s used for correlation:     1   317
 NBasis=   317 NAE=    43 NBE=    39 NFC=     0 NFV=     0
 NROrb=    317 NOA=    43 NOB=    39 NVA=   274 NVB=   278

 **** Warning!!: The largest alpha MO coefficient is  0.54977255D+02


 **** Warning!!: The smallest alpha delta epsilon is  0.87039507D-02


 **** Warning!!: The largest beta MO coefficient is  0.54106871D+02

 Leave Link  801 at Thu May 23 12:34:18 2024, MaxMem= 26843545600 cpu:               0.4 elap:               0.0
 (Enter /gpfs/fs1/soft/improv/software/custom-built/gaussian/g16/l1101.exe)
 Using compressed storage, NAtomX=    19.
 Will process     20 centers per pass.
 R6Disp: Adding Grimme-D3 dispersion energy 1st derivatives to the gradient.
 Leave Link 1101 at Thu May 23 12:34:19 2024, MaxMem= 26843545600 cpu:              50.8 elap:               0.5
 (Enter /gpfs/fs1/soft/improv/software/custom-built/gaussian/g16/l1102.exe)
 Symmetrizing basis deriv contribution to polar:
 IMax=3 JMax=2 DiffMx= 0.00D+00
 Leave Link 1102 at Thu May 23 12:34:19 2024, MaxMem= 26843545600 cpu:               0.9 elap:               0.0
 (Enter /gpfs/fs1/soft/improv/software/custom-built/gaussian/g16/l1110.exe)
 Forming Gx(P) for the SCF density, NAtomX=    19.
 Integral derivatives from FoFJK, PRISM(SPDF).
 Do as many integral derivatives as possible in FoFJK.
 G2DrvN: MDV=   26843543431.
 G2DrvN: will do    20 centers at a time, making    1 passes.
 Calling FoFCou, ICntrl=  3507 FMM=F I1Cent=   0 AccDes= 0.00D+00.
 FoFJK:  IHMeth= 1 ICntrl=    3507 DoSepK=F KAlg= 0 I1Cent=           0 FoldK=F
 IRaf=         0 NMat=       1 IRICut=       1 DoRegI=T DoRafI=F ISym2E= 0 IDoP0=0 IntGTp=1.
 FoFCou: FMM=F IPFlag=           0 FMFlag=      100000 FMFlg1=           0
         NFxFlg=           0 DoJE=F BraDBF=F KetDBF=F FulRan=T
         wScrn=  0.000000 ICntrl=      3507 IOpCl=  0 I1Cent=           0 NGrid=           0
         NMat0=    1 NMatS0=      1 NMatT0=    0 NMatD0=    1 NMtDS0=    0 NMtDT0=    0
 Symmetry not used in FoFCou.
 End of G2Drv F.D. properties file   721 does not exist.
 End of G2Drv F.D. properties file   722 does not exist.
 End of G2Drv F.D. properties file   788 does not exist.
 Leave Link 1110 at Thu May 23 12:34:33 2024, MaxMem= 26843545600 cpu:            1755.3 elap:              14.0
 (Enter /gpfs/fs1/soft/improv/software/custom-built/gaussian/g16/l1002.exe)
 Minotr:  UHF open shell wavefunction.
          IDoAtm=1111111111111111111
          Direct CPHF calculation.
          Differentiating once with respect to electric field.
                with respect to dipole field.
          Differentiating once with respect to nuclear coordinates.
          Requested convergence is 1.0D-08 RMS, and 1.0D-07 maximum.
          Secondary convergence is 1.0D-12 RMS, and 1.0D-12 maximum.
          NewPWx=T KeepS1=F KeepF1=F KeepIn=T MapXYZ=F SortEE=F KeepMc=T.
         6034 words used for storage of precomputed grid.
 Two-electron integrals replicated using symmetry.
          MDV=   26843545600 using IRadAn=       1.
          Solving linear equations simultaneously, MaxMat=     384.
 FoF2E skips out because all densities are zero.
 CalDSu exits because no D1Ps are significant.
 FoFJK:  IHMeth= 1 ICntrl=     500 DoSepK=F KAlg= 0 I1Cent=           0 FoldK=F
 IRaf= 990000000 NMat=      57 IRICut=       1 DoRegI=T DoRafI=F ISym2E= 2 IDoP0=3 IntGTp=2.
 FoFCou: FMM=F IPFlag=           0 FMFlag=      100000 FMFlg1=           0
         NFxFlg=           0 DoJE=F BraDBF=F KetDBF=F FulRan=T
         wScrn=  0.000000 ICntrl=       500 IOpCl=  0 I1Cent=           0 NGrid=           0
         NMat0=   57 NMatS0=     57 NMatT0=    0 NMatD0=   57 NMtDS0=    0 NMtDT0=    0
 Integrals replicated using symmetry in FoFCou.
          There are    60 degrees of freedom in the 1st order CPHF.  IDoFFX=6 NUNeed=     3.
     57 vectors produced by pass  0 Test12= 3.77D-14 1.67D-09 XBig12= 3.85D+03 5.74D+01.
 AX will form    57 AO Fock derivatives at one time.
     57 vectors produced by pass  1 Test12= 3.77D-14 1.67D-09 XBig12= 2.73D+02 7.08D+00.
     57 vectors produced by pass  2 Test12= 3.77D-14 1.67D-09 XBig12= 1.20D+00 1.89D-01.
     57 vectors produced by pass  3 Test12= 3.77D-14 1.67D-09 XBig12= 7.44D-03 1.75D-02.
     57 vectors produced by pass  4 Test12= 3.77D-14 1.67D-09 XBig12= 2.31D-05 5.92D-04.
     57 vectors produced by pass  5 Test12= 3.77D-14 1.67D-09 XBig12= 6.55D-08 3.86D-05.
     28 vectors produced by pass  6 Test12= 3.77D-14 1.67D-09 XBig12= 1.12D-10 1.33D-06.
      3 vectors produced by pass  7 Test12= 3.77D-14 1.67D-09 XBig12= 1.40D-13 5.40D-08.
 InvSVY:  IOpt=1 It=  1 EMax= 1.07D-14
 Solved reduced A of dimension   373 with    60 vectors.
 FullF1:  Do perturbations      1 to       3.
 Isotropic polarizability for W=    0.000000      148.03 Bohr**3.
 End of Minotr F.D. properties file   721 does not exist.
 End of Minotr F.D. properties file   722 does not exist.
 End of Minotr F.D. properties file   788 does not exist.
 Leave Link 1002 at Thu May 23 12:35:18 2024, MaxMem= 26843545600 cpu:            5323.3 elap:              44.4
 (Enter /gpfs/fs1/soft/improv/software/custom-built/gaussian/g16/l601.exe)
 Copying SCF densities to generalized density rwf, IOpCl= 1 IROHF=0.

 **********************************************************************

            Population analysis using the SCF Density.

 **********************************************************************

 Orbital symmetries:
 Alpha Orbitals:
       Occupied  (A) (A) (A) (A) (A) (A) (A) (A) (A) (A) (A) (A)
                 (A) (A) (A) (A) (A) (A) (A) (A) (A) (A) (A) (A)
                 (A) (A) (A) (A) (A) (A) (A) (A) (A) (A) (A) (A)
                 (A) (A) (A) (A) (A) (A) (A)
       Virtual   (A) (A) (A) (A) (A) (A) (A) (A) (A) (A) (A) (A)
                 (A) (A) (A) (A) (A) (A) (A) (A) (A) (A) (A) (A)
                 (A) (A) (A) (A) (A) (A) (A) (A) (A) (A) (A) (A)
                 (A) (A) (A) (A) (A) (A) (A) (A) (A) (A) (A) (A)
                 (A) (A) (A) (A) (A) (A) (A) (A) (A) (A) (A) (A)
                 (A) (A) (A) (A) (A) (A) (A) (A) (A) (A) (A) (A)
                 (A) (A) (A) (A) (A) (A) (A) (A) (A) (A) (A) (A)
                 (A) (A) (A) (A) (A) (A) (A) (A) (A) (A) (A) (A)
                 (A) (A) (A) (A) (A) (A) (A) (A) (A) (A) (A) (A)
                 (A) (A) (A) (A) (A) (A) (A) (A) (A) (A) (A) (A)
                 (A) (A) (A) (A) (A) (A) (A) (A) (A) (A) (A) (A)
                 (A) (A) (A) (A) (A) (A) (A) (A) (A) (A) (A) (A)
                 (A) (A) (A) (A) (A) (A) (A) (A) (A) (A) (A) (A)
                 (A) (A) (A) (A) (A) (A) (A) (A) (A) (A) (A) (A)
                 (A) (A) (A) (A) (A) (A) (A) (A) (A) (A) (A) (A)
                 (A) (A) (A) (A) (A) (A) (A) (A) (A) (A) (A) (A)
                 (A) (A) (A) (A) (A) (A) (A) (A) (A) (A) (A) (A)
                 (A) (A) (A) (A) (A) (A) (A) (A) (A) (A) (A) (A)
                 (A) (A) (A) (A) (A) (A) (A) (A) (A) (A) (A) (A)
                 (A) (A) (A) (A) (A) (A) (A) (A) (A) (A) (A) (A)
                 (A) (A) (A) (A) (A) (A) (A) (A) (A) (A) (A) (A)
                 (A) (A) (A) (A) (A) (A) (A) (A) (A) (A) (A) (A)
                 (A) (A) (A) (A) (A) (A) (A) (A) (A) (A)
 Beta  Orbitals:
       Occupied  (A) (A) (A) (A) (A) (A) (A) (A) (A) (A) (A) (A)
                 (A) (A) (A) (A) (A) (A) (A) (A) (A) (A) (A) (A)
                 (A) (A) (A) (A) (A) (A) (A) (A) (A) (A) (A) (A)
                 (A) (A) (A)
       Virtual   (A) (A) (A) (A) (A) (A) (A) (A) (A) (A) (A) (A)
                 (A) (A) (A) (A) (A) (A) (A) (A) (A) (A) (A) (A)
                 (A) (A) (A) (A) (A) (A) (A) (A) (A) (A) (A) (A)
                 (A) (A) (A) (A) (A) (A) (A) (A) (A) (A) (A) (A)
                 (A) (A) (A) (A) (A) (A) (A) (A) (A) (A) (A) (A)
                 (A) (A) (A) (A) (A) (A) (A) (A) (A) (A) (A) (A)
                 (A) (A) (A) (A) (A) (A) (A) (A) (A) (A) (A) (A)
                 (A) (A) (A) (A) (A) (A) (A) (A) (A) (A) (A) (A)
                 (A) (A) (A) (A) (A) (A) (A) (A) (A) (A) (A) (A)
                 (A) (A) (A) (A) (A) (A) (A) (A) (A) (A) (A) (A)
                 (A) (A) (A) (A) (A) (A) (A) (A) (A) (A) (A) (A)
                 (A) (A) (A) (A) (A) (A) (A) (A) (A) (A) (A) (A)
                 (A) (A) (A) (A) (A) (A) (A) (A) (A) (A) (A) (A)
                 (A) (A) (A) (A) (A) (A) (A) (A) (A) (A) (A) (A)
                 (A) (A) (A) (A) (A) (A) (A) (A) (A) (A) (A) (A)
                 (A) (A) (A) (A) (A) (A) (A) (A) (A) (A) (A) (A)
                 (A) (A) (A) (A) (A) (A) (A) (A) (A) (A) (A) (A)
                 (A) (A) (A) (A) (A) (A) (A) (A) (A) (A) (A) (A)
                 (A) (A) (A) (A) (A) (A) (A) (A) (A) (A) (A) (A)
                 (A) (A) (A) (A) (A) (A) (A) (A) (A) (A) (A) (A)
                 (A) (A) (A) (A) (A) (A) (A) (A) (A) (A) (A) (A)
                 (A) (A) (A) (A) (A) (A) (A) (A) (A) (A) (A) (A)
                 (A) (A) (A) (A) (A) (A) (A) (A) (A) (A) (A) (A)
                 (A) (A)
 The electronic state is 5-A.
 Alpha  occ. eigenvalues -- -214.95430 -24.70221 -21.07525 -21.07457 -21.07406
 Alpha  occ. eigenvalues --  -19.22900 -19.22814 -19.22335 -19.22211 -19.22196
 Alpha  occ. eigenvalues --  -19.21965  -3.17587  -2.17211  -2.16974  -2.16807
 Alpha  occ. eigenvalues --   -1.38339  -1.36077  -1.35772  -1.35296  -1.35198
 Alpha  occ. eigenvalues --   -1.34988  -0.94469  -0.93517  -0.91629  -0.91091
 Alpha  occ. eigenvalues --   -0.90827  -0.89179  -0.83818  -0.82743  -0.82574
 Alpha  occ. eigenvalues --   -0.79769  -0.79052  -0.77048  -0.75194  -0.72133
 Alpha  occ. eigenvalues --   -0.71251  -0.70985  -0.69625  -0.67361  -0.57757
 Alpha  occ. eigenvalues --   -0.56967  -0.55483  -0.41444
 Alpha virt. eigenvalues --   -0.40573  -0.40408  -0.36652  -0.34494  -0.33089
 Alpha virt. eigenvalues --   -0.29539  -0.28329  -0.27747  -0.27597  -0.24643
 Alpha virt. eigenvalues --   -0.23518  -0.23018  -0.20335  -0.20008  -0.19262
 Alpha virt. eigenvalues --   -0.18975  -0.17591  -0.16424  -0.15378  -0.15277
 Alpha virt. eigenvalues --   -0.14634  -0.13471  -0.13221  -0.11399  -0.11180
 Alpha virt. eigenvalues --   -0.10433  -0.09796  -0.08366  -0.06652  -0.06595
 Alpha virt. eigenvalues --   -0.05549  -0.05375  -0.04267  -0.03917  -0.03497
 Alpha virt. eigenvalues --   -0.01850  -0.01115   0.00195   0.00853   0.01528
 Alpha virt. eigenvalues --    0.02490   0.03908   0.04319   0.05082   0.05939
 Alpha virt. eigenvalues --    0.06492   0.07900   0.10487   0.12787   0.14181
 Alpha virt. eigenvalues --    0.19281   0.19556   0.20668   0.21447   0.34798
 Alpha virt. eigenvalues --    0.35888   0.37026   0.40071   0.41516   0.42179
 Alpha virt. eigenvalues --    0.42492   0.45267   0.46105   0.46316   0.47246
 Alpha virt. eigenvalues --    0.47466   0.50433   0.51008   0.51315   0.53001
 Alpha virt. eigenvalues --    0.53884   0.54228   0.55638   0.56756   0.58507
 Alpha virt. eigenvalues --    0.62104   0.64145   0.65005   0.65659   0.66072
 Alpha virt. eigenvalues --    0.66950   0.67174   0.68514   0.70169   0.70662
 Alpha virt. eigenvalues --    0.73000   0.74308   0.75574   0.77337   0.77870
 Alpha virt. eigenvalues --    0.81168   0.83239   0.84632   0.87933   0.89333
 Alpha virt. eigenvalues --    0.91642   0.92149   0.95130   0.95842   0.96394
 Alpha virt. eigenvalues --    1.00057   1.00608   1.02083   1.03715   1.11960
 Alpha virt. eigenvalues --    1.13751   1.19316   1.21865   1.23548   1.28473
 Alpha virt. eigenvalues --    1.30002   1.31883   1.33593   1.34317   1.34920
 Alpha virt. eigenvalues --    1.37348   1.41174   1.43537   1.46384   1.48963
 Alpha virt. eigenvalues --    1.52571   1.56068   1.61135   1.64640   1.80661
 Alpha virt. eigenvalues --    1.81844   1.82117   1.84197   1.85385   1.87676
 Alpha virt. eigenvalues --    1.88766   1.89773   1.93409   1.95983   1.98915
 Alpha virt. eigenvalues --    2.01950   2.07917   2.11466   2.14153   2.17464
 Alpha virt. eigenvalues --    2.18787   2.22078   2.29455   2.32588   2.33183
 Alpha virt. eigenvalues --    2.35435   2.38092   2.39229   2.43921   2.45261
 Alpha virt. eigenvalues --    2.47501   2.48420   2.50493   2.51278   2.53616
 Alpha virt. eigenvalues --    2.54930   2.56079   2.57592   2.59906   2.61061
 Alpha virt. eigenvalues --    2.62695   2.65444   2.66568   2.67887   2.69768
 Alpha virt. eigenvalues --    2.71812   2.79296   2.80778   2.83372   2.90813
 Alpha virt. eigenvalues --    2.91833   2.98136   3.19044   3.21037   3.24073
 Alpha virt. eigenvalues --    3.26632   3.27078   3.29109   3.33051   3.46125
 Alpha virt. eigenvalues --    3.51662   3.58633   3.61703   3.62979   3.69321
 Alpha virt. eigenvalues --    3.71632   3.72821   3.74867   3.76092   3.77292
 Alpha virt. eigenvalues --    3.78074   3.80085   3.82767   3.87237   3.89476
 Alpha virt. eigenvalues --    3.96017   3.96696   3.99214   4.01476   4.05234
 Alpha virt. eigenvalues --    4.06292   4.09182   4.12993   4.15552   4.17535
 Alpha virt. eigenvalues --    4.22143   4.24964   4.25520   4.27507   4.29940
 Alpha virt. eigenvalues --    4.32234   4.41597   4.43637   4.45044   4.47475
 Alpha virt. eigenvalues --    4.48278   4.49594   4.56233   4.64447   4.68746
 Alpha virt. eigenvalues --    4.74185   4.76137   4.78755   4.81593   4.84294
 Alpha virt. eigenvalues --    4.93917   4.95096   4.95444   4.96757   4.97424
 Alpha virt. eigenvalues --    4.98234   4.98626   5.02512   5.03234   5.06134
 Alpha virt. eigenvalues --    5.12140   5.13246   5.13771   5.17202   5.18438
 Alpha virt. eigenvalues --    5.19059   5.20582   5.25515   5.27824   5.30124
 Alpha virt. eigenvalues --    5.32080   5.33545   5.34783   5.37585   5.38657
 Alpha virt. eigenvalues --    5.40247   5.42738   5.45695   5.46138   5.47599
 Alpha virt. eigenvalues --    5.48191   5.49916   5.51138   5.75081   5.76273
 Alpha virt. eigenvalues --    6.40108   6.96424   6.99504   7.00776   7.08687
 Alpha virt. eigenvalues --    7.12919   7.26367  13.24363  13.26751  13.27168
 Alpha virt. eigenvalues --   13.78378  13.85414  13.93862  32.48695
  Beta  occ. eigenvalues -- -214.95400 -24.66431 -21.04645 -21.04563 -21.04479
  Beta  occ. eigenvalues --  -19.22764 -19.22667 -19.22142 -19.22113 -19.22004
  Beta  occ. eigenvalues --  -19.21892  -3.07109  -2.07162  -2.06905  -2.06649
  Beta  occ. eigenvalues --   -1.37899  -1.35619  -1.35353  -1.34952  -1.34799
  Beta  occ. eigenvalues --   -1.34622  -0.93807  -0.92944  -0.91185  -0.90641
  Beta  occ. eigenvalues --   -0.90461  -0.88812  -0.83141  -0.81861  -0.81702
  Beta  occ. eigenvalues --   -0.79000  -0.78541  -0.76630  -0.74331  -0.71430
  Beta  occ. eigenvalues --   -0.70617  -0.70402  -0.68983  -0.66912
  Beta virt. eigenvalues --   -0.47127  -0.46533  -0.45271  -0.40187  -0.36422
  Beta virt. eigenvalues --   -0.36260  -0.35658  -0.33515  -0.32345  -0.28360
  Beta virt. eigenvalues --   -0.27378  -0.26906  -0.26852  -0.23857  -0.22946
  Beta virt. eigenvalues --   -0.22377  -0.19998  -0.19535  -0.18768  -0.18527
  Beta virt. eigenvalues --   -0.17293  -0.16048  -0.15276  -0.15105  -0.14304
  Beta virt. eigenvalues --   -0.13387  -0.13088  -0.10875  -0.10733  -0.10023
  Beta virt. eigenvalues --   -0.09501  -0.08022  -0.06469  -0.05997  -0.04924
  Beta virt. eigenvalues --   -0.04800  -0.03857  -0.03593  -0.02966  -0.01379
  Beta virt. eigenvalues --   -0.00653   0.00749   0.01637   0.02273   0.03071
  Beta virt. eigenvalues --    0.04731   0.05169   0.05653   0.06435   0.06950
  Beta virt. eigenvalues --    0.09109   0.10930   0.14647   0.15687   0.19915
  Beta virt. eigenvalues --    0.20140   0.21717   0.22889   0.35500   0.36559
  Beta virt. eigenvalues --    0.37809   0.41259   0.42552   0.43002   0.43728
  Beta virt. eigenvalues --    0.46005   0.46799   0.46986   0.48001   0.48179
  Beta virt. eigenvalues --    0.50927   0.51644   0.52027   0.53467   0.54337
  Beta virt. eigenvalues --    0.54718   0.56149   0.57326   0.58934   0.62748
  Beta virt. eigenvalues --    0.64874   0.65522   0.65978   0.66609   0.67348
  Beta virt. eigenvalues --    0.67714   0.68985   0.70966   0.71269   0.73680
  Beta virt. eigenvalues --    0.74868   0.76511   0.77903   0.78738   0.82549
  Beta virt. eigenvalues --    0.83782   0.85130   0.88842   0.89869   0.92316
  Beta virt. eigenvalues --    0.92954   0.96086   0.96464   0.97947   1.01098
  Beta virt. eigenvalues --    1.01619   1.03095   1.04737   1.12986   1.14593
  Beta virt. eigenvalues --    1.21022   1.23677   1.25436   1.31408   1.32715
  Beta virt. eigenvalues --    1.34782   1.36587   1.37200   1.38149   1.39120
  Beta virt. eigenvalues --    1.43799   1.44855   1.47999   1.51271   1.54330
  Beta virt. eigenvalues --    1.56930   1.62923   1.65969   1.81645   1.82756
  Beta virt. eigenvalues --    1.83034   1.85216   1.86230   1.88714   1.89728
  Beta virt. eigenvalues --    1.90950   1.94487   1.96704   1.99690   2.02974
  Beta virt. eigenvalues --    2.08940   2.12426   2.15252   2.18710   2.20005
  Beta virt. eigenvalues --    2.23414   2.30720   2.34474   2.35201   2.36647
  Beta virt. eigenvalues --    2.39943   2.40754   2.45160   2.46853   2.48654
  Beta virt. eigenvalues --    2.49368   2.51611   2.52890   2.54873   2.56572
  Beta virt. eigenvalues --    2.57129   2.59007   2.61258   2.62000   2.64172
  Beta virt. eigenvalues --    2.66821   2.68134   2.69536   2.71327   2.72699
  Beta virt. eigenvalues --    2.80348   2.81856   2.84446   2.93394   2.94299
  Beta virt. eigenvalues --    3.00268   3.22968   3.24880   3.25975   3.32234
  Beta virt. eigenvalues --    3.33136   3.36051   3.37959   3.50288   3.55233
  Beta virt. eigenvalues --    3.59096   3.62158   3.63450   3.70085   3.72210
  Beta virt. eigenvalues --    3.73300   3.75920   3.76834   3.77961   3.79384
  Beta virt. eigenvalues --    3.81411   3.83622   3.87889   3.90053   3.97102
  Beta virt. eigenvalues --    3.97771   4.00017   4.02380   4.06098   4.08552
  Beta virt. eigenvalues --    4.13700   4.18983   4.20083   4.20129   4.23934
  Beta virt. eigenvalues --    4.27706   4.29908   4.30302   4.33051   4.33832
  Beta virt. eigenvalues --    4.43426   4.45583   4.46426   4.49008   4.49630
  Beta virt. eigenvalues --    4.50746   4.58961   4.67118   4.69259   4.75137
  Beta virt. eigenvalues --    4.77063   4.79485   4.82881   4.85854   4.94450
  Beta virt. eigenvalues --    4.95528   4.96303   4.97220   4.97934   4.98737
  Beta virt. eigenvalues --    4.99335   5.03315   5.04326   5.07943   5.13340
  Beta virt. eigenvalues --    5.14228   5.15169   5.18285   5.19541   5.19893
  Beta virt. eigenvalues --    5.21414   5.26928   5.28741   5.31140   5.33330
  Beta virt. eigenvalues --    5.34418   5.35575   5.38380   5.39446   5.41251
  Beta virt. eigenvalues --    5.43717   5.46697   5.47396   5.48302   5.48780
  Beta virt. eigenvalues --    5.50348   5.51604   5.75513   5.76693   6.42554
  Beta virt. eigenvalues --    6.97017   7.00145   7.01453   7.09152   7.13421
  Beta virt. eigenvalues --    7.27124  13.24716  13.27137  13.27556  13.78691
  Beta virt. eigenvalues --   13.85705  13.94190  32.52273
          Condensed to atoms (all electrons):
               1          2          3          4          5          6
     1  Cr  26.675214  -0.513226   0.043561  -0.492481   0.113023  -0.842519
     2  O   -0.513226   8.437792   0.271586  -0.017208  -0.008635   0.043877
     3  H    0.043561   0.271586   0.313037  -0.002077   0.000130  -0.005454
     4  O   -0.492481  -0.017208  -0.002077   8.514054   0.230710   0.004966
     5  H    0.113023  -0.008635   0.000130   0.230710   0.344395  -0.022088
     6  O   -0.842519   0.043877  -0.005454   0.004966  -0.022088   8.782772
     7  H    0.224162  -0.016862   0.000514  -0.011107   0.004089   0.125606
     8  O   -0.966385   0.068469  -0.001866   0.042529  -0.031497   0.089855
     9  H    0.157294  -0.003730   0.000110  -0.009191   0.001309  -0.014213
    10  O   -0.677650   0.008615  -0.015932   0.048371  -0.002547   0.056768
    11  H    0.100085  -0.007898   0.001984  -0.001301   0.000093  -0.009345
    12  O   -0.850628   0.085151  -0.012614   0.016737  -0.017409   0.081445
    13  H    0.069215  -0.010340   0.001073  -0.013715   0.001893  -0.001606
    14  H    0.136016  -0.008197   0.000852  -0.005254   0.000791  -0.003075
    15  H    0.042950  -0.012733   0.000450   0.280731  -0.014269  -0.015690
    16  H    0.058559   0.254041  -0.006013  -0.004519   0.000776  -0.021280
    17  H    0.134515  -0.014642   0.001934  -0.001841   0.000158  -0.033778
    18  H    0.106148  -0.012102   0.000488  -0.027131   0.008295   0.220150
    19  H    0.229560  -0.005708   0.000106  -0.024101   0.012192  -0.068512
               7          8          9         10         11         12
     1  Cr   0.224162  -0.966385   0.157294  -0.677650   0.100085  -0.850628
     2  O   -0.016862   0.068469  -0.003730   0.008615  -0.007898   0.085151
     3  H    0.000514  -0.001866   0.000110  -0.015932   0.001984  -0.012614
     4  O   -0.011107   0.042529  -0.009191   0.048371  -0.001301   0.016737
     5  H    0.004089  -0.031497   0.001309  -0.002547   0.000093  -0.017409
     6  O    0.125606   0.089855  -0.014213   0.056768  -0.009345   0.081445
     7  H    0.397420  -0.071341   0.006273  -0.027763   0.001255  -0.008763
     8  O   -0.071341   8.852730   0.184173   0.070682  -0.021700   0.129265
     9  H    0.006273   0.184173   0.347626  -0.038451   0.007780  -0.031912
    10  O   -0.027763   0.070682  -0.038451   8.628721   0.237961   0.032017
    11  H    0.001255  -0.021700   0.007780   0.237961   0.338017  -0.035130
    12  O   -0.008763   0.129265  -0.031912   0.032017  -0.035130   8.726299
    13  H    0.000123  -0.009616   0.001105  -0.003134   0.000928   0.232263
    14  H    0.000253  -0.032033   0.008804  -0.018098   0.010941   0.176342
    15  H    0.001116  -0.006785   0.000092  -0.001260   0.000036  -0.007444
    16  H    0.001556  -0.002183   0.000078  -0.003773   0.000326  -0.009363
    17  H    0.013151  -0.028105   0.008233   0.213770  -0.007840  -0.015096
    18  H    0.003884  -0.013223   0.000654  -0.008393   0.000105  -0.004743
    19  H    0.034984   0.113754   0.010179  -0.015670   0.001530  -0.023245
              13         14         15         16         17         18
     1  Cr   0.069215   0.136016   0.042950   0.058559   0.134515   0.106148
     2  O   -0.010340  -0.008197  -0.012733   0.254041  -0.014642  -0.012102
     3  H    0.001073   0.000852   0.000450  -0.006013   0.001934   0.000488
     4  O   -0.013715  -0.005254   0.280731  -0.004519  -0.001841  -0.027131
     5  H    0.001893   0.000791  -0.014269   0.000776   0.000158   0.008295
     6  O   -0.001606  -0.003075  -0.015690  -0.021280  -0.033778   0.220150
     7  H    0.000123   0.000253   0.001116   0.001556   0.013151   0.003884
     8  O   -0.009616  -0.032033  -0.006785  -0.002183  -0.028105  -0.013223
     9  H    0.001105   0.008804   0.000092   0.000078   0.008233   0.000654
    10  O   -0.003134  -0.018098  -0.001260  -0.003773   0.213770  -0.008393
    11  H    0.000928   0.010941   0.000036   0.000326  -0.007840   0.000105
    12  O    0.232263   0.176342  -0.007444  -0.009363  -0.015096  -0.004743
    13  H    0.320208   0.001005   0.001273   0.000489   0.000173   0.000097
    14  H    0.001005   0.366052   0.000230   0.000152   0.001500   0.000087
    15  H    0.001273   0.000230   0.316098   0.003628   0.000070   0.004905
    16  H    0.000489   0.000152   0.003628   0.332452   0.000811   0.003552
    17  H    0.000173   0.001500   0.000070   0.000811   0.346147   0.000874
    18  H    0.000097   0.000087   0.004905   0.003552   0.000874   0.332397
    19  H    0.000647   0.001930   0.000882   0.000161   0.004411   0.006425
              19
     1  Cr   0.229560
     2  O   -0.005708
     3  H    0.000106
     4  O   -0.024101
     5  H    0.012192
     6  O   -0.068512
     7  H    0.034984
     8  O    0.113754
     9  H    0.010179
    10  O   -0.015670
    11  H    0.001530
    12  O   -0.023245
    13  H    0.000647
    14  H    0.001930
    15  H    0.000882
    16  H    0.000161
    17  H    0.004411
    18  H    0.006425
    19  H    0.397739
          Atomic-Atomic Spin Densities.
               1          2          3          4          5          6
     1  Cr   6.511044  -0.449330   0.064701  -0.456037   0.136024  -0.817278
     2  O   -0.449330   0.261078  -0.056643   0.037067  -0.007935   0.091289
     3  H    0.064701  -0.056643   0.041155  -0.001149   0.000157  -0.006839
     4  O   -0.456037   0.037067  -0.001149   0.307294  -0.092049   0.062027
     5  H    0.136024  -0.007935   0.000157  -0.092049   0.063463  -0.019170
     6  O   -0.817278   0.091289  -0.006839   0.062027  -0.019170   0.654906
     7  H    0.242767  -0.014734   0.000530  -0.012695   0.004268  -0.200744
     8  O   -0.924966   0.027371  -0.001657   0.090559  -0.032161   0.145228
     9  H    0.174826  -0.003515   0.000114  -0.007204   0.001237  -0.017269
    10  O   -0.634954   0.071973  -0.010436   0.010890  -0.002386   0.102310
    11  H    0.114911  -0.009905   0.002159  -0.001098   0.000085  -0.007570
    12  O   -0.792187   0.085075  -0.012315   0.081883  -0.016395   0.041528
    13  H    0.092280  -0.008201   0.001060  -0.009069   0.001857  -0.001554
    14  H    0.144280  -0.007493   0.000825  -0.007626   0.000755  -0.002739
    15  H    0.060025  -0.009088   0.000386  -0.040353   0.007651  -0.009570
    16  H    0.073303  -0.061997   0.009379  -0.004195   0.000751  -0.014261
    17  H    0.158564  -0.012986   0.001776  -0.001842   0.000165  -0.033125
    18  H    0.123465  -0.013556   0.000457  -0.015433   0.009293  -0.102603
    19  H    0.248226  -0.005390   0.000103  -0.024228   0.012123  -0.056478
               7          8          9         10         11         12
     1  Cr   0.242767  -0.924966   0.174826  -0.634954   0.114911  -0.792187
     2  O   -0.014734   0.027371  -0.003515   0.071973  -0.009905   0.085075
     3  H    0.000530  -0.001657   0.000114  -0.010436   0.002159  -0.012315
     4  O   -0.012695   0.090559  -0.007204   0.010890  -0.001098   0.081883
     5  H    0.004268  -0.032161   0.001237  -0.002386   0.000085  -0.016395
     6  O   -0.200744   0.145228  -0.017269   0.102310  -0.007570   0.041528
     7  H    0.116515  -0.058866   0.006370  -0.028420   0.001159  -0.008389
     8  O   -0.058866   0.730553  -0.138374   0.100511  -0.015419   0.152987
     9  H    0.006370  -0.138374   0.070851  -0.026627   0.007591  -0.032467
    10  O   -0.028420   0.100511  -0.026627   0.434227  -0.080875   0.097413
    11  H    0.001159  -0.015419   0.007591  -0.080875   0.052661  -0.031372
    12  O   -0.008389   0.152987  -0.032467   0.097413  -0.031372   0.570941
    13  H    0.000119  -0.009637   0.001047  -0.003197   0.000907  -0.096606
    14  H    0.000262  -0.024677   0.008544  -0.015468   0.009730  -0.136768
    15  H    0.000935  -0.005113   0.000131  -0.000933   0.000040  -0.009722
    16  H    0.001502  -0.001897   0.000076  -0.007421   0.000342  -0.008149
    17  H    0.012741  -0.024028   0.009035  -0.111149   0.012977  -0.014742
    18  H    0.020305  -0.015909   0.000630  -0.006004   0.000139  -0.004483
    19  H    0.033175  -0.211985   0.025867  -0.016962   0.001365  -0.021748
              13         14         15         16         17         18
     1  Cr   0.092280   0.144280   0.060025   0.073303   0.158564   0.123465
     2  O   -0.008201  -0.007493  -0.009088  -0.061997  -0.012986  -0.013556
     3  H    0.001060   0.000825   0.000386   0.009379   0.001776   0.000457
     4  O   -0.009069  -0.007626  -0.040353  -0.004195  -0.001842  -0.015433
     5  H    0.001857   0.000755   0.007651   0.000751   0.000165   0.009293
     6  O   -0.001554  -0.002739  -0.009570  -0.014261  -0.033125  -0.102603
     7  H    0.000119   0.000262   0.000935   0.001502   0.012741   0.020305
     8  O   -0.009637  -0.024677  -0.005113  -0.001897  -0.024028  -0.015909
     9  H    0.001047   0.008544   0.000131   0.000076   0.009035   0.000630
    10  O   -0.003197  -0.015468  -0.000933  -0.007421  -0.111149  -0.006004
    11  H    0.000907   0.009730   0.000040   0.000342   0.012977   0.000139
    12  O   -0.096606  -0.136768  -0.009722  -0.008149  -0.014742  -0.004483
    13  H    0.051415   0.016762   0.001366   0.000470   0.000213   0.000102
    14  H    0.016762   0.071375   0.000252   0.000191   0.001489   0.000086
    15  H    0.001366   0.000252   0.033618   0.003531   0.000060   0.004915
    16  H    0.000470   0.000191   0.003531   0.042694   0.000767   0.003688
    17  H    0.000213   0.001489   0.000060   0.000767   0.066045   0.000846
    18  H    0.000102   0.000086   0.004915   0.003688   0.000846   0.056405
    19  H    0.000662   0.001904   0.000785   0.000175   0.004572   0.006513
              19
     1  Cr   0.248226
     2  O   -0.005390
     3  H    0.000103
     4  O   -0.024228
     5  H    0.012123
     6  O   -0.056478
     7  H    0.033175
     8  O   -0.211985
     9  H    0.025867
    10  O   -0.016962
    11  H    0.001365
    12  O   -0.021748
    13  H    0.000662
    14  H    0.001904
    15  H    0.000785
    16  H    0.000175
    17  H    0.004572
    18  H    0.006513
    19  H    0.117484
 Mulliken charges and spin densities:
               1          2
     1  Cr   0.252585   4.069663
     2  O   -0.538250  -0.086921
     3  H    0.408132   0.033763
     4  O   -0.528172  -0.083257
     5  H    0.378592   0.067732
     6  O   -0.367879  -0.191910
     7  H    0.321450   0.116801
     8  O   -0.366722  -0.217483
     9  H    0.363786   0.080865
    10  O   -0.484234  -0.127508
    11  H    0.382172   0.057826
    12  O   -0.463172  -0.155517
    13  H    0.407918   0.039995
    14  H    0.361701   0.061685
    15  H    0.405719   0.038917
    16  H    0.390550   0.038952
    17  H    0.375557   0.071377
    18  H    0.377532   0.068857
    19  H    0.322735   0.116163
 Sum of Mulliken charges =   2.00000   4.00000
 Mulliken charges and spin densities with hydrogens summed into heavy atoms:
               1          2
     1  Cr   0.252585   4.069663
     2  O    0.260432  -0.014206
     4  O    0.256139   0.023393
     6  O    0.331103  -0.006251
     8  O    0.319799  -0.020455
    10  O    0.273495   0.001695
    12  O    0.306447  -0.053838
 APT charges:
               1
     1  Cr   0.386668
     2  O   -0.145463
     3  H    0.256951
     4  O    0.141692
     5  H    0.140256
     6  O    0.298623
     7  H    0.001961
     8  O    0.321112
     9  H   -0.116805
    10  O    0.189922
    11  H   -0.000443
    12  O   -0.056835
    13  H    0.238033
    14  H    0.131993
    15  H    0.047637
    16  H    0.177717
    17  H    0.131352
    18  H   -0.100526
    19  H   -0.043844
 Sum of APT charges =   2.00000
 APT charges with hydrogens summed into heavy atoms:
               1
     1  Cr   0.386668
     2  O    0.289205
     4  O    0.329585
     6  O    0.200058
     8  O    0.160462
    10  O    0.320831
    12  O    0.313191
 Electronic spatial extent (au):  <R**2>=            871.2863
 Charge=              2.0000 electrons
 Dipole moment (field-independent basis, Debye):
    X=              0.5387    Y=              0.6887    Z=             -0.2732  Tot=              0.9161
 Quadrupole moment (field-independent basis, Debye-Ang):
   XX=            -28.6977   YY=            -31.7904   ZZ=            -37.0598
   XY=             -3.7480   XZ=             -0.8737   YZ=              0.3375
 Traceless Quadrupole moment (field-independent basis, Debye-Ang):
   XX=              3.8182   YY=              0.7256   ZZ=             -4.5438
   XY=             -3.7480   XZ=             -0.8737   YZ=              0.3375
 Octapole moment (field-independent basis, Debye-Ang**2):
  XXX=              4.5616  YYY=             -2.5102  ZZZ=              7.9048  XYY=              0.3278
  XXY=              1.2982  XXZ=              3.7311  XZZ=             -9.8044  YZZ=             -8.1799
  YYZ=            -10.0279  XYZ=             -2.3226
 Hexadecapole moment (field-independent basis, Debye-Ang**3):
 XXXX=           -283.5533 YYYY=           -282.2603 ZZZZ=           -273.5832 XXXY=            -19.0285
 XXXZ=              4.3984 YYYX=             -6.8590 YYYZ=             19.3290 ZZZX=            -13.5905
 ZZZY=             -9.1905 XXYY=            -87.6949 XXZZ=            -80.4664 YYZZ=            -80.1304
 XXYZ=             -0.3343 YYXZ=              5.8968 ZZXY=              2.0194
 N-N= 7.343875511604D+02 E-N=-4.996034532616D+03  KE= 1.499960126920D+03
  Exact polarizability:     179.119     -27.504     149.853      -5.059      -5.547     115.104
 Approx polarizability:     457.265    -106.806     332.490     -16.978     -17.827     213.277
                          Isotropic Fermi Contact Couplings
        Atom                 a.u.       MegaHertz       Gauss      10(-4) cm-1
     1  Cr(53)            -0.05948       3.76437       1.34322       1.25566
     2  O(17)              0.10864     -16.46485      -5.87507      -5.49208
     3  H(1)               0.00776       8.66911       3.09335       2.89170
     4  O(17)              0.21300     -32.27980     -11.51824     -10.76738
     5  H(1)               0.00865       9.66082       3.44722       3.22250
     6  O(17)              0.33250     -50.39019     -17.98047     -16.80836
     7  H(1)               0.01107      12.36760       4.41307       4.12539
     8  O(17)              0.31469     -47.69164     -17.01756     -15.90822
     9  H(1)               0.01069      11.94213       4.26125       3.98347
    10  O(17)              0.23436     -35.51745     -12.67351     -11.84735
    11  H(1)               0.00932      10.41794       3.71738       3.47505
    12  O(17)              0.14723     -22.31256      -7.96168      -7.44267
    13  H(1)               0.00839       9.37294       3.34450       3.12648
    14  H(1)               0.00780       8.71820       3.11087       2.90808
    15  H(1)               0.00817       9.12593       3.25636       3.04408
    16  H(1)               0.00679       7.58613       2.70692       2.53046
    17  H(1)               0.00905      10.11417       3.60899       3.37372
    18  H(1)               0.01094      12.23008       4.36400       4.07951
[...]
    14  H   -0.016610   0.347923  -0.000002  -0.000001  -0.000047   0.000000
    15  H   -0.000053  -0.000002   0.320859  -0.000045   0.000000  -0.000047
    16  H   -0.000001  -0.000001  -0.000045   0.318961   0.000001  -0.000027
    17  H   -0.000002  -0.000047   0.000000   0.000001   0.320860  -0.000002
    18  H    0.000000   0.000000  -0.000047  -0.000027  -0.000002   0.347923
    19  H    0.000000   0.000000   0.000000   0.000000  -0.000034  -0.000124
              19
     1  Cr  -0.013583
     2  O   -0.000466
     3  H    0.000000
     4  O    0.001423
     5  H   -0.000034
     6  O    0.008314
     7  H   -0.000124
     8  O    0.295499
     9  H   -0.018248
    10  O    0.001423
    11  H    0.000000
    12  O    0.000270
    13  H    0.000000
    14  H    0.000000
    15  H    0.000000
    16  H    0.000000
    17  H   -0.000034
    18  H   -0.000124
    19  H    0.321777
          Atomic-Atomic Spin Densities.
               1          2          3          4          5          6
     1  Cr   4.262620  -0.024364  -0.004116  -0.030452  -0.001691  -0.086984
     2  O   -0.024364   0.013571   0.002185   0.018279  -0.000484  -0.014712
     3  H   -0.004116   0.002185   0.004896  -0.000323   0.000001   0.000115
     4  O   -0.030452   0.018279  -0.000323   0.036615  -0.000000  -0.022273
     5  H   -0.001691  -0.000484   0.000001  -0.000000   0.003894   0.000655
     6  O   -0.086984  -0.014712   0.000115  -0.022273   0.000655   0.152226
     7  H    0.005526   0.000439  -0.000000   0.000393  -0.000002  -0.010143
     8  O   -0.024364   0.003142  -0.000065   0.018279   0.000161  -0.018476
     9  H   -0.003073  -0.000045  -0.000000  -0.000423   0.000007  -0.000009
    10  O   -0.030452   0.018279  -0.000323   0.005767  -0.000095  -0.022273
    11  H   -0.001691   0.000161   0.000013  -0.000095   0.000000   0.000568
    12  O   -0.086984  -0.018476   0.001992  -0.022272   0.000568   0.009175
    13  H    0.005526   0.000801  -0.000041   0.001581  -0.000021  -0.000090
    14  H    0.005525   0.000801  -0.000041   0.000393  -0.000002  -0.000090
    15  H   -0.001691   0.000161   0.000013  -0.000000  -0.001094   0.000568
    16  H   -0.003072   0.002997  -0.001551  -0.000423   0.000001   0.000415
    17  H   -0.001691  -0.000484   0.000001  -0.000095  -0.000000   0.000655
    18  H    0.005525   0.000439  -0.000000   0.001582  -0.000027  -0.010142
    19  H   -0.004116  -0.000065   0.000000  -0.000323   0.000013   0.001992
               7          8          9         10         11         12
     1  Cr   0.005526  -0.024364  -0.003073  -0.030452  -0.001691  -0.086984
     2  O    0.000439   0.003142  -0.000045   0.018279   0.000161  -0.018476
     3  H   -0.000000  -0.000065  -0.000000  -0.000323   0.000013   0.001992
     4  O    0.000393   0.018279  -0.000423   0.005767  -0.000095  -0.022272
     5  H   -0.000002   0.000161   0.000007  -0.000095   0.000000   0.000568
     6  O   -0.010143  -0.018476  -0.000009  -0.022273   0.000568   0.009175
     7  H    0.006271   0.000801  -0.000000   0.001581  -0.000021  -0.000090
     8  O    0.000801   0.013572   0.002997   0.018279  -0.000484  -0.014713
     9  H   -0.000000   0.002997   0.003295  -0.000423   0.000001   0.000415
    10  O    0.001581   0.018279  -0.000423   0.036617  -0.000000  -0.022274
    11  H   -0.000021  -0.000484   0.000001  -0.000000   0.003894   0.000655
    12  O   -0.000090  -0.014713   0.000415  -0.022274   0.000655   0.152228
    13  H    0.000000   0.000439  -0.000005   0.000393  -0.000002  -0.010143
    14  H    0.000000   0.000439  -0.000005   0.001582  -0.000027  -0.010142
    15  H   -0.000002  -0.000484   0.000001  -0.000095  -0.000000   0.000655
    16  H   -0.000005  -0.000045   0.000000  -0.000423   0.000007  -0.000009
    17  H   -0.000027   0.000161   0.000007  -0.000000  -0.001094   0.000568
    18  H    0.001461   0.000801  -0.000000   0.000393  -0.000002  -0.000090
    19  H   -0.000041   0.002185  -0.001551  -0.000323   0.000001   0.000115
              13         14         15         16         17         18
     1  Cr   0.005526   0.005525  -0.001691  -0.003072  -0.001691   0.005525
     2  O    0.000801   0.000801   0.000161   0.002997  -0.000484   0.000439
     3  H   -0.000041  -0.000041   0.000013  -0.001551   0.000001  -0.000000
     4  O    0.001581   0.000393  -0.000000  -0.000423  -0.000095   0.001582
     5  H   -0.000021  -0.000002  -0.001094   0.000001  -0.000000  -0.000027
     6  O   -0.000090  -0.000090   0.000568   0.000415   0.000655  -0.010142
     7  H    0.000000   0.000000  -0.000002  -0.000005  -0.000027   0.001461
     8  O    0.000439   0.000439  -0.000484  -0.000045   0.000161   0.000801
     9  H   -0.000005  -0.000005   0.000001   0.000000   0.000007  -0.000000
    10  O    0.000393   0.001582  -0.000095  -0.000423  -0.000000   0.000393
    11  H   -0.000002  -0.000027  -0.000000   0.000007  -0.001094  -0.000002
    12  O   -0.010143  -0.010142   0.000655  -0.000009   0.000568  -0.000090
    13  H    0.006271   0.001461  -0.000027  -0.000000  -0.000002   0.000000
    14  H    0.001461   0.006270  -0.000002  -0.000000  -0.000021   0.000000
    15  H   -0.000027  -0.000002   0.003894   0.000007   0.000000  -0.000021
    16  H   -0.000000  -0.000000   0.000007   0.003296   0.000001  -0.000005
    17  H   -0.000002  -0.000021   0.000000   0.000001   0.003894  -0.000002
    18  H    0.000000   0.000000  -0.000021  -0.000005  -0.000002   0.006270
    19  H   -0.000000  -0.000000   0.000001  -0.000000   0.000013  -0.000041
              19
     1  Cr  -0.004116
     2  O   -0.000065
     3  H    0.000000
     4  O   -0.000323
     5  H    0.000013
     6  O    0.001992
     7  H   -0.000041
     8  O    0.002185
     9  H   -0.001551
    10  O   -0.000323
    11  H    0.000001
    12  O    0.000115
    13  H   -0.000000
    14  H   -0.000000
    15  H    0.000001
    16  H   -0.000000
    17  H    0.000013
    18  H   -0.000041
    19  H    0.004896
 Mulliken charges and spin densities:
               1          2
     1  Cr   1.146684   3.979983
     2  O   -0.656107   0.002623
     3  H    0.403906   0.002757
     4  O   -0.654950   0.006211
     5  H    0.404629   0.001885
     6  O   -0.646792  -0.018823
     7  H    0.381134   0.006141
     8  O   -0.656105   0.002623
     9  H    0.409075   0.001191
    10  O   -0.654949   0.006211
    11  H    0.404629   0.001885
    12  O   -0.646791  -0.018823
    13  H    0.381135   0.006141
    14  H    0.381132   0.006140
    15  H    0.404629   0.001885
    16  H    0.409075   0.001191
    17  H    0.404629   0.001885
    18  H    0.381132   0.006140
    19  H    0.403906   0.002757
 Sum of Mulliken charges =   2.00000   4.00000
 Mulliken charges and spin densities with hydrogens summed into heavy atoms:
               1          2
     1  Cr   1.146684   3.979983
     2  O    0.156875   0.006570
     4  O    0.154308   0.009980
     6  O    0.115473  -0.006542
     8  O    0.156876   0.006570
    10  O    0.154309   0.009980
    12  O    0.115476  -0.006542
 Electronic spatial extent (au):  <R**2>=           1233.8611
 Charge=              2.0000 electrons
 Dipole moment (field-independent basis, Debye):
    X=              0.0001    Y=             -0.0000    Z=             -0.0001  Tot=              0.0001
 Quadrupole moment (field-independent basis, Debye-Ang):
   XX=            -15.9771   YY=            -15.8195   ZZ=            -17.3181
   XY=              0.0013   XZ=              1.8053   YZ=             -0.0004
 Traceless Quadrupole moment (field-independent basis, Debye-Ang):
   XX=              0.3945   YY=              0.5521   ZZ=             -0.9466
   XY=              0.0013   XZ=              1.8053   YZ=             -0.0004
 Octapole moment (field-independent basis, Debye-Ang**2):
  XXX=              0.0004  YYY=             -0.0001  ZZZ=             -0.0003  XYY=              0.0008
  XXY=              0.0001  XXZ=              0.0001  XZZ=             -0.0005  YZZ=             -0.0002
  YYZ=             -0.0005  XYZ=             -0.0007
 Hexadecapole moment (field-independent basis, Debye-Ang**3):
 XXXX=           -246.7629 YYYY=           -118.0575 ZZZZ=           -154.2410 XXXY=             -0.0020
 XXXZ=            -67.8129 YYYX=             -0.0115 YYYZ=             -0.0690 ZZZX=             57.1068
 ZZZY=              0.0547 XXYY=           -124.3516 XXZZ=            -81.5486 YYZZ=           -102.2853
 XXYZ=              0.0062 YYXZ=              1.0932 ZZXY=              0.0230
 N-N= 6.127342089655D+02 E-N=-4.759533177320D+03  KE= 1.497834901997D+03
                          Isotropic Fermi Contact Couplings
        Atom                 a.u.       MegaHertz       Gauss      10(-4) cm-1
     1  Cr(53)             0.30802     -19.49496      -6.95628      -6.50282
     2  O(17)             -0.01122       1.70053       0.60679       0.56724
     3  H(1)               0.00177       1.98281       0.70752       0.66140
     4  O(17)             -0.01075       1.62964       0.58150       0.54359
     5  H(1)               0.00119       1.32707       0.47353       0.44266
     6  O(17)              0.12087     -18.31722      -6.53604      -6.10997
     7  H(1)               0.00181       2.02145       0.72130       0.67428
     8  O(17)             -0.01122       1.70046       0.60677       0.56721
     9  H(1)               0.00121       1.35582       0.48379       0.45225
    10  O(17)             -0.01075       1.62954       0.58146       0.54356
    11  H(1)               0.00119       1.32709       0.47354       0.44267
    12  O(17)              0.12087     -18.31742      -6.53611      -6.11003
    13  H(1)               0.00181       2.02150       0.72132       0.67430
    14  H(1)               0.00181       2.02116       0.72120       0.67419
    15  H(1)               0.00119       1.32706       0.47353       0.44266
    16  H(1)               0.00121       1.35585       0.48380       0.45226
    17  H(1)               0.00119       1.32706       0.47353       0.44266
    18  H(1)               0.00181       2.02113       0.72119       0.67418
    19  H(1)               0.00177       1.98283       0.70752       0.66140
 --------------------------------------------------------
       Center         ----  Spin Dipole Couplings  ----
                      3XX-RR        3YY-RR        3ZZ-RR
 --------------------------------------------------------
     1   Atom        1.297611     -0.857074     -0.440537
     2   Atom       -0.059084      0.043544      0.015540
     3   Atom        0.010947     -0.027234      0.016286
     4   Atom        0.029365      0.029490     -0.058855
     5   Atom       -0.024128      0.044480     -0.020352
     6   Atom        0.100620     -0.077671     -0.022949
     7   Atom        0.030013     -0.014277     -0.015735
     8   Atom       -0.059084      0.043544      0.015540
     9   Atom       -0.024344     -0.024968      0.049312
    10   Atom        0.029377      0.029491     -0.058868
    11   Atom       -0.024128      0.044480     -0.020351
    12   Atom        0.100619     -0.077672     -0.022947
    13   Atom        0.030012     -0.014278     -0.015734
    14   Atom        0.030018     -0.014275     -0.015743
    15   Atom       -0.024131      0.044511     -0.020380
    16   Atom       -0.024344     -0.024968      0.049311
    17   Atom       -0.024132      0.044511     -0.020379
    18   Atom        0.030019     -0.014276     -0.015743
    19   Atom        0.010947     -0.027234      0.016287
 --------------------------------------------------------
                        XY            XZ            YZ
 --------------------------------------------------------
     1   Atom       -0.000068     -0.954913      0.000028
     2   Atom        0.000008      0.039110     -0.000009
     3   Atom        0.000017      0.040677      0.000018
     4   Atom       -0.000016     -0.046022     -0.000034
     5   Atom       -0.008929      0.001939     -0.021088
     6   Atom        0.000006     -0.024877      0.000015
     7   Atom        0.015563     -0.017209     -0.005473
     8   Atom        0.000001      0.039110     -0.000005
     9   Atom        0.000004      0.010541      0.000026
    10   Atom       -0.000018     -0.046008     -0.000033
    11   Atom       -0.008925      0.001938     -0.021089
    12   Atom        0.000004     -0.024879      0.000018
    13   Atom        0.015562     -0.017210     -0.005473
    14   Atom       -0.015569     -0.017201      0.005469
    15   Atom        0.008916      0.001928      0.021045
    16   Atom        0.000004      0.010542      0.000028
    17   Atom        0.008913      0.001928      0.021046
    18   Atom       -0.015567     -0.017201      0.005469
    19   Atom        0.000018      0.040677      0.000019
 --------------------------------------------------------


 ---------------------------------------------------------------------------------
              Anisotropic Spin Dipole Couplings in Principal Axis System
 ---------------------------------------------------------------------------------

       Atom             a.u.   MegaHertz   Gauss  10(-4) cm-1        Axes

              Baa    -0.8626    26.068     9.302     8.695  0.4043  0.0003  0.9146
     1 Cr(53) Bbb    -0.8571    25.900     9.242     8.639 -0.0001  1.0000 -0.0003
              Bcc     1.7197   -51.968   -18.544   -17.335  0.9146 -0.0000 -0.4043
 
              Baa    -0.0758     5.487     1.958     1.830  0.9193 -0.0001 -0.3935
     2 O(17)  Bbb     0.0323    -2.336    -0.833    -0.779  0.3935  0.0004  0.9193
              Bcc     0.0435    -3.151    -1.124    -1.051 -0.0001  1.0000 -0.0004
 
              Baa    -0.0272   -14.531    -5.185    -4.847 -0.0006  1.0000  0.0002
     3 H(1)   Bbb    -0.0271   -14.485    -5.169    -4.832  0.7299  0.0006 -0.6836
              Bcc     0.0544    29.015    10.353     9.679  0.6836  0.0003  0.7299
 
              Baa    -0.0785     5.680     2.027     1.895  0.3925  0.0003  0.9198
     4 O(17)  Bbb     0.0295    -2.134    -0.761    -0.712 -0.0001  1.0000 -0.0004
              Bcc     0.0490    -3.546    -1.265    -1.183  0.9198 -0.0001 -0.3925
 
              Baa    -0.0269   -14.343    -5.118    -4.784  0.3741  0.3056  0.8756
     5 H(1)   Bbb    -0.0249   -13.310    -4.749    -4.440  0.9197 -0.0010 -0.3926
              Bcc     0.0518    27.653     9.867     9.224 -0.1191  0.9522 -0.2814
 
              Baa    -0.0777     5.620     2.005     1.875 -0.0001  1.0000 -0.0003
     6 O(17)  Bbb    -0.0278     2.009     0.717     0.670  0.1902  0.0003  0.9817
              Bcc     0.1054    -7.630    -2.722    -2.545  0.9817  0.0000 -0.1902
 
              Baa    -0.0215   -11.478    -4.096    -3.829  0.2869  0.1032  0.9524
     7 H(1)   Bbb    -0.0192   -10.244    -3.655    -3.417 -0.3051  0.9523 -0.0113
              Bcc     0.0407    21.722     7.751     7.246  0.9081  0.2873 -0.3047
 
              Baa    -0.0758     5.487     1.958     1.830  0.9193 -0.0000 -0.3935
     8 O(17)  Bbb     0.0323    -2.336    -0.833    -0.779  0.3935  0.0003  0.9193
              Bcc     0.0435    -3.151    -1.124    -1.051 -0.0001  1.0000 -0.0003
 
              Baa    -0.0258   -13.778    -4.916    -4.596  0.9903  0.0001 -0.1389
     9 H(1)   Bbb    -0.0250   -13.322    -4.753    -4.444 -0.0001  1.0000 -0.0003
              Bcc     0.0508    27.099     9.670     9.039  0.1389  0.0003  0.9903
 
              Baa    -0.0785     5.680     2.027     1.894  0.3923  0.0003  0.9198
    10 O(17)  Bbb     0.0295    -2.134    -0.761    -0.712  0.0000  1.0000 -0.0004
              Bcc     0.0490    -3.546    -1.265    -1.183  0.9198 -0.0002 -0.3923
 
              Baa    -0.0269   -14.343    -5.118    -4.784  0.3739  0.3056  0.8757
    11 H(1)   Bbb    -0.0249   -13.310    -4.749    -4.440  0.9198 -0.0010 -0.3924
              Bcc     0.0518    27.653     9.867     9.224 -0.1191  0.9522 -0.2814
 
              Baa    -0.0777     5.620     2.005     1.875 -0.0001  1.0000 -0.0004
    12 O(17)  Bbb    -0.0278     2.009     0.717     0.670  0.1902  0.0004  0.9817
              Bcc     0.1054    -7.630    -2.722    -2.545  0.9817  0.0000 -0.1902
 
              Baa    -0.0215   -11.478    -4.096    -3.829  0.2869  0.1033  0.9524
    13 H(1)   Bbb    -0.0192   -10.244    -3.655    -3.417 -0.3051  0.9523 -0.0113
              Bcc     0.0407    21.722     7.751     7.246  0.9081  0.2873 -0.3047
 
              Baa    -0.0215   -11.479    -4.096    -3.829  0.2869 -0.1025  0.9524
    14 H(1)   Bbb    -0.0192   -10.244    -3.655    -3.417  0.3049  0.9523  0.0106
              Bcc     0.0407    21.723     7.751     7.246  0.9081 -0.2874 -0.3045
 
              Baa    -0.0269   -14.343    -5.118    -4.784  0.3743 -0.3049  0.8757
    15 H(1)   Bbb    -0.0249   -13.310    -4.749    -4.440  0.9196  0.0009 -0.3927
              Bcc     0.0518    27.653     9.867     9.224  0.1189  0.9524  0.2807
 
              Baa    -0.0258   -13.778    -4.916    -4.596  0.9903 -0.0000 -0.1389
    16 H(1)   Bbb    -0.0250   -13.322    -4.753    -4.444 -0.0000  1.0000 -0.0004
              Bcc     0.0508    27.099     9.670     9.039  0.1389  0.0004  0.9903
 
              Baa    -0.0269   -14.343    -5.118    -4.784  0.3742 -0.3049  0.8758
    17 H(1)   Bbb    -0.0249   -13.310    -4.749    -4.440  0.9197  0.0009 -0.3926
              Bcc     0.0518    27.653     9.867     9.224  0.1189  0.9524  0.2808
 
              Baa    -0.0215   -11.479    -4.096    -3.829  0.2869 -0.1026  0.9524
    18 H(1)   Bbb    -0.0192   -10.244    -3.655    -3.417  0.3049  0.9523  0.0107
              Bcc     0.0407    21.723     7.751     7.246  0.9081 -0.2874 -0.3045
 
              Baa    -0.0272   -14.531    -5.185    -4.847 -0.0002  1.0000 -0.0002
    19 H(1)   Bbb    -0.0271   -14.485    -5.169    -4.832  0.7299 -0.0000 -0.6836
              Bcc     0.0544    29.015    10.353     9.678  0.6836  0.0003  0.7299
 

 ---------------------------------------------------------------------------------

 No NMR shielding tensors so no spin-rotation constants.
 Leave Link  601 at Thu May 23 14:15:35 2024, MaxMem= 26843545600 cpu:              29.2 elap:               0.3
 (Enter /gpfs/fs1/soft/improv/software/custom-built/gaussian/g16/l9999.exe)
 Unable to Open any file for archive entry.
 1\1\GINC-I255\SP\UBLYP\Gen\Cr1H12O6(2+,5)\HHARB\23-May-2024\0\\#p BLYP
  empiricaldispersion=gd3 scf=(maxcycles=500,xqc,maxconventional=50) sc
 rf=(cpcm,solvent=water) geom=allcheck guess=read chkbasis\\Title\\2,5\
 Cr,-0.7848106619,0.7129587838,0.0317909378\O,-1.3423453463,2.683133272
 8,-0.3925795529\H,-1.4304071627,3.0097068255,-1.3102920282\O,1.2294010
 075,1.285229306,0.0423094326\H,1.9950748588,0.6947840721,0.1821423574\
 O,-0.8426745821,0.8724206547,2.4557850479\H,-1.6299895537,0.7949773647
 ,3.0305659815\O,-0.227274067,-1.2572176536,0.4561478997\H,-0.015987870
 8,-1.9896744784,-0.1554725956\O,-2.7990244059,0.1406880285,0.021269723
 8\H,-3.5647069931,0.7311610768,-0.118402403\O,-0.7269784865,0.55345331
 71,-2.3921955477\H,0.0603302495,0.6308450911,-2.9669929807\H,-1.431913
 2024,0.2069357413,-2.9746286169\H,1.5715737849,2.1904003528,-0.0919287
 694\H,-1.553569085,3.4156160458,0.2190321517\H,-3.1411922219,-0.764499
 4938,0.1554024486\H,-0.137772196,1.2189745276,3.0382360619\H,-0.139251
 6353,-1.5838130648,1.3738558615\\Version=ES64L-G16RevC.02\State=5-A\HF
 =-1502.816451\S2=6.005204\S2-1=0.\S2A=6.000006\RMSD=4.330e-09\Dipole=0
 .0000005,0.0000158,0.0000281\Quadrupole=0.370458,-0.0345832,-0.3358748
 ,0.133572,0.3927068,-1.3706475\PG=C01 [X(Cr1H12O6)]\\@
 The archive entry for this job was punched.


 LIFE IS SO UNCERTAIN - EAT DESSERT FIRST.
 Job cpu time:       0 days  1 hours 24 minutes 38.1 seconds.
 Elapsed time:       0 days  0 hours  0 minutes 43.2 seconds.
 File lengths (MBytes):  RWF=    125 Int=      0 D2E=      0 Chk=     32 Scr=      1
 Normal termination of Gaussian 16 at Thu May 23 14:15:35 2024.
