 Entering Gaussian System, Link 0=g16
 Input=Cr_2_HSE06.com
 Output=Cr_2_HSE06.log
 Initial command:
 /gpfs/fs1/soft/improv/software/custom-built/gaussian/g16/l1.exe "/scratch/Gau-194597.inp" -scrdir="/scratch/"
 Default CPUs for threads: 0-127
 Default linda workers: i256.lcrc.anl.gov
 Default is to use 128 SMP processors on each worker.
 Entering Link 1 = /gpfs/fs1/soft/improv/software/custom-built/gaussian/g16/l1.exe PID=    194598.
  
 Copyright (c) 1988-2021, Gaussian, Inc.  All Rights Reserved.
  
 This is part of the Gaussian(R) 16 program.  It is based on
 the Gaussian(R) 09 system (copyright 2009, Gaussian, Inc.),
 the Gaussian(R) 03 system (copyright 2003, Gaussian, Inc.),
 the Gaussian(R) 98 system (copyright 1998, Gaussian, Inc.),
 the Gaussian(R) 94 system (copyright 1995, Gaussian, Inc.),
 the Gaussian 92(TM) system (copyright 1992, Gaussian, Inc.),
 the Gaussian 90(TM) system (copyright 1990, Gaussian, Inc.),
 the Gaussian 88(TM) system (copyright 1988, Gaussian, Inc.),
 the Gaussian 86(TM) system (copyright 1986, Carnegie Mellon
 University), and the Gaussian 82(TM) system (copyright 1983,
 Carnegie Mellon University). Gaussian is a federally registered
 trademark of Gaussian, Inc.
  
 This software contains proprietary and confidential information,
 including trade secrets, belonging to Gaussian, Inc.
  
 This software is provided under written license and may be
 used, copied, transmitted, or stored only in accord with that
 written license.
  
 The following legend is applicable only to US Government
 contracts under FAR:
  
                    RESTRICTED RIGHTS LEGEND
  
 Use, reproduction and disclosure by the US Government is
 subject to restrictions as set forth in subparagraphs (a)
 and (c) of the Commercial Computer Software - Restricted
 Rights clause in FAR 52.227-19.
  
 Gaussian, Inc.
 340 Quinnipiac St., Bldg. 40, Wallingford CT 06492
  
  
 ---------------------------------------------------------------
 Warning -- This program may not be used in any manner that
 competes with the business of Gaussian, Inc. or will provide
 assistance to any competitor of Gaussian, Inc.  The licensee
 of this program is prohibited from giving any competitor of
 Gaussian, Inc. access to this program.  By using this program,
 the user acknowledges that Gaussian, Inc. is engaged in the
 business of creating and licensing software in the field of
 computational chemistry and represents and warrants to the
 licensee that it is not a competitor of Gaussian, Inc. and that
 it will not use this program in any manner prohibited above.
 ---------------------------------------------------------------
  

 Cite this work as:
 Gaussian 16, Revision C.02,
 M. J. Frisch, G. W. Trucks, H. B. Schlegel, G. E. Scuseria, 
 M. A. Robb, J. R. Cheeseman, G. Scalmani, V. Barone, 
 G. A. Petersson, H. Nakatsuji, X. Li, M. Caricato, A. V. Marenich, 
 J. Bloino, B. G. Janesko, R. Gomperts, B. Mennucci, H. P. Hratchian, 
 J. V. Ortiz, A. F. Izmaylov, J. L. Sonnenberg, D. Williams-Young, 
 F. Ding, F. Lipparini, F. Egidi, J. Goings, B. Peng, A. Petrone, 
 T. Henderson, D. Ranasinghe, V. G. Zakrzewski, J. Gao, N. Rega, 
 G. Zheng, W. Liang, M. Hada, M. Ehara, K. Toyota, R. Fukuda, 
 J. Hasegawa, M. Ishida, T. Nakajima, Y. Honda, O. Kitao, H. Nakai, 
 T. Vreven, K. Throssell, J. A. Montgomery, Jr., J. E. Peralta, 
 F. Ogliaro, M. J. Bearpark, J. J. Heyd, E. N. Brothers, K. N. Kudin, 
 V. N. Staroverov, T. A. Keith, R. Kobayashi, J. Normand, 
 K. Raghavachari, A. P. Rendell, J. C. Burant, S. S. Iyengar, 
 J. Tomasi, M. Cossi, J. M. Millam, M. Klene, C. Adamo, R. Cammi, 
 J. W. Ochterski, R. L. Martin, K. Morokuma, O. Farkas, 
 J. B. Foresman, and D. J. Fox, Gaussian, Inc., Wallingford CT, 2019.
 
 ******************************************
 Gaussian 16:  ES64L-G16RevC.02  7-Dec-2021
                23-May-2024 
 ******************************************
 %chk=Cr_2_HSE06.chk
 SetSPE:  set environment variable "OMP_PROC_BIND" = "true"
 SetSPE:  set environment variable "OMP_PLACES" = "{0},{1},{2},{3},{4},{5},{6},{7},{8},{9},{10},{11},{12},{13},{14},{15},{16},{17},{18},{19},{20},{21},{22},{23},{24},{25},{26},{27},{28},{29},{30},{31},{32},{33},{34},{35},{36},{37},{38},{39},{40},{41},{42},{43},{44},{45},{46},{47},{48},{49},{50},{51},{52},{53},{54},{55},{56},{57},{58},{59},{60},{61},{62},{63},{64},{65},{66},{67},{68},{69},{70},{71},{72},{73},{74},{75},{76},{77},{78},{79},{80},{81},{82},{83},{84},{85},{86},{87},{88},{89},{90},{91},{92},{93},{94},{95},{96},{97},{98},{99},{100},{101},{102},{103},{104},{105},{106},{107},{108},{109},{110},{111},{112},{113},{114},{115},{116},{117},{118},{119},{120},{121},{122},{123},{124},{125},{126},{127}"
 SetLPE:    new flags="-opt 'Tsnet.Node.lindarsharg: ssh'  -nodelist 'i256.lcrc.anl.gov' -env GAUSS_MDEF=26843545600 -env GAUSS_EXEDIR="/gpfs/fs1/soft/improv/software/custom-built/gaussian/g16/bsd:/gpfs/fs1/soft/improv/software/custom-built/gaussian/g16" -env "OMP_PROC_BIND=true" -env "OMP_PLACES={0},{1},{2},{3},{4},{5},{6},{7},{8},{9},{10},{11},{12},{13},{14},{15},{16},{17},{18},{19},{20},{21},{22},{23},{24},{25},{26},{27},{28},{29},{30},{31},{32},{33},{34},{35},{36},{37},{38},{39},{40},{41},{42},{43},{44},{45},{46},{47},{48},{49},{50},{51},{52},{53},{54},{55},{56},{57},{58},{59},{60},{61},{62},{63},{64},{65},{66},{67},{68},{69},{70},{71},{72},{73},{74},{75},{76},{77},{78},{79},{80},{81},{82},{83},{84},{85},{86},{87},{88},{89},{90},{91},{92},{93},{94},{95},{96},{97},{98},{99},{100},{101},{102},{103},{104},{105},{106},{107},{108},{109},{110},{111},{112},{113},{114},{115},{116},{117},{118},{119},{120},{121},{122},{123},{124},{125},{126},{127}" -env GAUSS_ADEF="0,1,2,3,4,5,6,7,8,9,10,11,12,13,14,15,16,17,18,19,20,21,22,23,24,25,26,27,28,29,30,31,32,33,34,35,36,37,38,39,40,41,42,43,44,45,46,47,48,49,50,51,52,53,54,55,56,57,58,59,60,61,62,63,64,65,66,67,68,69,70,71,72,73,74,75,76,77,78,79,80,81,82,83,84,85,86,87,88,89,90,91,92,93,94,95,96,97,98,99,100,101,102,103,104,105,106,107,108,109,110,111,112,113,114,115,116,117,118,119,120,121,122,123,124,125,126,127""
 Will use up to    1 processors via Linda.
 ----------------------------------------------------------------------
 #p HSEH1PBE 6-31+G(2df,p) opt=(cartesian,calcall,maxcycles=500) freq s
 cf=(maxcycles=500,xqc,maxconventional=50)
 ----------------------------------------------------------------------
 1/6=500,10=4,18=10,26=3,38=1/1,3;
 2/12=2,17=6,18=5,29=2,40=1/2;
 3/5=1,6=6,7=114,11=2,25=1,30=1,71=2,74=-51,140=1/1,2,3;
 4//1;
 5/5=2,7=500,8=3,13=1,38=5,85=50/2,8;
 8/6=4,10=90,11=11/1;
 11/6=1,8=1,9=11,15=111,16=1/1,2,10;
 10/6=1/2;
 6/7=2,8=2,9=2,10=2,18=1,28=1/1;
 7/7=1,10=1,25=1/1,2,3,16;
 1/6=500,10=4,18=10,26=3/3(3);
 2/29=1/2;
 7/7=1,8=1,9=1,25=1,44=-1/16;
 99/12=1/99;
 2/29=1/2;
 3/5=1,6=6,7=114,11=2,25=1,30=1,71=2,74=-51,140=1/1,2,3;
 4/5=5,16=3,69=1/1;
 5/5=2,7=500,8=3,13=1,38=5,85=50/2,8;
 8/6=4,10=90,11=11/1;
 11/6=1,8=1,9=11,15=111,16=1/1,2,10;
 10/6=1/2;
 7/7=1,10=1,25=1/1,2,3,16;
 1/6=500,10=4,18=10,26=3/3(-8);
 2/29=1/2;
 6/7=2,8=2,9=2,10=2,18=1,19=2,28=1/1;
 7/7=1,8=1,9=1,25=1,44=-1/16;
 99/12=1/99;
 Leave Link    1 at Thu May 23 12:33:04 2024, MaxMem=           0 cpu:               4.1 elap:               0.1
 (Enter /gpfs/fs1/soft/improv/software/custom-built/gaussian/g16/l101.exe)
 -----
 Title
 -----
 Symbolic Z-matrix:
 Charge =  2 Multiplicity = 5
 Cr                   -0.79304   0.81881  -0.09491 
 O                    -1.20497   2.57394  -0.35687 
 H                    -2.12106   2.64974  -0.63312 
 O                     0.99012   1.19063  -0.05794 
 H                     1.42696   0.5998    0.55971 
 O                    -0.81752   1.03069   1.71365 
 H                    -1.02108   0.1906    2.13133 
 O                    -0.38507  -0.93351   0.17118 
 H                    -1.15682  -1.47369  -0.01433 
 O                    -2.57341   0.45178  -0.12186 
 H                    -2.77756  -0.08744  -0.88929 
 O                    -0.76966   0.60461  -1.90111 
 H                     0.09872   0.83457  -2.23949 
 H                    -0.96534  -0.30999  -2.11742 
 H                     1.12208   2.09943   0.22124 
 H                    -1.07671   3.0584    0.46184 
 H                    -2.81407  -0.02398   0.6765 
 H                     0.0422    1.33615   2.01181 
 H                    -0.11532  -1.06446   1.08312 
 
 ITRead=  0  0  0  0  0  0  0  0  0  0  0  0  0  0  0  0  0  0  0
 MicOpt= -1 -1 -1 -1 -1 -1 -1 -1 -1 -1 -1 -1 -1 -1 -1 -1 -1 -1 -1
 NAtoms=     19 NQM=       19 NQMF=       0 NMMI=      0 NMMIF=      0
                NMic=       0 NMicF=      0.
                    Isotopes and Nuclear Properties:
 (Nuclear quadrupole moments (NQMom) in fm**2, nuclear magnetic moments (NMagM)
  in nuclear magnetons)

  Atom         1           2           3           4           5           6           7           8           9          10
 IAtWgt=          52          16           1          16           1          16           1          16           1          16
 AtmWgt=  51.9405097  15.9949146   1.0078250  15.9949146   1.0078250  15.9949146   1.0078250  15.9949146   1.0078250  15.9949146
 NucSpn=           0           0           1           0           1           0           1           0           1           0
 AtZEff=  -0.0000000  -0.0000000  -0.0000000  -0.0000000  -0.0000000  -0.0000000  -0.0000000  -0.0000000  -0.0000000  -0.0000000
 NQMom=    0.0000000   0.0000000   0.0000000   0.0000000   0.0000000   0.0000000   0.0000000   0.0000000   0.0000000   0.0000000
 NMagM=    0.0000000   0.0000000   2.7928460   0.0000000   2.7928460   0.0000000   2.7928460   0.0000000   2.7928460   0.0000000
 AtZNuc=  24.0000000   8.0000000   1.0000000   8.0000000   1.0000000   8.0000000   1.0000000   8.0000000   1.0000000   8.0000000

  Atom        11          12          13          14          15          16          17          18          19
 IAtWgt=           1          16           1           1           1           1           1           1           1
 AtmWgt=   1.0078250  15.9949146   1.0078250   1.0078250   1.0078250   1.0078250   1.0078250   1.0078250   1.0078250
 NucSpn=           1           0           1           1           1           1           1           1           1
 AtZEff=  -0.0000000  -0.0000000  -0.0000000  -0.0000000  -0.0000000  -0.0000000  -0.0000000  -0.0000000  -0.0000000
 NQMom=    0.0000000   0.0000000   0.0000000   0.0000000   0.0000000   0.0000000   0.0000000   0.0000000   0.0000000
 NMagM=    2.7928460   0.0000000   2.7928460   2.7928460   2.7928460   2.7928460   2.7928460   2.7928460   2.7928460
 AtZNuc=   1.0000000   8.0000000   1.0000000   1.0000000   1.0000000   1.0000000   1.0000000   1.0000000   1.0000000
 Leave Link  101 at Thu May 23 12:33:04 2024, MaxMem= 26843545600 cpu:               0.4 elap:               0.1
 (Enter /gpfs/fs1/soft/improv/software/custom-built/gaussian/g16/l103.exe)

 GradGradGradGradGradGradGradGradGradGradGradGradGradGradGradGradGradGrad
 Berny optimization.
 Initialization pass.
 No Z-matrix variables, so optimization will use Cartesian coordinates.
 Trust Radius=3.00D-01 FncErr=1.00D-07 GrdErr=1.00D-06 EigMax=2.50D+02 EigMin=1.00D-04
 Number of steps in this run=    114 maximum allowed number of steps=    114.
 GradGradGradGradGradGradGradGradGradGradGradGradGradGradGradGradGradGrad

 Leave Link  103 at Thu May 23 12:33:04 2024, MaxMem= 26843545600 cpu:               0.4 elap:               0.0
 (Enter /gpfs/fs1/soft/improv/software/custom-built/gaussian/g16/l202.exe)
 ---------------------------------------------------------------------------------------------------
                            Z-MATRIX (ANGSTROMS AND DEGREES)
   CD    Cent   Atom    N1       Length/X        N2       Alpha/Y        N3        Beta/Z          J
 ---------------------------------------------------------------------------------------------------
      1      1  Cr       0  -0.793037          0.818805         -0.094905
      2      2  O        0  -1.204971          2.573941         -0.356874
      3      3  H        0  -2.121063          2.649743         -0.633122
      4      4  O        0   0.990122          1.190635         -0.057941
      5      5  H        0   1.426962          0.599798          0.559707
      6      6  O        0  -0.817519          1.030691          1.713650
      7      7  H        0  -1.021079          0.190602          2.131326
      8      8  O        0  -0.385068         -0.933506          0.171177
      9      9  H        0  -1.156817         -1.473692         -0.014327
     10     10  O        0  -2.573405          0.451778         -0.121857
     11     11  H        0  -2.777557         -0.087440         -0.889285
     12     12  O        0  -0.769659          0.604612         -1.901109
     13     13  H        0   0.098725          0.834573         -2.239490
     14     14  H        0  -0.965336         -0.309994         -2.117418
     15     15  H        0   1.122081          2.099426          0.221242
     16     16  H        0  -1.076711          3.058396          0.461841
     17     17  H        0  -2.814074         -0.023981          0.676500
     18     18  H        0   0.042204          1.336153          2.011809
     19     19  H        0  -0.115315         -1.064459          1.083123
 ---------------------------------------------------------------------------------------------------
                         Z-Matrix orientation:                         
 ---------------------------------------------------------------------
 Center     Atomic      Atomic             Coordinates (Angstroms)
 Number     Number       Type             X           Y           Z
 ---------------------------------------------------------------------
      1         24           0       -0.793037    0.818805   -0.094905
      2          8           0       -1.204971    2.573941   -0.356874
      3          1           0       -2.121063    2.649743   -0.633122
      4          8           0        0.990122    1.190635   -0.057941
      5          1           0        1.426962    0.599798    0.559707
      6          8           0       -0.817519    1.030691    1.713650
      7          1           0       -1.021079    0.190602    2.131326
      8          8           0       -0.385068   -0.933506    0.171177
      9          1           0       -1.156817   -1.473692   -0.014327
     10          8           0       -2.573405    0.451778   -0.121857
     11          1           0       -2.777557   -0.087440   -0.889285
     12          8           0       -0.769659    0.604612   -1.901109
     13          1           0        0.098725    0.834573   -2.239490
     14          1           0       -0.965336   -0.309994   -2.117418
     15          1           0        1.122081    2.099426    0.221242
     16          1           0       -1.076711    3.058396    0.461841
     17          1           0       -2.814074   -0.023981    0.676500
     18          1           0        0.042204    1.336153    2.011809
     19          1           0       -0.115315   -1.064459    1.083123
 ---------------------------------------------------------------------
                    Distance matrix (angstroms):
                    1          2          3          4          5
     1  Cr   0.000000
     2  O    1.821762   0.000000
     3  H    2.325008   0.959835   0.000000
     4  O    1.821889   2.611767   3.484150   0.000000
     5  H    2.324839   3.415322   4.267739   0.959899   0.000000
     6  O    1.821090   2.611285   3.134947   2.536076   2.560263
     7  H    2.324381   3.450400   3.859988   3.136540   2.937743
     8  O    1.818745   3.640503   4.062050   2.540791   2.405292
     9  H    2.322579   4.062387   4.279649   3.421971   3.362259
    10  O    1.818006   2.536025   2.301533   3.639880   4.060711
    11  H    2.321775   3.136788   2.826442   4.064482   4.499984
    12  O    1.819010   2.540161   2.759827   2.614866   3.298603
    13  H    2.322657   2.875634   3.286750   2.383386   3.107223
    14  H    2.322591   3.387332   3.506977   3.212032   3.703756
    15  H    2.325429   2.444290   3.398642   0.959822   1.567289
    16  H    2.325125   0.959918   1.567358   2.833814   3.510364
    17  H    2.321626   3.225876   3.056824   4.060370   4.288255
    18  H    2.324547   2.949275   3.660724   2.281137   2.137375
    19  H    2.322443   4.061883   4.556733   2.758526   2.328591
                    6          7          8          9         10
     6  O    0.000000
     7  H    0.960021   0.000000
     8  O    2.534622   2.347406   0.000000
     9  H    3.061530   2.718847   0.960108   0.000000
    10  O    2.605257   2.748593   2.606473   2.392848   0.000000
    11  H    3.444886   3.505227   2.750347   2.305222   0.959885
    12  O    3.640099   4.061422   2.609231   2.833582   2.538227
    13  H    4.062670   4.557707   3.028445   3.443229   3.430916
    14  H    4.061572   4.278496   2.441955   2.411193   2.673658
    15  H    2.670492   3.447487   3.387136   4.244531   4.060675
    16  H    2.397039   3.318813   4.061790   4.557738   3.061904
    17  H    2.484803   2.318921   2.642472   2.307685   0.960023
    18  H    0.959858   1.567527   2.953276   3.665802   3.489421
    19  H    2.297892   1.869309   0.959980   1.567353   3.129403
                   11         12         13         14         15
    11  H    0.000000
    12  O    2.352526   0.000000
    13  H    3.308498   0.959935   0.000000
    14  H    2.200452   0.959991   1.567533   0.000000
    15  H    4.606825   3.212091   2.949969   3.953725   0.000000
    16  H    3.822919   3.420362   3.691102   4.243941   2.410850
    17  H    1.567497   3.349453   4.210050   3.362383   4.495491
    18  H    4.288824   4.062660   4.281159   4.558009   2.225950
    19  H    3.454344   3.481323   3.833001   3.396353   3.504877
                   16         17         18         19
    16  H    0.000000
    17  H    3.544793   0.000000
    18  H    2.573032   3.433851   0.000000
    19  H    4.278809   2.920828   2.578800   0.000000
 Stoichiometry    CrH12O6(2+,5)
 Framework group  C1[X(CrH12O6)]
 Deg. of freedom    51
 Full point group                 C1      NOp   1
 Largest Abelian subgroup         C1      NOp   1
 Largest concise Abelian subgroup C1      NOp   1
                         Standard orientation:                         
 ---------------------------------------------------------------------
 Center     Atomic      Atomic             Coordinates (Angstroms)
 Number     Number       Type             X           Y           Z
 ---------------------------------------------------------------------
      1         24           0       -0.020685   -0.030482    0.009994
      2          8           0       -0.320844   -1.688023   -0.683750
      3          1           0       -1.137089   -1.680465   -1.188697
      4          8           0        1.254521   -0.678417    1.138405
      5          1           0        1.943144   -0.019792    1.254236
      6          8           0        1.297903    0.293995   -1.203435
      7          1           0        1.381609    1.240665   -1.339268
      8          8           0        0.280044    1.626266    0.697440
      9          1           0       -0.431883    2.215255    0.436555
     10          8           0       -1.286249    0.615324   -1.124214
     11          1           0       -2.035220    0.938006   -0.617955
     12          8           0       -1.338537   -0.351919    1.221911
     13          1           0       -0.971839   -0.815948    1.978009
     14          1           0       -1.717555    0.481353    1.511023
     15          1           0        1.635363   -1.477123    0.766536
     16          1           0        0.408500   -1.931252   -1.258500
     17          1           0       -0.915691    1.334609   -1.640895
     18          1           0        2.128750   -0.056695   -0.874745
     19          1           0        1.113633    1.965130    0.362982
 ---------------------------------------------------------------------
 Rotational constants (GHZ):           2.0397002           1.9739464           1.9252837
 Leave Link  202 at Thu May 23 12:33:04 2024, MaxMem= 26843545600 cpu:               0.5 elap:               0.1
 (Enter /gpfs/fs1/soft/improv/software/custom-built/gaussian/g16/l301.exe)
 Standard basis: 6-31+G(2df,p) (6D, 7F)
 Ernie: Thresh=  0.10000D-02 Tol=  0.10000D-05 Strict=F.
 There are   347 symmetry adapted cartesian basis functions of A   symmetry.
 There are   317 symmetry adapted basis functions of A   symmetry.
   317 basis functions,   514 primitive gaussians,   347 cartesian basis functions
    43 alpha electrons       39 beta electrons
       nuclear repulsion energy       734.4111157916 Hartrees.
 IExCor= 3909 DFT=T Ex+Corr=HSEH1PBE ExCW=0 ScaHFX=  0.250000
 ScaDFX=  1.000000  1.000000  1.000000  1.000000 ScalE2=  1.000000  1.000000
 IRadAn=      5 IRanWt=     -1 IRanGd=            0 ICorTp=0 IEmpDi=  4
 HFx  wShort=  0.110000 wLong=  0.000000 cFull=  0.000000 cShort=  1.000000 cLong=  0.000000
 DFx  wShort=  0.110000 wLong=  0.000000 cFull=  0.000000 cShort= -0.250000 cLong=  1.000000
 NAtoms=   19 NActive=   19 NUniq=   19 SFac= 1.00D+00 NAtFMM=   60 NAOKFM=F Big=F
 Integral buffers will be    131072 words long.
 Raffenetti 2 integral format.
 Two-electron integral symmetry is turned on.
 Leave Link  301 at Thu May 23 12:33:04 2024, MaxMem= 26843545600 cpu:               0.4 elap:               0.0
 (Enter /gpfs/fs1/soft/improv/software/custom-built/gaussian/g16/l302.exe)
 NPDir=0 NMtPBC=     1 NCelOv=     1 NCel=       1 NClECP=     1 NCelD=      1
         NCelK=      1 NCelE2=     1 NClLst=     1 CellRange=     0.0.
 One-electron integrals computed using PRISM.
 One-electron integral symmetry used in STVInt
 NBasis=   317 RedAO= T EigKep=  2.57D-05  NBF=   317
 NBsUse=   317 1.00D-06 EigRej= -1.00D+00 NBFU=   317
 Precomputing XC quadrature grid using
 IXCGrd= 4 IRadAn=           5 IRanWt=          -1 IRanGd=           0 AccXCQ= 0.00D+00.
 Generated NRdTot=       0 NPtTot=           0 NUsed=           0 NTot=          32
 NSgBfM=   347   346   347   347   347 MxSgAt=    19 MxSgA2=    19.
 Leave Link  302 at Thu May 23 12:33:05 2024, MaxMem= 26843545600 cpu:              21.8 elap:               0.3
 (Enter /gpfs/fs1/soft/improv/software/custom-built/gaussian/g16/l303.exe)
 DipDrv:  MaxL=1.
 Leave Link  303 at Thu May 23 12:33:05 2024, MaxMem= 26843545600 cpu:               1.1 elap:               0.0
 (Enter /gpfs/fs1/soft/improv/software/custom-built/gaussian/g16/l401.exe)
 ExpMin= 1.13D-02 ExpMax= 5.18D+04 ExpMxC= 7.78D+03 IAcc=3 IRadAn=         5 AccDes= 0.00D+00
 Harris functional with IExCor= 1009 and IRadAn=       5 diagonalized for initial guess.
 HarFok:  IExCor= 1009 AccDes= 0.00D+00 IRadAn=         5 IDoV= 1 UseB2=F ITyADJ=14
 ICtDFT=  3500011 ScaDFX=  1.000000  1.000000  1.000000  1.000000
 FoFCou: FMM=F IPFlag=           0 FMFlag=      100000 FMFlg1=           0
         NFxFlg=           0 DoJE=T BraDBF=F KetDBF=T FulRan=T
         wScrn=  0.000000 ICntrl=       500 IOpCl=  0 I1Cent=   200000004 NGrid=           0
         NMat0=    1 NMatS0=      1 NMatT0=    0 NMatD0=    1 NMtDS0=    0 NMtDT0=    0
 Petite list used in FoFCou.
 Harris En= -1501.93966204723    
 JPrj=0 DoOrth=F DoCkMO=F.
 Initial guess <Sx>= 0.0000 <Sy>= 0.0000 <Sz>= 2.0000 <S**2>= 6.0000 S= 2.0000
 Leave Link  401 at Thu May 23 12:33:06 2024, MaxMem= 26843545600 cpu:              38.9 elap:               0.5
 (Enter /gpfs/fs1/soft/improv/software/custom-built/gaussian/g16/l502.exe)
 Integral symmetry usage will be decided dynamically.
 UHF open shell SCF:
 Using DIIS extrapolation, IDIIS=  1040.
 NGot= 26843545600 LenX= 26843256607 LenY= 26843135757
 Requested convergence on RMS density matrix=1.00D-08 within  50 cycles.
 Requested convergence on MAX density matrix=1.00D-06.
 Requested convergence on             energy=1.00D-06.
 No special actions if energy rises.
 Fock matrices will be formed incrementally for  20 cycles.

 Cycle   1  Pass 1  IDiag  1:
 FoFJK:  IHMeth= 1 ICntrl=       0 DoSepK=T KAlg= 0 I1Cent=           0 FoldK=F
 IRaf=         1 NMat=       1 IRICut=       1 DoRegI=T DoRafI=F ISym2E= 0 IDoP0=0 IntGTp=1.
 FoFCou: FMM=F IPFlag=           0 FMFlag=      100000 FMFlg1=           0
         NFxFlg=           0 DoJE=T BraDBF=F KetDBF=F FulRan=T
         wScrn=  0.000000 ICntrl=       500 IOpCl=  0 I1Cent=           0 NGrid=           0
         NMat0=    1 NMatS0=      1 NMatT0=    0 NMatD0=    1 NMtDS0=    0 NMtDT0=    0
 Symmetry not used in FoFCou.
 E= -1500.68720230891    
 DIIS: error= 5.63D-02 at cycle   1 NSaved=   1.
 NSaved= 1 IEnMin= 1 EnMin= -1500.68720230891     IErMin= 1 ErrMin= 5.63D-02
 ErrMax= 5.63D-02  0.00D+00 EMaxC= 1.00D-01 BMatC= 6.03D+00 BMatP= 6.03D+00
 IDIUse=3 WtCom= 4.37D-01 WtEn= 5.63D-01
 Coeff-Com:  0.100D+01
 Coeff-En:   0.100D+01
 Coeff:      0.100D+01
 Gap=     0.530 Goal=   None    Shift=    0.000
 Gap=     0.264 Goal=   None    Shift=    0.000
 GapD=    0.264 DampG=1.000 DampE=0.250 DampFc=0.2500 IDamp=-1.
 Damping current iteration by 2.50D-01
 RMSDP=2.97D-02 MaxDP=2.53D+00              OVMax= 9.25D-01

 Cycle   2  Pass 1  IDiag  1:
 RMSU=  7.20D-03    CP:  9.27D-01
 E= -1500.58927087169     Delta-E=        0.097931437227 Rises=F Damp=T
 DIIS: error= 2.16D-02 at cycle   2 NSaved=   2.
 NSaved= 2 IEnMin= 1 EnMin= -1500.68720230891     IErMin= 2 ErrMin= 2.16D-02
 ErrMax= 2.16D-02  0.00D+00 EMaxC= 1.00D-01 BMatC= 8.66D-01 BMatP= 6.03D+00
 IDIUse=3 WtCom= 7.84D-01 WtEn= 2.16D-01
 Coeff-Com:  0.175D+00 0.825D+00
 Coeff-En:   0.537D+00 0.463D+00
 Coeff:      0.253D+00 0.747D+00
 Gap=    -0.042 Goal=   None    Shift=    0.000
 Gap=     0.025 Goal=   None    Shift=    0.000
 RMSDP=1.70D-02 MaxDP=2.18D+00 DE= 9.79D-02 OVMax= 9.93D-01

 Cycle   3  Pass 1  IDiag  1:
 RMSU=  1.63D-02    CP:  9.03D-01  2.98D-01
 E= -1501.46596039194     Delta-E=       -0.876689520252 Rises=F Damp=F
 DIIS: error= 1.78D-02 at cycle   3 NSaved=   3.
 NSaved= 3 IEnMin= 3 EnMin= -1501.46596039194     IErMin= 3 ErrMin= 1.78D-02
 ErrMax= 1.78D-02  0.00D+00 EMaxC= 1.00D-01 BMatC= 1.26D+00 BMatP= 8.66D-01
 IDIUse=2 WtCom= 0.00D+00 WtEn= 1.00D+00
 Coeff-En:   0.000D+00 0.000D+00 0.100D+01
 Coeff:      0.000D+00 0.000D+00 0.100D+01
 Gap=     0.066 Goal=   None    Shift=    0.000
 Gap=     0.435 Goal=   None    Shift=    0.000
 RMSDP=2.19D-02 MaxDP=3.20D+00 DE=-8.77D-01 OVMax= 9.45D-01

 Cycle   4  Pass 1  IDiag  1:
 RMSU=  8.71D-03    CP:  6.28D-01  1.80D+00  4.45D-02
 E= -1499.90547256071     Delta-E=        1.560487831228 Rises=F Damp=F
 DIIS: error= 8.48D-02 at cycle   4 NSaved=   4.
 NSaved= 4 IEnMin= 3 EnMin= -1501.46596039194     IErMin= 3 ErrMin= 1.78D-02
 ErrMax= 8.48D-02  0.00D+00 EMaxC= 1.00D-01 BMatC= 1.15D+01 BMatP= 8.66D-01
 IDIUse=2 WtCom= 0.00D+00 WtEn= 1.00D+00
 Coeff-En:   0.000D+00 0.000D+00 0.825D+00 0.175D+00
 Coeff:      0.000D+00 0.000D+00 0.825D+00 0.175D+00
 Gap=     0.010 Goal=   None    Shift=    0.000
 Gap=     0.280 Goal=   None    Shift=    0.000
 RMSDP=6.40D-03 MaxDP=2.62D-01 DE= 1.56D+00 OVMax= 2.62D-01

 Cycle   5  Pass 1  IDiag  1:
 RMSU=  3.13D-03    CP:  6.11D-01  1.03D+00  6.25D-02  1.11D+00
 E= -1501.41963352981     Delta-E=       -1.514160969101 Rises=F Damp=F
 DIIS: error= 1.95D-02 at cycle   5 NSaved=   5.
 NSaved= 5 IEnMin= 3 EnMin= -1501.46596039194     IErMin= 3 ErrMin= 1.78D-02
 ErrMax= 1.95D-02  0.00D+00 EMaxC= 1.00D-01 BMatC= 1.37D+00 BMatP= 8.66D-01
 IDIUse=2 WtCom= 0.00D+00 WtEn= 1.00D+00
 Coeff-En:   0.000D+00 0.000D+00 0.532D+00 0.000D+00 0.468D+00
 Coeff:      0.000D+00 0.000D+00 0.532D+00 0.000D+00 0.468D+00
 Gap=     0.050 Goal=   None    Shift=    0.000
 Gap=     0.348 Goal=   None    Shift=    0.000
 RMSDP=1.92D-02 MaxDP=2.42D+00 DE=-1.51D+00 OVMax= 9.99D-01

 Cycle   6  Pass 1  IDiag  1:
 RMSU=  5.61D-03    CP:  8.71D-01  5.79D-01  9.30D-01  1.49D-01 -2.97D-01
 E= -1501.66473223114     Delta-E=       -0.245098701332 Rises=F Damp=F
 DIIS: error= 7.29D-03 at cycle   6 NSaved=   6.
 NSaved= 6 IEnMin= 6 EnMin= -1501.66473223114     IErMin= 6 ErrMin= 7.29D-03
 ErrMax= 7.29D-03  0.00D+00 EMaxC= 1.00D-01 BMatC= 1.61D-01 BMatP= 8.66D-01
 IDIUse=3 WtCom= 9.27D-01 WtEn= 7.29D-02
 Coeff-Com: -0.544D-01 0.841D-01 0.266D+00-0.547D-01 0.382D+00 0.377D+00
 Coeff-En:   0.000D+00 0.000D+00 0.000D+00 0.000D+00 0.140D+00 0.860D+00
 Coeff:     -0.504D-01 0.779D-01 0.247D+00-0.507D-01 0.364D+00 0.412D+00
 Gap=     0.037 Goal=   None    Shift=    0.000
 Gap=     0.347 Goal=   None    Shift=    0.000
 RMSDP=2.43D-03 MaxDP=2.81D-01 DE=-2.45D-01 OVMax= 9.79D-02

 Cycle   7  Pass 1  IDiag  1:
 RMSU=  1.12D-03    CP:  8.79D-01  5.21D-01  9.33D-01  1.32D-01 -3.43D-01
                    CP:  6.27D-01
 E= -1501.67645303671     Delta-E=       -0.011720805563 Rises=F Damp=F
 DIIS: error= 6.38D-03 at cycle   7 NSaved=   7.
 NSaved= 7 IEnMin= 7 EnMin= -1501.67645303671     IErMin= 7 ErrMin= 6.38D-03
 ErrMax= 6.38D-03  0.00D+00 EMaxC= 1.00D-01 BMatC= 1.08D-01 BMatP= 1.61D-01
 IDIUse=3 WtCom= 9.36D-01 WtEn= 6.38D-02
 Coeff-Com: -0.585D-01 0.590D-01 0.597D-01-0.148D-01 0.196D+00 0.108D+00
 Coeff-Com:  0.651D+00
 Coeff-En:   0.000D+00 0.000D+00 0.000D+00 0.000D+00 0.106D+00 0.000D+00
 Coeff-En:   0.894D+00
 Coeff:     -0.548D-01 0.552D-01 0.559D-01-0.138D-01 0.190D+00 0.101D+00
 Coeff:      0.666D+00
 Gap=     0.041 Goal=   None    Shift=    0.000
 Gap=     0.335 Goal=   None    Shift=    0.000
 RMSDP=9.45D-04 MaxDP=9.05D-02 DE=-1.17D-02 OVMax= 2.32D-02

 Cycle   8  Pass 1  IDiag  1:
 RMSU=  4.32D-04    CP:  8.77D-01  5.72D-01  9.28D-01  1.40D-01 -4.06D-01
                    CP:  7.54D-01  8.86D-01
 E= -1501.68871297179     Delta-E=       -0.012259935084 Rises=F Damp=F
 DIIS: error= 3.94D-03 at cycle   8 NSaved=   8.
 NSaved= 8 IEnMin= 8 EnMin= -1501.68871297179     IErMin= 8 ErrMin= 3.94D-03
 ErrMax= 3.94D-03  0.00D+00 EMaxC= 1.00D-01 BMatC= 3.87D-02 BMatP= 1.08D-01
 IDIUse=3 WtCom= 9.61D-01 WtEn= 3.94D-02
 Coeff-Com: -0.149D-01 0.903D-02-0.477D-01 0.111D-01 0.204D-01-0.304D+00
 Coeff-Com: -0.141D+00 0.147D+01
 Coeff-En:   0.000D+00 0.000D+00 0.000D+00 0.000D+00 0.113D-01 0.000D+00
 Coeff-En:   0.000D+00 0.989D+00
 Coeff:     -0.143D-01 0.867D-02-0.458D-01 0.107D-01 0.201D-01-0.292D+00
 Coeff:     -0.136D+00 0.145D+01
 Gap=     0.042 Goal=   None    Shift=    0.000
 Gap=     0.308 Goal=   None    Shift=    0.000
 RMSDP=1.04D-03 MaxDP=1.70D-01 DE=-1.23D-02 OVMax= 1.98D-02

 Cycle   9  Pass 1  IDiag  1:
 RMSU=  7.09D-04    CP:  8.79D-01  6.46D-01  9.43D-01  1.35D-01 -4.92D-01
                    CP:  7.81D-01  1.18D+00  6.90D-01
 E= -1501.69516105111     Delta-E=       -0.006448079319 Rises=F Damp=F
 DIIS: error= 7.72D-04 at cycle   9 NSaved=   9.
 NSaved= 9 IEnMin= 9 EnMin= -1501.69516105111     IErMin= 9 ErrMin= 7.72D-04
 ErrMax= 7.72D-04  0.00D+00 EMaxC= 1.00D-01 BMatC= 2.17D-03 BMatP= 3.87D-02
 IDIUse=3 WtCom= 9.92D-01 WtEn= 7.72D-03
 Coeff-Com:  0.249D-02-0.214D-02-0.203D-01 0.342D-02 0.247D-02-0.204D+00
 Coeff-Com: -0.280D+00 0.877D+00 0.621D+00
 Coeff-En:   0.000D+00 0.000D+00 0.000D+00 0.000D+00 0.000D+00 0.000D+00
 Coeff-En:   0.000D+00 0.000D+00 0.100D+01
 Coeff:      0.248D-02-0.212D-02-0.201D-01 0.340D-02 0.245D-02-0.203D+00
 Coeff:     -0.278D+00 0.871D+00 0.624D+00
 Gap=     0.043 Goal=   None    Shift=    0.000
 Gap=     0.305 Goal=   None    Shift=    0.000
 RMSDP=5.94D-04 MaxDP=9.19D-02 DE=-6.45D-03 OVMax= 1.51D-02

 Cycle  10  Pass 1  IDiag  1:
 RMSU=  1.16D-04    CP:  8.77D-01  6.51D-01  9.29D-01  1.44D-01 -5.02D-01
                    CP:  8.06D-01  1.06D+00  1.54D+00  5.39D-01
 E= -1501.69555233805     Delta-E=       -0.000391286941 Rises=F Damp=F
 DIIS: error= 1.77D-04 at cycle  10 NSaved=  10.
 NSaved=10 IEnMin=10 EnMin= -1501.69555233805     IErMin=10 ErrMin= 1.77D-04
 ErrMax= 1.77D-04  0.00D+00 EMaxC= 1.00D-01 BMatC= 1.12D-04 BMatP= 2.17D-03
 IDIUse=3 WtCom= 9.98D-01 WtEn= 1.77D-03
 Coeff-Com:  0.226D-02-0.161D-02-0.515D-02 0.719D-03 0.255D-02-0.702D-01
 Coeff-Com: -0.998D-01 0.265D+00 0.289D+00 0.616D+00
 Coeff-En:   0.000D+00 0.000D+00 0.000D+00 0.000D+00 0.000D+00 0.000D+00
 Coeff-En:   0.000D+00 0.000D+00 0.000D+00 0.100D+01
 Coeff:      0.226D-02-0.161D-02-0.514D-02 0.718D-03 0.254D-02-0.701D-01
 Coeff:     -0.996D-01 0.265D+00 0.289D+00 0.617D+00
 Gap=     0.043 Goal=   None    Shift=    0.000
 Gap=     0.305 Goal=   None    Shift=    0.000
 RMSDP=2.65D-04 MaxDP=3.18D-02 DE=-3.91D-04 OVMax= 6.94D-03

 Cycle  11  Pass 1  IDiag  1:
 RMSU=  4.52D-05    CP:  8.77D-01  6.50D-01  9.33D-01  1.43D-01 -5.03D-01
                    CP:  7.79D-01  1.15D+00  1.26D+00  7.22D-01  5.82D-01
 E= -1501.69557413980     Delta-E=       -0.000021801751 Rises=F Damp=F
 DIIS: error= 7.18D-05 at cycle  11 NSaved=  11.
 NSaved=11 IEnMin=11 EnMin= -1501.69557413980     IErMin=11 ErrMin= 7.18D-05
 ErrMax= 7.18D-05  0.00D+00 EMaxC= 1.00D-01 BMatC= 1.92D-05 BMatP= 1.12D-04
 IDIUse=1 WtCom= 1.00D+00 WtEn= 0.00D+00
 Coeff-Com:  0.107D-02-0.818D-03-0.883D-03 0.790D-04 0.217D-02-0.217D-01
 Coeff-Com: -0.276D-01 0.694D-01 0.103D+00 0.343D+00 0.533D+00
 Coeff:      0.107D-02-0.818D-03-0.883D-03 0.790D-04 0.217D-02-0.217D-01
 Coeff:     -0.276D-01 0.694D-01 0.103D+00 0.343D+00 0.533D+00
 Gap=     0.043 Goal=   None    Shift=    0.000
 Gap=     0.305 Goal=   None    Shift=    0.000
 RMSDP=1.07D-04 MaxDP=1.38D-02 DE=-2.18D-05 OVMax= 2.69D-03

 Cycle  12  Pass 1  IDiag  1:
 RMSU=  1.72D-05    CP:  8.77D-01  6.49D-01  9.30D-01  1.44D-01 -5.03D-01
                    CP:  7.86D-01  1.12D+00  1.39D+00  6.39D-01  7.61D-01
                    CP:  7.59D-01
 E= -1501.69557785039     Delta-E=       -0.000003710586 Rises=F Damp=F
 DIIS: error= 4.00D-05 at cycle  12 NSaved=  12.
 NSaved=12 IEnMin=12 EnMin= -1501.69557785039     IErMin=12 ErrMin= 4.00D-05
 ErrMax= 4.00D-05  0.00D+00 EMaxC= 1.00D-01 BMatC= 2.65D-06 BMatP= 1.92D-05
 IDIUse=1 WtCom= 1.00D+00 WtEn= 0.00D+00
 Coeff-Com:  0.156D-03-0.120D-03 0.746D-03-0.169D-03 0.136D-02-0.254D-03
 Coeff-Com:  0.242D-02-0.773D-02-0.298D-03 0.472D-01 0.256D+00 0.700D+00
 Coeff:      0.156D-03-0.120D-03 0.746D-03-0.169D-03 0.136D-02-0.254D-03
 Coeff:      0.242D-02-0.773D-02-0.298D-03 0.472D-01 0.256D+00 0.700D+00
 Gap=     0.043 Goal=   None    Shift=    0.000
 Gap=     0.305 Goal=   None    Shift=    0.000
 RMSDP=3.02D-05 MaxDP=5.38D-03 DE=-3.71D-06 OVMax= 9.20D-04

 Cycle  13  Pass 1  IDiag  1:
 RMSU=  6.02D-06    CP:  8.77D-01  6.50D-01  9.31D-01  1.44D-01 -5.03D-01
                    CP:  7.86D-01  1.13D+00  1.35D+00  6.68D-01  7.27D-01
                    CP:  8.81D-01  1.02D+00
 E= -1501.69557827712     Delta-E=       -0.000000426728 Rises=F Damp=F
 DIIS: error= 2.62D-05 at cycle  13 NSaved=  13.
 NSaved=13 IEnMin=13 EnMin= -1501.69557827712     IErMin=13 ErrMin= 2.62D-05
 ErrMax= 2.62D-05  0.00D+00 EMaxC= 1.00D-01 BMatC= 1.07D-06 BMatP= 2.65D-06
 IDIUse=1 WtCom= 1.00D+00 WtEn= 0.00D+00
 Coeff-Com: -0.816D-04 0.147D-04 0.428D-03-0.220D-04 0.216D-03 0.213D-02
 Coeff-Com:  0.407D-02-0.131D-01-0.153D-01-0.356D-01 0.570D-02 0.228D+00
 Coeff-Com:  0.824D+00
 Coeff:     -0.816D-04 0.147D-04 0.428D-03-0.220D-04 0.216D-03 0.213D-02
 Coeff:      0.407D-02-0.131D-01-0.153D-01-0.356D-01 0.570D-02 0.228D+00
 Coeff:      0.824D+00
 Gap=     0.043 Goal=   None    Shift=    0.000
 Gap=     0.305 Goal=   None    Shift=    0.000
 RMSDP=9.78D-06 MaxDP=1.88D-03 DE=-4.27D-07 OVMax= 4.60D-04

 Cycle  14  Pass 1  IDiag  1:
 RMSU=  2.48D-06    CP:  8.77D-01  6.50D-01  9.31D-01  1.44D-01 -5.03D-01
                    CP:  7.86D-01  1.13D+00  1.36D+00  6.64D-01  7.49D-01
                    CP:  9.25D-01  1.19D+00  1.27D+00
 E= -1501.69557850415     Delta-E=       -0.000000227031 Rises=F Damp=F
 DIIS: error= 7.42D-06 at cycle  14 NSaved=  14.
 NSaved=14 IEnMin=14 EnMin= -1501.69557850415     IErMin=14 ErrMin= 7.42D-06
 ErrMax= 7.42D-06  0.00D+00 EMaxC= 1.00D-01 BMatC= 9.48D-08 BMatP= 1.07D-06
 IDIUse=1 WtCom= 1.00D+00 WtEn= 0.00D+00
 Coeff-Com: -0.475D-04 0.257D-04 0.114D-03 0.106D-04-0.365D-04 0.566D-03
 Coeff-Com:  0.766D-03-0.378D-02-0.531D-02-0.181D-01-0.255D-01 0.549D-03
 Coeff-Com:  0.311D+00 0.740D+00
 Coeff:     -0.475D-04 0.257D-04 0.114D-03 0.106D-04-0.365D-04 0.566D-03
 Coeff:      0.766D-03-0.378D-02-0.531D-02-0.181D-01-0.255D-01 0.549D-03
 Coeff:      0.311D+00 0.740D+00
 Gap=     0.043 Goal=   None    Shift=    0.000
 Gap=     0.305 Goal=   None    Shift=    0.000
 RMSDP=3.74D-06 MaxDP=4.63D-04 DE=-2.27D-07 OVMax= 1.97D-04

 Cycle  15  Pass 1  IDiag  1:
 RMSU=  1.16D-06    CP:  8.77D-01  6.50D-01  9.31D-01  1.44D-01 -5.03D-01
                    CP:  7.86D-01  1.13D+00  1.36D+00  6.66D-01  7.47D-01
                    CP:  9.42D-01  1.29D+00  1.54D+00  1.14D+00
 E= -1501.69557852594     Delta-E=       -0.000000021791 Rises=F Damp=F
 DIIS: error= 9.54D-07 at cycle  15 NSaved=  15.
 NSaved=15 IEnMin=15 EnMin= -1501.69557852594     IErMin=15 ErrMin= 9.54D-07
 ErrMax= 9.54D-07  0.00D+00 EMaxC= 1.00D-01 BMatC= 2.92D-09 BMatP= 9.48D-08
 IDIUse=1 WtCom= 1.00D+00 WtEn= 0.00D+00
 Coeff-Com: -0.818D-05 0.455D-05 0.687D-05 0.389D-05-0.192D-04 0.375D-04
 Coeff-Com: -0.795D-04-0.223D-03-0.156D-03-0.118D-02-0.455D-02-0.138D-01
 Coeff-Com:  0.906D-02 0.176D+00 0.835D+00
 Coeff:     -0.818D-05 0.455D-05 0.687D-05 0.389D-05-0.192D-04 0.375D-04
 Coeff:     -0.795D-04-0.223D-03-0.156D-03-0.118D-02-0.455D-02-0.138D-01
 Coeff:      0.906D-02 0.176D+00 0.835D+00
 Gap=     0.043 Goal=   None    Shift=    0.000
 Gap=     0.305 Goal=   None    Shift=    0.000
 RMSDP=1.28D-06 MaxDP=7.44D-05 DE=-2.18D-08 OVMax= 9.91D-05

 Cycle  16  Pass 1  IDiag  1:
 RMSU=  3.67D-07    CP:  8.77D-01  6.50D-01  9.31D-01  1.44D-01 -5.03D-01
                    CP:  7.86D-01  1.13D+00  1.36D+00  6.66D-01  7.50D-01
                    CP:  9.48D-01  1.33D+00  1.64D+00  1.37D+00  1.18D+00
 E= -1501.69557852734     Delta-E=       -0.000000001403 Rises=F Damp=F
 DIIS: error= 6.71D-07 at cycle  16 NSaved=  16.
 NSaved=16 IEnMin=16 EnMin= -1501.69557852734     IErMin=16 ErrMin= 6.71D-07
 ErrMax= 6.71D-07  0.00D+00 EMaxC= 1.00D-01 BMatC= 1.49D-09 BMatP= 2.92D-09
 IDIUse=1 WtCom= 1.00D+00 WtEn= 0.00D+00
 Coeff-Com:  0.362D-05-0.234D-05-0.179D-04 0.338D-06-0.503D-05-0.648D-04
 Coeff-Com: -0.166D-03 0.541D-03 0.928D-03 0.286D-02 0.257D-02-0.826D-02
 Coeff-Com: -0.549D-01-0.401D-01 0.510D+00 0.587D+00
 Coeff:      0.362D-05-0.234D-05-0.179D-04 0.338D-06-0.503D-05-0.648D-04
 Coeff:     -0.166D-03 0.541D-03 0.928D-03 0.286D-02 0.257D-02-0.826D-02
 Coeff:     -0.549D-01-0.401D-01 0.510D+00 0.587D+00
 Gap=     0.043 Goal=   None    Shift=    0.000
 Gap=     0.305 Goal=   None    Shift=    0.000
 RMSDP=8.71D-07 MaxDP=4.72D-05 DE=-1.40D-09 OVMax= 5.95D-05

 Cycle  17  Pass 1  IDiag  1:
 RMSU=  1.45D-07    CP:  8.77D-01  6.50D-01  9.31D-01  1.44D-01 -5.03D-01
                    CP:  7.86D-01  1.13D+00  1.36D+00  6.66D-01  7.50D-01
                    CP:  9.53D-01  1.36D+00  1.72D+00  1.48D+00  1.53D+00
                    CP:  8.62D-01
 E= -1501.69557852793     Delta-E=       -0.000000000592 Rises=F Damp=F
 DIIS: error= 2.72D-07 at cycle  17 NSaved=  17.
 NSaved=17 IEnMin=17 EnMin= -1501.69557852793     IErMin=17 ErrMin= 2.72D-07
 ErrMax= 2.72D-07  0.00D+00 EMaxC= 1.00D-01 BMatC= 2.66D-10 BMatP= 1.49D-09
 IDIUse=1 WtCom= 1.00D+00 WtEn= 0.00D+00
 Coeff-Com:  0.230D-05-0.955D-06-0.742D-05-0.896D-06 0.139D-05-0.172D-04
 Coeff-Com: -0.201D-04 0.207D-03 0.276D-03 0.864D-03 0.126D-02-0.508D-03
 Coeff-Com: -0.147D-01-0.421D-01-0.164D-01 0.181D+00 0.890D+00
 Coeff:      0.230D-05-0.955D-06-0.742D-05-0.896D-06 0.139D-05-0.172D-04
 Coeff:     -0.201D-04 0.207D-03 0.276D-03 0.864D-03 0.126D-02-0.508D-03
 Coeff:     -0.147D-01-0.421D-01-0.164D-01 0.181D+00 0.890D+00
 Gap=     0.043 Goal=   None    Shift=    0.000
 Gap=     0.305 Goal=   None    Shift=    0.000
 RMSDP=5.91D-07 MaxDP=3.20D-05 DE=-5.92D-10 OVMax= 4.39D-05

 Cycle  18  Pass 1  IDiag  1:
 RMSU=  5.95D-08    CP:  8.77D-01  6.50D-01  9.31D-01  1.44D-01 -5.03D-01
                    CP:  7.86D-01  1.13D+00  1.36D+00  6.66D-01  7.51D-01
                    CP:  9.56D-01  1.38D+00  1.77D+00  1.58D+00  1.71D+00
                    CP:  1.03D+00  1.55D+00
 E= -1501.69557852816     Delta-E=       -0.000000000231 Rises=F Damp=F
 DIIS: error= 1.12D-07 at cycle  18 NSaved=  18.
 NSaved=18 IEnMin=18 EnMin= -1501.69557852816     IErMin=18 ErrMin= 1.12D-07
 ErrMax= 1.12D-07  0.00D+00 EMaxC= 1.00D-01 BMatC= 4.36D-11 BMatP= 2.66D-10
 IDIUse=1 WtCom= 1.00D+00 WtEn= 0.00D+00
 Coeff-Com:  0.224D-06 0.118D-06 0.563D-06-0.411D-06 0.141D-05 0.378D-05
 Coeff-Com:  0.252D-04-0.183D-04-0.955D-04-0.331D-03-0.203D-03 0.134D-02
 Coeff-Com:  0.706D-02-0.583D-02-0.125D+00-0.582D-01 0.327D+00 0.855D+00
 Coeff:      0.224D-06 0.118D-06 0.563D-06-0.411D-06 0.141D-05 0.378D-05
 Coeff:      0.252D-04-0.183D-04-0.955D-04-0.331D-03-0.203D-03 0.134D-02
 Coeff:      0.706D-02-0.583D-02-0.125D+00-0.582D-01 0.327D+00 0.855D+00
 Gap=     0.043 Goal=   None    Shift=    0.000
 Gap=     0.305 Goal=   None    Shift=    0.000
 RMSDP=3.63D-07 MaxDP=2.09D-05 DE=-2.31D-10 OVMax= 2.60D-05

 Cycle  19  Pass 1  IDiag  1:
 RMSU=  2.08D-08    CP:  8.77D-01  6.50D-01  9.31D-01  1.44D-01 -5.03D-01
                    CP:  7.86D-01  1.13D+00  1.36D+00  6.66D-01  7.51D-01
                    CP:  9.58D-01  1.39D+00  1.80D+00  1.63D+00  1.82D+00
                    CP:  1.11D+00  1.94D+00  1.38D+00
 E= -1501.69557852821     Delta-E=       -0.000000000045 Rises=F Damp=F
 DIIS: error= 5.61D-08 at cycle  19 NSaved=  19.
 NSaved=19 IEnMin=19 EnMin= -1501.69557852821     IErMin=19 ErrMin= 5.61D-08
 ErrMax= 5.61D-08  0.00D+00 EMaxC= 1.00D-01 BMatC= 1.48D-11 BMatP= 4.36D-11
 IDIUse=1 WtCom= 1.00D+00 WtEn= 0.00D+00
 Coeff-Com: -0.490D-06 0.282D-06 0.241D-05 0.931D-07 0.300D-07 0.468D-05
 Coeff-Com:  0.154D-04-0.663D-04-0.122D-03-0.419D-03-0.457D-03 0.648D-03
 Coeff-Com:  0.749D-02 0.100D-01-0.560D-01-0.816D-01-0.119D+00 0.466D+00
 Coeff-Com:  0.773D+00
 Coeff:     -0.490D-06 0.282D-06 0.241D-05 0.931D-07 0.300D-07 0.468D-05
 Coeff:      0.154D-04-0.663D-04-0.122D-03-0.419D-03-0.457D-03 0.648D-03
 Coeff:      0.749D-02 0.100D-01-0.560D-01-0.816D-01-0.119D+00 0.466D+00
 Coeff:      0.773D+00
 Gap=     0.043 Goal=   None    Shift=    0.000
 Gap=     0.305 Goal=   None    Shift=    0.000
 RMSDP=1.86D-07 MaxDP=9.87D-06 DE=-4.50D-11 OVMax= 1.37D-05

 Cycle  20  Pass 1  IDiag  1:
 RMSU=  1.33D-08    CP:  8.77D-01  6.50D-01  9.31D-01  1.44D-01 -5.03D-01
                    CP:  7.86D-01  1.13D+00  1.36D+00  6.66D-01  7.51D-01
                    CP:  9.59D-01  1.39D+00  1.81D+00  1.66D+00  1.86D+00
                    CP:  1.18D+00  2.14D+00  1.69D+00  1.06D+00
 E= -1501.69557852823     Delta-E=       -0.000000000023 Rises=F Damp=F
 DIIS: error= 2.42D-08 at cycle  20 NSaved=  20.
 NSaved=20 IEnMin=20 EnMin= -1501.69557852823     IErMin=20 ErrMin= 2.42D-08
 ErrMax= 2.42D-08  0.00D+00 EMaxC= 1.00D-01 BMatC= 2.23D-12 BMatP= 1.48D-11
 IDIUse=1 WtCom= 1.00D+00 WtEn= 0.00D+00
 Coeff-Com: -0.163D-06 0.714D-07 0.771D-06 0.865D-07-0.216D-06 0.666D-06
 Coeff-Com:  0.225D-06-0.202D-04-0.203D-04-0.661D-04-0.661D-04 0.222D-04
 Coeff-Com:  0.891D-03 0.373D-02 0.173D-02-0.170D-01-0.937D-01 0.762D-02
 Coeff-Com:  0.255D+00 0.842D+00
 Coeff:     -0.163D-06 0.714D-07 0.771D-06 0.865D-07-0.216D-06 0.666D-06
 Coeff:      0.225D-06-0.202D-04-0.203D-04-0.661D-04-0.661D-04 0.222D-04
 Coeff:      0.891D-03 0.373D-02 0.173D-02-0.170D-01-0.937D-01 0.762D-02
 Coeff:      0.255D+00 0.842D+00
 Gap=     0.043 Goal=   None    Shift=    0.000
 Gap=     0.305 Goal=   None    Shift=    0.000
 RMSDP=5.70D-08 MaxDP=3.04D-06 DE=-2.32D-11 OVMax= 3.80D-06

 Cycle  21  Pass 1  IDiag  1:
 Restarting incremental Fock formation.
 E= -1501.69557852826     Delta-E=       -0.000000000024 Rises=F Damp=F
 DIIS: error= 7.82D-09 at cycle  21 NSaved=  20.
 NSaved=20 IEnMin=20 EnMin= -1501.69557852826     IErMin=20 ErrMin= 7.82D-09
 ErrMax= 7.82D-09  0.00D+00 EMaxC= 1.00D-01 BMatC= 3.11D-13 BMatP= 2.23D-12
 IDIUse=1 WtCom= 1.00D+00 WtEn= 0.00D+00
 Coeff-Com:  0.852D-08-0.100D-08 0.237D-08-0.275D-07-0.144D-06-0.225D-05
 Coeff-Com:  0.108D-05 0.111D-04 0.437D-04 0.528D-04-0.525D-04-0.864D-03
 Coeff-Com: -0.131D-03 0.963D-02 0.689D-02-0.174D-01-0.701D-01-0.214D-01
 Coeff-Com:  0.364D+00 0.729D+00
 Coeff:      0.852D-08-0.100D-08 0.237D-08-0.275D-07-0.144D-06-0.225D-05
 Coeff:      0.108D-05 0.111D-04 0.437D-04 0.528D-04-0.525D-04-0.864D-03
 Coeff:     -0.131D-03 0.963D-02 0.689D-02-0.174D-01-0.701D-01-0.214D-01
 Coeff:      0.364D+00 0.729D+00
 Gap=     0.043 Goal=   None    Shift=    0.000
 Gap=     0.305 Goal=   None    Shift=    0.000
 RMSDP=1.57D-08 MaxDP=1.74D-06 DE=-2.36D-11 OVMax= 6.09D-07

 Cycle  22  Pass 1  IDiag  1:
 RMSU=  1.55D-08    CP:  1.00D+00
 E= -1501.69557852824     Delta-E=        0.000000000018 Rises=F Damp=F
 DIIS: error= 2.90D-09 at cycle  22 NSaved=  20.
 NSaved=20 IEnMin=19 EnMin= -1501.69557852826     IErMin=20 ErrMin= 2.90D-09
 ErrMax= 2.90D-09  0.00D+00 EMaxC= 1.00D-01 BMatC= 3.28D-14 BMatP= 3.11D-13
 IDIUse=1 WtCom= 1.00D+00 WtEn= 0.00D+00
 Coeff-Com:  0.178D-07-0.122D-06-0.183D-07-0.108D-06-0.434D-06 0.280D-05
 Coeff-Com:  0.476D-05 0.158D-04 0.180D-04-0.178D-04-0.272D-03-0.440D-03
 Coeff-Com:  0.202D-02 0.383D-02 0.797D-02-0.186D-01-0.416D-01-0.161D-01
 Coeff-Com:  0.182D+00 0.881D+00
 Coeff:      0.178D-07-0.122D-06-0.183D-07-0.108D-06-0.434D-06 0.280D-05
 Coeff:      0.476D-05 0.158D-04 0.180D-04-0.178D-04-0.272D-03-0.440D-03
 Coeff:      0.202D-02 0.383D-02 0.797D-02-0.186D-01-0.416D-01-0.161D-01
 Coeff:      0.182D+00 0.881D+00
 Gap=     0.043 Goal=   None    Shift=    0.000
 Gap=     0.305 Goal=   None    Shift=    0.000
 RMSDP=8.16D-09 MaxDP=1.11D-06 DE= 1.77D-11 OVMax= 3.16D-07

 Cycle  23  Pass 1  IDiag  1:
 RMSU=  5.17D-09    CP:  1.00D+00  6.07D-01
 E= -1501.69557852824     Delta-E=       -0.000000000001 Rises=F Damp=F
 DIIS: error= 1.16D-09 at cycle  23 NSaved=  20.
 NSaved=20 IEnMin=18 EnMin= -1501.69557852826     IErMin=20 ErrMin= 1.16D-09
 ErrMax= 1.16D-09  0.00D+00 EMaxC= 1.00D-01 BMatC= 7.32D-15 BMatP= 3.28D-14
 IDIUse=1 WtCom= 1.00D+00 WtEn= 0.00D+00
 Coeff-Com: -0.320D-07 0.627D-08 0.139D-07 0.531D-06 0.414D-06-0.167D-05
 Coeff-Com: -0.714D-05-0.874D-05 0.160D-04 0.142D-03-0.579D-04-0.180D-02
 Coeff-Com: -0.701D-03 0.673D-02 0.115D-01-0.760D-02-0.883D-01-0.122D+00
 Coeff-Com:  0.266D+00 0.936D+00
 Coeff:     -0.320D-07 0.627D-08 0.139D-07 0.531D-06 0.414D-06-0.167D-05
 Coeff:     -0.714D-05-0.874D-05 0.160D-04 0.142D-03-0.579D-04-0.180D-02
 Coeff:     -0.701D-03 0.673D-02 0.115D-01-0.760D-02-0.883D-01-0.122D+00
 Coeff:      0.266D+00 0.936D+00
 Gap=     0.043 Goal=   None    Shift=    0.000
 Gap=     0.305 Goal=   None    Shift=    0.000
 RMSDP=3.70D-09 MaxDP=2.57D-07 DE=-9.09D-13 OVMax= 2.46D-07

 SCF Done:  E(UHSEH1PBE) =  -1501.69557853     A.U. after   23 cycles
            NFock= 23  Conv=0.37D-08     -V/T= 2.0014
 <Sx>= 0.0000 <Sy>= 0.0000 <Sz>= 2.0000 <S**2>= 6.0085 S= 2.0017
 <L.S>=  0.00000000000    
 KE= 1.499667175935D+03 PE=-4.995377280098D+03 EE= 1.259603409843D+03
 Annihilation of the first spin contaminant:
 S**2 before annihilation     6.0085,   after     6.0000
 Leave Link  502 at Thu May 23 12:35:06 2024, MaxMem= 26843545600 cpu:           14296.5 elap:             119.5
 (Enter /gpfs/fs1/soft/improv/software/custom-built/gaussian/g16/l508.exe)
 QCSCF skips out because SCF is already converged.
 Leave Link  508 at Thu May 23 12:35:06 2024, MaxMem= 26843545600 cpu:               0.2 elap:               0.0
 (Enter /gpfs/fs1/soft/improv/software/custom-built/gaussian/g16/l801.exe)
 DoSCS=F DFT=T ScalE2(SS,OS)=  1.000000  1.000000
 Range of M.O.s used for correlation:     1   317
 NBasis=   317 NAE=    43 NBE=    39 NFC=     0 NFV=     0
 NROrb=    317 NOA=    43 NOB=    39 NVA=   274 NVB=   278

 **** Warning!!: The largest alpha MO coefficient is  0.54843759D+02


 **** Warning!!: The smallest alpha delta epsilon is  0.43452965D-01


 **** Warning!!: The largest beta MO coefficient is  0.57559485D+02

 Leave Link  801 at Thu May 23 12:35:06 2024, MaxMem= 26843545600 cpu:               0.4 elap:               0.0
 (Enter /gpfs/fs1/soft/improv/software/custom-built/gaussian/g16/l1101.exe)
 Using compressed storage, NAtomX=    19.
 Will process     20 centers per pass.
 Leave Link 1101 at Thu May 23 12:35:06 2024, MaxMem= 26843545600 cpu:              50.9 elap:               0.5
 (Enter /gpfs/fs1/soft/improv/software/custom-built/gaussian/g16/l1102.exe)
 Symmetrizing basis deriv contribution to polar:
 IMax=3 JMax=2 DiffMx= 0.00D+00
 Leave Link 1102 at Thu May 23 12:35:06 2024, MaxMem= 26843545600 cpu:               0.9 elap:               0.0
 (Enter /gpfs/fs1/soft/improv/software/custom-built/gaussian/g16/l1110.exe)
 Forming Gx(P) for the SCF density, NAtomX=    19.
 Integral derivatives from FoFJK, PRISM(SPDF).
 Do as many integral derivatives as possible in FoFJK.
 G2DrvN: MDV=   26843543431.
 G2DrvN: will do    20 centers at a time, making    1 passes.
 Calling FoFCou, ICntrl=  3107 FMM=F I1Cent=   0 AccDes= 0.00D+00.
 FoFJK:  IHMeth= 1 ICntrl=    3107 DoSepK=T KAlg= 0 I1Cent=           0 FoldK=F
 IRaf=         1 NMat=       1 IRICut=       1 DoRegI=T DoRafI=F ISym2E= 0 IDoP0=0 IntGTp=1.
 FoFCou: FMM=F IPFlag=           0 FMFlag=      100000 FMFlg1=           0
         NFxFlg=           0 DoJE=F BraDBF=F KetDBF=F FulRan=T
         wScrn=  0.000000 ICntrl=      3507 IOpCl=  0 I1Cent=           0 NGrid=           0
         NMat0=    1 NMatS0=      1 NMatT0=    0 NMatD0=    1 NMtDS0=    0 NMtDT0=    0
 Symmetry not used in FoFCou.
 End of G2Drv F.D. properties file   721 does not exist.
 End of G2Drv F.D. properties file   722 does not exist.
 End of G2Drv F.D. properties file   788 does not exist.
 Leave Link 1110 at Thu May 23 12:35:26 2024, MaxMem= 26843545600 cpu:            2425.6 elap:              19.4
 (Enter /gpfs/fs1/soft/improv/software/custom-built/gaussian/g16/l1002.exe)
 Minotr:  UHF open shell wavefunction.
          IDoAtm=1111111111111111111
          Direct CPHF calculation.
          Differentiating once with respect to electric field.
                with respect to dipole field.
          Differentiating once with respect to nuclear coordinates.
          Requested convergence is 1.0D-08 RMS, and 1.0D-07 maximum.
          Secondary convergence is 1.0D-12 RMS, and 1.0D-12 maximum.
          NewPWx=T KeepS1=F KeepF1=F KeepIn=T MapXYZ=F SortEE=F KeepMc=T.
         6034 words used for storage of precomputed grid.
 Two-electron integrals replicated using symmetry.
          MDV=   26843545600 using IRadAn=       1.
          Solving linear equations simultaneously, MaxMat=     384.
 FoF2E skips out because all densities are zero.
 CalDSu exits because no D1Ps are significant.
 FoFJK:  IHMeth= 1 ICntrl=       0 DoSepK=T KAlg= 0 I1Cent=           0 FoldK=F
 IRaf=         1 NMat=      57 IRICut=       1 DoRegI=T DoRafI=F ISym2E= 2 IDoP0=3 IntGTp=2.
 FoFCou: FMM=F IPFlag=           0 FMFlag=      100000 FMFlg1=           0
         NFxFlg=           0 DoJE=F BraDBF=F KetDBF=F FulRan=T
         wScrn=  0.000000 ICntrl=       500 IOpCl=  0 I1Cent=           0 NGrid=           0
         NMat0=   57 NMatS0=     57 NMatT0=    0 NMatD0=   57 NMtDS0=    0 NMtDT0=    0
 Integrals replicated using symmetry in FoFCou.
          There are    60 degrees of freedom in the 1st order CPHF.  IDoFFX=6 NUNeed=     3.
     57 vectors produced by pass  0 Test12= 3.77D-14 1.67D-09 XBig12= 2.29D+03 4.48D+01.
 AX will form    57 AO Fock derivatives at one time.
     57 vectors produced by pass  1 Test12= 3.77D-14 1.67D-09 XBig12= 1.09D+02 3.12D+00.
     57 vectors produced by pass  2 Test12= 3.77D-14 1.67D-09 XBig12= 1.25D+00 1.62D-01.
     57 vectors produced by pass  3 Test12= 3.77D-14 1.67D-09 XBig12= 6.94D-03 9.84D-03.
     57 vectors produced by pass  4 Test12= 3.77D-14 1.67D-09 XBig12= 6.47D-05 1.25D-03.
     57 vectors produced by pass  5 Test12= 3.77D-14 1.67D-09 XBig12= 2.99D-07 5.74D-05.
     47 vectors produced by pass  6 Test12= 3.77D-14 1.67D-09 XBig12= 8.48D-10 3.43D-06.
     16 vectors produced by pass  7 Test12= 3.77D-14 1.67D-09 XBig12= 2.71D-12 1.72D-07.
      3 vectors produced by pass  8 Test12= 3.77D-14 1.67D-09 XBig12= 7.05D-15 8.18D-09.
 InvSVY:  IOpt=1 It=  1 EMax= 1.42D-14
 Solved reduced A of dimension   408 with    60 vectors.
 FullF1:  Do perturbations      1 to       3.
 Isotropic polarizability for W=    0.000000      163.14 Bohr**3.
 End of Minotr F.D. properties file   721 does not exist.
 End of Minotr F.D. properties file   722 does not exist.
 End of Minotr F.D. properties file   788 does not exist.
 Leave Link 1002 at Thu May 23 12:36:42 2024, MaxMem= 26843545600 cpu:            9056.0 elap:              75.6
 (Enter /gpfs/fs1/soft/improv/software/custom-built/gaussian/g16/l601.exe)
 Copying SCF densities to generalized density rwf, IOpCl= 1 IROHF=0.

 **********************************************************************

            Population analysis using the SCF Density.

 **********************************************************************

 Orbital symmetries:
 Alpha Orbitals:
       Occupied  (A) (A) (A) (A) (A) (A) (A) (A) (A) (A) (A) (A)
                 (A) (A) (A) (A) (A) (A) (A) (A) (A) (A) (A) (A)
                 (A) (A) (A) (A) (A) (A) (A) (A) (A) (A) (A) (A)
                 (A) (A) (A) (A) (A) (A) (A)
       Virtual   (A) (A) (A) (A) (A) (A) (A) (A) (A) (A) (A) (A)
                 (A) (A) (A) (A) (A) (A) (A) (A) (A) (A) (A) (A)
                 (A) (A) (A) (A) (A) (A) (A) (A) (A) (A) (A) (A)
                 (A) (A) (A) (A) (A) (A) (A) (A) (A) (A) (A) (A)
                 (A) (A) (A) (A) (A) (A) (A) (A) (A) (A) (A) (A)
                 (A) (A) (A) (A) (A) (A) (A) (A) (A) (A) (A) (A)
                 (A) (A) (A) (A) (A) (A) (A) (A) (A) (A) (A) (A)
                 (A) (A) (A) (A) (A) (A) (A) (A) (A) (A) (A) (A)
                 (A) (A) (A) (A) (A) (A) (A) (A) (A) (A) (A) (A)
                 (A) (A) (A) (A) (A) (A) (A) (A) (A) (A) (A) (A)
                 (A) (A) (A) (A) (A) (A) (A) (A) (A) (A) (A) (A)
                 (A) (A) (A) (A) (A) (A) (A) (A) (A) (A) (A) (A)
                 (A) (A) (A) (A) (A) (A) (A) (A) (A) (A) (A) (A)
                 (A) (A) (A) (A) (A) (A) (A) (A) (A) (A) (A) (A)
                 (A) (A) (A) (A) (A) (A) (A) (A) (A) (A) (A) (A)
                 (A) (A) (A) (A) (A) (A) (A) (A) (A) (A) (A) (A)
                 (A) (A) (A) (A) (A) (A) (A) (A) (A) (A) (A) (A)
                 (A) (A) (A) (A) (A) (A) (A) (A) (A) (A) (A) (A)
                 (A) (A) (A) (A) (A) (A) (A) (A) (A) (A) (A) (A)
                 (A) (A) (A) (A) (A) (A) (A) (A) (A) (A) (A) (A)
                 (A) (A) (A) (A) (A) (A) (A) (A) (A) (A) (A) (A)
                 (A) (A) (A) (A) (A) (A) (A) (A) (A) (A) (A) (A)
                 (A) (A) (A) (A) (A) (A) (A) (A) (A) (A)
 Beta  Orbitals:
       Occupied  (A) (A) (A) (A) (A) (A) (A) (A) (A) (A) (A) (A)
                 (A) (A) (A) (A) (A) (A) (A) (A) (A) (A) (A) (A)
                 (A) (A) (A) (A) (A) (A) (A) (A) (A) (A) (A) (A)
                 (A) (A) (A)
       Virtual   (A) (A) (A) (A) (A) (A) (A) (A) (A) (A) (A) (A)
                 (A) (A) (A) (A) (A) (A) (A) (A) (A) (A) (A) (A)
                 (A) (A) (A) (A) (A) (A) (A) (A) (A) (A) (A) (A)
                 (A) (A) (A) (A) (A) (A) (A) (A) (A) (A) (A) (A)
                 (A) (A) (A) (A) (A) (A) (A) (A) (A) (A) (A) (A)
                 (A) (A) (A) (A) (A) (A) (A) (A) (A) (A) (A) (A)
                 (A) (A) (A) (A) (A) (A) (A) (A) (A) (A) (A) (A)
                 (A) (A) (A) (A) (A) (A) (A) (A) (A) (A) (A) (A)
                 (A) (A) (A) (A) (A) (A) (A) (A) (A) (A) (A) (A)
                 (A) (A) (A) (A) (A) (A) (A) (A) (A) (A) (A) (A)
                 (A) (A) (A) (A) (A) (A) (A) (A) (A) (A) (A) (A)
                 (A) (A) (A) (A) (A) (A) (A) (A) (A) (A) (A) (A)
                 (A) (A) (A) (A) (A) (A) (A) (A) (A) (A) (A) (A)
                 (A) (A) (A) (A) (A) (A) (A) (A) (A) (A) (A) (A)
                 (A) (A) (A) (A) (A) (A) (A) (A) (A) (A) (A) (A)
                 (A) (A) (A) (A) (A) (A) (A) (A) (A) (A) (A) (A)
                 (A) (A) (A) (A) (A) (A) (A) (A) (A) (A) (A) (A)
                 (A) (A) (A) (A) (A) (A) (A) (A) (A) (A) (A) (A)
                 (A) (A) (A) (A) (A) (A) (A) (A) (A) (A) (A) (A)
                 (A) (A) (A) (A) (A) (A) (A) (A) (A) (A) (A) (A)
                 (A) (A) (A) (A) (A) (A) (A) (A) (A) (A) (A) (A)
                 (A) (A) (A) (A) (A) (A) (A) (A) (A) (A) (A) (A)
                 (A) (A) (A) (A) (A) (A) (A) (A) (A) (A) (A) (A)
                 (A) (A)
 The electronic state is 5-A.
 Alpha  occ. eigenvalues -- -216.39869 -25.26088 -21.50959 -21.50910 -21.50873
 Alpha  occ. eigenvalues --  -19.64374 -19.64202 -19.63702 -19.63425 -19.63398
 Alpha  occ. eigenvalues --  -19.63197  -3.40292  -2.34194  -2.33987  -2.33871
 Alpha  occ. eigenvalues --   -1.49517  -1.47106  -1.46721  -1.46337  -1.46114
 Alpha  occ. eigenvalues --   -1.45920  -1.01019  -1.00098  -0.97740  -0.97357
 Alpha  occ. eigenvalues --   -0.96886  -0.95175  -0.90452  -0.88991  -0.88742
 Alpha  occ. eigenvalues --   -0.86347  -0.85340  -0.83020  -0.81716  -0.78407
 Alpha  occ. eigenvalues --   -0.77397  -0.77219  -0.75871  -0.73123  -0.66541
 Alpha  occ. eigenvalues --   -0.65652  -0.64122  -0.41699
 Alpha virt. eigenvalues --   -0.37353  -0.37179  -0.35590  -0.33175  -0.31585
 Alpha virt. eigenvalues --   -0.27382  -0.26026  -0.25820  -0.25393  -0.22378
 Alpha virt. eigenvalues --   -0.21100  -0.20634  -0.19740  -0.18698  -0.17575
 Alpha virt. eigenvalues --   -0.17126  -0.16781  -0.15574  -0.14103  -0.13910
 Alpha virt. eigenvalues --   -0.13295  -0.12248  -0.11959  -0.09884  -0.09576
 Alpha virt. eigenvalues --   -0.09302  -0.08281  -0.06524  -0.05276  -0.04950
 Alpha virt. eigenvalues --   -0.04265  -0.04056  -0.02705  -0.02244  -0.01964
 Alpha virt. eigenvalues --   -0.00361   0.00555   0.02085   0.02828   0.03445
 Alpha virt. eigenvalues --    0.03962   0.05686   0.06227   0.06462   0.07479
 Alpha virt. eigenvalues --    0.08099   0.10103   0.12073   0.14897   0.16307
 Alpha virt. eigenvalues --    0.21088   0.21480   0.22618   0.23677   0.37485
 Alpha virt. eigenvalues --    0.38625   0.39769   0.42567   0.44925   0.45713
 Alpha virt. eigenvalues --    0.45847   0.48504   0.49589   0.50264   0.51058
 Alpha virt. eigenvalues --    0.51950   0.54185   0.54732   0.55511   0.57238
 Alpha virt. eigenvalues --    0.57413   0.58246   0.59578   0.60980   0.62830
 Alpha virt. eigenvalues --    0.66641   0.68460   0.69019   0.70104   0.70731
 Alpha virt. eigenvalues --    0.71237   0.71357   0.72969   0.75120   0.75395
 Alpha virt. eigenvalues --    0.77716   0.79002   0.80385   0.82123   0.83273
 Alpha virt. eigenvalues --    0.85685   0.88589   0.89546   0.93351   0.94827
 Alpha virt. eigenvalues --    0.96784   0.97758   1.00344   1.00684   1.01996
 Alpha virt. eigenvalues --    1.05378   1.05985   1.07734   1.10103   1.17763
 Alpha virt. eigenvalues --    1.19071   1.24030   1.26404   1.28414   1.32744
 Alpha virt. eigenvalues --    1.35679   1.37290   1.37921   1.39080   1.39987
 Alpha virt. eigenvalues --    1.43467   1.47228   1.49699   1.52587   1.54995
 Alpha virt. eigenvalues --    1.58226   1.61834   1.67368   1.70840   1.86976
 Alpha virt. eigenvalues --    1.88003   1.89357   1.90664   1.91654   1.93891
 Alpha virt. eigenvalues --    1.94939   1.96886   2.00501   2.03147   2.06340
 Alpha virt. eigenvalues --    2.09116   2.14599   2.17853   2.20831   2.24031
 Alpha virt. eigenvalues --    2.25513   2.28829   2.35824   2.39231   2.40394
 Alpha virt. eigenvalues --    2.42142   2.44903   2.46281   2.51127   2.52713
 Alpha virt. eigenvalues --    2.55336   2.56211   2.57789   2.58867   2.60680
 Alpha virt. eigenvalues --    2.62084   2.63458   2.64922   2.67291   2.67836
 Alpha virt. eigenvalues --    2.70378   2.72875   2.74151   2.75548   2.77409
 Alpha virt. eigenvalues --    2.79482   2.87150   2.88560   2.91239   2.98159
 Alpha virt. eigenvalues --    2.99103   3.05529   3.26216   3.28344   3.31180
 Alpha virt. eigenvalues --    3.33329   3.33765   3.35820   3.39817   3.53178
 Alpha virt. eigenvalues --    3.58790   3.68633   3.71706   3.73019   3.79415
 Alpha virt. eigenvalues --    3.81764   3.82751   3.84913   3.86097   3.87375
 Alpha virt. eigenvalues --    3.88131   3.90114   3.92706   3.97196   3.99548
 Alpha virt. eigenvalues --    4.05970   4.06654   4.09294   4.11702   4.14773
 Alpha virt. eigenvalues --    4.15690   4.19001   4.22951   4.24693   4.27323
 Alpha virt. eigenvalues --    4.32134   4.34890   4.35326   4.36762   4.40286
 Alpha virt. eigenvalues --    4.42869   4.51624   4.53445   4.55690   4.57498
 Alpha virt. eigenvalues --    4.58876   4.60342   4.66287   4.74235   4.78845
 Alpha virt. eigenvalues --    4.84144   4.86102   4.88830   4.91631   4.94189
 Alpha virt. eigenvalues --    5.04412   5.05449   5.05735   5.07061   5.07870
 Alpha virt. eigenvalues --    5.08587   5.08787   5.12741   5.13454   5.16379
 Alpha virt. eigenvalues --    5.22290   5.23484   5.24130   5.27452   5.28499
 Alpha virt. eigenvalues --    5.29306   5.30854   5.35794   5.38181   5.40436
 Alpha virt. eigenvalues --    5.42416   5.44389   5.45503   5.48264   5.49233
 Alpha virt. eigenvalues --    5.50905   5.53539   5.56512   5.56819   5.58583
 Alpha virt. eigenvalues --    5.59229   5.60871   5.62175   5.86318   5.87476
 Alpha virt. eigenvalues --    6.49909   7.09915   7.13105   7.14479   7.22583
 Alpha virt. eigenvalues --    7.26986   7.40354  13.43808  13.46131  13.46611
 Alpha virt. eigenvalues --   13.98100  14.05063  14.13452  32.73148
  Beta  occ. eigenvalues -- -216.39844 -25.21537 -21.47122 -21.47040 -21.46958
  Beta  occ. eigenvalues --  -19.64247 -19.64056 -19.63624 -19.63345 -19.63198
  Beta  occ. eigenvalues --  -19.62966  -3.26814  -2.19924  -2.19652  -2.19403
  Beta  occ. eigenvalues --   -1.48958  -1.46536  -1.46205  -1.45915  -1.45692
  Beta  occ. eigenvalues --   -1.45223  -0.99953  -0.99196  -0.97188  -0.96804
  Beta  occ. eigenvalues --   -0.96394  -0.94734  -0.89646  -0.87996  -0.87755
  Beta  occ. eigenvalues --   -0.85010  -0.84724  -0.82536  -0.80478  -0.77380
  Beta  occ. eigenvalues --   -0.76528  -0.76381  -0.74837  -0.72480
  Beta virt. eigenvalues --   -0.42027  -0.41505  -0.40340  -0.37799  -0.33256
  Beta virt. eigenvalues --   -0.32338  -0.32186  -0.30950  -0.29815  -0.25291
  Beta virt. eigenvalues --   -0.24355  -0.24273  -0.23806  -0.20871  -0.19905
  Beta virt. eigenvalues --   -0.19393  -0.17937  -0.17396  -0.16635  -0.15535
  Beta virt. eigenvalues --   -0.14990  -0.13979  -0.12964  -0.12800  -0.12028
  Beta virt. eigenvalues --   -0.11274  -0.11052  -0.08640  -0.08156  -0.08045
  Beta virt. eigenvalues --   -0.07104  -0.05299  -0.03924  -0.03655  -0.02713
  Beta virt. eigenvalues --   -0.02570  -0.01382  -0.01003  -0.00658   0.00860
  Beta virt. eigenvalues --    0.01792   0.03411   0.04414   0.04865   0.05513
  Beta virt. eigenvalues --    0.07118   0.07768   0.08185   0.08896   0.09508
  Beta virt. eigenvalues --    0.12164   0.13410   0.17490   0.18532   0.22291
  Beta virt. eigenvalues --    0.22776   0.24398   0.25695   0.38716   0.39809
  Beta virt. eigenvalues --    0.41175   0.44327   0.46665   0.47169   0.47885
  Beta virt. eigenvalues --    0.49587   0.50835   0.51175   0.52154   0.53106
  Beta virt. eigenvalues --    0.55117   0.55768   0.56501   0.58028   0.58195
  Beta virt. eigenvalues --    0.59105   0.60415   0.62061   0.63492   0.67704
  Beta virt. eigenvalues --    0.69422   0.69916   0.70749   0.71521   0.71998
  Beta virt. eigenvalues --    0.72094   0.73788   0.76226   0.76416   0.78674
  Beta virt. eigenvalues --    0.80017   0.81706   0.83009   0.84511   0.87559
  Beta virt. eigenvalues --    0.89411   0.90262   0.94560   0.95729   0.98121
  Beta virt. eigenvalues --    0.98443   1.01818   1.02345   1.02922   1.06646
  Beta virt. eigenvalues --    1.07282   1.08754   1.11267   1.19135   1.20215
  Beta virt. eigenvalues --    1.26083   1.28664   1.30775   1.36346   1.38952
  Beta virt. eigenvalues --    1.40805   1.41585   1.42644   1.44100   1.45356
  Beta virt. eigenvalues --    1.50347   1.51242   1.54457   1.57670   1.60212
  Beta virt. eigenvalues --    1.62759   1.69397   1.72373   1.87908   1.88832
  Beta virt. eigenvalues --    1.90379   1.91676   1.92446   1.94949   1.95913
  Beta virt. eigenvalues --    1.98161   2.01624   2.03837   2.07096   2.10225
  Beta virt. eigenvalues --    2.15623   2.18791   2.21968   2.25260   2.26802
  Beta virt. eigenvalues --    2.30210   2.37081   2.41215   2.42589   2.43384
  Beta virt. eigenvalues --    2.46875   2.47870   2.52415   2.54407   2.56517
  Beta virt. eigenvalues --    2.57146   2.59125   2.60342   2.61984   2.64005
  Beta virt. eigenvalues --    2.64756   2.66025   2.68369   2.68978   2.71901
  Beta virt. eigenvalues --    2.74275   2.75780   2.77216   2.78997   2.80377
  Beta virt. eigenvalues --    2.88152   2.89574   2.92271   3.00624   3.01448
  Beta virt. eigenvalues --    3.07544   3.30342   3.32359   3.33302   3.39173
  Beta virt. eigenvalues --    3.40081   3.43005   3.44920   3.57582   3.62547
  Beta virt. eigenvalues --    3.69063   3.72119   3.73446   3.80213   3.82322
  Beta virt. eigenvalues --    3.83183   3.86001   3.86885   3.88094   3.89505
  Beta virt. eigenvalues --    3.91589   3.93555   3.97856   4.00134   4.07218
  Beta virt. eigenvalues --    4.07718   4.10158   4.12650   4.16558   4.18937
  Beta virt. eigenvalues --    4.23955   4.29017   4.30086   4.30309   4.34031
  Beta virt. eigenvalues --    4.37824   4.40186   4.40377   4.43681   4.43954
  Beta virt. eigenvalues --    4.53622   4.55832   4.56889   4.59243   4.60104
  Beta virt. eigenvalues --    4.61455   4.69109   4.76858   4.79317   4.85123
  Beta virt. eigenvalues --    4.87014   4.89532   4.92953   4.95690   5.04877
  Beta virt. eigenvalues --    5.05797   5.06537   5.07454   5.08300   5.09004
  Beta virt. eigenvalues --    5.09423   5.13492   5.14526   5.18196   5.23485
  Beta virt. eigenvalues --    5.24483   5.25533   5.28584   5.29617   5.30094
  Beta virt. eigenvalues --    5.31631   5.37268   5.39045   5.41403   5.43726
  Beta virt. eigenvalues --    5.45140   5.46223   5.49036   5.49971   5.51881
  Beta virt. eigenvalues --    5.54532   5.57440   5.58097   5.59224   5.59800
  Beta virt. eigenvalues --    5.61272   5.62599   5.86688   5.87830   6.52263
  Beta virt. eigenvalues --    7.10447   7.13687   7.15105   7.22987   7.27429
  Beta virt. eigenvalues --    7.41027  13.44153  13.46512  13.47002  13.98421
  Beta virt. eigenvalues --   14.05367  14.13764  32.76613
          Condensed to atoms (all electrons):
               1          2          3          4          5          6
     1  Cr  26.761731  -0.538847   0.044520  -0.511620   0.115701  -0.841243
     2  O   -0.538847   8.526026   0.276847  -0.024602  -0.007974   0.038901
     3  H    0.044520   0.276847   0.275165  -0.001737   0.000089  -0.004312
     4  O   -0.511620  -0.024602  -0.001737   8.594728   0.233028  -0.000985
     5  H    0.115701  -0.007974   0.000089   0.233028   0.303141  -0.016221
     6  O   -0.841243   0.038901  -0.004312  -0.000985  -0.016221   8.849605
     7  H    0.235678  -0.016481   0.000390  -0.011642   0.003316   0.133413
     8  O   -0.946321   0.064775  -0.001183   0.034130  -0.025325   0.056316
     9  H    0.149156  -0.003381   0.000078  -0.008216   0.000995  -0.010122
    10  O   -0.690642   0.013776  -0.013408   0.048217  -0.002158   0.043881
    11  H    0.089517  -0.006470   0.001242  -0.001122   0.000066  -0.006583
    12  O   -0.939180   0.086493  -0.011935   0.023014  -0.016665   0.080433
    13  H    0.069528  -0.009518   0.000731  -0.012529   0.001436  -0.001059
    14  H    0.136480  -0.007463   0.000610  -0.004921   0.000612  -0.002155
    15  H    0.034338  -0.008863   0.000269   0.289599  -0.015908  -0.012590
    16  H    0.058871   0.261875  -0.007053  -0.004065   0.000566  -0.017719
    17  H    0.132621  -0.013776   0.001450  -0.001639   0.000121  -0.027705
    18  H    0.097463  -0.010728   0.000327  -0.022180   0.005054   0.236737
    19  H    0.241145  -0.005905   0.000081  -0.025115   0.010029  -0.057118
               7          8          9         10         11         12
     1  Cr   0.235678  -0.946321   0.149156  -0.690642   0.089517  -0.939180
     2  O   -0.016481   0.064775  -0.003381   0.013776  -0.006470   0.086493
     3  H    0.000390  -0.001183   0.000078  -0.013408   0.001242  -0.011935
     4  O   -0.011642   0.034130  -0.008216   0.048217  -0.001122   0.023014
     5  H    0.003316  -0.025325   0.000995  -0.002158   0.000066  -0.016665
     6  O    0.133413   0.056316  -0.010122   0.043881  -0.006583   0.080433
     7  H    0.352409  -0.058860   0.004772  -0.026948   0.000911  -0.009009
     8  O   -0.058860   8.901761   0.203826   0.054412  -0.016919   0.119110
     9  H    0.004772   0.203826   0.302888  -0.031930   0.005022  -0.029226
    10  O   -0.026948   0.054412  -0.031930   8.699611   0.252743   0.025212
    11  H    0.000911  -0.016919   0.005022   0.252743   0.295531  -0.028838
    12  O   -0.009009   0.119110  -0.029226   0.025212  -0.028838   8.860875
    13  H    0.000097  -0.007279   0.000775  -0.002539   0.000628   0.240503
    14  H    0.000210  -0.025975   0.006479  -0.015109   0.007699   0.187057
    15  H    0.000758  -0.004213   0.000038  -0.000833   0.000017  -0.005202
    16  H    0.001252  -0.001318   0.000054  -0.003209   0.000210  -0.008547
    17  H    0.010642  -0.020916   0.005303   0.222334  -0.010671  -0.014150
    18  H    0.000248  -0.008845   0.000441  -0.006819   0.000052  -0.004212
    19  H    0.029050   0.124421   0.006189  -0.015243   0.001142  -0.022971
              13         14         15         16         17         18
     1  Cr   0.069528   0.136480   0.034338   0.058871   0.132621   0.097463
     2  O   -0.009518  -0.007463  -0.008863   0.261875  -0.013776  -0.010728
     3  H    0.000731   0.000610   0.000269  -0.007053   0.001450   0.000327
     4  O   -0.012529  -0.004921   0.289599  -0.004065  -0.001639  -0.022180
     5  H    0.001436   0.000612  -0.015908   0.000566   0.000121   0.005054
     6  O   -0.001059  -0.002155  -0.012590  -0.017719  -0.027705   0.236737
     7  H    0.000097   0.000210   0.000758   0.001252   0.010642   0.000248
     8  O   -0.007279  -0.025975  -0.004213  -0.001318  -0.020916  -0.008845
     9  H    0.000775   0.006479   0.000038   0.000054   0.005303   0.000441
    10  O   -0.002539  -0.015109  -0.000833  -0.003209   0.222334  -0.006819
    11  H    0.000628   0.007699   0.000017   0.000210  -0.010671   0.000052
    12  O    0.240503   0.187057  -0.005202  -0.008547  -0.014150  -0.004212
    13  H    0.280624  -0.001566   0.000698   0.000342   0.000122   0.000068
    14  H   -0.001566   0.321074   0.000133   0.000103   0.001113   0.000059
    15  H    0.000698   0.000133   0.277761   0.002186   0.000044   0.002534
    16  H    0.000342   0.000103   0.002186   0.292155   0.000600   0.002367
    17  H    0.000122   0.001113   0.000044   0.000600   0.302761   0.000616
    18  H    0.000068   0.000059   0.002534   0.002367   0.000616   0.289811
    19  H    0.000502   0.001599   0.000564   0.000130   0.003559   0.004656
              19
     1  Cr   0.241145
     2  O   -0.005905
     3  H    0.000081
     4  O   -0.025115
     5  H    0.010029
     6  O   -0.057118
     7  H    0.029050
     8  O    0.124421
     9  H    0.006189
    10  O   -0.015243
    11  H    0.001142
    12  O   -0.022971
    13  H    0.000502
    14  H    0.001599
    15  H    0.000564
    16  H    0.000130
    17  H    0.003559
    18  H    0.004656
    19  H    0.352778
          Atomic-Atomic Spin Densities.
               1          2          3          4          5          6
     1  Cr   7.052554  -0.487519   0.058572  -0.499059   0.131209  -0.848095
     2  O   -0.487519   0.226844  -0.042924   0.042872  -0.007604   0.095836
     3  H    0.058572  -0.042924   0.028161  -0.001047   0.000111  -0.005585
     4  O   -0.499059   0.042872  -0.001047   0.282629  -0.081188   0.060118
     5  H    0.131209  -0.007604   0.000111  -0.081188   0.049102  -0.014123
     6  O   -0.848095   0.095836  -0.005585   0.060118  -0.014123   0.628468
     7  H    0.247327  -0.014780   0.000405  -0.012693   0.003495  -0.185186
     8  O   -0.938466   0.024451  -0.000866   0.093887  -0.027694   0.118044
     9  H    0.160148  -0.003230   0.000082  -0.006623   0.000935  -0.012608
    10  O   -0.674095   0.076236  -0.009839   0.011317  -0.002048   0.103639
    11  H    0.098158  -0.008026   0.001407  -0.000941   0.000057  -0.005284
    12  O   -0.893711   0.099229  -0.012201   0.092839  -0.015666   0.040081
    13  H    0.085608  -0.007999   0.000743  -0.009354   0.001411  -0.000901
    14  H    0.137453  -0.006835   0.000596  -0.007035   0.000575  -0.001847
    15  H    0.045160  -0.007478   0.000216  -0.025469   0.003758  -0.006046
    16  H    0.067246  -0.049018   0.006320  -0.003782   0.000549  -0.012828
    17  H    0.149847  -0.011849   0.001306  -0.001742   0.000129  -0.028748
    18  H    0.109128  -0.011830   0.000298  -0.013515   0.006320  -0.078590
    19  H    0.253300  -0.005561   0.000079  -0.024850   0.009936  -0.048416
               7          8          9         10         11         12
     1  Cr   0.247327  -0.938466   0.160148  -0.674095   0.098158  -0.893711
     2  O   -0.014780   0.024451  -0.003230   0.076236  -0.008026   0.099229
     3  H    0.000405  -0.000866   0.000082  -0.009839   0.001407  -0.012201
     4  O   -0.012693   0.093887  -0.006623   0.011317  -0.000941   0.092839
     5  H    0.003495  -0.027694   0.000935  -0.002048   0.000057  -0.015666
     6  O   -0.185186   0.118044  -0.012608   0.103639  -0.005284   0.040081
     7  H    0.100774  -0.049111   0.004912  -0.027450   0.000835  -0.008703
     8  O   -0.049111   0.688566  -0.111286   0.089132  -0.010286   0.154687
     9  H    0.004912  -0.111286   0.052777  -0.022764   0.004878  -0.029401
    10  O   -0.027450   0.089132  -0.022764   0.404097  -0.060274   0.107470
    11  H    0.000835  -0.010286   0.004878  -0.060274   0.034870  -0.027588
    12  O   -0.008703   0.154687  -0.029401   0.107470  -0.027588   0.573758
    13  H    0.000093  -0.007502   0.000732  -0.002592   0.000611  -0.080322
    14  H    0.000218  -0.020624   0.006221  -0.013164   0.006618  -0.119746
    15  H    0.000593  -0.002948   0.000070  -0.000590   0.000020  -0.007101
    16  H    0.001209  -0.001081   0.000052  -0.006322   0.000220  -0.007312
    17  H    0.010259  -0.017242   0.006337  -0.095882   0.008014  -0.014111
    18  H    0.014495  -0.010937   0.000417  -0.004989   0.000081  -0.003970
    19  H    0.028110  -0.193384   0.019611  -0.015892   0.000990  -0.022157
              13         14         15         16         17         18
     1  Cr   0.085608   0.137453   0.045160   0.067246   0.149847   0.109128
     2  O   -0.007999  -0.006835  -0.007478  -0.049018  -0.011849  -0.011830
     3  H    0.000743   0.000596   0.000216   0.006320   0.001306   0.000298
     4  O   -0.009354  -0.007035  -0.025469  -0.003782  -0.001742  -0.013515
     5  H    0.001411   0.000575   0.003758   0.000549   0.000129   0.006320
     6  O   -0.000901  -0.001847  -0.006046  -0.012828  -0.028748  -0.078590
     7  H    0.000093   0.000218   0.000593   0.001209   0.010259   0.014495
     8  O   -0.007502  -0.020624  -0.002948  -0.001081  -0.017242  -0.010937
     9  H    0.000732   0.006221   0.000070   0.000052   0.006337   0.000417
    10  O   -0.002592  -0.013164  -0.000590  -0.006322  -0.095882  -0.004989
    11  H    0.000611   0.006618   0.000020   0.000220   0.008014   0.000081
    12  O   -0.080322  -0.119746  -0.007101  -0.007312  -0.014111  -0.003970
    13  H    0.036147   0.012171   0.000787   0.000329   0.000152   0.000072
    14  H    0.012171   0.053146   0.000147   0.000134   0.001121   0.000059
    15  H    0.000787   0.000147   0.020471   0.002091   0.000035   0.002652
    16  H    0.000329   0.000134   0.002091   0.029908   0.000552   0.002486
    17  H    0.000152   0.001121   0.000035   0.000552   0.050684   0.000603
    18  H    0.000072   0.000059   0.002652   0.002486   0.000603   0.039916
    19  H    0.000521   0.001589   0.000488   0.000141   0.003708   0.004806
              19
     1  Cr   0.253300
     2  O   -0.005561
     3  H    0.000079
     4  O   -0.024850
     5  H    0.009936
     6  O   -0.048416
     7  H    0.028110
     8  O   -0.193384
     9  H    0.019611
    10  O   -0.015892
    11  H    0.000990
    12  O   -0.022157
    13  H    0.000521
    14  H    0.001589
    15  H    0.000488
    16  H    0.000141
    17  H    0.003708
    18  H    0.004806
    19  H    0.102254
 Mulliken charges and spin densities:
               1          2
     1  Cr   0.301104   4.254764
     2  O   -0.614684  -0.099185
     3  H    0.437829   0.025835
     4  O   -0.592343  -0.103635
     5  H    0.410099   0.059265
     6  O   -0.441476  -0.202072
     7  H    0.349795   0.114801
     8  O   -0.441597  -0.222660
     9  H    0.396859   0.071261
    10  O   -0.551348  -0.144010
    11  H    0.415824   0.044360
    12  O   -0.532761  -0.173924
    13  H    0.438438   0.030705
    14  H    0.393961   0.050795
    15  H    0.438671   0.026857
    16  H    0.421201   0.030894
    17  H    0.407570   0.063174
    18  H    0.412350   0.057501
    19  H    0.350508   0.115274
 Sum of Mulliken charges =   2.00000   4.00000
 Mulliken charges and spin densities with hydrogens summed into heavy atoms:
               1          2
     1  Cr   0.301104   4.254764
     2  O    0.244346  -0.042456
     4  O    0.256427  -0.017513
     6  O    0.320669  -0.029770
     8  O    0.305770  -0.036126
    10  O    0.272046  -0.036476
    12  O    0.299638  -0.092424
 APT charges:
               1
     1  Cr   0.152297
     2  O   -0.165702
     3  H    0.275207
     4  O    0.193849
     5  H    0.139150
     6  O    0.509256
     7  H   -0.061260
     8  O    0.565367
     9  H   -0.245714
    10  O    0.276035
    11  H   -0.017964
    12  O   -0.064369
    13  H    0.265321
    14  H    0.146657
    15  H    0.060957
    16  H    0.191259
    17  H    0.122692
    18  H   -0.208025
    19  H   -0.135012
 Sum of APT charges =   2.00000
 APT charges with hydrogens summed into heavy atoms:
               1
     1  Cr   0.152297
     2  O    0.300764
     4  O    0.393956
     6  O    0.239971
     8  O    0.184641
    10  O    0.380763
    12  O    0.347609
 Electronic spatial extent (au):  <R**2>=            870.4113
 Charge=              2.0000 electrons
 Dipole moment (field-independent basis, Debye):
    X=              0.2751    Y=              0.2127    Z=             -0.1260  Tot=              0.3699
 Quadrupole moment (field-independent basis, Debye-Ang):
   XX=            -28.0427   YY=            -31.8716   ZZ=            -36.4567
   XY=             -4.4800   XZ=             -0.8003   YZ=              0.6138
 Traceless Quadrupole moment (field-independent basis, Debye-Ang):
   XX=              4.0810   YY=              0.2521   ZZ=             -4.3330
   XY=             -4.4800   XZ=             -0.8003   YZ=              0.6138
 Octapole moment (field-independent basis, Debye-Ang**2):
  XXX=              2.5981  YYY=             -6.2696  ZZZ=              8.7864  XYY=             -0.4608
  XXY=              0.0644  XXZ=              4.1207  XZZ=            -10.4727  YZZ=             -9.2392
  YYZ=             -9.4873  XYZ=             -2.2494
 Hexadecapole moment (field-independent basis, Debye-Ang**3):
 XXXX=           -278.0252 YYYY=           -284.2568 ZZZZ=           -267.3888 XXXY=            -23.0607
 XXXZ=              5.0796 YYYX=            -10.2453 YYYZ=             21.6751 ZZZX=            -13.6469
[...]
    15  H   -0.000039  -0.000002   0.289874  -0.000025   0.000000  -0.000039
    16  H   -0.000001  -0.000001  -0.000025   0.289636  -0.000025  -0.000052
    17  H   -0.000002  -0.000039   0.000000  -0.000025   0.289883  -0.000002
    18  H    0.000000   0.000000  -0.000039  -0.000052  -0.000002   0.311907
    19  H   -0.000001  -0.000001  -0.000000   0.000001  -0.000000  -0.000054
              19
     1  Cr  -0.007029
     2  O   -0.000382
     3  H   -0.000000
     4  O    0.000911
     5  H   -0.000025
     6  O    0.003416
     7  H   -0.000054
     8  O    0.300358
     9  H   -0.014988
    10  O    0.000911
    11  H   -0.000025
    12  O    0.000662
    13  H   -0.000001
    14  H   -0.000001
    15  H   -0.000000
    16  H    0.000001
    17  H   -0.000000
    18  H   -0.000054
    19  H    0.289767
          Atomic-Atomic Spin Densities.
               1          2          3          4          5          6
     1  Cr   4.281365  -0.022829  -0.002619  -0.030051  -0.001433  -0.067563
     2  O   -0.022829   0.003089   0.002022   0.020054  -0.000371  -0.018183
     3  H   -0.002619   0.002022   0.002891  -0.000453   0.000001   0.000169
     4  O   -0.030051   0.020054  -0.000453   0.021236   0.000784  -0.022206
     5  H   -0.001433  -0.000371   0.000001   0.000784   0.002461   0.000493
     6  O   -0.067563  -0.018183   0.000169  -0.022206   0.000493   0.127941
     7  H    0.003311   0.000551  -0.000001   0.000355  -0.000001  -0.006595
     8  O   -0.022843   0.003736  -0.000067   0.020055  -0.000120  -0.018302
     9  H   -0.002600  -0.000067  -0.000000  -0.000455   0.000010   0.000168
    10  O   -0.030051   0.020049  -0.000453   0.005403  -0.000078  -0.022206
    11  H   -0.001436  -0.000371   0.000001  -0.000078  -0.000000   0.000493
    12  O   -0.067564  -0.018289   0.001101  -0.022207   0.000491   0.008898
    13  H    0.003311   0.000560  -0.000019   0.001264  -0.000017  -0.000083
    14  H    0.003311   0.000560  -0.000019   0.000355  -0.000001  -0.000083
    15  H   -0.001434  -0.000120   0.000010   0.000785  -0.000777   0.000491
    16  H   -0.002599   0.002038  -0.001023  -0.000455   0.000001   0.001065
    17  H   -0.001431  -0.000120   0.000010  -0.000078   0.000000   0.000491
    18  H    0.003311   0.000551  -0.000001   0.001264  -0.000017  -0.006594
    19  H   -0.002620  -0.000067   0.000000  -0.000453   0.000010   0.001104
               7          8          9         10         11         12
     1  Cr   0.003311  -0.022843  -0.002600  -0.030051  -0.001436  -0.067564
     2  O    0.000551   0.003736  -0.000067   0.020049  -0.000371  -0.018289
     3  H   -0.000001  -0.000067  -0.000000  -0.000453   0.000001   0.001101
     4  O    0.000355   0.020055  -0.000455   0.005403  -0.000078  -0.022207
     5  H   -0.000001  -0.000120   0.000010  -0.000078  -0.000000   0.000491
     6  O   -0.006595  -0.018302   0.000168  -0.022206   0.000493   0.008898
     7  H    0.003834   0.000561  -0.000001   0.001264  -0.000017  -0.000083
     8  O    0.000561   0.003127   0.002037   0.020060  -0.000120  -0.018197
     9  H   -0.000001   0.002037   0.002860  -0.000455   0.000010   0.001067
    10  O    0.001264   0.020060  -0.000455   0.021233   0.000787  -0.022206
    11  H   -0.000017  -0.000120   0.000010   0.000787   0.002460   0.000491
    12  O   -0.000083  -0.018197   0.001067  -0.022206   0.000491   0.127943
    13  H    0.000000   0.000552  -0.000019   0.000355  -0.000001  -0.006594
    14  H    0.000000   0.000552  -0.000019   0.001264  -0.000017  -0.006595
    15  H   -0.000001  -0.000371   0.000001  -0.000078   0.000000   0.000492
    16  H   -0.000019  -0.000067   0.000000  -0.000455   0.000001   0.000168
    17  H   -0.000017  -0.000371   0.000001   0.000783  -0.000777   0.000493
    18  H    0.000821   0.000561  -0.000001   0.000355  -0.000001  -0.000083
    19  H   -0.000019   0.002020  -0.001023  -0.000453   0.000010   0.000169
              13         14         15         16         17         18
     1  Cr   0.003311   0.003311  -0.001434  -0.002599  -0.001431   0.003311
     2  O    0.000560   0.000560  -0.000120   0.002038  -0.000120   0.000551
     3  H   -0.000019  -0.000019   0.000010  -0.001023   0.000010  -0.000001
     4  O    0.001264   0.000355   0.000785  -0.000455  -0.000078   0.001264
     5  H   -0.000017  -0.000001  -0.000777   0.000001   0.000000  -0.000017
     6  O   -0.000083  -0.000083   0.000491   0.001065   0.000491  -0.006594
     7  H    0.000000   0.000000  -0.000001  -0.000019  -0.000017   0.000821
     8  O    0.000552   0.000552  -0.000371  -0.000067  -0.000371   0.000561
     9  H   -0.000019  -0.000019   0.000001   0.000000   0.000001  -0.000001
    10  O    0.000355   0.001264  -0.000078  -0.000455   0.000783   0.000355
    11  H   -0.000001  -0.000017   0.000000   0.000001  -0.000777  -0.000001
    12  O   -0.006594  -0.006595   0.000492   0.000168   0.000493  -0.000083
    13  H    0.003834   0.000821  -0.000017  -0.000001  -0.000001   0.000000
    14  H    0.000821   0.003834  -0.000001  -0.000001  -0.000017   0.000000
    15  H   -0.000017  -0.000001   0.002459   0.000010  -0.000000  -0.000017
    16  H   -0.000001  -0.000001   0.000010   0.002860   0.000010  -0.000019
    17  H   -0.000001  -0.000017  -0.000000   0.000010   0.002459  -0.000001
    18  H    0.000000   0.000000  -0.000017  -0.000019  -0.000001   0.003834
    19  H   -0.000001  -0.000001   0.000001  -0.000000   0.000001  -0.000019
              19
     1  Cr  -0.002620
     2  O   -0.000067
     3  H    0.000000
     4  O   -0.000453
     5  H    0.000010
     6  O    0.001104
     7  H   -0.000019
     8  O    0.002020
     9  H   -0.001023
    10  O   -0.000453
    11  H    0.000010
    12  O    0.000169
    13  H   -0.000001
    14  H   -0.000001
    15  H    0.000001
    16  H   -0.000000
    17  H    0.000001
    18  H   -0.000019
    19  H    0.002891
 Mulliken charges and spin densities:
               1          2
     1  Cr   1.182837   4.037537
     2  O   -0.711245  -0.007207
     3  H    0.426542   0.001550
     4  O   -0.708012  -0.004883
     5  H    0.425183   0.001435
     6  O   -0.686523  -0.020505
     7  H    0.405352   0.003944
     8  O   -0.711210  -0.007199
     9  H    0.426719   0.001516
    10  O   -0.708009  -0.004883
    11  H    0.425195   0.001434
    12  O   -0.686520  -0.020505
    13  H    0.405351   0.003944
    14  H    0.405353   0.003944
    15  H    0.425194   0.001434
    16  H    0.426726   0.001515
    17  H    0.425181   0.001435
    18  H    0.405351   0.003944
    19  H    0.426535   0.001550
 Sum of Mulliken charges =   2.00000   4.00000
 Mulliken charges and spin densities with hydrogens summed into heavy atoms:
               1          2
     1  Cr   1.182837   4.037537
     2  O    0.142023  -0.004141
     4  O    0.142365  -0.002014
     6  O    0.124180  -0.012618
     8  O    0.142045  -0.004133
    10  O    0.142367  -0.002014
    12  O    0.124184  -0.012618
 Electronic spatial extent (au):  <R**2>=           1202.1064
 Charge=              2.0000 electrons
 Dipole moment (field-independent basis, Debye):
    X=             -0.0000    Y=              0.0000    Z=             -0.0010  Tot=              0.0010
 Quadrupole moment (field-independent basis, Debye-Ang):
   XX=            -16.2399   YY=            -15.2624   ZZ=            -15.0401
   XY=             -0.0021   XZ=              0.0672   YZ=             -0.0026
 Traceless Quadrupole moment (field-independent basis, Debye-Ang):
   XX=             -0.7258   YY=              0.2517   ZZ=              0.4741
   XY=             -0.0021   XZ=              0.0672   YZ=             -0.0026
 Octapole moment (field-independent basis, Debye-Ang**2):
  XXX=              0.0006  YYY=              0.0003  ZZZ=             -0.0240  XYY=             -0.0001
  XXY=             -0.0011  XXZ=              0.0144  XZZ=             -0.0007  YZZ=              0.0011
  YYZ=             -0.0037  XYZ=              0.0003
 Hexadecapole moment (field-independent basis, Debye-Ang**3):
 XXXX=           -145.1959 YYYY=           -107.9699 ZZZZ=           -107.8890 XXXY=              0.0570
 XXXZ=             -3.5920 YYYX=              0.0101 YYYZ=              4.2468 ZZZX=              3.1517
 ZZZY=             -4.2047 XXYY=           -113.9334 XXZZ=           -122.5018 YYZZ=            -99.8646
 XXYZ=              0.1970 YYXZ=              0.0296 ZZXY=             -0.0673
 N-N= 6.193650830473D+02 E-N=-4.773155168393D+03  KE= 1.498014596963D+03
                          Isotropic Fermi Contact Couplings
        Atom                 a.u.       MegaHertz       Gauss      10(-4) cm-1
     1  Cr(53)             0.09614      -6.08451      -2.17110      -2.02957
     2  O(17)             -0.01740       2.63730       0.94105       0.87971
     3  H(1)               0.00118       1.32016       0.47107       0.44036
     4  O(17)             -0.01584       2.40085       0.85668       0.80084
     5  H(1)               0.00097       1.08256       0.38629       0.36110
     6  O(17)              0.09832     -14.89972      -5.31659      -4.97001
     7  H(1)               0.00130       1.45202       0.51812       0.48434
     8  O(17)             -0.01738       2.63402       0.93988       0.87861
     9  H(1)               0.00117       1.30512       0.46570       0.43534
    10  O(17)             -0.01584       2.40105       0.85675       0.80090
    11  H(1)               0.00097       1.08079       0.38565       0.36051
    12  O(17)              0.09832     -14.89991      -5.31666      -4.97008
    13  H(1)               0.00130       1.45200       0.51811       0.48433
    14  H(1)               0.00130       1.45217       0.51817       0.48439
    15  H(1)               0.00097       1.08064       0.38560       0.36046
    16  H(1)               0.00117       1.30561       0.46588       0.43551
    17  H(1)               0.00097       1.08238       0.38622       0.36104
    18  H(1)               0.00130       1.45211       0.51815       0.48437
    19  H(1)               0.00118       1.31967       0.47089       0.44019
 --------------------------------------------------------
       Center         ----  Spin Dipole Couplings  ----
                      3XX-RR        3YY-RR        3ZZ-RR
 --------------------------------------------------------
     1   Atom        1.756702     -0.859264     -0.897438
     2   Atom       -0.065226      0.022837      0.042389
     3   Atom       -0.019770     -0.026460      0.046230
     4   Atom        0.027091      0.040935     -0.068027
     5   Atom       -0.025490      0.047205     -0.021716
     6   Atom        0.107623     -0.076001     -0.031622
     7   Atom        0.038225     -0.015532     -0.022693
     8   Atom       -0.065239      0.022844      0.042396
     9   Atom       -0.021252     -0.026393      0.047645
    10   Atom        0.027093      0.040934     -0.068027
    11   Atom       -0.025488      0.045210     -0.019722
    12   Atom        0.107621     -0.076002     -0.031619
    13   Atom        0.038223     -0.015530     -0.022693
    14   Atom        0.038218     -0.015547     -0.022671
    15   Atom       -0.025488      0.045207     -0.019720
    16   Atom       -0.021252     -0.026393      0.047644
    17   Atom       -0.025490      0.047204     -0.021714
    18   Atom        0.038218     -0.015546     -0.022672
    19   Atom       -0.019769     -0.026461      0.046230
 --------------------------------------------------------
                        XY            XZ            YZ
 --------------------------------------------------------
     1   Atom        0.000702     -0.042254      0.000865
     2   Atom       -0.000032      0.001669     -0.000411
     3   Atom       -0.000522      0.023672     -0.001602
     4   Atom        0.000033     -0.001467      0.002390
     5   Atom       -0.000344      0.000063     -0.021196
     6   Atom        0.000017     -0.001495     -0.000978
     7   Atom        0.017389     -0.000416     -0.000075
     8   Atom       -0.000025      0.001670     -0.000412
     9   Atom        0.000470     -0.021363     -0.001628
    10   Atom        0.000034     -0.001484      0.002386
    11   Atom        0.000357      0.000083      0.024138
    12   Atom        0.000025     -0.001592     -0.000982
    13   Atom        0.017392     -0.000441     -0.000082
    14   Atom       -0.017361     -0.001208      0.000398
    15   Atom        0.000352      0.000082      0.024141
    16   Atom        0.000471     -0.021362     -0.001630
    17   Atom       -0.000349      0.000064     -0.021200
    18   Atom       -0.017364     -0.001180      0.000390
    19   Atom       -0.000523      0.023673     -0.001603
 --------------------------------------------------------


 ---------------------------------------------------------------------------------
              Anisotropic Spin Dipole Couplings in Principal Axis System
 ---------------------------------------------------------------------------------

       Atom             a.u.   MegaHertz   Gauss  10(-4) cm-1        Axes

              Baa    -0.8981    27.141     9.684     9.053  0.0159 -0.0225  0.9996
     1 Cr(53) Bbb    -0.8592    25.966     9.265     8.661  0.0001  0.9997  0.0225
              Bcc     1.7574   -53.106   -18.950   -17.714  0.9999  0.0003 -0.0159
 
              Baa    -0.0653     4.722     1.685     1.575  0.9999  0.0003 -0.0155
     2 O(17)  Bbb     0.0228    -1.652    -0.589    -0.551  0.0000  0.9998  0.0210
              Bcc     0.0424    -3.070    -1.095    -1.024  0.0155 -0.0210  0.9997
 
              Baa    -0.0274   -14.610    -5.213    -4.873  0.9520  0.0076 -0.3060
     3 H(1)   Bbb    -0.0265   -14.137    -5.044    -4.716 -0.0008  0.9998  0.0223
              Bcc     0.0539    28.746    10.257     9.589  0.3061 -0.0210  0.9518
 
              Baa    -0.0681     4.928     1.758     1.644  0.0154 -0.0219  0.9996
     4 O(17)  Bbb     0.0271    -1.962    -0.700    -0.654  0.9999  0.0003 -0.0154
              Bcc     0.0410    -2.966    -1.058    -0.989  0.0001  0.9998  0.0219
 
              Baa    -0.0277   -14.786    -5.276    -4.932  0.0150  0.2723  0.9621
     5 H(1)   Bbb    -0.0255   -13.601    -4.853    -4.537  0.9999  0.0002 -0.0156
              Bcc     0.0532    28.387    10.129     9.469 -0.0044  0.9622 -0.2722
 
              Baa    -0.0760     5.501     1.963     1.835  0.0001  0.9998  0.0220
     6 O(17)  Bbb    -0.0316     2.288     0.816     0.763  0.0107 -0.0220  0.9997
              Bcc     0.1076    -7.789    -2.779    -2.598  0.9999  0.0001 -0.0107
 
              Baa    -0.0227   -12.110    -4.321    -4.039  0.0124 -0.0196  0.9997
     7 H(1)   Bbb    -0.0207   -11.026    -3.934    -3.678 -0.2830  0.9589  0.0224
              Bcc     0.0434    23.136     8.256     7.717  0.9590  0.2832 -0.0064
 
              Baa    -0.0653     4.723     1.685     1.575  0.9999  0.0002 -0.0155
     8 O(17)  Bbb     0.0228    -1.652    -0.590    -0.551  0.0001  0.9998  0.0210
              Bcc     0.0424    -3.070    -1.096    -1.024  0.0155 -0.0210  0.9997
 
              Baa    -0.0273   -14.586    -5.205    -4.865  0.9617 -0.0068  0.2739
     9 H(1)   Bbb    -0.0264   -14.101    -5.032    -4.704  0.0008  0.9998  0.0222
              Bcc     0.0538    28.687    10.236     9.569 -0.2739 -0.0211  0.9615
 
              Baa    -0.0681     4.928     1.758     1.644  0.0156 -0.0219  0.9996
    10 O(17)  Bbb     0.0271    -1.962    -0.700    -0.654  0.9999  0.0003 -0.0156
              Bcc     0.0410    -2.966    -1.058    -0.989  0.0001  0.9998  0.0219
 
              Baa    -0.0277   -14.786    -5.276    -4.932  0.0150 -0.3143  0.9492
    11 H(1)   Bbb    -0.0255   -13.600    -4.853    -4.536  0.9999  0.0003 -0.0157
              Bcc     0.0532    28.386    10.129     9.468  0.0046  0.9493  0.3142
 
              Baa    -0.0760     5.501     1.963     1.835  0.0001  0.9998  0.0221
    12 O(17)  Bbb    -0.0316     2.288     0.816     0.763  0.0114 -0.0221  0.9997
              Bcc     0.1076    -7.789    -2.779    -2.598  0.9999  0.0002 -0.0114
 
              Baa    -0.0227   -12.110    -4.321    -4.039  0.0129 -0.0200  0.9997
    13 H(1)   Bbb    -0.0207   -11.026    -3.934    -3.678 -0.2830  0.9588  0.0228
              Bcc     0.0434    23.136     8.256     7.717  0.9590  0.2832 -0.0068
 
              Baa    -0.0227   -12.110    -4.321    -4.039  0.0129 -0.0242  0.9996
    14 H(1)   Bbb    -0.0207   -11.026    -3.934    -3.678  0.2831  0.9589  0.0196
              Bcc     0.0434    23.136     8.255     7.717  0.9590 -0.2828 -0.0193
 
              Baa    -0.0277   -14.786    -5.276    -4.932  0.0148 -0.3143  0.9492
    15 H(1)   Bbb    -0.0255   -13.600    -4.853    -4.536  0.9999  0.0003 -0.0155
              Bcc     0.0532    28.386    10.129     9.468  0.0046  0.9493  0.3143
 
              Baa    -0.0273   -14.586    -5.205    -4.865  0.9617 -0.0067  0.2738
    16 H(1)   Bbb    -0.0264   -14.101    -5.032    -4.704  0.0006  0.9998  0.0222
              Bcc     0.0538    28.687    10.236     9.569 -0.2739 -0.0212  0.9615
 
              Baa    -0.0277   -14.786    -5.276    -4.932  0.0152  0.2723  0.9621
    17 H(1)   Bbb    -0.0255   -13.601    -4.853    -4.537  0.9999  0.0002 -0.0158
              Bcc     0.0532    28.387    10.129     9.469 -0.0045  0.9622 -0.2723
 
              Baa    -0.0227   -12.110    -4.321    -4.039  0.0124 -0.0244  0.9996
    18 H(1)   Bbb    -0.0207   -11.026    -3.934    -3.678  0.2832  0.9589  0.0199
              Bcc     0.0434    23.136     8.255     7.717  0.9590 -0.2828 -0.0188
 
              Baa    -0.0274   -14.610    -5.213    -4.873  0.9520  0.0074 -0.3060
    19 H(1)   Bbb    -0.0265   -14.137    -5.044    -4.716 -0.0007  0.9998  0.0223
              Bcc     0.0539    28.747    10.258     9.589  0.3061 -0.0210  0.9518
 

 ---------------------------------------------------------------------------------

 No NMR shielding tensors so no spin-rotation constants.
 Leave Link  601 at Thu May 23 16:47:53 2024, MaxMem= 26843545600 cpu:              28.6 elap:               0.3
 (Enter /gpfs/fs1/soft/improv/software/custom-built/gaussian/g16/l9999.exe)
 Unable to Open any file for archive entry.
 1\1\GINC-I256\SP\UHSEH1PBE\Gen\Cr1H12O6(2+,5)\HHARB\23-May-2024\0\\#p 
 HSEH1PBE scf=(maxcycles=500,xqc,maxconventional=50) scrf=(cpcm,solvent
 =water) geom=allcheck guess=read chkbasis\\Title\\2,5\Cr,-0.7848755428
 ,0.7131121168,0.0317720173\O,-1.3520702719,2.703644716,-0.1934678253\H
 ,-1.47628711,3.1642052047,-1.0320566538\O,1.22089599,1.2864261722,0.04
 90177059\H,1.980177298,0.6988119497,0.1372115937\O,-0.8714003863,0.944
 9061931,2.3856824293\H,-1.6311419669,0.7939341149,2.9600422074\O,-0.21
 76947258,-1.2774106027,0.2570166181\H,-0.0338411709,-1.8997386652,-0.4
 568782555\O,-2.7906735209,0.1399016585,0.0145142079\H,-3.1261876538,-0
 .7605378987,0.0933274284\O,-0.6979519505,0.4801794031,-2.322006727\H,0
 .0618080382,0.6311902346,-2.8963318185\H,-1.4134074974,0.2094087474,-2
 .9091141294\H,1.5563532037,2.1869008258,-0.0296383271\H,-1.5359910024,
 3.3259645049,0.5204186573\H,-3.5499155678,0.7275423396,-0.0738459161\H
 ,-0.1558851202,1.2155723802,2.9727649063\H,-0.0934286135,-1.7379336198
 ,1.0956172905\\Version=ES64L-G16RevC.02\State=5-A\HF=-1502.2374822\S2=
 6.004919\S2-1=0.\S2A=6.000007\RMSD=3.209e-09\Dipole=-0.0001009,0.00038
 ,-0.0000403\Quadrupole=0.1968226,0.3260177,-0.5228403,-0.0368611,0.041
 9321,-0.1240894\PG=C01 [X(Cr1H12O6)]\\@
 The archive entry for this job was punched.


 THE FIRST AND LAST THING REQUIRED OF GENIUS IS THE LOVE OF TRUTH.

                          -- GOETHE
 Job cpu time:       0 days  2 hours 22 minutes 44.9 seconds.
 Elapsed time:       0 days  0 hours  1 minutes 12.5 seconds.
 File lengths (MBytes):  RWF=    124 Int=      0 D2E=      0 Chk=     32 Scr=      1
 Normal termination of Gaussian 16 at Thu May 23 16:47:53 2024.
