      -----------------------------------------------------------      
     |                   =====================                   |     
     |                           x T B                           |     
     |                   =====================                   |     
     |                         S. Grimme                         |     
     |          Mulliken Center for Theoretical Chemistry        |     
     |                    University of Bonn                     |     
      -----------------------------------------------------------      

   * xtb version 6.6.0 (conda-forge) compiled by 'runner@Mac-1676020848589.local' on 2023-02-10

   xtb is free software: you can redistribute it and/or modify it under
   the terms of the GNU Lesser General Public License as published by
   the Free Software Foundation, either version 3 of the License, or
   (at your option) any later version.
   
   xtb is distributed in the hope that it will be useful,
   but WITHOUT ANY WARRANTY; without even the implied warranty of
   MERCHANTABILITY or FITNESS FOR A PARTICULAR PURPOSE.  See the
   GNU Lesser General Public License for more details.
   
   Cite this work as:
   * C. Bannwarth, E. Caldeweyher, S. Ehlert, A. Hansen, P. Pracht,
     J. Seibert, S. Spicher, S. Grimme, WIREs Comput. Mol. Sci., 2020, 11,
     e01493. DOI: 10.1002/wcms.1493
   
   for GFN2-xTB:
   * C. Bannwarth, S. Ehlert and S. Grimme., J. Chem. Theory Comput., 2019,
     15, 1652-1671. DOI: 10.1021/acs.jctc.8b01176
   for GFN1-xTB:
   * S. Grimme, C. Bannwarth, P. Shushkov, J. Chem. Theory Comput., 2017,
     13, 1989-2009. DOI: 10.1021/acs.jctc.7b00118
   for GFN0-xTB:
   * P. Pracht, E. Caldeweyher, S. Ehlert, S. Grimme, ChemRxiv, 2019, preprint.
     DOI: 10.26434/chemrxiv.8326202.v1
   for GFN-FF:
   * S. Spicher and S. Grimme, Angew. Chem. Int. Ed., 2020, 59, 15665-15673.
     DOI: 10.1002/anie.202004239
   
   for ALPB and GBSA implicit solvation:
   * S. Ehlert, M. Stahn, S. Spicher, S. Grimme, J. Chem. Theory Comput.,
     2021, 17, 4250-4261. DOI: 10.1021/acs.jctc.1c00471
   
   for DFT-D4:
   * E. Caldeweyher, C. Bannwarth and S. Grimme, J. Chem. Phys., 2017,
     147, 034112. DOI: 10.1063/1.4993215
   * E. Caldeweyher, S. Ehlert, A. Hansen, H. Neugebauer, S. Spicher,
     C. Bannwarth and S. Grimme, J. Chem. Phys., 2019, 150, 154122.
     DOI: 10.1063/1.5090222
   * E. Caldeweyher, J.-M. Mewes, S. Ehlert and S. Grimme, Phys. Chem. Chem. Phys.
     2020, 22, 8499-8512. DOI: 10.1039/D0CP00502A
   
   for sTDA-xTB:
   * S. Grimme and C. Bannwarth, J. Chem. Phys., 2016, 145, 054103.
     DOI: 10.1063/1.4959605
   
   in the mass-spec context:
   * V. Asgeirsson, C. Bauer and S. Grimme, Chem. Sci., 2017, 8, 4879.
     DOI: 10.1039/c7sc00601b
   * J. Koopman and S. Grimme, ACS Omega 2019, 4, 12, 15120-15133.
     DOI: 10.1021/acsomega.9b02011
   
   for metadynamics refer to:
   * S. Grimme, J. Chem. Theory Comput., 2019, 155, 2847-2862
     DOI: 10.1021/acs.jctc.9b00143
   
   for SPH calculations refer to:
   * S. Spicher and S. Grimme, J. Chem. Theory Comput., 2021, 17, 1701-1714
     DOI: 10.1021/acs.jctc.0c01306
   
   with help from (in alphabetical order)
   P. Atkinson, C. Bannwarth, F. Bohle, G. Brandenburg, E. Caldeweyher
   M. Checinski, S. Dohm, S. Ehlert, S. Ehrlich, I. Gerasimov, C. Hölzer
   A. Katbashev, J. Koopman, C. Lavigne, S. Lehtola, F. März, M. Müller,
   F. Musil, H. Neugebauer, J. Pisarek, C. Plett, P. Pracht, F. Pultar,
   J. Seibert, P. Shushkov, S. Spicher, M. Stahn, M. Steiner, T. Strunk,
   J. Stückrath, T. Rose, and J. Unsleber
   
 * started run on 2024/05/10 at 18:00:49.075     

           -------------------------------------------------
          |                Calculation Setup                |
           -------------------------------------------------

          program call               : xtb Fe_39H2O_0_5.xyz --gfn2 --chrg 0 --uhf 5 --hess --alpb water
          coordinate file            : Fe_39H2O_0_5.xyz
          omp threads                :                     8

   ID    Z sym.   atoms
    1   26 Fe     1
    2    8 O      2-7, 20-31, 56, 59, 62, 65, 68, 71, 74, 77, 80, 83, 86, 89,
                  92, 95, 98, 101, 104, 107, 110, 113, 116
    3    1 H      8-19, 32-55, 57, 58, 60, 61, 63, 64, 66, 67, 69, 70, 72,
                  73, 75, 76, 78, 79, 81, 82, 84, 85, 87, 88, 90, 91, 93, 94,
                  96, 97, 99, 100, 102, 103, 105, 106, 108, 109, 111, 112,
                  114, 115, 117, 118

molecular fragmentation (1/2 indicates fragments):
112222222221222222222222222222222222222222222222222222222222222222222222
2222222222222222222222222222222222222222222222
# atoms in fragment 1/2:     3   115
 fragment masses (1/2) :       72.85      685.59
CMA distance (Bohr)    :   2.437
constraining FC (au)   :  0.0500

           -------------------------------------------------
          |                 G F N 2 - x T B                 |
           -------------------------------------------------

        Reference                      10.1021/acs.jctc.8b01176
      * Hamiltonian:
        H0-scaling (s, p, d)           1.850000    2.230000    2.230000
        zeta-weighting                 0.500000
      * Dispersion:
        s8                             2.700000
        a1                             0.520000
        a2                             5.000000
        s9                             5.000000
      * Repulsion:
        kExp                           1.500000    1.000000
        rExp                           1.000000
      * Coulomb:
        alpha                          2.000000
        third order                    shell-resolved
        anisotropic                    true
        a3                             3.000000
        a5                             4.000000
        cn-shift                       1.200000
        cn-exp                         4.000000
        max-rad                        5.000000

      * Solvation model:               ALPB
        Solvent                        water
        Parameter file                 internal GFN2-xTB/ALPB
        Dielectric constant                8.0200E+01
        Reference state                gsolv [1 M gas/solution]
        Free energy shift                  1.0808E-03 Eh       6.7819E-01 kcal/mol
        Temperature                        2.9815E+02 K
        Density                            1.0000E+00 kg/L
        Solvent mass                       1.8000E+01 g/mol
        Interaction kernel             P16
        Born radius scaling (c1)           1.4744E+00
        Born radii integrator          GBOBC
        Born offset                        0.0000E+00 a0       0.0000E+00 AA
        H-bond correction              true
        Ion screening                  false
        Surface tension                    1.0000E-05 Eh       1.5569E+01 dyn/cm
        Grid points                               230 per atom
q/qsh data taken from xtbrestart
CAMM data taken from xtbrestart

          ...................................................
          :                      SETUP                      :
          :.................................................:
          :  # basis functions                 244          :
          :  # atomic orbitals                 243          :
          :  # shells                          159          :
          :  # electrons                       320          :
          :  max. iterations                   250          :
          :  Hamiltonian                  GFN2-xTB          :
          :  restarted?                       true          :
          :  GBSA solvation                   true          :
          :  PC potential                    false          :
          :  electronic temp.          300.0000000     K    :
          :  accuracy                    1.0000000          :
          :  -> integral cutoff          0.2500000E+02      :
          :  -> integral neglect         0.1000000E-07      :
          :  -> SCF convergence          0.1000000E-05 Eh   :
          :  -> wf. convergence          0.1000000E-03 e    :
          :  Broyden damping             0.4000000          :
          ...................................................

 iter      E             dE          RMSdq      gap      omega  full diag
   1   -203.1090960 -0.203109E+03  0.966E-06    7.11       0.0  T
   2   -203.1090960  0.284217E-13  0.850E-06    7.11    1083.6  T
   3   -203.1090960  0.852651E-13  0.562E-06    7.11    1637.4  T

   *** convergence criteria satisfied after 3 iterations ***

         #    Occupation            Energy/Eh            Energy/eV
      -------------------------------------------------------------
         1        2.0000           -0.6656731             -18.1139
       ...           ...                  ...                  ...
       156        2.0000           -0.3579468              -9.7402
       157        2.0000           -0.3566199              -9.7041
       158        1.5780           -0.3110080              -8.4630
       159        1.4181           -0.3103948              -8.4463
       160        1.0039           -0.3054366              -8.3114
       161        1.0000           -0.3007717              -8.1844
       162        1.0000           -0.2969360              -8.0800 (HOMO)
       163                         -0.0356499              -0.9701 (LUMO)
       164                          0.0132749               0.3612
       165                          0.0401223               1.0918
       166                          0.0461327               1.2553
       167                          0.0715340               1.9465
       ...                                ...                  ...
       243                          0.9411873              25.6110
      -------------------------------------------------------------
                  HL-Gap            0.2612862 Eh            7.1100 eV
             Fermi-level           -0.2385010 Eh           -6.4899 eV

 SCC (total)                   0 d,  0 h,  0 min,  0.141 sec
 SCC setup                      ...        0 min,  0.005 sec (  3.284%)
 Dispersion                     ...        0 min,  0.002 sec (  1.545%)
 classical contributions        ...        0 min,  0.000 sec (  0.308%)
 integral evaluation            ...        0 min,  0.009 sec (  6.421%)
 iterations                     ...        0 min,  0.055 sec ( 39.167%)
 molecular gradient             ...        0 min,  0.069 sec ( 48.517%)
 printout                       ...        0 min,  0.001 sec (  0.738%)

         :::::::::::::::::::::::::::::::::::::::::::::::::::::
         ::                     SUMMARY                     ::
         :::::::::::::::::::::::::::::::::::::::::::::::::::::
         :: total energy            -201.888750932142 Eh    ::
         :: total w/o Gsasa/hb      -201.522201756876 Eh    ::
         :: gradient norm              0.000051205064 Eh/a0 ::
         :: HOMO-LUMO gap              7.109958397848 eV    ::
         ::.................................................::
         :: SCC energy              -203.109095982687 Eh    ::
         :: -> isotropic ES            1.675497773823 Eh    ::
         :: -> anisotropic ES         -0.195114068886 Eh    ::
         :: -> anisotropic XC         -0.014089622477 Eh    ::
         :: -> dispersion             -0.063641435019 Eh    ::
         :: -> Gsolv                  -0.756141877006 Eh    ::
         ::    -> Gelec               -0.389592701739 Eh    ::
         ::    -> Gsasa                0.031318282257 Eh    ::
         ::    -> Ghb                 -0.398948217222 Eh    ::
         ::    -> Gshift               0.001080759698 Eh    ::
         :: repulsion energy           1.216462419599 Eh    ::
         :: add. restraining           0.000000000000 Eh    ::
         :: total charge               0.000000000000 e     ::
         :::::::::::::::::::::::::::::::::::::::::::::::::::::

           ------------------------------------------------- 
          |                Numerical Hessian                |
           ------------------------------------------------- 
step length          :   0.00500
SCC accuracy         :   0.30000
Hessian scale factor :   1.00000
frozen atoms in %    :   0.00000    0
RMS gradient         :   0.00005
estimated CPU  time     47.09 min
estimated wall time      7.46 min

writing file <hessian>.

 projected vibrational frequencies (cm⁻¹)
eigval :       -0.00    -0.00    -0.00     0.00     0.00     0.00
eigval :      -15.37    13.50    16.11    18.55    20.24    22.87
eigval :       24.21    26.40    26.53    28.47    29.27    31.26
eigval :       32.27    33.88    35.34    36.23    37.36    38.36
eigval :       38.93    40.76    41.44    43.38    43.81    44.88
eigval :       47.57    47.85    49.20    50.64    51.14    51.85
eigval :       52.80    54.13    56.22    57.08    57.69    58.41
eigval :       59.01    60.02    61.67    62.06    62.66    63.69
eigval :       65.60    66.43    68.24    70.00    71.52    71.61
eigval :       73.77    75.27    76.59    78.79    79.96    80.86
eigval :       81.28    82.04    83.79    85.39    86.82    89.29
eigval :       91.98    92.86    92.89    96.18    97.24   100.60
eigval :      102.70   105.29   110.23   111.71   113.69   119.02
eigval :      128.21   129.37   133.93   135.73   139.80   143.32
eigval :      146.45   149.25   153.82   156.86   159.74   161.97
eigval :      165.41   168.09   170.05   174.22   178.63   182.89
eigval :      186.13   190.32   193.38   196.18   199.71   201.41
eigval :      206.27   209.44   211.25   211.36   215.49   216.33
eigval :      216.61   218.04   221.34   223.43   227.02   229.52
eigval :      230.95   232.97   233.48   235.34   239.78   240.63
eigval :      243.46   247.78   250.15   257.22   258.43   259.29
eigval :      262.73   266.12   267.35   269.08   270.11   271.73
eigval :      272.31   273.45   281.57   283.14   284.42   285.31
eigval :      289.47   291.04   294.61   295.80   297.24   303.20
eigval :      304.73   305.30   307.01   310.11   316.44   320.02
eigval :      321.15   322.81   325.11   325.88   331.02   332.51
eigval :      335.27   340.30   342.52   351.20   355.72   356.97
eigval :      360.56   363.62   366.71   369.81   374.47   375.84
eigval :      380.71   381.50   384.26   392.64   399.54   407.71
eigval :      415.65   422.45   442.42   448.74   452.61   462.71
eigval :      464.00   474.32   477.82   487.58   494.20   498.16
eigval :      502.58   505.92   509.15   515.59   516.95   521.45
eigval :      537.86   546.22   552.50   557.36   559.56   570.69
eigval :      576.79   582.78   593.00   594.63   601.31   603.56
eigval :      610.01   615.43   620.33   631.88   632.96   635.96
eigval :      638.22   653.00   656.72   661.62   671.30   676.59
eigval :      686.98   693.89   696.21   706.23   720.60   723.66
eigval :      732.39   737.58   743.36   747.42   752.86   769.99
eigval :      776.28   781.59   791.00   811.83   818.39   834.86
eigval :      846.87   926.08   972.10  1021.41  1027.46  1453.79
eigval :     1455.95  1456.93  1457.86  1458.02  1458.18  1461.13
eigval :     1461.76  1463.11  1463.87  1465.07  1465.96  1467.47
eigval :     1469.03  1470.72  1473.92  1474.53  1477.49  1480.74
eigval :     1482.14  1485.81  1487.46  1493.63  1494.15  1495.85
eigval :     1497.19  1500.46  1501.44  1504.14  1505.83  1507.29
eigval :     1510.58  1515.76  1519.79  1521.83  1526.57  1534.54
eigval :     1539.38  2278.86  2549.04  2744.90  3079.74  3091.94
eigval :     3115.14  3116.55  3156.87  3167.60  3172.33  3190.12
eigval :     3214.64  3227.94  3238.48  3264.94  3280.58  3314.65
eigval :     3319.86  3349.55  3361.68  3365.08  3393.70  3400.03
eigval :     3408.34  3423.44  3428.59  3450.68  3458.03  3469.23
eigval :     3474.38  3480.66  3488.11  3491.50  3496.17  3497.09
eigval :     3502.06  3518.15  3527.94  3588.73  3589.26  3590.66
eigval :     3594.00  3598.61  3598.74  3600.88  3601.40  3601.71
eigval :     3602.02  3603.96  3607.85  3608.86  3609.09  3609.98
eigval :     3610.14  3611.56  3612.31  3614.47  3615.45  3616.88
eigval :     3617.01  3619.21  3621.37  3621.90  3622.76  3625.53
eigval :     3625.97  3626.74  3630.24  3630.56  3636.71  3645.68
eigval :     3649.19  3656.43  3660.98  3666.71  3682.92  3703.24
           -------------------------------------------------
          |                Property Printout                |
           -------------------------------------------------

    * Orbital Energies and Occupations

         #    Occupation            Energy/Eh            Energy/eV
      -------------------------------------------------------------
         1        2.0000           -0.6656731             -18.1139
       ...           ...                  ...                  ...
       150        2.0000           -0.3996524             -10.8751
       151        2.0000           -0.3988255             -10.8526
       152        2.0000           -0.3956198             -10.7654
       153        2.0000           -0.3938657             -10.7176
       154        2.0000           -0.3905008             -10.6261
       155        2.0000           -0.3903800             -10.6228
       156        2.0000           -0.3579468              -9.7402
       157        2.0000           -0.3566199              -9.7041
       158        1.5780           -0.3110080              -8.4630
       159        1.4181           -0.3103948              -8.4463
       160        1.0039           -0.3054366              -8.3114
       161        1.0000           -0.3007717              -8.1844
       162        1.0000           -0.2969361              -8.0800 (HOMO)
       163                         -0.0356499              -0.9701 (LUMO)
       164                          0.0132748               0.3612
       165                          0.0401223               1.0918
       166                          0.0461327               1.2553
       167                          0.0715340               1.9465
       168                          0.0726053               1.9757
       169                          0.0769651               2.0943
       170                          0.0873508               2.3769
       171                          0.0949076               2.5826
       172                          0.1013552               2.7580
       173                          0.1062087               2.8901
       ...                                ...                  ...
       243                          0.9411873              25.6110
      -------------------------------------------------------------
                  HL-Gap            0.2612862 Eh            7.1100 eV
             Fermi-level           -0.2385010 Eh           -6.4899 eV

     #   Z          covCN         q      C6AA      α(0)
     1  26 Fe       0.630     1.149   391.842    57.362
     2   8 O        1.707    -0.610    25.390     6.803
     3   8 O        1.704    -0.636    26.008     6.885
     4   8 O        1.728    -0.612    25.424     6.808
     5   8 O        1.672    -0.614    25.493     6.816
     6   8 O        1.704    -0.607    25.303     6.791
     7   8 O        1.695    -0.626    25.784     6.856
     8   1 H        0.804     0.331     0.636     1.252
     9   1 H        0.805     0.345     0.601     1.217
    10   1 H        0.804     0.354     0.579     1.196
    11   1 H        0.804     0.356     0.574     1.190
    12   1 H        0.805     0.347     0.594     1.211
    13   1 H        0.805     0.336     0.622     1.239
    14   1 H        0.805     0.359     0.568     1.184
    15   1 H        0.805     0.349     0.591     1.208
    16   1 H        0.804     0.360     0.565     1.181
    17   1 H        0.803     0.367     0.550     1.165
    18   1 H        0.804     0.346     0.597     1.214
    19   1 H        0.805     0.360     0.565     1.181
    20   8 O        1.601    -0.687    27.375     7.061
    21   8 O        1.608    -0.665    26.806     6.988
    22   8 O        1.601    -0.661    26.703     6.974
    23   8 O        1.681    -0.627    25.798     6.857
    24   8 O        0.826    -0.929    35.822     8.024
    25   8 O        1.607    -0.650    26.411     6.936
    26   8 O        1.608    -0.665    26.787     6.985
    27   8 O        1.605    -0.699    27.689     7.102
    28   8 O        1.608    -0.656    26.562     6.956
    29   8 O        1.608    -0.663    26.743     6.980
    30   8 O        1.607    -0.667    26.857     6.994
    31   8 O        1.609    -0.646    26.307     6.922
    32   1 H        0.803     0.341     0.611     1.228
    33   1 H        0.804     0.326     0.647     1.263
    34   1 H        0.803     0.336     0.622     1.239
    35   1 H        0.000    -1.000  3074.319   101.384
    36   1 H        0.806     0.220     1.021     1.587
    37   1 H        0.801     0.308     0.699     1.314
    38   1 H        0.805     0.318     0.670     1.286
    39   1 H        0.804     0.361     0.564     1.180
    40   1 H        0.805     0.313     0.684     1.299
    41   1 H        0.802     0.311     0.688     1.303
    42   1 H        0.804     0.345     0.600     1.217
    43   1 H        0.805     0.354     0.578     1.194
    44   1 H        0.804     0.328     0.643     1.259
    45   1 H        0.804     0.332     0.631     1.248
    46   1 H        0.805     0.317     0.673     1.289
    47   1 H        0.803     0.352     0.583     1.200
    48   1 H        0.805     0.319     0.666     1.282
    49   1 H        0.803     0.355     0.578     1.194
    50   1 H        0.803     0.346     0.597     1.214
    51   1 H        0.802     0.358     0.570     1.186
    52   1 H        0.804     0.350     0.587     1.204
    53   1 H        0.804     0.352     0.584     1.200
    54   1 H        0.805     0.333     0.630     1.247
    55   1 H        0.803     0.345     0.601     1.218
    56   8 O        1.607    -0.699    27.696     7.103
    57   1 H        0.806     0.337     0.620     1.237
    58   1 H        0.802     0.368     0.549     1.164
    59   8 O        1.610    -0.732    28.564     7.213
    60   1 H        0.805     0.371     0.542     1.156
    61   1 H        0.805     0.361     0.563     1.179
    62   8 O        1.610    -0.707    27.886     7.127
    63   1 H        0.805     0.369     0.545     1.160
    64   1 H        0.805     0.337     0.619     1.235
    65   8 O        1.608    -0.733    28.593     7.217
    66   1 H        0.805     0.345     0.599     1.216
    67   1 H        0.802     0.347     0.595     1.212
    68   8 O        1.607    -0.736    28.674     7.227
    69   1 H        0.802     0.336     0.623     1.240
    70   1 H        0.805     0.355     0.576     1.192
    71   8 O        1.610    -0.729    28.504     7.206
    72   1 H        0.805     0.366     0.552     1.167
    73   1 H        0.805     0.364     0.557     1.173
    74   8 O        1.610    -0.733    28.595     7.217
    75   1 H        0.805     0.367     0.550     1.165
    76   1 H        0.805     0.366     0.553     1.168
    77   8 O        1.610    -0.710    27.990     7.140
    78   1 H        0.805     0.369     0.545     1.159
    79   1 H        0.805     0.341     0.609     1.226
    80   8 O        1.608    -0.708    27.920     7.132
    81   1 H        0.805     0.337     0.619     1.236
    82   1 H        0.803     0.352     0.584     1.200
    83   8 O        1.607    -0.686    27.343     7.057
    84   1 H        0.802     0.353     0.581     1.198
    85   1 H        0.806     0.344     0.603     1.220
    86   8 O        1.611    -0.690    27.445     7.071
    87   1 H        0.805     0.357     0.571     1.187
    88   1 H        0.805     0.353     0.582     1.198
    89   8 O        1.610    -0.698    27.658     7.098
    90   1 H        0.805     0.353     0.581     1.197
    91   1 H        0.805     0.365     0.555     1.170
    92   8 O        1.597    -0.748    29.018     7.270
    93   1 H        0.803     0.312     0.686     1.301
    94   1 H        0.805     0.322     0.657     1.273
    95   8 O        1.610    -0.696    27.606     7.091
    96   1 H        0.805     0.359     0.567     1.183
    97   1 H        0.805     0.356     0.575     1.191
    98   8 O        1.610    -0.704    27.805     7.117
    99   1 H        0.805     0.364     0.556     1.172
   100   1 H        0.805     0.363     0.558     1.174
   101   8 O        1.611    -0.688    27.391     7.064
   102   1 H        0.805     0.354     0.578     1.194
   103   1 H        0.805     0.354     0.578     1.194
   104   8 O        1.610    -0.699    27.672     7.100
   105   1 H        0.805     0.361     0.562     1.178
   106   1 H        0.805     0.361     0.563     1.178
   107   8 O        1.610    -0.704    27.819     7.119
   108   1 H        0.805     0.371     0.542     1.156
   109   1 H        0.805     0.350     0.587     1.204
   110   8 O        1.610    -0.736    28.678     7.228
   111   1 H        0.805     0.375     0.534     1.147
   112   1 H        0.805     0.361     0.563     1.179
   113   8 O        1.610    -0.733    28.589     7.217
   114   1 H        0.805     0.375     0.534     1.148
   115   1 H        0.805     0.358     0.570     1.186
   116   8 O        1.610    -0.729    28.505     7.206
   117   1 H        0.805     0.377     0.530     1.143
   118   1 H        0.805     0.353     0.581     1.198

 Mol. C6AA /au·bohr⁶  :     111350.390582
 Mol. C8AA /au·bohr⁸  :    2171711.707805
 Mol. α(0) /au        :        528.044924


Wiberg/Mayer (AO) data.
largest (>0.10) Wiberg bond orders for each atom

 ---------------------------------------------------------------------------
     #   Z sym  total        # sym  WBO       # sym  WBO       # sym  WBO
 ---------------------------------------------------------------------------
     1  26 Fe   1.382 --     4 O    0.210     7 O    0.201     3 O    0.192
                             2 O    0.191     6 O    0.188    23 O    0.171
                             5 O    0.161
     2   8 O    1.932 --    13 H    0.851    12 H    0.840     1 Fe   0.191
     3   8 O    1.960 --    16 H    0.816    17 H    0.797     1 Fe   0.192
     4   8 O    1.943 --    15 H    0.847    14 H    0.840     1 Fe   0.210
     5   8 O    1.939 --    19 H    0.858    18 H    0.833     1 Fe   0.161
     6   8 O    1.934 --     9 H    0.847     8 H    0.847     1 Fe   0.188
     7   8 O    1.928 --    11 H    0.834    10 H    0.831     1 Fe   0.201
     8   1 H    0.889 --     6 O    0.847
     9   1 H    0.881 --     6 O    0.847
    10   1 H    0.874 --     7 O    0.831
    11   1 H    0.872 --     7 O    0.834
    12   1 H    0.879 --     2 O    0.840
    13   1 H    0.886 --     2 O    0.851
    14   1 H    0.870 --     4 O    0.840
    15   1 H    0.877 --     4 O    0.847
    16   1 H    0.870 --     3 O    0.816
    17   1 H    0.865 --     3 O    0.797
    18   1 H    0.879 --     5 O    0.833
    19   1 H    0.870 --     5 O    0.858
    20   8 O    1.853 --    34 H    0.837    37 H    0.791
    21   8 O    1.852 --    54 H    0.863    55 H    0.821
    22   8 O    1.862 --    40 H    0.872    41 H    0.776
    23   8 O    1.908 --    43 H    0.864    42 H    0.829     1 Fe   0.171
    24   8 O    1.493 --    36 H    0.949    93 H    0.146    41 H    0.121
                            37 H    0.109
    25   8 O    1.889 --    33 H    0.854    32 H    0.823
    26   8 O    1.868 --    53 H    0.854    52 H    0.841
    27   8 O    1.855 --    50 H    0.815    51 H    0.809
    28   8 O    1.867 --    48 H    0.861    49 H    0.820
    29   8 O    1.843 --    38 H    0.862    39 H    0.826
    30   8 O    1.842 --    46 H    0.865    47 H    0.817
    31   8 O    1.860 --    45 H    0.857    44 H    0.854
    32   1 H    0.884 --    25 O    0.823
    33   1 H    0.893 --    25 O    0.854
    34   1 H    0.887 --    20 O    0.837
    35   1 H    0.000
    36   1 H    0.952 --    24 O    0.949
    37   1 H    0.905 --    20 O    0.791    24 O    0.109
    38   1 H    0.899 --    29 O    0.862
    39   1 H    0.870 --    29 O    0.826
    40   1 H    0.902 --    22 O    0.872
    41   1 H    0.903 --    22 O    0.776    24 O    0.121
    42   1 H    0.881 --    23 O    0.829
    43   1 H    0.874 --    23 O    0.864
    44   1 H    0.892 --    31 O    0.854
    45   1 H    0.889 --    31 O    0.857
    46   1 H    0.900 --    30 O    0.865
    47   1 H    0.876 --    30 O    0.817
    48   1 H    0.898 --    28 O    0.861
    49   1 H    0.874 --    28 O    0.820
    50   1 H    0.880 --    27 O    0.815
    51   1 H    0.872 --    27 O    0.809
    52   1 H    0.877 --    26 O    0.841
    53   1 H    0.876 --    26 O    0.854
    54   1 H    0.889 --    21 O    0.863
    55   1 H    0.881 --    21 O    0.821
    56   8 O    1.805 --    57 H    0.877    58 H    0.798
    57   1 H    0.887 --    56 O    0.877
    58   1 H    0.865 --    56 O    0.798
    59   8 O    1.732 --    61 H    0.870    60 H    0.862
    60   1 H    0.863 --    59 O    0.862
    61   1 H    0.870 --    59 O    0.870
    62   8 O    1.750 --    64 H    0.886    63 H    0.864
    63   1 H    0.864 --    62 O    0.864
    64   1 H    0.886 --    62 O    0.886
    65   8 O    1.731 --    66 H    0.881    67 H    0.823
    66   1 H    0.881 --    65 O    0.881
    67   1 H    0.880 --    65 O    0.823
    68   8 O    1.729 --    70 H    0.873    69 H    0.826
    69   1 H    0.887 --    68 O    0.826
    70   1 H    0.874 --    68 O    0.873
    71   8 O    1.734 --    73 H    0.868    72 H    0.866
    72   1 H    0.866 --    71 O    0.866
    73   1 H    0.868 --    71 O    0.868
    74   8 O    1.731 --    76 H    0.866    75 H    0.865
    75   1 H    0.865 --    74 O    0.865
    76   1 H    0.866 --    74 O    0.866
    77   8 O    1.747 --    79 H    0.884    78 H    0.864
    78   1 H    0.864 --    77 O    0.864
    79   1 H    0.884 --    77 O    0.884
    80   8 O    1.762 --    81 H    0.884    82 H    0.832
    81   1 H    0.886 --    80 O    0.884
    82   1 H    0.876 --    80 O    0.832
    83   8 O    1.828 --    85 H    0.874    84 H    0.809
    84   1 H    0.875 --    83 O    0.809
    85   1 H    0.882 --    83 O    0.874
    86   8 O    1.784 --    88 H    0.874    87 H    0.870
    87   1 H    0.872 --    86 O    0.870
    88   1 H    0.876 --    86 O    0.874
    89   8 O    1.777 --    90 H    0.873    91 H    0.865
    90   1 H    0.875 --    89 O    0.873
    91   1 H    0.867 --    89 O    0.865
    92   8 O    1.715 --    94 H    0.895    93 H    0.753
    93   1 H    0.903 --    92 O    0.753    24 O    0.146
    94   1 H    0.896 --    92 O    0.895
    95   8 O    1.777 --    97 H    0.871    96 H    0.869
    96   1 H    0.871 --    95 O    0.869
    97   1 H    0.873 --    95 O    0.871
    98   8 O    1.778 --   100 H    0.866    99 H    0.866
    99   1 H    0.867 --    98 O    0.866
   100   1 H    0.868 --    98 O    0.866
   101   8 O    1.788 --   103 H    0.873   102 H    0.872
   102   1 H    0.874 --   101 O    0.872
   103   1 H    0.874 --   101 O    0.873
   104   8 O    1.782 --   106 H    0.868   105 H    0.867
   105   1 H    0.869 --   104 O    0.867
   106   1 H    0.870 --   104 O    0.868
   107   8 O    1.768 --   109 H    0.875   108 H    0.859
   108   1 H    0.862 --   107 O    0.859
   109   1 H    0.877 --   107 O    0.875
   110   8 O    1.729 --   112 H    0.869   111 H    0.859
   111   1 H    0.860 --   110 O    0.859
   112   1 H    0.870 --   110 O    0.869
   113   8 O    1.731 --   115 H    0.872   114 H    0.859
   114   1 H    0.860 --   113 O    0.859
   115   1 H    0.872 --   113 O    0.872
   116   8 O    1.733 --   118 H    0.875   117 H    0.858
   117   1 H    0.858 --   116 O    0.858
   118   1 H    0.876 --   116 O    0.875
 ---------------------------------------------------------------------------

Topologies differ in total number of bonds
Writing topology from bond orders to xtbtopo.mol

molecular dipole:
                 x           y           z       tot (Debye)
 q only:       12.967     -22.061     -10.402
   full:       12.215     -20.763     -10.802      67.103
molecular quadrupole (traceless):
                xx          xy          yy          xz          yz          zz
 q only:      176.295     164.869    -283.958      39.092    -243.632     107.663
  q+dip:      189.219     159.328    -277.861      37.414    -231.768      88.642
   full:      188.746     158.784    -276.497      37.582    -231.835      87.751

           -------------------------------------------------
          |               Frequency Printout                |
           -------------------------------------------------
 projected vibrational frequencies (cm⁻¹)
eigval :       -0.00    -0.00    -0.00     0.00     0.00     0.00
eigval :      -15.37    13.50    16.11    18.55    20.24    22.87
eigval :       24.21    26.40    26.53    28.47    29.27    31.26
eigval :       32.27    33.88    35.34    36.23    37.36    38.36
eigval :       38.93    40.76    41.44    43.38    43.81    44.88
eigval :       47.57    47.85    49.20    50.64    51.14    51.85
eigval :       52.80    54.13    56.22    57.08    57.69    58.41
eigval :       59.01    60.02    61.67    62.06    62.66    63.69
eigval :       65.60    66.43    68.24    70.00    71.52    71.61
eigval :       73.77    75.27    76.59    78.79    79.96    80.86
eigval :       81.28    82.04    83.79    85.39    86.82    89.29
eigval :       91.98    92.86    92.89    96.18    97.24   100.60
eigval :      102.70   105.29   110.23   111.71   113.69   119.02
eigval :      128.21   129.37   133.93   135.73   139.80   143.32
eigval :      146.45   149.25   153.82   156.86   159.74   161.97
eigval :      165.41   168.09   170.05   174.22   178.63   182.89
eigval :      186.13   190.32   193.38   196.18   199.71   201.41
eigval :      206.27   209.44   211.25   211.36   215.49   216.33
eigval :      216.61   218.04   221.34   223.43   227.02   229.52
eigval :      230.95   232.97   233.48   235.34   239.78   240.63
eigval :      243.46   247.78   250.15   257.22   258.43   259.29
eigval :      262.73   266.12   267.35   269.08   270.11   271.73
eigval :      272.31   273.45   281.57   283.14   284.42   285.31
eigval :      289.47   291.04   294.61   295.80   297.24   303.20
eigval :      304.73   305.30   307.01   310.11   316.44   320.02
eigval :      321.15   322.81   325.11   325.88   331.02   332.51
eigval :      335.27   340.30   342.52   351.20   355.72   356.97
eigval :      360.56   363.62   366.71   369.81   374.47   375.84
eigval :      380.71   381.50   384.26   392.64   399.54   407.71
eigval :      415.65   422.45   442.42   448.74   452.61   462.71
eigval :      464.00   474.32   477.82   487.58   494.20   498.16
eigval :      502.58   505.92   509.15   515.59   516.95   521.45
eigval :      537.86   546.22   552.50   557.36   559.56   570.69
eigval :      576.79   582.78   593.00   594.63   601.31   603.56
eigval :      610.01   615.43   620.33   631.88   632.96   635.96
eigval :      638.22   653.00   656.72   661.62   671.30   676.59
eigval :      686.98   693.89   696.21   706.23   720.60   723.66
eigval :      732.39   737.58   743.36   747.42   752.86   769.99
eigval :      776.28   781.59   791.00   811.83   818.39   834.86
eigval :      846.87   926.08   972.10  1021.41  1027.46  1453.79
eigval :     1455.95  1456.93  1457.86  1458.02  1458.18  1461.13
eigval :     1461.76  1463.11  1463.87  1465.07  1465.96  1467.47
eigval :     1469.03  1470.72  1473.92  1474.53  1477.49  1480.74
eigval :     1482.14  1485.81  1487.46  1493.63  1494.15  1495.85
eigval :     1497.19  1500.46  1501.44  1504.14  1505.83  1507.29
eigval :     1510.58  1515.76  1519.79  1521.83  1526.57  1534.54
eigval :     1539.38  2278.86  2549.04  2744.90  3079.74  3091.94
eigval :     3115.14  3116.55  3156.87  3167.60  3172.33  3190.12
eigval :     3214.64  3227.94  3238.48  3264.94  3280.58  3314.65
eigval :     3319.86  3349.55  3361.68  3365.08  3393.70  3400.03
eigval :     3408.34  3423.44  3428.59  3450.68  3458.03  3469.23
eigval :     3474.38  3480.66  3488.11  3491.50  3496.17  3497.09
eigval :     3502.06  3518.15  3527.94  3588.73  3589.26  3590.66
eigval :     3594.00  3598.61  3598.74  3600.88  3601.40  3601.71
eigval :     3602.02  3603.96  3607.85  3608.86  3609.09  3609.98
eigval :     3610.14  3611.56  3612.31  3614.47  3615.45  3616.88
eigval :     3617.01  3619.21  3621.37  3621.90  3622.76  3625.53
eigval :     3625.97  3626.74  3630.24  3630.56  3636.71  3645.68
eigval :     3649.19  3656.43  3660.98  3666.71  3682.92  3703.24
 reduced masses (amu)
   1: 15.71   2: 14.88   3: 15.04   4: 16.18   5: 16.58   6: 16.53   7: 13.80   8: 14.83
   9: 14.02  10: 14.44  11: 15.04  12: 14.65  13: 14.48  14: 14.40  15: 15.18  16: 12.86
  17: 15.94  18: 14.15  19: 14.87  20: 14.76  21: 12.58  22: 15.57  23: 14.96  24: 12.29
  25: 12.97  26: 15.27  27: 13.48  28: 15.27  29: 14.98  30: 15.05  31: 14.63  32: 15.14
  33: 14.95  34: 14.08  35: 15.10  36: 15.53  37: 15.53  38: 14.25  39: 14.86  40: 13.85
  41: 15.73  42: 14.30  43: 14.49  44: 14.81  45: 15.41  46: 16.06  47: 15.30  48: 14.77
  49: 14.85  50: 14.73  51: 15.01  52: 17.80  53: 15.15  54: 15.11  55: 17.17  56: 15.26
  57: 14.64  58: 16.02  59: 14.79  60: 14.64  61: 15.04  62: 16.07  63: 18.06  64: 16.20
  65: 16.58  66: 14.86  67: 14.60  68: 15.68  69: 14.54  70: 15.31  71: 15.39  72: 15.13
  73: 15.05  74: 15.19  75: 14.63  76: 14.50  77: 15.38  78: 16.08  79: 12.94  80:  5.97
  81: 12.42  82:  4.91  83: 12.36  84:  7.99  85: 11.11  86: 11.18  87:  6.60  88: 14.00
  89: 12.09  90: 11.47  91: 11.98  92:  6.75  93:  8.00  94: 13.57  95: 11.13  96: 13.77
  97:  3.74  98:  3.62  99:  7.07 100: 11.00 101: 11.38 102: 11.12 103:  4.15 104:  9.01
 105:  8.64 106:  6.19 107:  7.56 108:  4.18 109:  6.92 110: 10.89 111:  7.00 112:  7.90
 113:  5.41 114:  5.94 115:  8.05 116: 12.25 117:  4.97 118: 10.59 119:  9.46 120: 12.08
 121:  8.79 122:  5.59 123:  8.25 124: 10.99 125:  5.78 126:  4.39 127: 11.25 128:  7.09
 129:  7.33 130:  9.74 131:  8.20 132:  5.98 133:  8.45 134:  7.60 135:  3.42 136:  6.50
 137:  3.44 138: 10.74 139:  9.71 140:  5.18 141:  7.94 142:  6.96 143:  3.34 144: 10.19
 145:  9.61 146: 11.42 147:  7.77 148: 11.54 149:  5.70 150: 10.04 151:  8.21 152:  2.62
 153:  3.34 154:  9.16 155: 16.28 156:  9.34 157: 13.50 158: 15.38 159:  3.91 160:  1.67
 161:  6.19 162:  3.81 163:  4.15 164:  4.36 165:  1.72 166:  3.81 167:  4.42 168:  8.62
 169:  5.63 170:  3.53 171:  3.13 172:  4.57 173:  1.84 174:  1.77 175:  1.63 176:  1.86
 177:  1.58 178:  1.77 179:  2.10 180:  3.22 181:  2.17 182:  1.86 183:  1.72 184:  1.97
 185:  1.87 186:  1.86 187:  1.76 188:  1.73 189:  1.71 190:  1.74 191:  1.63 192:  1.73
 193:  1.53 194:  1.61 195:  1.87 196:  1.88 197:  1.56 198:  1.67 199:  1.64 200:  1.85
 201:  1.42 202:  1.49 203:  1.68 204:  1.51 205:  1.70 206:  2.27 207:  1.70 208:  2.05
 209:  2.11 210:  1.84 211:  2.14 212:  5.81 213:  1.93 214:  1.64 215:  2.28 216:  4.57
 217:  3.64 218:  1.85 219:  1.67 220:  1.76 221:  1.59 222:  2.12 223:  1.97 224:  2.10
 225:  1.85 226:  1.92 227:  1.92 228:  1.85 229:  1.75 230:  1.89 231:  2.09 232:  1.97
 233:  2.90 234:  1.78 235:  1.82 236:  1.98 237:  1.85 238:  1.76 239:  1.63 240:  2.14
 241:  2.13 242:  2.09 243:  2.11 244:  2.13 245:  2.13 246:  2.16 247:  2.10 248:  2.13
 249:  2.11 250:  2.13 251:  2.08 252:  2.08 253:  2.07 254:  2.10 255:  2.09 256:  2.01
 257:  2.08 258:  2.04 259:  2.06 260:  2.05 261:  2.02 262:  2.05 263:  2.01 264:  2.05
 265:  2.03 266:  2.04 267:  2.06 268:  2.03 269:  2.10 270:  2.02 271:  2.06 272:  2.02
 273:  2.01 274:  1.98 275:  2.01 276:  2.01 277:  2.00 278:  2.11 279:  2.04 280:  1.94
 281:  1.90 282:  1.88 283:  2.13 284:  1.90 285:  1.89 286:  1.81 287:  1.94 288:  1.93
 289:  1.96 290:  1.90 291:  1.92 292:  1.82 293:  1.84 294:  1.90 295:  1.91 296:  1.93
 297:  1.84 298:  1.82 299:  2.01 300:  2.08 301:  2.03 302:  1.81 303:  2.01 304:  1.67
 305:  1.70 306:  1.74 307:  2.06 308:  1.72 309:  1.84 310:  1.77 311:  1.74 312:  1.70
 313:  1.81 314:  1.81 315:  1.59 316:  1.83 317:  1.84 318:  1.83 319:  1.84 320:  1.85
 321:  1.84 322:  1.83 323:  1.85 324:  1.86 325:  1.93 326:  1.86 327:  1.84 328:  1.99
 329:  1.77 330:  1.81 331:  1.85 332:  1.93 333:  1.86 334:  1.84 335:  1.83 336:  1.72
 337:  1.79 338:  1.82 339:  1.99 340:  1.78 341:  2.08 342:  1.84 343:  1.68 344:  1.84
 345:  1.83 346:  1.62 347:  1.84 348:  1.86 349:  1.84 350:  1.84 351:  1.84 352:  1.84
 353:  1.84 354:  1.88
 IR intensities (km·mol⁻¹)
   1:  5.34   2:  8.82   3:  1.33   4:  4.53   5:  1.81   6:  3.22   7: 16.44   8:  2.71
   9:  4.57  10:  0.57  11:  0.57  12:  8.76  13:  5.70  14: 23.02  15: 23.29  16: 73.69
  17:  7.49  18: 65.92  19: 16.61  20: 37.29  21: 98.71  22:  6.38  23:  2.85  24:108.19
  25:129.59  26:  5.65  27: 91.08  28:  9.30  29:  7.39  30: 19.93  31:  6.56  32: 16.11
  33:  1.91  34: 31.22  35:  6.99  36:  6.59  37: 11.65  38:  4.84  39: 12.19  40: 74.16
  41:  2.68  42: 11.97  43: 36.76  44:  4.06  45:  5.46  46: 11.26  47: 13.91  48: 23.64
  49: 13.52  50:  7.89  51: 18.23  52: 19.78  53:  5.53  54: 11.34  55:  0.69  56: 15.03
  57:  7.54  58: 22.82  59:  2.10  60:  7.00  61: 13.93  62: 10.86  63: 14.04  64: 14.65
  65: 11.85  66: 19.94  67: 11.86  68:  1.90  69: 10.68  70: 11.46  71:  8.60  72:  8.92
  73: 11.35  74:  9.98  75: 37.61  76:  2.73  77:  2.29  78: 11.84  79: 19.81  80: 65.83
  81: 12.47  82:163.09  83: 11.41  84: 41.38  85: 27.93  86: 43.39  87:139.50  88: 20.90
  89: 16.01  90: 17.48  91:110.37  92:240.86  93: 77.32  94: 23.27  95: 79.63  96:  3.22
  97:109.79  98: 42.98  99:101.01 100:118.04 101: 19.04 102:  6.16 103: 56.43 104:149.25
 105:220.58 106:128.99 107:153.48 108:168.41 109:153.04 110: 35.64 111: 42.55 112:317.20
 113:206.22 114: 45.00 115:197.06 116: 81.52 117: 74.77 118: 43.77 119: 68.78 120: 48.94
 121: 56.85 122:206.67 123:172.81 124: 13.68 125:204.07 126: 60.30 127:222.48 128:178.95
 129:146.33 130:  8.45 131: 19.44 132:362.77 133:159.88 134:239.75 135:206.98 136:105.43
 137:228.96 138: 48.18 139: 78.29 140: 23.59 141: 22.34 142: 97.27 143: 88.59 144: 58.42
 145: 84.81 146: 46.15 147:306.56 148: 18.37 149:426.69 150:174.42 151:206.62 152: 97.20
 153:175.92 154:241.40 155:156.81 156: 14.64 157:171.69 158: 44.02 159: 82.15 160: 76.65
 161:157.77 162:292.34 163:211.94 164:117.68 165:603.77 166:501.46 167:205.48 168:199.72
 169: 14.66 170:296.78 171: 44.37 172:152.17 173:399.93 174:162.09 175: 67.05 176:220.94
 177: 23.21 178: 68.39 179:187.92 180: 63.33 181: 37.01 182:124.50 183:156.81 184: 55.40
 185:168.05 186: 89.23 187: 77.98 188:241.06 189: 33.45 190:310.63 191:394.40 192: 72.62
 193: 54.32 194:114.55 195: 62.95 196:202.49 197: 45.01 198:240.58 199: 18.00 200: 50.81
 201: 71.77 202:181.32 203:379.36 204: 66.22 205:244.27 206: 86.96 207:145.10 208:181.18
 209: 75.61 210:210.85 211: 47.81 212: 65.50 213:145.41 214:104.48 215:  7.84 216:427.76
 217:415.74 218:317.76 219:307.34 220:171.73 221:247.26 222: 31.28 223:654.29 224:181.72
 225:164.34 226:510.59 227:322.13 228:118.13 229:386.42 230: 77.88 231:218.19 232:451.78
 233:396.87 234:404.37 235:445.33 236:502.12 237:137.77 238:264.49 239:216.96 240:151.02
 241:504.94 242:400.30 243:213.12 244:639.11 245:194.00 246:215.39 247: 61.62 248:240.73
 249: 33.75 250:201.95 251: 38.71 252:172.80 253: 36.06 254: 10.41 255:300.06 256: 17.09
 257:289.21 258:632.33 259:128.63 260:122.78 261: 83.05 262:378.00 263: 80.27 264:203.55
 265:382.84 266: 45.59 267:246.01 268:114.65 269:153.47 270:212.23 271:193.96 272:284.86
 273: 27.94 274:323.75 275:153.09 276:309.12 277:137.31 278:****** 279:****** 280:******
 281:****** 282:****** 283:****** 284:661.07 285:****** 286:315.24 287:****** 288:******
 289:****** 290:477.44 291:813.05 292:614.28 293:121.03 294:****** 295:283.23 296:753.41
 297:534.01 298:611.43 299:392.43 300:607.94 301:565.11 302:104.03 303:798.00 304:362.89
 305:685.05 306:639.45 307:534.60 308:108.05 309:244.18 310:163.67 311:206.50 312:382.21
 313:171.59 314:120.16 315:164.03 316: 99.50 317:108.71 318: 80.46 319: 86.34 320: 81.90
 321:103.79 322: 82.38 323: 71.45 324:148.12 325:106.50 326: 83.08 327: 52.25 328:155.38
 329: 89.76 330: 65.90 331: 62.35 332:115.65 333: 70.41 334: 84.31 335: 80.18 336:109.60
 337: 32.49 338: 46.19 339: 78.35 340: 85.24 341:149.29 342: 78.20 343: 35.00 344: 85.53
 345:103.82 346: 17.60 347: 52.00 348: 33.50 349: 57.79 350: 82.88 351: 61.01 352: 72.40
 353: 52.75 354:  0.71
 Raman intensities (amu)
   1:  0.00   2:  0.00   3:  0.00   4:  0.00   5:  0.00   6:  0.00   7:  0.00   8:  0.00
   9:  0.00  10:  0.00  11:  0.00  12:  0.00  13:  0.00  14:  0.00  15:  0.00  16:  0.00
  17:  0.00  18:  0.00  19:  0.00  20:  0.00  21:  0.00  22:  0.00  23:  0.00  24:  0.00
  25:  0.00  26:  0.00  27:  0.00  28:  0.00  29:  0.00  30:  0.00  31:  0.00  32:  0.00
  33:  0.00  34:  0.00  35:  0.00  36:  0.00  37:  0.00  38:  0.00  39:  0.00  40:  0.00
  41:  0.00  42:  0.00  43:  0.00  44:  0.00  45:  0.00  46:  0.00  47:  0.00  48:  0.00
  49:  0.00  50:  0.00  51:  0.00  52:  0.00  53:  0.00  54:  0.00  55:  0.00  56:  0.00
Molecule has no symmetry elements
It seems to be the C1 point group
  57:  0.00  58:  0.00  59:  0.00  60:  0.00  61:  0.00  62:  0.00  63:  0.00  64:  0.00
  65:  0.00  66:  0.00  67:  0.00  68:  0.00  69:  0.00  70:  0.00  71:  0.00  72:  0.00
  73:  0.00  74:  0.00  75:  0.00  76:  0.00  77:  0.00  78:  0.00  79:  0.00  80:  0.00
  81:  0.00  82:  0.00  83:  0.00  84:  0.00  85:  0.00  86:  0.00  87:  0.00  88:  0.00
  89:  0.00  90:  0.00  91:  0.00  92:  0.00  93:  0.00  94:  0.00  95:  0.00  96:  0.00
  97:  0.00  98:  0.00  99:  0.00 100:  0.00 101:  0.00 102:  0.00 103:  0.00 104:  0.00
 105:  0.00 106:  0.00 107:  0.00 108:  0.00 109:  0.00 110:  0.00 111:  0.00 112:  0.00
 113:  0.00 114:  0.00 115:  0.00 116:  0.00 117:  0.00 118:  0.00 119:  0.00 120:  0.00
 121:  0.00 122:  0.00 123:  0.00 124:  0.00 125:  0.00 126:  0.00 127:  0.00 128:  0.00
 129:  0.00 130:  0.00 131:  0.00 132:  0.00 133:  0.00 134:  0.00 135:  0.00 136:  0.00
 137:  0.00 138:  0.00 139:  0.00 140:  0.00 141:  0.00 142:  0.00 143:  0.00 144:  0.00
 145:  0.00 146:  0.00 147:  0.00 148:  0.00 149:  0.00 150:  0.00 151:  0.00 152:  0.00
 153:  0.00 154:  0.00 155:  0.00 156:  0.00 157:  0.00 158:  0.00 159:  0.00 160:  0.00
 161:  0.00 162:  0.00 163:  0.00 164:  0.00 165:  0.00 166:  0.00 167:  0.00 168:  0.00
 169:  0.00 170:  0.00 171:  0.00 172:  0.00 173:  0.00 174:  0.00 175:  0.00 176:  0.00
 177:  0.00 178:  0.00 179:  0.00 180:  0.00 181:  0.00 182:  0.00 183:  0.00 184:  0.00
 185:  0.00 186:  0.00 187:  0.00 188:  0.00 189:  0.00 190:  0.00 191:  0.00 192:  0.00
 193:  0.00 194:  0.00 195:  0.00 196:  0.00 197:  0.00 198:  0.00 199:  0.00 200:  0.00
 201:  0.00 202:  0.00 203:  0.00 204:  0.00 205:  0.00 206:  0.00 207:  0.00 208:  0.00
 209:  0.00 210:  0.00 211:  0.00 212:  0.00 213:  0.00 214:  0.00 215:  0.00 216:  0.00
 217:  0.00 218:  0.00 219:  0.00 220:  0.00 221:  0.00 222:  0.00 223:  0.00 224:  0.00
 225:  0.00 226:  0.00 227:  0.00 228:  0.00 229:  0.00 230:  0.00 231:  0.00 232:  0.00
 233:  0.00 234:  0.00 235:  0.00 236:  0.00 237:  0.00 238:  0.00 239:  0.00 240:  0.00
 241:  0.00 242:  0.00 243:  0.00 244:  0.00 245:  0.00 246:  0.00 247:  0.00 248:  0.00
 249:  0.00 250:  0.00 251:  0.00 252:  0.00 253:  0.00 254:  0.00 255:  0.00 256:  0.00
 257:  0.00 258:  0.00 259:  0.00 260:  0.00 261:  0.00 262:  0.00 263:  0.00 264:  0.00
 265:  0.00 266:  0.00 267:  0.00 268:  0.00 269:  0.00 270:  0.00 271:  0.00 272:  0.00
 273:  0.00 274:  0.00 275:  0.00 276:  0.00 277:  0.00 278:  0.00 279:  0.00 280:  0.00
 281:  0.00 282:  0.00 283:  0.00 284:  0.00 285:  0.00 286:  0.00 287:  0.00 288:  0.00
 289:  0.00 290:  0.00 291:  0.00 292:  0.00 293:  0.00 294:  0.00 295:  0.00 296:  0.00
 297:  0.00 298:  0.00 299:  0.00 300:  0.00 301:  0.00 302:  0.00 303:  0.00 304:  0.00
 305:  0.00 306:  0.00 307:  0.00 308:  0.00 309:  0.00 310:  0.00 311:  0.00 312:  0.00
 313:  0.00 314:  0.00 315:  0.00 316:  0.00 317:  0.00 318:  0.00 319:  0.00 320:  0.00
 321:  0.00 322:  0.00 323:  0.00 324:  0.00 325:  0.00 326:  0.00 327:  0.00 328:  0.00
 329:  0.00 330:  0.00 331:  0.00 332:  0.00 333:  0.00 334:  0.00 335:  0.00 336:  0.00
 337:  0.00 338:  0.00 339:  0.00 340:  0.00 341:  0.00 342:  0.00 343:  0.00 344:  0.00
 345:  0.00 346:  0.00 347:  0.00 348:  0.00 349:  0.00 350:  0.00 351:  0.00 352:  0.00
 353:  0.00 354:  0.00
 output can be read by thermo (or use thermo option).
 writing <g98.out> molden fake output.
 recommended (thermochemical) frequency scaling factor: 1.0
           -------------------------------------------------
          |             Thermodynamic Functions             |
           -------------------------------------------------

c1  symmetry found (for desy threshold:  0.10E+00) used in thermo
 inverting freq            1   15.374148054387945     

          ...................................................
          :                      SETUP                      :
          :.................................................:
          :  # frequencies                         348      :
          :  # imaginary freq.                       0      :
          :  linear?                             false      :
          :  only rotor calc.                    false      :
          :  symmetry                               c1      :
          :  rotational number                       1      :
          :  scaling factor                  1.0000000      :
          :  rotor cutoff                   50.0000000 cm⁻¹ :
          :  imag. cutoff                  -20.0000000 cm⁻¹ :
          :.................................................:

    mode    ω/cm⁻¹     T·S(HO)/kcal·mol⁻¹    T·S(FR)/kcal·mol⁻¹   T·S(vib)
   ------------------------------------------------------------------------
       1     15.37    -2.13374 (  0.89%)    -1.40590 ( 99.11%)    -1.41235
       2     13.50    -2.21067 (  0.53%)    -1.44438 ( 99.47%)    -1.44843
       3     16.11    -2.10606 (  1.07%)    -1.39205 ( 98.93%)    -1.39967
       4     18.55    -2.02247 (  1.86%)    -1.35024 ( 98.14%)    -1.36274
       5     20.24    -1.97106 (  2.61%)    -1.32452 ( 97.39%)    -1.34141
       6     22.87    -1.89866 (  4.19%)    -1.28828 ( 95.81%)    -1.31387
       7     24.21    -1.86501 (  5.21%)    -1.27144 ( 94.79%)    -1.30235
       8     26.40    -1.81363 (  7.21%)    -1.24572 ( 92.79%)    -1.28668
       9     26.53    -1.81080 (  7.34%)    -1.24430 ( 92.66%)    -1.28590
      10     28.47    -1.76899 (  9.51%)    -1.22337 ( 90.49%)    -1.27527
      11     29.27    -1.75253 ( 10.51%)    -1.21512 ( 89.49%)    -1.27163
      12     31.26    -1.71375 ( 13.25%)    -1.19570 ( 86.75%)    -1.26434
      13     32.27    -1.69493 ( 14.78%)    -1.18627 ( 85.22%)    -1.26147
      14     33.88    -1.66618 ( 17.41%)    -1.17187 ( 82.59%)    -1.25790
      15     35.34    -1.64121 ( 19.97%)    -1.15936 ( 80.03%)    -1.25558
      16     36.23    -1.62644 ( 21.61%)    -1.15195 ( 78.39%)    -1.25451
      17     37.36    -1.60837 ( 23.76%)    -1.14289 ( 76.24%)    -1.25348
      18     38.36    -1.59268 ( 25.74%)    -1.13503 ( 74.26%)    -1.25281
      19     38.93    -1.58406 ( 26.87%)    -1.13070 ( 73.13%)    -1.25251
      20     40.76    -1.55684 ( 30.64%)    -1.11705 ( 69.36%)    -1.25180
      21     41.44    -1.54712 ( 32.06%)    -1.11217 ( 67.94%)    -1.25160
      22     43.38    -1.52006 ( 36.17%)    -1.09860 ( 63.83%)    -1.25105
      23     43.81    -1.51432 ( 37.08%)    -1.09572 ( 62.92%)    -1.25092
      24     44.88    -1.50007 ( 39.36%)    -1.08857 ( 60.64%)    -1.25052
      25     47.57    -1.46566 ( 45.04%)    -1.07129 ( 54.96%)    -1.24891
      26     47.85    -1.46228 ( 45.61%)    -1.06959 ( 54.39%)    -1.24868
      27     49.20    -1.44578 ( 48.39%)    -1.06131 ( 51.61%)    -1.24736
      28     50.64    -1.42880 ( 51.27%)    -1.05277 ( 48.73%)    -1.24557
      29     51.14    -1.42299 ( 52.26%)    -1.04986 ( 47.74%)    -1.24484
      30     51.85    -1.41485 ( 53.63%)    -1.04577 ( 46.37%)    -1.24371
      31     52.80    -1.40418 ( 55.43%)    -1.04040 ( 44.57%)    -1.24204
      32     54.13    -1.38947 ( 57.88%)    -1.03301 ( 42.12%)    -1.23933
      33     56.22    -1.36719 ( 61.52%)    -1.02180 ( 38.48%)    -1.23428
      34     57.08    -1.35828 ( 62.94%)    -1.01732 ( 37.06%)    -1.23192
      35     57.69    -1.35203 ( 63.93%)    -1.01417 ( 36.07%)    -1.23015
      36     58.41    -1.34468 ( 65.07%)    -1.01047 ( 34.93%)    -1.22794
      37     59.01    -1.33866 ( 65.99%)    -1.00744 ( 34.01%)    -1.22603
      38     60.02    -1.32871 ( 67.49%)    -1.00243 ( 32.51%)    -1.22265
      39     61.67    -1.31275 ( 69.83%)    -0.99440 ( 30.17%)    -1.21670
      40     62.06    -1.30906 ( 70.36%)    -0.99254 ( 29.64%)    -1.21523
      41     62.66    -1.30342 ( 71.15%)    -0.98969 ( 28.85%)    -1.21291
      42     63.69    -1.29379 ( 72.48%)    -0.98484 ( 27.52%)    -1.20875
      43     65.60    -1.27646 ( 74.77%)    -0.97611 ( 25.23%)    -1.20066
      44     66.43    -1.26909 ( 75.70%)    -0.97239 ( 24.30%)    -1.19699
      45     68.24    -1.25323 ( 77.63%)    -0.96439 ( 22.37%)    -1.18862
      46     70.00    -1.23835 ( 79.34%)    -0.95688 ( 20.66%)    -1.18020
      47     71.52    -1.22569 ( 80.72%)    -0.95049 ( 19.28%)    -1.17264
      48     71.61    -1.22499 ( 80.80%)    -0.95014 ( 19.20%)    -1.17220
      49     73.77    -1.20759 ( 82.57%)    -0.94135 ( 17.43%)    -1.16118
      50     75.27    -1.19573 ( 83.70%)    -0.93535 ( 16.30%)    -1.15330
      51     76.59    -1.18556 ( 84.63%)    -0.93021 ( 15.37%)    -1.14631
      52     78.79    -1.16896 ( 86.05%)    -0.92181 ( 13.95%)    -1.13447
      53     79.96    -1.16039 ( 86.74%)    -0.91748 ( 13.26%)    -1.12817
      54     80.86    -1.15380 ( 87.25%)    -0.91414 ( 12.75%)    -1.12323
      55     81.28    -1.15076 ( 87.47%)    -0.91260 ( 12.53%)    -1.12093
      56     82.04    -1.14531 ( 87.88%)    -0.90984 ( 12.12%)    -1.11677
      57     83.79    -1.13302 ( 88.75%)    -0.90361 ( 11.25%)    -1.10720
      58     85.39    -1.12196 ( 89.48%)    -0.89801 ( 10.52%)    -1.09840
      59     86.82    -1.11221 ( 90.09%)    -0.89306 (  9.91%)    -1.09050
      60     89.29    -1.09585 ( 91.05%)    -0.88476 (  8.95%)    -1.07696
      61     91.98    -1.07856 ( 91.97%)    -0.87598 (  8.03%)    -1.06229
      62     92.86    -1.07304 ( 92.24%)    -0.87317 (  7.76%)    -1.05754
      63     92.89    -1.07280 ( 92.26%)    -0.87305 (  7.74%)    -1.05733
      64     96.18    -1.05253 ( 93.19%)    -0.86274 (  6.81%)    -1.03962
      65     97.24    -1.04619 ( 93.47%)    -0.85951 (  6.53%)    -1.03399
      66    100.60    -1.02643 ( 94.25%)    -0.84944 (  5.75%)    -1.01625
      67    102.70    -1.01442 ( 94.68%)    -0.84331 (  5.32%)    -1.00532
      68    105.29    -0.99998 ( 95.16%)    -0.83594 (  4.84%)    -0.99204
      69    110.23    -0.97340 ( 95.94%)    -0.82234 (  4.06%)    -0.96726
      70    111.71    -0.96572 ( 96.14%)    -0.81841 (  3.86%)    -0.96004
      71    113.69    -0.95555 ( 96.39%)    -0.81320 (  3.61%)    -0.95041
      72    119.02    -0.92908 ( 96.98%)    -0.79962 (  3.02%)    -0.92517
      73    128.21    -0.88631 ( 97.74%)    -0.77759 (  2.26%)    -0.88386
      74    129.37    -0.88117 ( 97.82%)    -0.77493 (  2.18%)    -0.87885
      75    133.93    -0.86128 ( 98.09%)    -0.76465 (  1.91%)    -0.85944
      76    135.73    -0.85366 ( 98.19%)    -0.76071 (  1.81%)    -0.85198
      77    139.80    -0.83677 ( 98.39%)    -0.75195 (  1.61%)    -0.83541
      78    143.32    -0.82261 ( 98.54%)    -0.74459 (  1.46%)    -0.82147
      79    146.45    -0.81032 ( 98.66%)    -0.73818 (  1.34%)    -0.80935
      80    149.25    -0.79955 ( 98.76%)    -0.73257 (  1.24%)    -0.79872
      81    153.82    -0.78248 ( 98.90%)    -0.72365 (  1.10%)    -0.78183
      82    156.86    -0.77139 ( 98.98%)    -0.71784 (  1.02%)    -0.77084
      83    159.74    -0.76115 ( 99.05%)    -0.71246 (  0.95%)    -0.76069
      84    161.97    -0.75332 ( 99.10%)    -0.70835 (  0.90%)    -0.75292
      85    165.41    -0.74152 ( 99.17%)    -0.70213 (  0.83%)    -0.74119
      86    168.09    -0.73249 ( 99.22%)    -0.69737 (  0.78%)    -0.73221
      87    170.05    -0.72598 ( 99.26%)    -0.69393 (  0.74%)    -0.72574
      88    174.22    -0.71242 ( 99.33%)    -0.68675 (  0.67%)    -0.71225
      89    178.63    -0.69848 ( 99.39%)    -0.67935 (  0.61%)    -0.69837
      90    182.89    -0.68535 ( 99.44%)    -0.67236 (  0.56%)    -0.68528
      91    186.13    -0.67561 ( 99.48%)    -0.66716 (  0.52%)    -0.67556
      92    190.32    -0.66330 ( 99.53%)    -0.66057 (  0.47%)    -0.66329
      93    193.38    -0.65449 ( 99.56%)    -0.65584 (  0.44%)    -0.65449
      94    196.18    -0.64658 ( 99.58%)    -0.65159 (  0.42%)    -0.64660
      95    199.71    -0.63677 ( 99.61%)    -0.64630 (  0.39%)    -0.63681
      96    201.41    -0.63213 ( 99.62%)    -0.64379 (  0.38%)    -0.63217
      97    206.27    -0.61908 ( 99.66%)    -0.63672 (  0.34%)    -0.61914
      98    209.44    -0.61078 ( 99.68%)    -0.63221 (  0.32%)    -0.61085
      99    211.25    -0.60608 ( 99.69%)    -0.62965 (  0.31%)    -0.60616
     100    211.36    -0.60582 ( 99.69%)    -0.62951 (  0.31%)    -0.60589
     101    215.49    -0.59531 ( 99.71%)    -0.62378 (  0.29%)    -0.59540
     102    216.33    -0.59320 ( 99.72%)    -0.62262 (  0.28%)    -0.59329
     103    216.61    -0.59250 ( 99.72%)    -0.62224 (  0.28%)    -0.59259
     104    218.04    -0.58893 ( 99.72%)    -0.62028 (  0.28%)    -0.58901
     105    221.34    -0.58083 ( 99.74%)    -0.61584 (  0.26%)    -0.58092
     106    223.43    -0.57575 ( 99.75%)    -0.61305 (  0.25%)    -0.57585
     107    227.02    -0.56719 ( 99.77%)    -0.60833 (  0.23%)    -0.56729
     108    229.52    -0.56132 ( 99.78%)    -0.60508 (  0.22%)    -0.56142
     109    230.95    -0.55799 ( 99.78%)    -0.60324 (  0.22%)    -0.55809
     110    232.97    -0.55335 ( 99.79%)    -0.60067 (  0.21%)    -0.55345
     111    233.48    -0.55218 ( 99.79%)    -0.60002 (  0.21%)    -0.55229
     112    235.34    -0.54795 ( 99.80%)    -0.59767 (  0.20%)    -0.54805
     113    239.78    -0.53802 ( 99.81%)    -0.59214 (  0.19%)    -0.53813
     114    240.63    -0.53614 ( 99.81%)    -0.59108 (  0.19%)    -0.53624
     115    243.46    -0.52994 ( 99.82%)    -0.58761 (  0.18%)    -0.53004
     116    247.78    -0.52065 ( 99.83%)    -0.58240 (  0.17%)    -0.52076
     117    250.15    -0.51565 ( 99.84%)    -0.57958 (  0.16%)    -0.51575
     118    257.22    -0.50106 ( 99.86%)    -0.57133 (  0.14%)    -0.50116
     119    258.43    -0.49861 ( 99.86%)    -0.56994 (  0.14%)    -0.49870
     120    259.29    -0.49689 ( 99.86%)    -0.56896 (  0.14%)    -0.49699
     121    262.73    -0.49003 ( 99.87%)    -0.56506 (  0.13%)    -0.49013
     122    266.12    -0.48339 ( 99.88%)    -0.56126 (  0.12%)    -0.48348
     123    267.35    -0.48100 ( 99.88%)    -0.55989 (  0.12%)    -0.48109
     124    269.08    -0.47768 ( 99.88%)    -0.55798 (  0.12%)    -0.47777
     125    270.11    -0.47569 ( 99.88%)    -0.55684 (  0.12%)    -0.47579
     126    271.73    -0.47263 ( 99.89%)    -0.55508 (  0.11%)    -0.47272
     127    272.31    -0.47152 ( 99.89%)    -0.55444 (  0.11%)    -0.47161
     128    273.45    -0.46939 ( 99.89%)    -0.55321 (  0.11%)    -0.46948
     129    281.57    -0.45441 ( 99.90%)    -0.54454 (  0.10%)    -0.45450
     130    283.14    -0.45159 ( 99.90%)    -0.54289 (  0.10%)    -0.45168
     131    284.42    -0.44929 ( 99.90%)    -0.54155 (  0.10%)    -0.44938
     132    285.31    -0.44771 ( 99.91%)    -0.54063 (  0.09%)    -0.44780
     133    289.47    -0.44038 ( 99.91%)    -0.53634 (  0.09%)    -0.44046
     134    291.04    -0.43766 ( 99.91%)    -0.53474 (  0.09%)    -0.43775
     135    294.61    -0.43152 ( 99.92%)    -0.53112 (  0.08%)    -0.43160
     136    295.80    -0.42951 ( 99.92%)    -0.52994 (  0.08%)    -0.42959
     137    297.24    -0.42707 ( 99.92%)    -0.52850 (  0.08%)    -0.42716
   ------------------------------------------------------------------------

   temp. (K)  partition function   enthalpy   heat capacity  entropy
                                   cal/mol     cal/K/mol   cal/K/mol   J/K/mol
 298.15  VIB  0.742E+64            72171.605    343.723    485.534
         ROT  0.146E+09              888.752      2.981     40.346
         INT  0.109E+73            73060.358    346.704    525.880
         TR   0.202E+29             1481.254      4.968     45.737
         TOT                       74541.6117   351.6723   571.6163  2391.6425

       T/K    H(0)-H(T)+PV         H(T)/Eh          T*S/Eh         G(T)/Eh
   ------------------------------------------------------------------------
    298.15    0.118790E+00    0.101428E+01    0.271593E+00    0.742686E+00
   ------------------------------------------------------------------------

         :::::::::::::::::::::::::::::::::::::::::::::::::::::
         ::                  THERMODYNAMIC                  ::
         :::::::::::::::::::::::::::::::::::::::::::::::::::::
         :: total free energy        -201.146064892054 Eh   ::
         ::.................................................::
         :: total energy             -201.888750935305 Eh   ::
         :: zero point energy           0.895489757762 Eh   ::
         :: G(RRHO) w/o ZPVE           -0.152803714512 Eh   ::
         :: G(RRHO) contrib.            0.742686043251 Eh   ::
         :::::::::::::::::::::::::::::::::::::::::::::::::::::
imag cut-off (cm-1) :    5.00
 found            1  significant imaginary frequency
 writing imag mode distorted coords to xtbhess.xyz
 for further optimization.

           -------------------------------------------------
          | TOTAL ENERGY             -201.888750935305 Eh   |
          | TOTAL ENTHALPY           -200.874471558080 Eh   |
          | TOTAL FREE ENERGY        -201.146064892054 Eh   |
          | GRADIENT NORM               0.000051187571 Eh/α |
          | HOMO-LUMO GAP               7.109958504450 eV   |
           -------------------------------------------------

------------------------------------------------------------------------
 * finished run on 2024/05/10 at 18:01:44.116     
------------------------------------------------------------------------
 total:
 * wall-time:     0 d,  0 h,  0 min, 55.040 sec
 *  cpu-time:     0 d,  0 h,  5 min, 43.898 sec
 * ratio c/w:     6.248 speedup
 SCF:
 * wall-time:     0 d,  0 h,  0 min,  0.142 sec
 *  cpu-time:     0 d,  0 h,  0 min,  0.992 sec
 * ratio c/w:     6.998 speedup
 analytical hessian:
 * wall-time:     0 d,  0 h,  0 min, 54.443 sec
 *  cpu-time:     0 d,  0 h,  5 min, 40.549 sec
 * ratio c/w:     6.255 speedup

