      -----------------------------------------------------------      
     |                   =====================                   |     
     |                           x T B                           |     
     |                   =====================                   |     
     |                         S. Grimme                         |     
     |          Mulliken Center for Theoretical Chemistry        |     
     |                    University of Bonn                     |     
      -----------------------------------------------------------      

   * xtb version 6.6.0 (conda-forge) compiled by 'runner@Mac-1676020848589.local' on 2023-02-10

   xtb is free software: you can redistribute it and/or modify it under
   the terms of the GNU Lesser General Public License as published by
   the Free Software Foundation, either version 3 of the License, or
   (at your option) any later version.
   
   xtb is distributed in the hope that it will be useful,
   but WITHOUT ANY WARRANTY; without even the implied warranty of
   MERCHANTABILITY or FITNESS FOR A PARTICULAR PURPOSE.  See the
   GNU Lesser General Public License for more details.
   
   Cite this work as:
   * C. Bannwarth, E. Caldeweyher, S. Ehlert, A. Hansen, P. Pracht,
     J. Seibert, S. Spicher, S. Grimme, WIREs Comput. Mol. Sci., 2020, 11,
     e01493. DOI: 10.1002/wcms.1493
   
   for GFN2-xTB:
   * C. Bannwarth, S. Ehlert and S. Grimme., J. Chem. Theory Comput., 2019,
     15, 1652-1671. DOI: 10.1021/acs.jctc.8b01176
   for GFN1-xTB:
   * S. Grimme, C. Bannwarth, P. Shushkov, J. Chem. Theory Comput., 2017,
     13, 1989-2009. DOI: 10.1021/acs.jctc.7b00118
   for GFN0-xTB:
   * P. Pracht, E. Caldeweyher, S. Ehlert, S. Grimme, ChemRxiv, 2019, preprint.
     DOI: 10.26434/chemrxiv.8326202.v1
   for GFN-FF:
   * S. Spicher and S. Grimme, Angew. Chem. Int. Ed., 2020, 59, 15665-15673.
     DOI: 10.1002/anie.202004239
   
   for ALPB and GBSA implicit solvation:
   * S. Ehlert, M. Stahn, S. Spicher, S. Grimme, J. Chem. Theory Comput.,
     2021, 17, 4250-4261. DOI: 10.1021/acs.jctc.1c00471
   
   for DFT-D4:
   * E. Caldeweyher, C. Bannwarth and S. Grimme, J. Chem. Phys., 2017,
     147, 034112. DOI: 10.1063/1.4993215
   * E. Caldeweyher, S. Ehlert, A. Hansen, H. Neugebauer, S. Spicher,
     C. Bannwarth and S. Grimme, J. Chem. Phys., 2019, 150, 154122.
     DOI: 10.1063/1.5090222
   * E. Caldeweyher, J.-M. Mewes, S. Ehlert and S. Grimme, Phys. Chem. Chem. Phys.
     2020, 22, 8499-8512. DOI: 10.1039/D0CP00502A
   
   for sTDA-xTB:
   * S. Grimme and C. Bannwarth, J. Chem. Phys., 2016, 145, 054103.
     DOI: 10.1063/1.4959605
   
   in the mass-spec context:
   * V. Asgeirsson, C. Bauer and S. Grimme, Chem. Sci., 2017, 8, 4879.
     DOI: 10.1039/c7sc00601b
   * J. Koopman and S. Grimme, ACS Omega 2019, 4, 12, 15120-15133.
     DOI: 10.1021/acsomega.9b02011
   
   for metadynamics refer to:
   * S. Grimme, J. Chem. Theory Comput., 2019, 155, 2847-2862
     DOI: 10.1021/acs.jctc.9b00143
   
   for SPH calculations refer to:
   * S. Spicher and S. Grimme, J. Chem. Theory Comput., 2021, 17, 1701-1714
     DOI: 10.1021/acs.jctc.0c01306
   
   with help from (in alphabetical order)
   P. Atkinson, C. Bannwarth, F. Bohle, G. Brandenburg, E. Caldeweyher
   M. Checinski, S. Dohm, S. Ehlert, S. Ehrlich, I. Gerasimov, C. Hölzer
   A. Katbashev, J. Koopman, C. Lavigne, S. Lehtola, F. März, M. Müller,
   F. Musil, H. Neugebauer, J. Pisarek, C. Plett, P. Pracht, F. Pultar,
   J. Seibert, P. Shushkov, S. Spicher, M. Stahn, M. Steiner, T. Strunk,
   J. Stückrath, T. Rose, and J. Unsleber
   
 * started run on 2024/05/10 at 17:57:50.203     

           -------------------------------------------------
          |                Calculation Setup                |
           -------------------------------------------------

          program call               : xtb Fe_39H2O_2_5.xyz --gfn2 --chrg 2 --uhf 5 --hess --alpb water
          coordinate file            : Fe_39H2O_2_5.xyz
          omp threads                :                     8

   ID    Z sym.   atoms
    1   26 Fe     1
    2    8 O      2-7, 20-31, 56, 59, 62, 65, 68, 71, 74, 77, 80, 83, 86, 89,
                  92, 95, 98, 101, 104, 107, 110, 113, 116
    3    1 H      8-19, 32-55, 57, 58, 60, 61, 63, 64, 66, 67, 69, 70, 72,
                  73, 75, 76, 78, 79, 81, 82, 84, 85, 87, 88, 90, 91, 93, 94,
                  96, 97, 99, 100, 102, 103, 105, 106, 108, 109, 111, 112,
                  114, 115, 117, 118

molecular fragmentation (1/2 indicates fragments):
112222222221222222222222222222222222222222222222222222222222222222222222
2222222222222222222222222222222222222222222222
# atoms in fragment 1/2:     3   115
 fragment masses (1/2) :       72.85      685.59
CMA distance (Bohr)    :   2.146
constraining FC (au)   :  0.0500

           -------------------------------------------------
          |                 G F N 2 - x T B                 |
           -------------------------------------------------

        Reference                      10.1021/acs.jctc.8b01176
      * Hamiltonian:
        H0-scaling (s, p, d)           1.850000    2.230000    2.230000
        zeta-weighting                 0.500000
      * Dispersion:
        s8                             2.700000
        a1                             0.520000
        a2                             5.000000
        s9                             5.000000
      * Repulsion:
        kExp                           1.500000    1.000000
        rExp                           1.000000
      * Coulomb:
        alpha                          2.000000
        third order                    shell-resolved
        anisotropic                    true
        a3                             3.000000
        a5                             4.000000
        cn-shift                       1.200000
        cn-exp                         4.000000
        max-rad                        5.000000

      * Solvation model:               ALPB
        Solvent                        water
        Parameter file                 internal GFN2-xTB/ALPB
        Dielectric constant                8.0200E+01
        Reference state                gsolv [1 M gas/solution]
        Free energy shift                  1.0808E-03 Eh       6.7819E-01 kcal/mol
        Temperature                        2.9815E+02 K
        Density                            1.0000E+00 kg/L
        Solvent mass                       1.8000E+01 g/mol
        Interaction kernel             P16
        Born radius scaling (c1)           1.4744E+00
        Born radii integrator          GBOBC
        Born offset                        0.0000E+00 a0       0.0000E+00 AA
        H-bond correction              true
        Ion screening                  false
        Surface tension                    1.0000E-05 Eh       1.5569E+01 dyn/cm
        Grid points                               230 per atom
q/qsh data taken from xtbrestart
CAMM data taken from xtbrestart

          ...................................................
          :                      SETUP                      :
          :.................................................:
          :  # basis functions                 244          :
          :  # atomic orbitals                 243          :
          :  # shells                          159          :
          :  # electrons                       318          :
          :  max. iterations                   250          :
          :  Hamiltonian                  GFN2-xTB          :
          :  restarted?                       true          :
          :  GBSA solvation                   true          :
          :  PC potential                    false          :
          :  electronic temp.          300.0000000     K    :
          :  accuracy                    1.0000000          :
          :  -> integral cutoff          0.2500000E+02      :
          :  -> integral neglect         0.1000000E-07      :
          :  -> SCF convergence          0.1000000E-05 Eh   :
          :  -> wf. convergence          0.1000000E-03 e    :
          :  Broyden damping             0.4000000          :
          ...................................................

 iter      E             dE          RMSdq      gap      omega  full diag
   1   -202.5048878 -0.202505E+03  0.249E-06    7.04       0.0  T
   2   -202.5048878  0.511591E-12  0.266E-06    7.04    3458.3  T
   3   -202.5048878  0.312639E-12  0.129E-06    7.04    7150.9  T

   *** convergence criteria satisfied after 3 iterations ***

         #    Occupation            Energy/Eh            Energy/eV
      -------------------------------------------------------------
         1        2.0000           -0.6645602             -18.0836
       ...           ...                  ...                  ...
       155        2.0000           -0.3830393             -10.4230
       156        2.0000           -0.3824707             -10.4076
       157        1.5991           -0.3073380              -8.3631
       158        1.3990           -0.3065669              -8.3421
       159        1.0017           -0.3009179              -8.1884
       160        1.0002           -0.2987904              -8.1305
       161        1.0000           -0.2924485              -7.9579 (HOMO)
       162                         -0.0339112              -0.9228 (LUMO)
       163                          0.0172300               0.4689
       164                          0.0344064               0.9362
       165                          0.0527490               1.4354
       166                          0.0618077               1.6819
       ...                                ...                  ...
       243                          0.9672410              26.3200
      -------------------------------------------------------------
                  HL-Gap            0.2585373 Eh            7.0352 eV
             Fermi-level           -0.2350680 Eh           -6.3965 eV

 SCC (total)                   0 d,  0 h,  0 min,  0.153 sec
 SCC setup                      ...        0 min,  0.005 sec (  3.102%)
 Dispersion                     ...        0 min,  0.002 sec (  1.432%)
 classical contributions        ...        0 min,  0.001 sec (  0.403%)
 integral evaluation            ...        0 min,  0.009 sec (  5.789%)
 iterations                     ...        0 min,  0.056 sec ( 36.942%)
 molecular gradient             ...        0 min,  0.079 sec ( 51.642%)
 printout                       ...        0 min,  0.001 sec (  0.675%)

         :::::::::::::::::::::::::::::::::::::::::::::::::::::
         ::                     SUMMARY                     ::
         :::::::::::::::::::::::::::::::::::::::::::::::::::::
         :: total energy            -201.250664264464 Eh    ::
         :: total w/o Gsasa/hb      -200.973444968857 Eh    ::
         :: gradient norm              0.000054276693 Eh/a0 ::
         :: HOMO-LUMO gap              7.035158529691 eV    ::
         ::.................................................::
         :: SCC energy              -202.504887837333 Eh    ::
         :: -> isotropic ES            1.525264676392 Eh    ::
         :: -> anisotropic ES         -0.187506060051 Eh    ::
         :: -> anisotropic XC         -0.013196247797 Eh    ::
         :: -> dispersion             -0.062022020937 Eh    ::
         :: -> Gsolv                  -0.624792692378 Eh    ::
         ::    -> Gelec               -0.347573396770 Eh    ::
         ::    -> Gsasa                0.029253581395 Eh    ::
         ::    -> Ghb                 -0.307553636701 Eh    ::
         ::    -> Gshift               0.001080759698 Eh    ::
         :: repulsion energy           1.250456493038 Eh    ::
         :: add. restraining           0.000000000000 Eh    ::
         :: total charge               2.000000000000 e     ::
         :::::::::::::::::::::::::::::::::::::::::::::::::::::

           ------------------------------------------------- 
          |                Numerical Hessian                |
           ------------------------------------------------- 
step length          :   0.00500
SCC accuracy         :   0.30000
Hessian scale factor :   1.00000
frozen atoms in %    :   0.00000    0
RMS gradient         :   0.00005
estimated CPU  time     47.08 min
estimated wall time      8.96 min

writing file <hessian>.

 projected vibrational frequencies (cm⁻¹)
eigval :       -0.00    -0.00    -0.00    -0.00     0.00     0.00
eigval :       11.06    15.67    18.09    20.23    22.00    24.29
eigval :       25.37    27.47    28.06    28.36    30.98    31.97
eigval :       33.83    34.54    35.71    36.55    37.50    38.19
eigval :       39.73    40.03    41.71    43.49    44.49    45.37
eigval :       45.99    47.79    48.74    49.63    51.46    52.80
eigval :       54.11    54.49    55.10    55.83    56.46    58.56
eigval :       60.07    61.79    61.89    62.93    63.46    63.94
eigval :       64.90    67.37    68.76    69.23    70.00    71.65
eigval :       73.04    75.38    76.34    76.88    77.74    78.74
eigval :       80.02    81.09    83.45    84.59    85.12    87.58
eigval :       89.87    90.75    92.30    94.10    96.37    98.59
eigval :      101.26   105.46   106.53   116.04   117.62   124.68
eigval :      130.28   131.72   137.74   141.13   141.39   143.46
eigval :      148.21   152.87   158.26   159.05   160.67   162.78
eigval :      167.72   169.16   173.58   176.93   179.24   182.77
eigval :      184.69   188.84   193.00   196.78   198.10   201.30
eigval :      207.91   211.99   215.46   215.78   218.14   221.56
eigval :      226.56   228.52   230.68   232.44   233.57   234.82
eigval :      237.27   237.84   239.51   240.88   242.30   243.16
eigval :      245.10   247.81   248.88   249.06   249.54   253.94
eigval :      255.25   256.10   259.41   261.45   263.34   265.42
eigval :      267.81   270.35   271.85   274.39   276.00   279.17
eigval :      280.48   282.76   283.52   285.40   286.94   290.61
eigval :      295.86   298.61   301.89   304.45   307.38   308.26
eigval :      311.39   312.37   315.62   319.57   319.97   323.68
eigval :      327.66   329.54   334.17   334.70   338.37   340.30
eigval :      343.69   348.96   353.66   358.99   361.90   374.01
eigval :      374.92   377.14   382.24   398.06   403.25   427.33
eigval :      434.25   439.40   442.21   450.17   456.11   458.40
eigval :      466.07   467.74   478.09   483.48   489.63   490.68
eigval :      497.80   507.12   507.33   514.16   519.50   526.04
eigval :      528.31   532.89   538.56   539.92   543.93   546.43
eigval :      553.88   560.79   562.77   570.51   576.45   581.21
eigval :      594.69   598.80   599.16   609.33   619.12   620.43
eigval :      624.39   641.25   646.17   654.51   658.23   669.00
eigval :      676.05   683.17   686.65   695.45   705.95   713.21
eigval :      721.73   723.26   725.61   731.97   737.67   747.62
eigval :      754.47   766.85   778.24   791.84   802.78   817.92
eigval :      827.26   856.24   873.64  1450.91  1455.16  1456.10
eigval :     1459.08  1460.78  1461.10  1461.87  1462.41  1462.48
eigval :     1463.64  1465.93  1466.75  1467.59  1468.71  1470.20
eigval :     1470.76  1471.26  1472.01  1473.50  1474.63  1477.43
eigval :     1479.64  1482.60  1484.46  1485.08  1485.43  1487.99
eigval :     1489.98  1492.37  1494.28  1496.50  1497.71  1503.47
eigval :     1504.53  1510.27  1516.12  1520.46  1521.91  1538.83
eigval :     3052.18  3052.99  3060.55  3118.44  3156.93  3189.69
eigval :     3239.13  3246.85  3270.60  3272.92  3276.07  3285.68
eigval :     3290.81  3296.34  3303.29  3320.44  3328.66  3372.79
eigval :     3381.97  3386.29  3386.84  3416.39  3437.99  3440.20
eigval :     3449.11  3451.01  3452.15  3454.52  3477.13  3484.56
eigval :     3490.68  3496.33  3501.37  3514.34  3515.05  3519.32
eigval :     3521.22  3533.52  3539.07  3584.93  3586.84  3591.63
eigval :     3592.67  3593.44  3597.11  3599.98  3601.44  3602.40
eigval :     3604.00  3604.97  3605.34  3607.73  3613.03  3614.72
eigval :     3616.08  3617.06  3618.53  3619.47  3620.64  3621.76
eigval :     3621.91  3623.57  3624.75  3625.62  3626.61  3627.00
eigval :     3627.11  3627.42  3628.20  3633.34  3633.45  3635.00
eigval :     3636.68  3642.83  3643.00  3648.33  3652.95  3666.61
           -------------------------------------------------
          |                Property Printout                |
           -------------------------------------------------

    * Orbital Energies and Occupations

         #    Occupation            Energy/Eh            Energy/eV
      -------------------------------------------------------------
         1        2.0000           -0.6645602             -18.0836
       ...           ...                  ...                  ...
       149        2.0000           -0.4002783             -10.8921
       150        2.0000           -0.3989088             -10.8549
       151        2.0000           -0.3971482             -10.8070
       152        2.0000           -0.3947095             -10.7406
       153        2.0000           -0.3939810             -10.7208
       154        2.0000           -0.3917967             -10.6613
       155        2.0000           -0.3830393             -10.4230
       156        2.0000           -0.3824707             -10.4076
       157        1.5991           -0.3073380              -8.3631
       158        1.3990           -0.3065669              -8.3421
       159        1.0017           -0.3009179              -8.1884
       160        1.0002           -0.2987904              -8.1305
       161        1.0000           -0.2924485              -7.9579 (HOMO)
       162                         -0.0339112              -0.9228 (LUMO)
       163                          0.0172300               0.4689
       164                          0.0344064               0.9362
       165                          0.0527490               1.4354
       166                          0.0618077               1.6819
       167                          0.0786300               2.1396
       168                          0.0830070               2.2587
       169                          0.0876428               2.3849
       170                          0.0910073               2.4764
       171                          0.0960698               2.6142
       172                          0.0972529               2.6464
       ...                                ...                  ...
       243                          0.9672410              26.3200
      -------------------------------------------------------------
                  HL-Gap            0.2585373 Eh            7.0352 eV
             Fermi-level           -0.2350680 Eh           -6.3965 eV

     #   Z          covCN         q      C6AA      α(0)
     1  26 Fe       0.629     1.170   391.449    57.333
     2   8 O        1.729    -0.625    25.742     6.851
     3   8 O        1.707    -0.635    25.983     6.882
     4   8 O        1.722    -0.617    25.551     6.825
     5   8 O        1.683    -0.629    25.852     6.864
     6   8 O        1.692    -0.631    25.907     6.872
     7   8 O        1.685    -0.631    25.891     6.870
     8   1 H        0.805     0.353     0.581     1.197
     9   1 H        0.804     0.356     0.575     1.191
    10   1 H        0.805     0.345     0.600     1.217
    11   1 H        0.804     0.350     0.589     1.206
    12   1 H        0.804     0.345     0.600     1.217
    13   1 H        0.805     0.343     0.605     1.222
    14   1 H        0.805     0.348     0.592     1.209
    15   1 H        0.805     0.345     0.601     1.217
    16   1 H        0.804     0.356     0.573     1.189
    17   1 H        0.804     0.360     0.565     1.181
    18   1 H        0.803     0.358     0.569     1.185
    19   1 H        0.805     0.353     0.582     1.198
    20   8 O        1.609    -0.670    26.920     7.003
    21   8 O        1.608    -0.654    26.517     6.950
    22   8 O        1.608    -0.643    26.252     6.915
    23   8 O        1.671    -0.618    25.592     6.830
    24   8 O        1.609    -0.654    26.520     6.950
    25   8 O        1.607    -0.664    26.785     6.985
    26   8 O        1.608    -0.681    27.201     7.039
    27   8 O        1.608    -0.692    27.508     7.079
    28   8 O        1.608    -0.660    26.677     6.971
    29   8 O        1.608    -0.663    26.736     6.979
    30   8 O        1.607    -0.675    27.065     7.021
    31   8 O        1.608    -0.667    26.860     6.995
    32   1 H        0.802     0.363     0.560     1.176
    33   1 H        0.805     0.319     0.666     1.282
    34   1 H        0.805     0.322     0.660     1.276
    35   1 H        0.804     0.366     0.552     1.167
    36   1 H        0.805     0.319     0.666     1.282
    37   1 H        0.804     0.351     0.587     1.203
    38   1 H        0.805     0.324     0.652     1.268
    39   1 H        0.803     0.367     0.551     1.166
    40   1 H        0.804     0.325     0.651     1.267
    41   1 H        0.803     0.354     0.580     1.197
    42   1 H        0.803     0.361     0.564     1.180
    43   1 H        0.805     0.358     0.569     1.185
    44   1 H        0.805     0.316     0.673     1.289
    45   1 H        0.803     0.354     0.580     1.196
    46   1 H        0.805     0.309     0.693     1.308
    47   1 H        0.802     0.355     0.577     1.193
    48   1 H        0.805     0.317     0.672     1.288
    49   1 H        0.803     0.359     0.567     1.183
    50   1 H        0.804     0.342     0.606     1.223
    51   1 H        0.804     0.345     0.601     1.217
    52   1 H        0.804     0.368     0.548     1.163
    53   1 H        0.804     0.352     0.584     1.200
    54   1 H        0.805     0.319     0.666     1.282
    55   1 H        0.803     0.353     0.581     1.198
    56   8 O        1.609    -0.708    27.930     7.133
    57   1 H        0.805     0.339     0.614     1.231
    58   1 H        0.803     0.341     0.610     1.226
    59   8 O        1.610    -0.739    28.771     7.239
    60   1 H        0.805     0.376     0.530     1.144
    61   1 H        0.805     0.363     0.559     1.175
    62   8 O        1.610    -0.727    28.442     7.198
    63   1 H        0.805     0.380     0.523     1.136
    64   1 H        0.805     0.347     0.595     1.211
    65   8 O        1.607    -0.712    28.043     7.147
    66   1 H        0.805     0.341     0.610     1.227
    67   1 H        0.802     0.351     0.586     1.203
    68   8 O        1.610    -0.698    27.662     7.099
    69   1 H        0.805     0.368     0.549     1.163
    70   1 H        0.805     0.352     0.583     1.199
    71   8 O        1.610    -0.730    28.532     7.209
    72   1 H        0.805     0.359     0.568     1.184
    73   1 H        0.805     0.372     0.540     1.154
    74   8 O        1.610    -0.733    28.597     7.218
    75   1 H        0.805     0.368     0.547     1.162
    76   1 H        0.805     0.364     0.556     1.171
    77   8 O        1.610    -0.726    28.420     7.195
    78   1 H        0.805     0.379     0.525     1.138
    79   1 H        0.805     0.347     0.594     1.211
    80   8 O        1.611    -0.696    27.596     7.090
    81   1 H        0.805     0.365     0.555     1.170
    82   1 H        0.805     0.347     0.595     1.211
    83   8 O        1.608    -0.701    27.735     7.108
    84   1 H        0.802     0.351     0.586     1.203
    85   1 H        0.805     0.335     0.623     1.240
    86   8 O        1.611    -0.695    27.571     7.087
    87   1 H        0.805     0.352     0.584     1.201
    88   1 H        0.805     0.362     0.561     1.177
    89   8 O        1.607    -0.696    27.600     7.090
    90   1 H        0.806     0.338     0.616     1.233
    91   1 H        0.802     0.369     0.545     1.160
    92   8 O        1.611    -0.696    27.595     7.090
    93   1 H        0.805     0.358     0.570     1.186
    94   1 H        0.805     0.355     0.576     1.192
    95   8 O        1.610    -0.695    27.566     7.086
    96   1 H        0.805     0.354     0.580     1.196
    97   1 H        0.805     0.358     0.570     1.186
    98   8 O        1.611    -0.695    27.568     7.086
    99   1 H        0.805     0.356     0.575     1.191
   100   1 H        0.805     0.355     0.576     1.192
   101   8 O        1.611    -0.691    27.483     7.076
   102   1 H        0.805     0.350     0.589     1.206
   103   1 H        0.805     0.361     0.564     1.179
   104   8 O        1.611    -0.698    27.653     7.097
   105   1 H        0.805     0.356     0.574     1.190
   106   1 H        0.805     0.357     0.572     1.188
   107   8 O        1.610    -0.697    27.641     7.096
   108   1 H        0.805     0.357     0.572     1.188
   109   1 H        0.805     0.363     0.559     1.175
   110   8 O        1.610    -0.737    28.712     7.232
   111   1 H        0.805     0.376     0.531     1.145
   112   1 H        0.805     0.361     0.563     1.179
   113   8 O        1.610    -0.714    28.088     7.153
   114   1 H        0.805     0.365     0.554     1.169
   115   1 H        0.805     0.349     0.590     1.207
   116   8 O        1.610    -0.730    28.521     7.208
   117   1 H        0.805     0.380     0.524     1.137
   118   1 H        0.805     0.351     0.587     1.203

 Mol. C6AA /au·bohr⁶  :      77870.869865
 Mol. C8AA /au·bohr⁸  :    1643434.162720
 Mol. α(0) /au        :        425.803185


Wiberg/Mayer (AO) data.
largest (>0.10) Wiberg bond orders for each atom

 ---------------------------------------------------------------------------
     #   Z sym  total        # sym  WBO       # sym  WBO       # sym  WBO
 ---------------------------------------------------------------------------
     1  26 Fe   1.354 --     2 O    0.196     4 O    0.196     3 O    0.192
                             6 O    0.187     7 O    0.180     5 O    0.179
                            23 O    0.158
     2   8 O    1.923 --    13 H    0.839    12 H    0.833     1 Fe   0.196
     3   8 O    1.929 --    16 H    0.833    17 H    0.815     1 Fe   0.192
     4   8 O    1.931 --    14 H    0.842    15 H    0.835     1 Fe   0.196
     5   8 O    1.936 --    19 H    0.844    18 H    0.810     1 Fe   0.179
     6   8 O    1.927 --     8 H    0.841     9 H    0.816     1 Fe   0.187
     7   8 O    1.916 --    10 H    0.848    11 H    0.822     1 Fe   0.180
     8   1 H    0.875 --     6 O    0.841
     9   1 H    0.873 --     6 O    0.816
    10   1 H    0.880 --     7 O    0.848
    11   1 H    0.877 --     7 O    0.822
    12   1 H    0.880 --     2 O    0.833
    13   1 H    0.880 --     2 O    0.839
    14   1 H    0.877 --     4 O    0.842
    15   1 H    0.880 --     4 O    0.835
    16   1 H    0.872 --     3 O    0.833
    17   1 H    0.870 --     3 O    0.815
    18   1 H    0.871 --     5 O    0.810
    19   1 H    0.875 --     5 O    0.844
    20   8 O    1.835 --    34 H    0.857    35 H    0.843
    21   8 O    1.860 --    54 H    0.868    55 H    0.828
    22   8 O    1.900 --    40 H    0.857    41 H    0.825
    23   8 O    1.958 --    43 H    0.854    42 H    0.813     1 Fe   0.158
    24   8 O    1.843 --    36 H    0.866    37 H    0.839
    25   8 O    1.872 --    33 H    0.867    32 H    0.800
    26   8 O    1.853 --    53 H    0.849    52 H    0.837
    27   8 O    1.819 --    51 H    0.839    50 H    0.833
    28   8 O    1.858 --    48 H    0.865    49 H    0.821
    29   8 O    1.859 --    38 H    0.860    39 H    0.822
    30   8 O    1.824 --    46 H    0.871    47 H    0.809
    31   8 O    1.839 --    44 H    0.869    45 H    0.815
    32   1 H    0.869 --    25 O    0.800
    33   1 H    0.898 --    25 O    0.867
    34   1 H    0.897 --    20 O    0.857
    35   1 H    0.866 --    20 O    0.843
    36   1 H    0.898 --    24 O    0.866
    37   1 H    0.877 --    24 O    0.839
    38   1 H    0.895 --    29 O    0.860
    39   1 H    0.865 --    29 O    0.822
    40   1 H    0.894 --    22 O    0.857
    41   1 H    0.875 --    22 O    0.825
    42   1 H    0.869 --    23 O    0.813
    43   1 H    0.872 --    23 O    0.854
    44   1 H    0.900 --    31 O    0.869
    45   1 H    0.875 --    31 O    0.815
    46   1 H    0.904 --    30 O    0.871
    47   1 H    0.874 --    30 O    0.809
    48   1 H    0.899 --    28 O    0.865
    49   1 H    0.871 --    28 O    0.821
    50   1 H    0.883 --    27 O    0.833
    51   1 H    0.881 --    27 O    0.839
    52   1 H    0.865 --    26 O    0.837
    53   1 H    0.876 --    26 O    0.849
    54   1 H    0.898 --    21 O    0.868
    55   1 H    0.875 --    21 O    0.828
    56   8 O    1.749 --    57 H    0.885    58 H    0.844
    57   1 H    0.885 --    56 O    0.885
    58   1 H    0.884 --    56 O    0.844
    59   8 O    1.726 --    61 H    0.868    60 H    0.858
    60   1 H    0.858 --    59 O    0.858
    61   1 H    0.868 --    59 O    0.868
    62   8 O    1.735 --    64 H    0.879    63 H    0.856
    63   1 H    0.856 --    62 O    0.856
    64   1 H    0.879 --    62 O    0.879
    65   8 O    1.772 --    66 H    0.880    67 H    0.807
    66   1 H    0.884 --    65 O    0.880
    67   1 H    0.877 --    65 O    0.807
    68   8 O    1.779 --    70 H    0.874    69 H    0.863
    69   1 H    0.865 --    68 O    0.863
    70   1 H    0.876 --    68 O    0.874
    71   8 O    1.733 --    72 H    0.871    73 H    0.862
    72   1 H    0.871 --    71 O    0.871
    73   1 H    0.862 --    71 O    0.862
    74   8 O    1.731 --    76 H    0.867    75 H    0.864
    75   1 H    0.864 --    74 O    0.864
    76   1 H    0.867 --    74 O    0.867
    77   8 O    1.736 --    79 H    0.879    78 H    0.856
    78   1 H    0.856 --    77 O    0.856
    79   1 H    0.879 --    77 O    0.879
    80   8 O    1.773 --    82 H    0.876    81 H    0.865
    81   1 H    0.867 --    80 O    0.865
    82   1 H    0.879 --    80 O    0.876
    83   8 O    1.788 --    85 H    0.885    84 H    0.816
    84   1 H    0.877 --    83 O    0.816
    85   1 H    0.887 --    83 O    0.885
    86   8 O    1.778 --    87 H    0.874    88 H    0.867
    87   1 H    0.876 --    86 O    0.874
    88   1 H    0.869 --    86 O    0.867
    89   8 O    1.821 --    90 H    0.878    91 H    0.794
    90   1 H    0.885 --    89 O    0.878
    91   1 H    0.863 --    89 O    0.794
    92   8 O    1.775 --    94 H    0.871    93 H    0.869
    93   1 H    0.872 --    92 O    0.869
    94   1 H    0.874 --    92 O    0.871
    95   8 O    1.777 --    96 H    0.873    97 H    0.870
    96   1 H    0.875 --    95 O    0.873
    97   1 H    0.872 --    95 O    0.870
    98   8 O    1.772 --    99 H    0.871   100 H    0.871
    99   1 H    0.874 --    98 O    0.871
   100   1 H    0.874 --    98 O    0.871
   101   8 O    1.781 --   102 H    0.875   103 H    0.868
   102   1 H    0.878 --   101 O    0.875
   103   1 H    0.870 --   101 O    0.868
   104   8 O    1.770 --   105 H    0.871   106 H    0.869
   105   1 H    0.873 --   104 O    0.871
   106   1 H    0.872 --   104 O    0.869
   107   8 O    1.781 --   108 H    0.870   109 H    0.866
   108   1 H    0.872 --   107 O    0.870
   109   1 H    0.868 --   107 O    0.866
   110   8 O    1.728 --   112 H    0.869   111 H    0.858
   111   1 H    0.859 --   110 O    0.858
   112   1 H    0.870 --   110 O    0.869
   113   8 O    1.745 --   115 H    0.878   114 H    0.867
   114   1 H    0.867 --   113 O    0.867
   115   1 H    0.878 --   113 O    0.878
   116   8 O    1.733 --   118 H    0.877   117 H    0.856
   117   1 H    0.856 --   116 O    0.856
   118   1 H    0.877 --   116 O    0.877
 ---------------------------------------------------------------------------

Topologies differ in total number of bonds
Writing topology from bond orders to xtbtopo.mol

molecular dipole:
                 x           y           z       tot (Debye)
 q only:       -0.639      -0.203      -3.890
   full:       -0.628       0.190      -4.962      12.723
molecular quadrupole (traceless):
                xx          xy          yy          xz          yz          zz
 q only:       34.864     -20.458     -10.561       8.314      27.247     -24.304
  q+dip:       42.160     -25.168     -14.293      10.333      35.657     -27.867
   full:       41.819     -25.368     -14.035      10.993      35.915     -27.784

           -------------------------------------------------
          |               Frequency Printout                |
           -------------------------------------------------
 projected vibrational frequencies (cm⁻¹)
eigval :       -0.00    -0.00    -0.00    -0.00     0.00     0.00
eigval :       11.06    15.67    18.09    20.23    22.00    24.29
eigval :       25.37    27.47    28.06    28.36    30.98    31.97
eigval :       33.83    34.54    35.71    36.55    37.50    38.19
eigval :       39.73    40.03    41.71    43.49    44.49    45.37
eigval :       45.99    47.79    48.74    49.63    51.46    52.80
eigval :       54.11    54.49    55.10    55.83    56.46    58.56
eigval :       60.07    61.79    61.89    62.93    63.46    63.94
eigval :       64.90    67.37    68.76    69.23    70.00    71.65
eigval :       73.04    75.38    76.34    76.88    77.74    78.74
eigval :       80.02    81.09    83.45    84.59    85.12    87.58
eigval :       89.87    90.75    92.30    94.10    96.37    98.59
eigval :      101.26   105.46   106.53   116.04   117.62   124.68
eigval :      130.28   131.72   137.74   141.13   141.39   143.46
eigval :      148.21   152.87   158.26   159.05   160.67   162.78
eigval :      167.72   169.16   173.58   176.93   179.24   182.77
eigval :      184.69   188.84   193.00   196.78   198.10   201.30
eigval :      207.91   211.99   215.46   215.78   218.14   221.56
eigval :      226.56   228.52   230.68   232.44   233.57   234.82
eigval :      237.27   237.84   239.51   240.88   242.30   243.16
eigval :      245.10   247.81   248.88   249.06   249.54   253.94
eigval :      255.25   256.10   259.41   261.45   263.34   265.42
eigval :      267.81   270.35   271.85   274.39   276.00   279.17
eigval :      280.48   282.76   283.52   285.40   286.94   290.61
eigval :      295.86   298.61   301.89   304.45   307.38   308.26
eigval :      311.39   312.37   315.62   319.57   319.97   323.68
eigval :      327.66   329.54   334.17   334.70   338.37   340.30
eigval :      343.69   348.96   353.66   358.99   361.90   374.01
eigval :      374.92   377.14   382.24   398.06   403.25   427.33
eigval :      434.25   439.40   442.21   450.17   456.11   458.40
eigval :      466.07   467.74   478.09   483.48   489.63   490.68
eigval :      497.80   507.12   507.33   514.16   519.50   526.04
eigval :      528.31   532.89   538.56   539.92   543.93   546.43
eigval :      553.88   560.79   562.77   570.51   576.45   581.21
eigval :      594.69   598.80   599.16   609.33   619.12   620.43
eigval :      624.39   641.25   646.17   654.51   658.23   669.00
eigval :      676.05   683.17   686.65   695.45   705.95   713.21
eigval :      721.73   723.26   725.61   731.97   737.67   747.62
eigval :      754.47   766.85   778.24   791.84   802.78   817.92
eigval :      827.26   856.24   873.64  1450.91  1455.16  1456.10
eigval :     1459.08  1460.78  1461.10  1461.87  1462.41  1462.48
eigval :     1463.64  1465.93  1466.75  1467.59  1468.71  1470.20
eigval :     1470.76  1471.26  1472.01  1473.50  1474.63  1477.43
eigval :     1479.64  1482.60  1484.46  1485.08  1485.43  1487.99
eigval :     1489.98  1492.37  1494.28  1496.50  1497.71  1503.47
eigval :     1504.53  1510.27  1516.12  1520.46  1521.91  1538.83
eigval :     3052.18  3052.99  3060.55  3118.44  3156.93  3189.69
eigval :     3239.13  3246.85  3270.60  3272.92  3276.07  3285.68
eigval :     3290.81  3296.34  3303.29  3320.44  3328.66  3372.79
eigval :     3381.97  3386.29  3386.84  3416.39  3437.99  3440.20
eigval :     3449.11  3451.01  3452.15  3454.52  3477.13  3484.56
eigval :     3490.68  3496.33  3501.37  3514.34  3515.05  3519.32
eigval :     3521.22  3533.52  3539.07  3584.93  3586.84  3591.63
eigval :     3592.67  3593.44  3597.11  3599.98  3601.44  3602.40
eigval :     3604.00  3604.97  3605.34  3607.73  3613.03  3614.72
eigval :     3616.08  3617.06  3618.53  3619.47  3620.64  3621.76
eigval :     3621.91  3623.57  3624.75  3625.62  3626.61  3627.00
eigval :     3627.11  3627.42  3628.20  3633.34  3633.45  3635.00
eigval :     3636.68  3642.83  3643.00  3648.33  3652.95  3666.61
 reduced masses (amu)
   1: 16.94   2: 15.31   3: 15.99   4: 16.86   5: 14.99   6: 14.82   7: 14.62   8: 14.24
   9: 14.40  10: 15.03  11: 14.39  12: 14.31  13: 15.57  14: 14.47  15: 15.44  16: 14.59
  17: 14.59  18: 14.41  19: 15.25  20: 14.46  21: 15.33  22: 15.57  23: 15.75  24: 14.78
  25: 14.81  26: 15.27  27: 14.45  28: 14.53  29: 15.86  30: 14.64  31: 14.81  32: 14.81
  33: 14.44  34: 15.07  35: 14.52  36: 14.79  37: 14.94  38: 14.96  39: 15.51  40: 14.97
  41: 15.34  42: 14.99  43: 15.74  44: 16.68  45: 14.75  46: 15.19  47: 14.88  48: 14.67
  49: 14.99  50: 17.31  51: 14.46  52: 15.41  53: 15.09  54: 14.84  55: 16.29  56: 14.79
  57: 15.98  58: 15.39  59: 15.26  60: 14.94  61: 14.94  62: 16.53  63: 18.25  64: 16.44
  65: 16.50  66: 15.40  67: 15.46  68: 15.23  69: 16.02  70: 15.90  71: 16.43  72: 15.09
  73: 14.66  74: 14.21  75: 16.46  76: 14.36  77: 14.03  78: 15.02  79: 13.22  80: 13.28
  81:  3.29  82:  8.33  83: 14.07  84: 11.72  85: 14.45  86: 13.22  87:  9.28  88:  7.92
  89:  7.20  90: 14.99  91:  8.96  92: 13.13  93: 11.00  94: 11.76  95:  4.88  96: 10.74
  97:  6.47  98:  3.75  99:  5.06 100: 12.84 101: 12.56 102:  3.35 103:  9.63 104:  9.52
 105:  8.26 106:  6.91 107: 12.06 108:  8.44 109: 10.87 110:  4.18 111:  7.47 112:  4.88
 113:  9.53 114:  7.42 115:  7.03 116:  8.41 117:  5.82 118:  2.89 119:  5.54 120:  5.56
 121:  5.54 122:  7.48 123:  5.70 124:  8.62 125:  3.77 126:  7.31 127:  7.48 128:  7.07
 129:  7.29 130:  8.82 131:  6.51 132:  5.57 133:  6.03 134:  8.64 135:  4.57 136:  5.96
 137:  5.58 138:  5.26 139:  5.50 140:  8.07 141:  4.00 142:  8.50 143: 12.03 144: 10.73
 145:  9.37 146:  6.66 147:  7.37 148: 11.79 149:  8.96 150:  6.38 151: 11.24 152:  8.20
 153:  7.26 154:  9.02 155:  2.88 156:  5.45 157: 10.63 158: 16.17 159: 14.97 160: 11.29
 161:  3.58 162:  2.82 163: 17.33 164: 12.16 165:  2.13 166:  1.33 167:  1.76 168:  1.78
 169:  1.83 170:  1.64 171:  1.63 172:  1.51 173:  2.35 174:  1.50 175:  2.30 176:  1.55
 177:  1.97 178:  2.13 179:  1.70 180:  2.58 181:  1.91 182:  1.81 183:  1.77 184:  1.71
 185:  1.88 186:  1.82 187:  1.73 188:  1.23 189:  1.46 190:  1.75 191:  1.50 192:  1.58
 193:  1.49 194:  1.59 195:  1.70 196:  1.57 197:  1.66 198:  1.65 199:  1.61 200:  1.72
 201:  1.70 202:  1.63 203:  1.51 204:  1.79 205:  1.68 206:  1.72 207:  1.63 208:  1.66
 209:  1.60 210:  1.77 211:  1.88 212:  1.70 213:  1.95 214:  1.69 215:  4.65 216:  1.88
 217:  7.43 218:  1.59 219:  2.26 220:  1.77 221:  1.65 222:  1.71 223:  2.13 224:  2.23
 225:  1.87 226:  2.21 227:  2.51 228:  1.91 229:  1.94 230:  2.06 231:  1.94 232:  1.94
 233:  2.03 234:  2.04 235:  2.21 236:  2.11 237:  2.68 238:  2.11 239:  2.09 240:  2.18
 241:  2.13 242:  2.10 243:  2.14 244:  2.07 245:  2.15 246:  2.15 247:  2.12 248:  2.12
 249:  2.12 250:  2.13 251:  2.12 252:  2.13 253:  2.10 254:  2.12 255:  2.15 256:  2.11
 257:  2.04 258:  2.08 259:  2.04 260:  2.06 261:  2.06 262:  2.04 263:  2.03 264:  2.07
 265:  2.07 266:  2.11 267:  2.09 268:  2.09 269:  2.09 270:  2.05 271:  2.05 272:  1.98
 273:  2.00 274:  2.03 275:  2.15 276:  1.93 277:  1.91 278:  1.90 279:  1.90 280:  1.91
 281:  1.90 282:  1.92 283:  1.92 284:  1.93 285:  1.91 286:  1.96 287:  1.93 288:  1.95
 289:  1.89 290:  1.96 291:  2.03 292:  2.03 293:  1.98 294:  2.00 295:  2.07 296:  1.74
 297:  1.92 298:  2.03 299:  2.01 300:  1.71 301:  1.71 302:  1.69 303:  1.74 304:  1.77
 305:  1.69 306:  1.77 307:  1.81 308:  1.76 309:  1.78 310:  1.73 311:  1.74 312:  1.78
 313:  1.81 314:  1.80 315:  1.76 316:  1.84 317:  1.81 318:  1.82 319:  1.82 320:  1.81
 321:  1.86 322:  1.80 323:  1.81 324:  1.88 325:  1.85 326:  1.82 327:  1.87 328:  1.86
 329:  1.91 330:  1.83 331:  1.92 332:  1.96 333:  1.80 334:  1.89 335:  2.11 336:  1.57
 337:  1.88 338:  1.94 339:  1.78 340:  1.75 341:  1.73 342:  1.79 343:  1.81 344:  1.84
 345:  1.75 346:  1.86 347:  1.86 348:  1.91 349:  1.85 350:  1.84 351:  1.84 352:  1.84
 353:  1.84 354:  1.84
 IR intensities (km·mol⁻¹)
   1:  4.78   2:  3.42   3:  1.97   4:  3.54   5:  0.51   6:  2.15   7:  0.36   8:  0.44
   9:  0.26  10:  0.66  11:  0.62  12:  1.63  13:  2.23  14:  1.21  15:  1.31  16:  0.98
  17:  1.37  18:  1.22  19:  0.64  20:  1.70  21:  0.20  22:  1.27  23:  2.64  24:  5.19
  25:  1.84  26:  1.78  27:  2.35  28:  6.87  29:  1.58  30:  8.07  31:  7.38  32:  2.33
  33:  3.58  34:  1.22  35:  9.51  36:  0.04  37:  1.52  38:  5.73  39:  6.54  40:  4.13
  41:  5.20  42:  3.64  43:  4.37  44:  2.82  45:  7.70  46: 10.47  47:  7.09  48:  3.11
  49:  0.59  50:  0.99  51:  8.39  52:  1.42  53:  2.40  54:  8.92  55: 10.95  56:  2.58
  57:  5.99  58:  4.65  59: 14.16  60:  3.53  61:  8.18  62: 15.23  63:  3.04  64: 16.83
  65: 22.01  66:  2.47  67:  3.58  68:  3.19  69: 14.59  70: 11.37  71:  8.90  72:  8.16
  73:  2.46  74:  6.63  75:  8.03  76:  1.20  77:  3.18  78:  9.55  79: 29.88  80:  3.75
  81: 39.21  82:140.70  83:  6.10  84: 70.19  85: 13.55  86: 52.43  87:161.96  88: 83.99
  89: 80.39  90:  4.79  91:110.32  92:  4.52  93: 63.38  94: 52.33  95: 35.73  96:121.11
  97: 54.57  98: 79.95  99:185.54 100: 23.90 101: 66.85 102:136.07 103:118.40 104: 90.30
 105:116.53 106:225.39 107:132.05 108:147.90 109:206.97 110:134.31 111:102.67 112:  3.99
 113: 11.45 114: 44.03 115:113.65 116:103.52 117:437.75 118:283.16 119:170.56 120:276.07
 121: 60.22 122:  3.59 123:160.37 124: 52.19 125:248.68 126:193.89 127: 68.93 128: 76.93
 129: 22.70 130:164.84 131:139.84 132:358.02 133: 18.21 134: 33.13 135:289.67 136:146.63
 137:168.77 138:116.80 139:122.30 140:139.06 141:124.92 142: 26.05 143: 58.01 144: 56.30
 145:156.09 146:213.82 147:127.81 148:224.24 149: 32.01 150:646.93 151: 65.01 152:169.83
 153: 84.19 154:203.49 155: 55.75 156: 84.12 157:249.73 158: 12.80 159: 12.85 160: 42.10
 161:183.32 162: 91.43 163: 84.34 164: 31.86 165:  3.62 166: 24.80 167:131.32 168: 87.75
 169:  6.51 170:212.95 171: 37.09 172:114.05 173: 40.58 174:262.11 175: 12.14 176: 87.57
 177: 12.10 178:179.59 179: 30.64 180: 42.46 181: 57.41 182:116.11 183: 56.42 184:118.30
 185: 32.80 186: 87.29 187:140.07 188: 19.10 189: 95.50 190: 55.26 191: 89.04 192:100.42
 193:  5.75 194:156.32 195:127.71 196: 79.99 197: 30.67 198: 89.06 199:125.78 200:184.84
 201: 51.50 202:104.50 203:234.45 204:120.05 205:112.58 206:210.84 207:251.38 208:236.62
 209: 32.98 210:143.77 211:323.37 212:306.43 213:235.81 214: 88.90 215:197.38 216:131.49
 217:388.93 218:107.31 219:391.48 220: 72.57 221: 46.12 222: 19.35 223:402.82 224:495.51
 225:131.43 226:323.71 227:315.80 228:109.62 229:574.48 230:673.90 231:860.57 232:460.85
 233:341.25 234:622.97 235:390.54 236:462.31 237:241.97 238:212.89 239:433.57 240:146.95
 241:229.67 242:348.95 243: 61.79 244:200.65 245:253.86 246:174.94 247:580.63 248:216.30
 249:111.21 250:131.27 251:279.74 252:532.24 253:105.28 254: 78.52 255:309.35 256:161.34
 257:106.41 258:350.34 259: 16.65 260: 89.72 261:225.10 262:174.45 263:192.90 264: 94.40
 265:286.53 266:265.77 267: 36.18 268:348.03 269:347.56 270:183.49 271:125.05 272:228.32
 273:145.86 274:149.21 275:106.13 276: 63.97 277:592.94 278:****** 279:****** 280:******
 281:****** 282:****** 283:****** 284:889.80 285:****** 286:358.61 287:****** 288:440.64
 289:616.79 290:347.59 291:270.96 292:****** 293:722.60 294:502.19 295:518.22 296:104.93
 297:574.35 298:372.53 299:781.10 300:505.86 301:220.24 302:273.99 303:341.26 304:803.47
 305:180.81 306:266.19 307:218.25 308:290.70 309:133.45 310:302.99 311:606.03 312:259.44
 313:267.27 314: 10.25 315:128.00 316:103.27 317: 82.35 318:101.47 319: 71.54 320: 88.11
 321: 98.75 322:100.70 323: 86.87 324:109.39 325: 42.79 326: 90.53 327:119.01 328: 98.42
 329:127.48 330: 29.97 331:109.04 332:137.54 333: 72.34 334: 80.27 335:135.77 336: 26.95
 337: 95.46 338:106.53 339: 83.05 340: 78.93 341: 45.14 342:134.97 343: 30.37 344: 77.90
 345: 66.20 346:  5.57 347:164.76 348: 85.02 349: 72.54 350:134.78 351:  6.00 352: 52.16
 353: 48.91 354: 54.90
 Raman intensities (amu)
   1:  0.00   2:  0.00   3:  0.00   4:  0.00   5:  0.00   6:  0.00   7:  0.00   8:  0.00
   9:  0.00  10:  0.00  11:  0.00  12:  0.00  13:  0.00  14:  0.00  15:  0.00  16:  0.00
  17:  0.00  18:  0.00  19:  0.00  20:  0.00  21:  0.00  22:  0.00  23:  0.00  24:  0.00
  25:  0.00  26:  0.00  27:  0.00  28:  0.00  29:  0.00  30:  0.00  31:  0.00  32:  0.00
  33:  0.00  34:  0.00  35:  0.00  36:  0.00  37:  0.00  38:  0.00  39:  0.00  40:  0.00
  41:  0.00  42:  0.00  43:  0.00  44:  0.00  45:  0.00  46:  0.00  47:  0.00  48:  0.00
  49:  0.00  50:  0.00  51:  0.00  52:  0.00  53:  0.00  54:  0.00  55:  0.00  56:  0.00
  57:  0.00  58:  0.00  59:  0.00  60:  0.00  61:  0.00  62:  0.00  63:  0.00  64:  0.00
  65:  0.00  66:  0.00  67:  0.00  68:  0.00  69:  0.00  70:  0.00  71:  0.00  72:  0.00
Molecule has no symmetry elements
It seems to be the C1 point group
  73:  0.00  74:  0.00  75:  0.00  76:  0.00  77:  0.00  78:  0.00  79:  0.00  80:  0.00
  81:  0.00  82:  0.00  83:  0.00  84:  0.00  85:  0.00  86:  0.00  87:  0.00  88:  0.00
  89:  0.00  90:  0.00  91:  0.00  92:  0.00  93:  0.00  94:  0.00  95:  0.00  96:  0.00
  97:  0.00  98:  0.00  99:  0.00 100:  0.00 101:  0.00 102:  0.00 103:  0.00 104:  0.00
 105:  0.00 106:  0.00 107:  0.00 108:  0.00 109:  0.00 110:  0.00 111:  0.00 112:  0.00
 113:  0.00 114:  0.00 115:  0.00 116:  0.00 117:  0.00 118:  0.00 119:  0.00 120:  0.00
 121:  0.00 122:  0.00 123:  0.00 124:  0.00 125:  0.00 126:  0.00 127:  0.00 128:  0.00
 129:  0.00 130:  0.00 131:  0.00 132:  0.00 133:  0.00 134:  0.00 135:  0.00 136:  0.00
 137:  0.00 138:  0.00 139:  0.00 140:  0.00 141:  0.00 142:  0.00 143:  0.00 144:  0.00
 145:  0.00 146:  0.00 147:  0.00 148:  0.00 149:  0.00 150:  0.00 151:  0.00 152:  0.00
 153:  0.00 154:  0.00 155:  0.00 156:  0.00 157:  0.00 158:  0.00 159:  0.00 160:  0.00
 161:  0.00 162:  0.00 163:  0.00 164:  0.00 165:  0.00 166:  0.00 167:  0.00 168:  0.00
 169:  0.00 170:  0.00 171:  0.00 172:  0.00 173:  0.00 174:  0.00 175:  0.00 176:  0.00
 177:  0.00 178:  0.00 179:  0.00 180:  0.00 181:  0.00 182:  0.00 183:  0.00 184:  0.00
 185:  0.00 186:  0.00 187:  0.00 188:  0.00 189:  0.00 190:  0.00 191:  0.00 192:  0.00
 193:  0.00 194:  0.00 195:  0.00 196:  0.00 197:  0.00 198:  0.00 199:  0.00 200:  0.00
 201:  0.00 202:  0.00 203:  0.00 204:  0.00 205:  0.00 206:  0.00 207:  0.00 208:  0.00
 209:  0.00 210:  0.00 211:  0.00 212:  0.00 213:  0.00 214:  0.00 215:  0.00 216:  0.00
 217:  0.00 218:  0.00 219:  0.00 220:  0.00 221:  0.00 222:  0.00 223:  0.00 224:  0.00
 225:  0.00 226:  0.00 227:  0.00 228:  0.00 229:  0.00 230:  0.00 231:  0.00 232:  0.00
 233:  0.00 234:  0.00 235:  0.00 236:  0.00 237:  0.00 238:  0.00 239:  0.00 240:  0.00
 241:  0.00 242:  0.00 243:  0.00 244:  0.00 245:  0.00 246:  0.00 247:  0.00 248:  0.00
 249:  0.00 250:  0.00 251:  0.00 252:  0.00 253:  0.00 254:  0.00 255:  0.00 256:  0.00
 257:  0.00 258:  0.00 259:  0.00 260:  0.00 261:  0.00 262:  0.00 263:  0.00 264:  0.00
 265:  0.00 266:  0.00 267:  0.00 268:  0.00 269:  0.00 270:  0.00 271:  0.00 272:  0.00
 273:  0.00 274:  0.00 275:  0.00 276:  0.00 277:  0.00 278:  0.00 279:  0.00 280:  0.00
 281:  0.00 282:  0.00 283:  0.00 284:  0.00 285:  0.00 286:  0.00 287:  0.00 288:  0.00
 289:  0.00 290:  0.00 291:  0.00 292:  0.00 293:  0.00 294:  0.00 295:  0.00 296:  0.00
 297:  0.00 298:  0.00 299:  0.00 300:  0.00 301:  0.00 302:  0.00 303:  0.00 304:  0.00
 305:  0.00 306:  0.00 307:  0.00 308:  0.00 309:  0.00 310:  0.00 311:  0.00 312:  0.00
 313:  0.00 314:  0.00 315:  0.00 316:  0.00 317:  0.00 318:  0.00 319:  0.00 320:  0.00
 321:  0.00 322:  0.00 323:  0.00 324:  0.00 325:  0.00 326:  0.00 327:  0.00 328:  0.00
 329:  0.00 330:  0.00 331:  0.00 332:  0.00 333:  0.00 334:  0.00 335:  0.00 336:  0.00
 337:  0.00 338:  0.00 339:  0.00 340:  0.00 341:  0.00 342:  0.00 343:  0.00 344:  0.00
 345:  0.00 346:  0.00 347:  0.00 348:  0.00 349:  0.00 350:  0.00 351:  0.00 352:  0.00
 353:  0.00 354:  0.00
 output can be read by thermo (or use thermo option).
 writing <g98.out> molden fake output.
 recommended (thermochemical) frequency scaling factor: 1.0
           -------------------------------------------------
          |             Thermodynamic Functions             |
           -------------------------------------------------

c1  symmetry found (for desy threshold:  0.10E+00) used in thermo

          ...................................................
          :                      SETUP                      :
          :.................................................:
          :  # frequencies                         348      :
          :  # imaginary freq.                       0      :
          :  linear?                             false      :
          :  only rotor calc.                    false      :
          :  symmetry                               c1      :
          :  rotational number                       1      :
          :  scaling factor                  1.0000000      :
          :  rotor cutoff                   50.0000000 cm⁻¹ :
          :  imag. cutoff                  -20.0000000 cm⁻¹ :
          :.................................................:

    mode    ω/cm⁻¹     T·S(HO)/kcal·mol⁻¹    T·S(FR)/kcal·mol⁻¹   T·S(vib)
   ------------------------------------------------------------------------
       1     11.06    -2.32856 (  0.24%)    -1.50333 ( 99.76%)    -1.50531
       2     15.67    -2.12255 (  0.95%)    -1.40030 ( 99.05%)    -1.40720
       3     18.09    -2.03741 (  1.68%)    -1.35771 ( 98.32%)    -1.36916
       4     20.23    -1.97113 (  2.61%)    -1.32455 ( 97.39%)    -1.34143
       5     22.00    -1.92158 (  3.61%)    -1.29975 ( 96.39%)    -1.32221
       6     24.29    -1.86284 (  5.28%)    -1.27036 ( 94.72%)    -1.30164
       7     25.37    -1.83720 (  6.22%)    -1.25752 ( 93.78%)    -1.29356
       8     27.47    -1.79024 (  8.35%)    -1.23401 ( 91.65%)    -1.28043
       9     28.06    -1.77762 (  9.02%)    -1.22769 ( 90.98%)    -1.27730
      10     28.36    -1.77128 (  9.38%)    -1.22452 ( 90.62%)    -1.27580
      11     30.98    -1.71911 ( 12.84%)    -1.19839 ( 87.16%)    -1.26524
      12     31.97    -1.70046 ( 14.32%)    -1.18904 ( 85.68%)    -1.26227
      13     33.83    -1.66696 ( 17.33%)    -1.17226 ( 82.67%)    -1.25799
      14     34.54    -1.65467 ( 18.55%)    -1.16610 ( 81.45%)    -1.25674
      15     35.71    -1.63502 ( 20.65%)    -1.15625 ( 79.35%)    -1.25510
      16     36.55    -1.62124 ( 22.22%)    -1.14934 ( 77.78%)    -1.25419
      17     37.50    -1.60607 ( 24.04%)    -1.14174 ( 75.96%)    -1.25337
      18     38.19    -1.59541 ( 25.38%)    -1.13639 ( 74.62%)    -1.25291
      19     39.73    -1.57194 ( 28.51%)    -1.12463 ( 71.49%)    -1.25216
      20     40.03    -1.56752 ( 29.12%)    -1.12241 ( 70.88%)    -1.25204
      21     41.71    -1.54326 ( 32.63%)    -1.11024 ( 67.37%)    -1.25153
      22     43.49    -1.51858 ( 36.41%)    -1.09786 ( 63.59%)    -1.25102
      23     44.49    -1.50518 ( 38.53%)    -1.09113 ( 61.47%)    -1.25067
      24     45.37    -1.49359 ( 40.41%)    -1.08532 ( 59.59%)    -1.25029
      25     45.99    -1.48555 ( 41.73%)    -1.08128 ( 58.27%)    -1.24997
      26     47.79    -1.46298 ( 45.49%)    -1.06995 ( 54.51%)    -1.24873
      27     48.74    -1.45140 ( 47.44%)    -1.06413 ( 52.56%)    -1.24786
      28     49.63    -1.44073 ( 49.25%)    -1.05877 ( 50.75%)    -1.24688
      29     51.46    -1.41934 ( 52.87%)    -1.04802 ( 47.13%)    -1.24435
      30     52.80    -1.40413 ( 55.44%)    -1.04038 ( 44.56%)    -1.24203
      31     54.11    -1.38971 ( 57.84%)    -1.03312 ( 42.16%)    -1.23937
      32     54.49    -1.38563 ( 58.51%)    -1.03107 ( 41.49%)    -1.23854
      33     55.10    -1.37911 ( 59.58%)    -1.02780 ( 40.42%)    -1.23713
      34     55.83    -1.37130 ( 60.86%)    -1.02387 ( 39.14%)    -1.23530
      35     56.46    -1.36466 ( 61.92%)    -1.02053 ( 38.08%)    -1.23363
      36     58.56    -1.34320 ( 65.30%)    -1.00973 ( 34.70%)    -1.22748
      37     60.07    -1.32823 ( 67.57%)    -1.00219 ( 32.43%)    -1.22248
      38     61.79    -1.31162 ( 69.99%)    -0.99383 ( 30.01%)    -1.21625
      39     61.89    -1.31068 ( 70.13%)    -0.99335 ( 29.87%)    -1.21588
      40     62.93    -1.30084 ( 71.51%)    -0.98840 ( 28.49%)    -1.21182
      41     63.46    -1.29595 ( 72.18%)    -0.98593 ( 27.82%)    -1.20970
      42     63.94    -1.29153 ( 72.78%)    -0.98370 ( 27.22%)    -1.20774
      43     64.90    -1.28277 ( 73.95%)    -0.97929 ( 26.05%)    -1.20370
      44     67.37    -1.26084 ( 76.72%)    -0.96823 ( 23.28%)    -1.19272
      45     68.76    -1.24882 ( 78.15%)    -0.96217 ( 21.85%)    -1.18618
      46     69.23    -1.24479 ( 78.61%)    -0.96013 ( 21.39%)    -1.18391
      47     70.00    -1.23829 ( 79.35%)    -0.95685 ( 20.65%)    -1.18017
      48     71.65    -1.22462 ( 80.83%)    -0.94995 ( 19.17%)    -1.17198
      49     73.04    -1.21342 ( 81.99%)    -0.94429 ( 18.01%)    -1.16495
      50     75.38    -1.19491 ( 83.78%)    -0.93494 ( 16.22%)    -1.15274
      51     76.34    -1.18747 ( 84.46%)    -0.93118 ( 15.54%)    -1.14764
      52     76.88    -1.18335 ( 84.82%)    -0.92910 ( 15.18%)    -1.14477
      53     77.74    -1.17681 ( 85.39%)    -0.92579 ( 14.61%)    -1.14014
      54     78.74    -1.16938 ( 86.01%)    -0.92203 ( 13.99%)    -1.13478
      55     80.02    -1.15990 ( 86.77%)    -0.91723 ( 13.23%)    -1.12780
      56     81.09    -1.15215 ( 87.37%)    -0.91331 ( 12.63%)    -1.12199
      57     83.45    -1.13536 ( 88.58%)    -0.90480 ( 11.42%)    -1.10904
      58     84.59    -1.12747 ( 89.12%)    -0.90080 ( 10.88%)    -1.10280
      59     85.12    -1.12376 ( 89.36%)    -0.89892 ( 10.64%)    -1.09984
      60     87.58    -1.10713 ( 90.40%)    -0.89048 (  9.60%)    -1.08633
      61     89.87    -1.09206 ( 91.26%)    -0.88283 (  8.74%)    -1.07377
      62     90.75    -1.08643 ( 91.56%)    -0.87997 (  8.44%)    -1.06901
      63     92.30    -1.07653 ( 92.07%)    -0.87494 (  7.93%)    -1.06055
      64     94.10    -1.06527 ( 92.62%)    -0.86922 (  7.38%)    -1.05080
      65     96.37    -1.05143 ( 93.24%)    -0.86217 (  6.76%)    -1.03864
      66     98.59    -1.03813 ( 93.80%)    -0.85540 (  6.20%)    -1.02680
      67    101.26    -1.02260 ( 94.39%)    -0.84749 (  5.61%)    -1.01278
      68    105.46    -0.99907 ( 95.19%)    -0.83547 (  4.81%)    -0.99120
      69    106.53    -0.99319 ( 95.37%)    -0.83247 (  4.63%)    -0.98575
      70    116.04    -0.94374 ( 96.67%)    -0.80714 (  3.33%)    -0.93919
      71    117.62    -0.93591 ( 96.84%)    -0.80313 (  3.16%)    -0.93172
      72    124.68    -0.90234 ( 97.48%)    -0.78586 (  2.52%)    -0.89940
      73    130.28    -0.87714 ( 97.88%)    -0.77285 (  2.12%)    -0.87492
      74    131.72    -0.87081 ( 97.97%)    -0.76958 (  2.03%)    -0.86875
      75    137.74    -0.84526 ( 98.29%)    -0.75635 (  1.71%)    -0.84374
      76    141.13    -0.83140 ( 98.45%)    -0.74916 (  1.55%)    -0.83013
      77    141.39    -0.83033 ( 98.46%)    -0.74860 (  1.54%)    -0.82908
      78    143.46    -0.82206 ( 98.55%)    -0.74430 (  1.45%)    -0.82093
      79    148.21    -0.80354 ( 98.72%)    -0.73465 (  1.28%)    -0.80266
      80    152.87    -0.78597 ( 98.87%)    -0.72547 (  1.13%)    -0.78529
      81    158.26    -0.76640 ( 99.01%)    -0.71522 (  0.99%)    -0.76589
      82    159.05    -0.76359 ( 99.03%)    -0.71375 (  0.97%)    -0.76311
      83    160.67    -0.75786 ( 99.07%)    -0.71073 (  0.93%)    -0.75742
      84    162.78    -0.75051 ( 99.12%)    -0.70687 (  0.88%)    -0.75012
      85    167.72    -0.73371 ( 99.22%)    -0.69801 (  0.78%)    -0.73343
      86    169.16    -0.72893 ( 99.24%)    -0.69549 (  0.76%)    -0.72867
      87    173.58    -0.71449 ( 99.32%)    -0.68785 (  0.68%)    -0.71431
      88    176.93    -0.70380 ( 99.37%)    -0.68218 (  0.63%)    -0.70366
      89    179.24    -0.69656 ( 99.40%)    -0.67833 (  0.60%)    -0.69645
      90    182.77    -0.68573 ( 99.44%)    -0.67256 (  0.56%)    -0.68566
      91    184.69    -0.67992 ( 99.47%)    -0.66946 (  0.53%)    -0.67986
      92    188.84    -0.66761 ( 99.51%)    -0.66288 (  0.49%)    -0.66759
      93    193.00    -0.65556 ( 99.55%)    -0.65642 (  0.45%)    -0.65557
      94    196.78    -0.64490 ( 99.58%)    -0.65068 (  0.42%)    -0.64492
      95    198.10    -0.64121 ( 99.60%)    -0.64869 (  0.40%)    -0.64124
      96    201.30    -0.63244 ( 99.62%)    -0.64395 (  0.38%)    -0.63248
      97    207.91    -0.61477 ( 99.67%)    -0.63438 (  0.33%)    -0.61484
      98    211.99    -0.60418 ( 99.69%)    -0.62862 (  0.31%)    -0.60426
      99    215.46    -0.59538 ( 99.71%)    -0.62381 (  0.29%)    -0.59546
     100    215.78    -0.59459 ( 99.71%)    -0.62338 (  0.29%)    -0.59467
     101    218.14    -0.58868 ( 99.72%)    -0.62015 (  0.28%)    -0.58877
     102    221.56    -0.58028 ( 99.74%)    -0.61554 (  0.26%)    -0.58037
     103    226.56    -0.56829 ( 99.76%)    -0.60894 (  0.24%)    -0.56839
     104    228.52    -0.56367 ( 99.77%)    -0.60638 (  0.23%)    -0.56377
     105    230.68    -0.55862 ( 99.78%)    -0.60359 (  0.22%)    -0.55872
     106    232.44    -0.55457 ( 99.79%)    -0.60135 (  0.21%)    -0.55467
     107    233.57    -0.55198 ( 99.79%)    -0.59991 (  0.21%)    -0.55208
     108    234.82    -0.54912 ( 99.79%)    -0.59832 (  0.21%)    -0.54922
     109    237.27    -0.54360 ( 99.80%)    -0.59525 (  0.20%)    -0.54370
     110    237.84    -0.54233 ( 99.81%)    -0.59454 (  0.19%)    -0.54243
     111    239.51    -0.53861 ( 99.81%)    -0.59247 (  0.19%)    -0.53872
     112    240.88    -0.53560 ( 99.81%)    -0.59078 (  0.19%)    -0.53570
     113    242.30    -0.53248 ( 99.82%)    -0.58904 (  0.18%)    -0.53258
     114    243.16    -0.53060 ( 99.82%)    -0.58798 (  0.18%)    -0.53070
     115    245.10    -0.52641 ( 99.83%)    -0.58564 (  0.17%)    -0.52651
     116    247.81    -0.52059 ( 99.83%)    -0.58237 (  0.17%)    -0.52070
     117    248.88    -0.51833 ( 99.84%)    -0.58109 (  0.16%)    -0.51843
     118    249.06    -0.51796 ( 99.84%)    -0.58088 (  0.16%)    -0.51806
     119    249.54    -0.51695 ( 99.84%)    -0.58032 (  0.16%)    -0.51705
     120    253.94    -0.50777 ( 99.85%)    -0.57513 (  0.15%)    -0.50787
     121    255.25    -0.50508 ( 99.85%)    -0.57361 (  0.15%)    -0.50518
     122    256.10    -0.50334 ( 99.85%)    -0.57262 (  0.15%)    -0.50344
     123    259.41    -0.49665 ( 99.86%)    -0.56882 (  0.14%)    -0.49674
     124    261.45    -0.49256 ( 99.87%)    -0.56650 (  0.13%)    -0.49266
     125    263.34    -0.48883 ( 99.87%)    -0.56437 (  0.13%)    -0.48892
     126    265.42    -0.48475 ( 99.87%)    -0.56204 (  0.13%)    -0.48485
     127    267.81    -0.48010 ( 99.88%)    -0.55938 (  0.12%)    -0.48020
     128    270.35    -0.47524 ( 99.88%)    -0.55658 (  0.12%)    -0.47533
     129    271.85    -0.47239 ( 99.89%)    -0.55494 (  0.11%)    -0.47248
     130    274.39    -0.46761 ( 99.89%)    -0.55219 (  0.11%)    -0.46771
     131    276.00    -0.46462 ( 99.89%)    -0.55046 (  0.11%)    -0.46471
     132    279.17    -0.45879 ( 99.90%)    -0.54708 (  0.10%)    -0.45888
     133    280.48    -0.45639 ( 99.90%)    -0.54569 (  0.10%)    -0.45648
     134    282.76    -0.45226 ( 99.90%)    -0.54328 (  0.10%)    -0.45235
     135    283.52    -0.45090 ( 99.90%)    -0.54249 (  0.10%)    -0.45099
     136    285.40    -0.44755 ( 99.91%)    -0.54053 (  0.09%)    -0.44763
     137    286.94    -0.44482 ( 99.91%)    -0.53894 (  0.09%)    -0.44490
     138    290.61    -0.43841 ( 99.91%)    -0.53518 (  0.09%)    -0.43849
     139    295.86    -0.42940 ( 99.92%)    -0.52987 (  0.08%)    -0.42948
     140    298.61    -0.42477 ( 99.92%)    -0.52713 (  0.08%)    -0.42485
   ------------------------------------------------------------------------

   temp. (K)  partition function   enthalpy   heat capacity  entropy
                                   cal/mol     cal/K/mol   cal/K/mol   J/K/mol
 298.15  VIB  0.765E+64            72530.972    345.378    487.441
         ROT  0.147E+09              888.752      2.981     40.351
         INT  0.112E+73            73419.725    348.358    527.793
         TR   0.202E+29             1481.254      4.968     45.737
         TOT                       74900.9784   353.3266   573.5293  2399.6466

       T/K    H(0)-H(T)+PV         H(T)/Eh          T*S/Eh         G(T)/Eh
   ------------------------------------------------------------------------
    298.15    0.119362E+00    0.102516E+01    0.272502E+00    0.752654E+00
   ------------------------------------------------------------------------

         :::::::::::::::::::::::::::::::::::::::::::::::::::::
         ::                  THERMODYNAMIC                  ::
         :::::::::::::::::::::::::::::::::::::::::::::::::::::
         :: total free energy        -200.498009986301 Eh   ::
         ::.................................................::
         :: total energy             -201.250664246004 Eh   ::
         :: zero point energy           0.905794236011 Eh   ::
         :: G(RRHO) w/o ZPVE           -0.153139976308 Eh   ::
         :: G(RRHO) contrib.            0.752654259703 Eh   ::
         :::::::::::::::::::::::::::::::::::::::::::::::::::::

           -------------------------------------------------
          | TOTAL ENERGY             -201.250664246004 Eh   |
          | TOTAL ENTHALPY           -200.225507703112 Eh   |
          | TOTAL FREE ENERGY        -200.498009986301 Eh   |
          | GRADIENT NORM               0.000054265180 Eh/α |
          | HOMO-LUMO GAP               7.035158379377 eV   |
           -------------------------------------------------

------------------------------------------------------------------------
 * finished run on 2024/05/10 at 17:59:10.351     
------------------------------------------------------------------------
 total:
 * wall-time:     0 d,  0 h,  1 min, 20.147 sec
 *  cpu-time:     0 d,  0 h,  5 min, 47.639 sec
 * ratio c/w:     4.338 speedup
 SCF:
 * wall-time:     0 d,  0 h,  0 min,  0.153 sec
 *  cpu-time:     0 d,  0 h,  0 min,  1.117 sec
 * ratio c/w:     7.293 speedup
 analytical hessian:
 * wall-time:     0 d,  0 h,  1 min, 19.439 sec
 *  cpu-time:     0 d,  0 h,  5 min, 43.849 sec
 * ratio c/w:     4.328 speedup

