      -----------------------------------------------------------      
     |                   =====================                   |     
     |                           x T B                           |     
     |                   =====================                   |     
     |                         S. Grimme                         |     
     |          Mulliken Center for Theoretical Chemistry        |     
     |                    University of Bonn                     |     
      -----------------------------------------------------------      

   * xtb version 6.6.0 (conda-forge) compiled by 'runner@Mac-1676020848589.local' on 2023-02-10

   xtb is free software: you can redistribute it and/or modify it under
   the terms of the GNU Lesser General Public License as published by
   the Free Software Foundation, either version 3 of the License, or
   (at your option) any later version.
   
   xtb is distributed in the hope that it will be useful,
   but WITHOUT ANY WARRANTY; without even the implied warranty of
   MERCHANTABILITY or FITNESS FOR A PARTICULAR PURPOSE.  See the
   GNU Lesser General Public License for more details.
   
   Cite this work as:
   * C. Bannwarth, E. Caldeweyher, S. Ehlert, A. Hansen, P. Pracht,
     J. Seibert, S. Spicher, S. Grimme, WIREs Comput. Mol. Sci., 2020, 11,
     e01493. DOI: 10.1002/wcms.1493
   
   for GFN2-xTB:
   * C. Bannwarth, S. Ehlert and S. Grimme., J. Chem. Theory Comput., 2019,
     15, 1652-1671. DOI: 10.1021/acs.jctc.8b01176
   for GFN1-xTB:
   * S. Grimme, C. Bannwarth, P. Shushkov, J. Chem. Theory Comput., 2017,
     13, 1989-2009. DOI: 10.1021/acs.jctc.7b00118
   for GFN0-xTB:
   * P. Pracht, E. Caldeweyher, S. Ehlert, S. Grimme, ChemRxiv, 2019, preprint.
     DOI: 10.26434/chemrxiv.8326202.v1
   for GFN-FF:
   * S. Spicher and S. Grimme, Angew. Chem. Int. Ed., 2020, 59, 15665-15673.
     DOI: 10.1002/anie.202004239
   
   for ALPB and GBSA implicit solvation:
   * S. Ehlert, M. Stahn, S. Spicher, S. Grimme, J. Chem. Theory Comput.,
     2021, 17, 4250-4261. DOI: 10.1021/acs.jctc.1c00471
   
   for DFT-D4:
   * E. Caldeweyher, C. Bannwarth and S. Grimme, J. Chem. Phys., 2017,
     147, 034112. DOI: 10.1063/1.4993215
   * E. Caldeweyher, S. Ehlert, A. Hansen, H. Neugebauer, S. Spicher,
     C. Bannwarth and S. Grimme, J. Chem. Phys., 2019, 150, 154122.
     DOI: 10.1063/1.5090222
   * E. Caldeweyher, J.-M. Mewes, S. Ehlert and S. Grimme, Phys. Chem. Chem. Phys.
     2020, 22, 8499-8512. DOI: 10.1039/D0CP00502A
   
   for sTDA-xTB:
   * S. Grimme and C. Bannwarth, J. Chem. Phys., 2016, 145, 054103.
     DOI: 10.1063/1.4959605
   
   in the mass-spec context:
   * V. Asgeirsson, C. Bauer and S. Grimme, Chem. Sci., 2017, 8, 4879.
     DOI: 10.1039/c7sc00601b
   * J. Koopman and S. Grimme, ACS Omega 2019, 4, 12, 15120-15133.
     DOI: 10.1021/acsomega.9b02011
   
   for metadynamics refer to:
   * S. Grimme, J. Chem. Theory Comput., 2019, 155, 2847-2862
     DOI: 10.1021/acs.jctc.9b00143
   
   for SPH calculations refer to:
   * S. Spicher and S. Grimme, J. Chem. Theory Comput., 2021, 17, 1701-1714
     DOI: 10.1021/acs.jctc.0c01306
   
   with help from (in alphabetical order)
   P. Atkinson, C. Bannwarth, F. Bohle, G. Brandenburg, E. Caldeweyher
   M. Checinski, S. Dohm, S. Ehlert, S. Ehrlich, I. Gerasimov, C. Hölzer
   A. Katbashev, J. Koopman, C. Lavigne, S. Lehtola, F. März, M. Müller,
   F. Musil, H. Neugebauer, J. Pisarek, C. Plett, P. Pracht, F. Pultar,
   J. Seibert, P. Shushkov, S. Spicher, M. Stahn, M. Steiner, T. Strunk,
   J. Stückrath, T. Rose, and J. Unsleber
   
 * started run on 2024/05/10 at 17:56:21.986     

           -------------------------------------------------
          |                Calculation Setup                |
           -------------------------------------------------

          program call               : xtb Fe_39H2O.xyz --opt extreme --gfn2 --chrg 2 --uhf 5 --alpb water
          coordinate file            : Fe_39H2O.xyz
          omp threads                :                     8

   ID    Z sym.   atoms
    1   26 Fe     1
    2    8 O      2-7, 20-31, 56, 59, 62, 65, 68, 71, 74, 77, 80, 83, 86, 89,
                  92, 95, 98, 101, 104, 107, 110, 113, 116
    3    1 H      8-19, 32-55, 57, 58, 60, 61, 63, 64, 66, 67, 69, 70, 72,
                  73, 75, 76, 78, 79, 81, 82, 84, 85, 87, 88, 90, 91, 93, 94,
                  96, 97, 99, 100, 102, 103, 105, 106, 108, 109, 111, 112,
                  114, 115, 117, 118

molecular fragmentation (1/2 indicates fragments):
111222222221222122222222222222222222222222222222222222222222222222222222
2222222222222222222222222222222222222222222222
# atoms in fragment 1/2:     5   113
 fragment masses (1/2) :       89.86      668.58
CMA distance (Bohr)    :   0.903
constraining FC (au)   :  0.0500

           -------------------------------------------------
          |                 G F N 2 - x T B                 |
           -------------------------------------------------

        Reference                      10.1021/acs.jctc.8b01176
      * Hamiltonian:
        H0-scaling (s, p, d)           1.850000    2.230000    2.230000
        zeta-weighting                 0.500000
      * Dispersion:
        s8                             2.700000
        a1                             0.520000
        a2                             5.000000
        s9                             5.000000
      * Repulsion:
        kExp                           1.500000    1.000000
        rExp                           1.000000
      * Coulomb:
        alpha                          2.000000
        third order                    shell-resolved
        anisotropic                    true
        a3                             3.000000
        a5                             4.000000
        cn-shift                       1.200000
        cn-exp                         4.000000
        max-rad                        5.000000

      * Solvation model:               ALPB
        Solvent                        water
        Parameter file                 internal GFN2-xTB/ALPB
        Dielectric constant                8.0200E+01
        Reference state                gsolv [1 M gas/solution]
        Free energy shift                  1.0808E-03 Eh       6.7819E-01 kcal/mol
        Temperature                        2.9815E+02 K
        Density                            1.0000E+00 kg/L
        Solvent mass                       1.8000E+01 g/mol
        Interaction kernel             P16
        Born radius scaling (c1)           1.4744E+00
        Born radii integrator          GBOBC
        Born offset                        0.0000E+00 a0       0.0000E+00 AA
        H-bond correction              true
        Ion screening                  false
        Surface tension                    1.0000E-05 Eh       1.5569E+01 dyn/cm
        Grid points                               230 per atom
q/qsh data taken from xtbrestart
CAMM data taken from xtbrestart

          ...................................................
          :                      SETUP                      :
          :.................................................:
          :  # basis functions                 244          :
          :  # atomic orbitals                 243          :
          :  # shells                          159          :
          :  # electrons                       318          :
          :  max. iterations                   250          :
          :  Hamiltonian                  GFN2-xTB          :
          :  restarted?                       true          :
          :  GBSA solvation                   true          :
          :  PC potential                    false          :
          :  electronic temp.          300.0000000     K    :
          :  accuracy                    1.0000000          :
          :  -> integral cutoff          0.2500000E+02      :
          :  -> integral neglect         0.1000000E-07      :
          :  -> SCF convergence          0.1000000E-05 Eh   :
          :  -> wf. convergence          0.1000000E-03 e    :
          :  Broyden damping             0.4000000          :
          ...................................................

 iter      E             dE          RMSdq      gap      omega  full diag
   1   -202.5910179 -0.202591E+03  0.255E+00    8.35       0.0  T
   2   -202.6385214 -0.475035E-01  0.172E+00    6.92       1.0  T
   3   -202.6435120 -0.499060E-02  0.129E+00    6.60       1.0  T
   4   -202.6490571 -0.554510E-02  0.361E-01    6.20       1.0  T
   5   -202.6493778 -0.320720E-03  0.294E-01    6.19       1.0  T
   6   -202.6496673 -0.289433E-03  0.101E-01    6.22       1.0  T
   7   -202.6497183 -0.510668E-04  0.614E-02    6.27       1.0  T
   8   -202.6497362 -0.178129E-04  0.277E-02    6.27       1.0  T
   9   -202.6497402 -0.402973E-05  0.146E-02    6.27       1.0  T
  10   -202.6497406 -0.370336E-06  0.125E-02    6.27       1.0  T
  11   -202.6497413 -0.722076E-06  0.179E-03    6.27       5.1  T
  12   -202.6497413 -0.154219E-07  0.643E-04    6.27      14.3  T
  13   -202.6497413 -0.245430E-08  0.154E-04    6.27      59.7  T

   *** convergence criteria satisfied after 13 iterations ***

         #    Occupation            Energy/Eh            Energy/eV
      -------------------------------------------------------------
         1        2.0000           -0.6822567             -18.5652
       ...           ...                  ...                  ...
       155        2.0000           -0.3513100              -9.5596
       156        2.0000           -0.3438002              -9.3553
       157        1.6707           -0.2540594              -6.9133
       158        1.3293           -0.2527080              -6.8765
       159        1.0000           -0.2436020              -6.6287
       160        1.0000           -0.2382203              -6.4823
       161        1.0000           -0.2324741              -6.3259 (HOMO)
       162                         -0.0021694              -0.0590 (LUMO)
       163                          0.0256655               0.6984
       164                          0.0498633               1.3568
       165                          0.0580164               1.5787
       166                          0.0734911               1.9998
       ...                                ...                  ...
       243                          1.1687454              31.8032
      -------------------------------------------------------------
                  HL-Gap            0.2303047 Eh            6.2669 eV
             Fermi-level           -0.1853528 Eh           -5.0437 eV

 SCC (total)                   0 d,  0 h,  0 min,  0.177 sec
 SCC setup                      ...        0 min,  0.004 sec (  2.023%)
 Dispersion                     ...        0 min,  0.002 sec (  0.925%)
 classical contributions        ...        0 min,  0.001 sec (  0.288%)
 integral evaluation            ...        0 min,  0.007 sec (  3.903%)
 iterations                     ...        0 min,  0.121 sec ( 68.376%)
 molecular gradient             ...        0 min,  0.042 sec ( 23.896%)
 printout                       ...        0 min,  0.001 sec (  0.573%)

         :::::::::::::::::::::::::::::::::::::::::::::::::::::
         ::                     SUMMARY                     ::
         :::::::::::::::::::::::::::::::::::::::::::::::::::::
         :: total energy            -200.843288821423 Eh    ::
         :: total w/o Gsasa/hb      -200.614385934546 Eh    ::
         :: gradient norm              0.567824180660 Eh/a0 ::
         :: HOMO-LUMO gap              6.266910589187 eV    ::
         ::.................................................::
         :: SCC energy              -202.649741298922 Eh    ::
         :: -> isotropic ES            1.479817593882 Eh    ::
         :: -> anisotropic ES         -0.093870263140 Eh    ::
         :: -> anisotropic XC         -0.026195109979 Eh    ::
         :: -> dispersion             -0.048227702625 Eh    ::
         :: -> Gsolv                  -0.564637077398 Eh    ::
         ::    -> Gelec               -0.335734190521 Eh    ::
         ::    -> Gsasa                0.033225391885 Eh    ::
         ::    -> Ghb                 -0.263209038459 Eh    ::
         ::    -> Gshift               0.001080759698 Eh    ::
         :: repulsion energy           1.803601666064 Eh    ::
         :: add. restraining           0.000000000000 Eh    ::
         :: total charge               1.999999588046 e     ::
         :::::::::::::::::::::::::::::::::::::::::::::::::::::

      ----------------------------------------------------------- 
     |                   =====================                   |
     |                        A N C O P T                        |
     |                   =====================                   |
     |               Approximate Normal Coordinate               |
     |                Rational Function Optimizer                |
      ----------------------------------------------------------- 

          ...................................................
          :                      SETUP                      :
          :.................................................:
          :   optimization level           extreme          :
          :   max. optcycles                  2360          :
          :   ANC micro-cycles                  20          :
          :   degrees of freedom               348          :
          :.................................................:
          :   RF solver                   davidson          :
          :   write xtbopt.log                true          :
          :   linear?                        false          :
          :   energy convergence         0.5000000E-07 Eh   :
          :   grad. convergence          0.5000000E-04 Eh/α :
          :   maxmium RF displ.          1.0000000          :
          :   Hlow (freq-cutoff)         0.1000000E-01      :
          :   Hmax (freq-cutoff)         5.0000000          :
          :   S6 in model hess.         20.0000000          :
          ...................................................

generating ANC from model Hessian ...
Using Lindh-Hessian (1995)
 Shifting diagonal of input Hessian by    1.0485544178753669E-002
 Lowest  eigenvalues of input Hessian
    0.010000    0.010250    0.010269    0.010285    0.010313    0.010321
    0.010331    0.010350    0.010355    0.010367    0.010384    0.010406
    0.010410    0.010424    0.010426    0.010434    0.010445    0.010446
 Highest eigenvalues
    1.705046    1.705108    1.705271    1.706837    1.708880    1.734488


........................................................................
.............................. CYCLE    1 ..............................
........................................................................

 iter      E             dE          RMSdq      gap      omega  full diag
   1   -202.6497413 -0.202650E+03  0.111E-04    6.27       0.0  T
   2   -202.6497413  0.793250E-10  0.173E-04    6.27      53.3  T
   3   -202.6497413 -0.140147E-09  0.129E-05    6.27     713.1  T
     SCC iter.                  ...        0 min,  0.028 sec
     gradient                   ...        0 min,  0.045 sec
 * total energy  :  -200.8432888 Eh     change       -0.1254250E-09 Eh
   gradient norm :     0.5677868 Eh/α   predicted     0.0000000E+00 (-100.00%)
   displ. norm   :     0.5620873 α      lambda       -0.2632567E+00
   maximum displ.:     0.1776395 α      in ANC's #228, #252, #256, ...

........................................................................
.............................. CYCLE    2 ..............................
........................................................................

 iter      E             dE          RMSdq      gap      omega  full diag
   1   -202.4467056 -0.202447E+03  0.251E-01    6.31       0.0  T
   2   -202.4468632 -0.157634E-03  0.182E-01    6.31       1.0  T
   3   -202.4469006 -0.374191E-04  0.152E-01    6.31       1.0  T
   4   -202.4469742 -0.735690E-04  0.297E-02    6.32       1.0  T
   5   -202.4469765 -0.233575E-05  0.203E-02    6.32       1.0  T
   6   -202.4469783 -0.182112E-05  0.111E-02    6.32       1.0  T
   7   -202.4469790 -0.685506E-06  0.277E-03    6.32       3.3  T
   8   -202.4469791 -0.437181E-07  0.823E-04    6.32      11.2  T
   9   -202.4469791 -0.424293E-08  0.218E-04    6.32      42.3  T
     SCC iter.                  ...        0 min,  0.074 sec
     gradient                   ...        0 min,  0.043 sec
 * total energy  :  -201.0027529 Eh     change       -0.1594641E+00 Eh
   gradient norm :     0.2028368 Eh/α   predicted    -0.1732412E+00 (   8.64%)
   displ. norm   :     0.6263124 α      lambda       -0.7560890E-01
   maximum displ.:     0.2015901 α      in ANC's #226, #228, #180, ...

........................................................................
.............................. CYCLE    3 ..............................
........................................................................

 iter      E             dE          RMSdq      gap      omega  full diag
   1   -202.3354093 -0.202335E+03  0.242E-01    6.43       0.0  T
   2   -202.3355062 -0.969689E-04  0.246E-01    6.43       1.0  T
   3   -202.3356681 -0.161904E-03  0.105E-01    6.43       1.0  T
   4   -202.3357054 -0.372163E-04  0.439E-02    6.44       1.0  T
   5   -202.3357087 -0.335171E-05  0.261E-02    6.44       1.0  T
   6   -202.3357118 -0.314681E-05  0.983E-03    6.44       1.0  T
   7   -202.3357126 -0.719974E-06  0.239E-03    6.44       3.9  T
   8   -202.3357126 -0.266431E-07  0.105E-03    6.44       8.8  T
   9   -202.3357126 -0.766687E-08  0.211E-04    6.44      43.5  T
  10   -202.3357126 -0.512443E-09  0.906E-05    6.44     101.6  T
     SCC iter.                  ...        0 min,  0.084 sec
     gradient                   ...        0 min,  0.049 sec
 * total energy  :  -201.0514582 Eh     change       -0.4870530E-01 Eh
   gradient norm :     0.0496582 Eh/α   predicted    -0.5263411E-01 (   8.07%)
   displ. norm   :     0.6814498 α      lambda       -0.2724756E-01
   maximum displ.:     0.1954986 α      in ANC's #180, #226, #183, ...

........................................................................
.............................. CYCLE    4 ..............................
........................................................................

 iter      E             dE          RMSdq      gap      omega  full diag
   1   -202.3198208 -0.202320E+03  0.217E-01    6.53       0.0  T
   2   -202.3197982  0.225398E-04  0.257E-01    6.54       1.0  T
   3   -202.3199858 -0.187548E-03  0.763E-02    6.54       1.0  T
   4   -202.3199975 -0.117439E-04  0.433E-02    6.54       1.0  T
   5   -202.3200000 -0.243158E-05  0.246E-02    6.54       1.0  T
   6   -202.3200029 -0.288496E-05  0.493E-03    6.54       1.9  T
   7   -202.3200031 -0.266319E-06  0.148E-03    6.54       6.2  T
   8   -202.3200031 -0.129898E-07  0.701E-04    6.54      13.1  T
   9   -202.3200031 -0.420815E-08  0.286E-04    6.54      32.2  T
     SCC iter.                  ...        0 min,  0.076 sec
     gradient                   ...        0 min,  0.045 sec
 * total energy  :  -201.0726063 Eh     change       -0.2114806E-01 Eh
   gradient norm :     0.0592057 Eh/α   predicted    -0.1995051E-01 (  -5.66%)
   displ. norm   :     0.7245389 α      lambda       -0.1990657E-01
   maximum displ.:     0.1989346 α      in ANC's #226, #180, #166, ...

........................................................................
.............................. CYCLE    5 ..............................
........................................................................

 iter      E             dE          RMSdq      gap      omega  full diag
   1   -202.3374990 -0.202337E+03  0.156E-01    6.65       0.0  T
   2   -202.3374953  0.373460E-05  0.181E-01    6.66       1.0  T
   3   -202.3375880 -0.926837E-04  0.623E-02    6.67       1.0  T
   4   -202.3375970 -0.902140E-05  0.309E-02    6.67       1.0  T
   5   -202.3375990 -0.201934E-05  0.149E-02    6.68       1.0  T
   6   -202.3376001 -0.109901E-05  0.409E-03    6.68       2.2  T
   7   -202.3376003 -0.173752E-06  0.127E-03    6.68       7.2  T
   8   -202.3376003 -0.127768E-07  0.578E-04    6.68      15.9  T
   9   -202.3376003 -0.249355E-08  0.140E-04    6.68      65.7  T
     SCC iter.                  ...        0 min,  0.075 sec
     gradient                   ...        0 min,  0.047 sec
 * total energy  :  -201.0870662 Eh     change       -0.1445993E-01 Eh
   gradient norm :     0.0529152 Eh/α   predicted    -0.1517838E-01 (   4.97%)
   displ. norm   :     0.7735059 α      lambda       -0.1658625E-01
   maximum displ.:     0.2445525 α      in ANC's #1, #226, #138, ...

........................................................................
.............................. CYCLE    6 ..............................
........................................................................

 iter      E             dE          RMSdq      gap      omega  full diag
   1   -202.3635785 -0.202364E+03  0.146E-01    6.83       0.0  T
   2   -202.3636380 -0.595257E-04  0.931E-02    6.85       1.0  T
   3   -202.3636281  0.984709E-05  0.983E-02    6.85       1.0  T
   4   -202.3636616 -0.334665E-04  0.179E-02    6.86       1.0  T
   5   -202.3636628 -0.119772E-05  0.592E-03    6.86       1.6  T
   6   -202.3636632 -0.347659E-06  0.233E-03    6.86       3.9  T
   7   -202.3636632 -0.135933E-07  0.169E-03    6.86       5.4  T
   8   -202.3636632 -0.138562E-07  0.447E-04    6.86      20.6  T
   9   -202.3636632 -0.156291E-08  0.121E-04    6.86      76.0  T
     SCC iter.                  ...        0 min,  0.078 sec
     gradient                   ...        0 min,  0.049 sec
 * total energy  :  -201.0967311 Eh     change       -0.9664890E-02 Eh
   gradient norm :     0.0718900 Eh/α   predicted    -0.1325499E-01 (  37.15%)
   displ. norm   :     0.6496163 α      lambda       -0.1594783E-01
   maximum displ.:     0.1394250 α      in ANC's #226, #180, #183, ...

........................................................................
.............................. CYCLE    7 ..............................
........................................................................

 iter      E             dE          RMSdq      gap      omega  full diag
   1   -202.3969541 -0.202397E+03  0.139E-01    6.94       0.0  T
   2   -202.3969940 -0.398546E-04  0.100E-01    6.95       1.0  T
   3   -202.3970071 -0.130969E-04  0.778E-02    6.95       1.0  T
   4   -202.3970234 -0.163520E-04  0.226E-02    6.95       1.0  T
   5   -202.3970246 -0.114104E-05  0.114E-02    6.95       1.0  T
   6   -202.3970251 -0.506471E-06  0.592E-03    6.95       1.6  T
   7   -202.3970253 -0.191501E-06  0.131E-03    6.95       7.0  T
   8   -202.3970253 -0.100748E-07  0.346E-04    6.95      26.6  T
   9   -202.3970253 -0.827839E-09  0.132E-04    6.95      69.9  T
     SCC iter.                  ...        0 min,  0.071 sec
     gradient                   ...        0 min,  0.045 sec
 * total energy  :  -201.1046672 Eh     change       -0.7936084E-02 Eh
   gradient norm :     0.0536784 Eh/α   predicted    -0.1133891E-01 (  42.88%)
   displ. norm   :     0.6606771 α      lambda       -0.1232190E-01
   maximum displ.:     0.1379592 α      in ANC's #156, #166, #146, ...

........................................................................
.............................. CYCLE    8 ..............................
........................................................................

 iter      E             dE          RMSdq      gap      omega  full diag
   1   -202.3947053 -0.202395E+03  0.170E-01    6.96       0.0  T
   2   -202.3946866  0.187021E-04  0.186E-01    6.97       1.0  T
   3   -202.3947841 -0.975542E-04  0.751E-02    6.97       1.0  T
   4   -202.3948002 -0.161284E-04  0.184E-02    6.97       1.0  T
   5   -202.3948018 -0.151673E-05  0.784E-03    6.97       1.2  T
   6   -202.3948020 -0.220968E-06  0.607E-03    6.97       1.5  T
   7   -202.3948021 -0.148146E-06  0.145E-03    6.97       6.4  T
   8   -202.3948021 -0.131552E-07  0.567E-04    6.97      16.2  T
   9   -202.3948021 -0.306508E-08  0.159E-04    6.97      57.7  T
     SCC iter.                  ...        0 min,  0.076 sec
     gradient                   ...        0 min,  0.045 sec
 * total energy  :  -201.1095723 Eh     change       -0.4905166E-02 Eh
   gradient norm :     0.0788955 Eh/α   predicted    -0.8850170E-02 (  80.43%)
   displ. norm   :     0.5888219 α      lambda       -0.1178392E-01
   maximum displ.:     0.1238288 α      in ANC's #74, #151, #56, ...

........................................................................
.............................. CYCLE    9 ..............................
........................................................................

 iter      E             dE          RMSdq      gap      omega  full diag
   1   -202.3907030 -0.202391E+03  0.113E-01    6.93       0.0  T
   2   -202.3907306 -0.275694E-04  0.703E-02    6.94       1.0  T
   3   -202.3907307 -0.124891E-06  0.646E-02    6.94       1.0  T
   4   -202.3907433 -0.126251E-04  0.103E-02    6.94       1.0  T
   5   -202.3907438 -0.466659E-06  0.519E-03    6.94       1.8  T
   6   -202.3907439 -0.754164E-07  0.529E-03    6.94       1.7  T
   7   -202.3907440 -0.120366E-06  0.108E-03    6.94       8.6  T
   8   -202.3907440 -0.704907E-08  0.486E-04    6.94      18.9  T
   9   -202.3907440 -0.201234E-08  0.898E-05    6.94     102.5  T
     SCC iter.                  ...        0 min,  0.074 sec
     gradient                   ...        0 min,  0.044 sec
 * total energy  :  -201.1163821 Eh     change       -0.6809760E-02 Eh
   gradient norm :     0.0569111 Eh/α   predicted    -0.7934775E-02 (  16.52%)
   displ. norm   :     0.6605802 α      lambda       -0.1328344E-01
   maximum displ.:     0.1495922 α      in ANC's #170, #1, #74, ...

........................................................................
.............................. CYCLE   10 ..............................
........................................................................

 iter      E             dE          RMSdq      gap      omega  full diag
   1   -202.3797235 -0.202380E+03  0.196E-01    6.90       0.0  T
   2   -202.3797026  0.208410E-04  0.217E-01    6.91       1.0  T
   3   -202.3798337 -0.131056E-03  0.857E-02    6.91       1.0  T
   4   -202.3798551 -0.213559E-04  0.274E-02    6.91       1.0  T
   5   -202.3798579 -0.285113E-05  0.152E-02    6.91       1.0  T
   6   -202.3798588 -0.901120E-06  0.609E-03    6.91       1.5  T
   7   -202.3798590 -0.206766E-06  0.165E-03    6.91       5.6  T
   8   -202.3798590 -0.180320E-07  0.619E-04    6.91      14.9  T
   9   -202.3798590 -0.331954E-08  0.184E-04    6.91      50.0  T
     SCC iter.                  ...        0 min,  0.079 sec
     gradient                   ...        0 min,  0.048 sec
 * total energy  :  -201.1176006 Eh     change       -0.1218538E-02 Eh
   gradient norm :     0.0964830 Eh/α   predicted    -0.9539943E-02 ( 682.90%)
   displ. norm   :     0.4393453 α      lambda       -0.1498259E-01
   maximum displ.:     0.1087316 α      in ANC's #74, #156, #63, ...

........................................................................
.............................. CYCLE   11 ..............................
........................................................................

 iter      E             dE          RMSdq      gap      omega  full diag
   1   -202.4030840 -0.202403E+03  0.128E-01    6.97       0.0  T
   2   -202.4030931 -0.916870E-05  0.122E-01    6.96       1.0  T
   3   -202.4031284 -0.353021E-04  0.651E-02    6.97       1.0  T
   4   -202.4031427 -0.142984E-04  0.174E-02    6.97       1.0  T
   5   -202.4031441 -0.140835E-05  0.614E-03    6.97       1.5  T
   6   -202.4031443 -0.139790E-06  0.576E-03    6.97       1.6  T
   7   -202.4031444 -0.132801E-06  0.128E-03    6.97       7.2  T
   8   -202.4031444 -0.990437E-08  0.569E-04    6.97      16.2  T
   9   -202.4031444 -0.342976E-08  0.105E-04    6.97      87.4  T
     SCC iter.                  ...        0 min,  0.075 sec
     gradient                   ...        0 min,  0.047 sec
 * total energy  :  -201.1253738 Eh     change       -0.7773222E-02 Eh
   gradient norm :     0.0548843 Eh/α   predicted    -0.8937306E-02 (  14.98%)
   displ. norm   :     0.6406491 α      lambda       -0.1379713E-01
   maximum displ.:     0.1383869 α      in ANC's #74, #186, #183, ...

........................................................................
.............................. CYCLE   12 ..............................
........................................................................

 iter      E             dE          RMSdq      gap      omega  full diag
   1   -202.4112218 -0.202411E+03  0.201E-01    6.97       0.0  T
   2   -202.4112502 -0.283702E-04  0.190E-01    6.97       1.0  T
   3   -202.4113345 -0.843105E-04  0.106E-01    6.97       1.0  T
   4   -202.4113718 -0.373049E-04  0.191E-02    6.98       1.0  T
   5   -202.4113735 -0.171689E-05  0.117E-02    6.98       1.0  T
   6   -202.4113741 -0.578199E-06  0.827E-03    6.98       1.1  T
   7   -202.4113744 -0.282373E-06  0.199E-03    6.98       4.6  T
   8   -202.4113744 -0.338871E-07  0.517E-04    6.98      17.8  T
   9   -202.4113744 -0.305991E-08  0.212E-04    6.98      43.4  T
     SCC iter.                  ...        0 min,  0.075 sec
     gradient                   ...        0 min,  0.046 sec
 * total energy  :  -201.1206600 Eh     change        0.4713833E-02 Eh
   gradient norm :     0.1400027 Eh/α   predicted    -0.9729950E-02 (-306.41%)
   displ. norm   :     0.3834076 α      lambda       -0.2062861E-01
   maximum displ.:     0.1165497 α      in ANC's #74, #186, #183, ...

........................................................................
.............................. CYCLE   13 ..............................
........................................................................

 iter      E             dE          RMSdq      gap      omega  full diag
   1   -202.4065286 -0.202407E+03  0.141E-01    6.98       0.0  T
   2   -202.4065490 -0.203649E-04  0.128E-01    6.98       1.0  T
   3   -202.4065850 -0.359588E-04  0.742E-02    6.98       1.0  T
   4   -202.4066037 -0.186943E-04  0.218E-02    6.98       1.0  T
   5   -202.4066059 -0.220198E-05  0.879E-03    6.98       1.0  T
   6   -202.4066062 -0.311332E-06  0.644E-03    6.98       1.4  T
   7   -202.4066064 -0.226268E-06  0.144E-03    6.98       6.4  T
   8   -202.4066064 -0.177911E-07  0.618E-04    6.98      14.9  T
   9   -202.4066064 -0.461270E-08  0.139E-04    6.98      66.3  T
     SCC iter.                  ...        0 min,  0.078 sec
     gradient                   ...        0 min,  0.049 sec
 * total energy  :  -201.1318296 Eh     change       -0.1116962E-01 Eh
   gradient norm :     0.0491776 Eh/α   predicted    -0.1183054E-01 (   5.92%)
   displ. norm   :     0.6303328 α      lambda       -0.1301978E-01
   maximum displ.:     0.1582077 α      in ANC's #141, #166, #1, ...

........................................................................
.............................. CYCLE   14 ..............................
........................................................................

 iter      E             dE          RMSdq      gap      omega  full diag
   1   -202.3830161 -0.202383E+03  0.194E-01    6.91       0.0  T
   2   -202.3831138 -0.977045E-04  0.137E-01    6.91       1.0  T
   3   -202.3831212 -0.737087E-05  0.134E-01    6.91       1.0  T
   4   -202.3831799 -0.587165E-04  0.208E-02    6.91       1.0  T
   5   -202.3831818 -0.185744E-05  0.154E-02    6.91       1.0  T
   6   -202.3831830 -0.117579E-05  0.716E-03    6.91       1.3  T
   7   -202.3831832 -0.216016E-06  0.236E-03    6.91       3.9  T
   8   -202.3831832 -0.410166E-07  0.577E-04    6.91      16.0  T
   9   -202.3831832 -0.288210E-08  0.243E-04    6.91      37.9  T
     SCC iter.                  ...        0 min,  0.076 sec
     gradient                   ...        0 min,  0.050 sec
 * total energy  :  -201.1236621 Eh     change        0.8167530E-02 Eh
   gradient norm :     0.1494985 Eh/α   predicted    -0.9096398E-02 (-211.37%)
   displ. norm   :     0.3909648 α      lambda       -0.2666273E-01
   maximum displ.:     0.1528826 α      in ANC's #141, #74, #152, ...

........................................................................
.............................. CYCLE   15 ..............................
........................................................................

 iter      E             dE          RMSdq      gap      omega  full diag
   1   -202.4226178 -0.202423E+03  0.144E-01    6.96       0.0  T
   2   -202.4226825 -0.647127E-04  0.887E-02    6.96       1.0  T
   3   -202.4226899 -0.744089E-05  0.882E-02    6.97       1.0  T
   4   -202.4227140 -0.240825E-04  0.143E-02    6.97       1.0  T
   5   -202.4227151 -0.106292E-05  0.106E-02    6.97       1.0  T
   6   -202.4227156 -0.561366E-06  0.552E-03    6.97       1.7  T
   7   -202.4227158 -0.131688E-06  0.171E-03    6.97       5.4  T
   8   -202.4227158 -0.270470E-07  0.441E-04    6.97      20.9  T
   9   -202.4227158 -0.200737E-08  0.159E-04    6.97      58.0  T
     SCC iter.                  ...        0 min,  0.077 sec
     gradient                   ...        0 min,  0.045 sec
 * total energy  :  -201.1361066 Eh     change       -0.1244450E-01 Eh
   gradient norm :     0.0610533 Eh/α   predicted    -0.1536912E-01 (  23.50%)
   displ. norm   :     0.6701761 α      lambda       -0.1983272E-01
   maximum displ.:     0.1672092 α      in ANC's #188, #184, #122, ...

........................................................................
.............................. CYCLE   16 ..............................
........................................................................

 iter      E             dE          RMSdq      gap      omega  full diag
   1   -202.3799390 -0.202380E+03  0.240E-01    6.95       0.0  T
   2   -202.3800974 -0.158420E-03  0.155E-01    6.95       1.0  T
   3   -202.3800670  0.304767E-04  0.181E-01    6.95       1.0  T
   4   -202.3801881 -0.121161E-03  0.196E-02    6.95       1.0  T
   5   -202.3801911 -0.299258E-05  0.962E-03    6.96       1.0  T
   6   -202.3801917 -0.574734E-06  0.343E-03    6.96       2.7  T
   7   -202.3801918 -0.647144E-07  0.207E-03    6.96       4.4  T
   8   -202.3801918 -0.190901E-07  0.700E-04    6.96      13.2  T
   9   -202.3801918 -0.280895E-08  0.229E-04    6.96      40.2  T
     SCC iter.                  ...        0 min,  0.077 sec
     gradient                   ...        0 min,  0.045 sec
 * total energy  :  -201.1186605 Eh     change        0.1744607E-01 Eh
   gradient norm :     0.1962691 Eh/α   predicted    -0.1437014E-01 (-182.37%)
   displ. norm   :     0.3619712 α      lambda       -0.3885304E-01
   maximum displ.:     0.0922546 α      in ANC's #209, #200, #218, ...

........................................................................
.............................. CYCLE   17 ..............................
........................................................................

 iter      E             dE          RMSdq      gap      omega  full diag
   1   -202.4107484 -0.202411E+03  0.150E-01    6.98       0.0  T
   2   -202.4108173 -0.689017E-04  0.938E-02    6.97       1.0  T
   3   -202.4108167  0.570830E-06  0.103E-01    6.97       1.0  T
   4   -202.4108531 -0.364196E-04  0.161E-02    6.97       1.0  T
   5   -202.4108547 -0.152711E-05  0.774E-03    6.97       1.2  T
   6   -202.4108550 -0.372316E-06  0.589E-03    6.97       1.6  T
   7   -202.4108552 -0.131127E-06  0.183E-03    6.97       5.0  T
   8   -202.4108552 -0.226894E-07  0.653E-04    6.97      14.1  T
   9   -202.4108552 -0.359398E-08  0.150E-04    6.97      61.2  T
     SCC iter.                  ...        0 min,  0.079 sec
     gradient                   ...        0 min,  0.047 sec
 * total energy  :  -201.1399393 Eh     change       -0.2127880E-01 Eh
   gradient norm :     0.0539188 Eh/α   predicted    -0.2197183E-01 (   3.26%)
   displ. norm   :     0.6210879 α      lambda       -0.1472651E-01
   maximum displ.:     0.1701733 α      in ANC's #184, #122, #188, ...

........................................................................
.............................. CYCLE   18 ..............................
........................................................................

 iter      E             dE          RMSdq      gap      omega  full diag
   1   -202.4125980 -0.202413E+03  0.203E-01    6.95       0.0  T
   2   -202.4127107 -0.112696E-03  0.135E-01    6.95       1.0  T
   3   -202.4127236 -0.129569E-04  0.121E-01    6.95       1.0  T
   4   -202.4127749 -0.512640E-04  0.299E-02    6.94       1.0  T
   5   -202.4127791 -0.423388E-05  0.148E-02    6.94       1.0  T
   6   -202.4127798 -0.691455E-06  0.108E-02    6.94       1.0  T
   7   -202.4127804 -0.519579E-06  0.240E-03    6.94       3.8  T
   8   -202.4127804 -0.449985E-07  0.545E-04    6.94      16.9  T
   9   -202.4127804 -0.311323E-08  0.245E-04    6.94      37.6  T
     SCC iter.                  ...        0 min,  0.077 sec
     gradient                   ...        0 min,  0.046 sec
 * total energy  :  -201.1310762 Eh     change        0.8863076E-02 Eh
   gradient norm :     0.1446048 Eh/α   predicted    -0.1020363E-01 (-215.13%)
   displ. norm   :     0.3847911 α      lambda       -0.2686602E-01
   maximum displ.:     0.1159456 α      in ANC's #155, #152, #141, ...

........................................................................
.............................. CYCLE   19 ..............................
........................................................................

 iter      E             dE          RMSdq      gap      omega  full diag
   1   -202.4280354 -0.202428E+03  0.151E-01    6.97       0.0  T
   2   -202.4280902 -0.548253E-04  0.103E-01    6.97       1.0  T
   3   -202.4281008 -0.106319E-04  0.867E-02    6.97       1.0  T
   4   -202.4281284 -0.275167E-04  0.260E-02    6.97       1.0  T
   5   -202.4281312 -0.282463E-05  0.153E-02    6.97       1.0  T
   6   -202.4281320 -0.811835E-06  0.664E-03    6.97       1.4  T
   7   -202.4281323 -0.309219E-06  0.174E-03    6.97       5.3  T
   8   -202.4281323 -0.263435E-07  0.708E-04    6.97      13.0  T
   9   -202.4281323 -0.516374E-08  0.196E-04    6.97      47.0  T
     SCC iter.                  ...        0 min,  0.077 sec
     gradient                   ...        0 min,  0.048 sec
 * total energy  :  -201.1436151 Eh     change       -0.1253888E-01 Eh
   gradient norm :     0.0647582 Eh/α   predicted    -0.1542195E-01 (  22.99%)
   displ. norm   :     0.6903995 α      lambda       -0.2089964E-01
   maximum displ.:     0.1999308 α      in ANC's #141, #152, #184, ...

........................................................................
.............................. CYCLE   20 ..............................
........................................................................

 iter      E             dE          RMSdq      gap      omega  full diag
   1   -202.3559084 -0.202356E+03  0.253E-01    6.83       0.0  T
   2   -202.3561069 -0.198488E-03  0.153E-01    6.84       1.0  T
   3   -202.3561602 -0.532945E-04  0.119E-01    6.85       1.0  T
   4   -202.3562039 -0.437249E-04  0.347E-02    6.85       1.0  T
   5   -202.3562088 -0.488340E-05  0.157E-02    6.85       1.0  T
   6   -202.3562098 -0.101984E-05  0.144E-02    6.85       1.0  T
   7   -202.3562108 -0.982842E-06  0.336E-03    6.85       2.7  T
   8   -202.3562109 -0.104160E-06  0.111E-03    6.85       8.3  T
   9   -202.3562109 -0.122452E-07  0.363E-04    6.85      25.3  T
  10   -202.3562109 -0.179085E-08  0.136E-04    6.85      67.5  T
     SCC iter.                  ...        0 min,  0.086 sec
     gradient                   ...        0 min,  0.046 sec
 * total energy  :  -201.1194305 Eh     change        0.2418464E-01 Eh
   gradient norm :     0.2031142 Eh/α   predicted    -0.1543074E-01 (-163.80%)
   displ. norm   :     0.3709600 α      lambda       -0.4689195E-01
   maximum displ.:     0.1134184 α      in ANC's #141, #152, #155, ...
 * RMSD in coord.:     0.6094592 α      energy gain  -0.2761417E+00 Eh

generating ANC from model Hessian ...
Using Lindh-Hessian (1995)
 Shifting diagonal of input Hessian by    1.0344652366355974E-002
 Lowest  eigenvalues of input Hessian
    0.010000    0.010203    0.010215    0.010243    0.010257    0.010269
    0.010276    0.010281    0.010291    0.010301    0.010307    0.010308
    0.010314    0.010317    0.010319    0.010320    0.010323    0.010327
 Highest eigenvalues
    1.444253    1.445103    1.447984    1.448481    1.463276    1.468305


........................................................................
.............................. CYCLE   21 ..............................
........................................................................

 iter      E             dE          RMSdq      gap      omega  full diag
   1   -202.4243051 -0.202424E+03  0.167E-01    6.99       0.0  T
   2   -202.4243819 -0.768367E-04  0.112E-01    6.99       1.0  T
   3   -202.4243976 -0.156750E-04  0.958E-02    6.99       1.0  T
   4   -202.4244321 -0.345428E-04  0.234E-02    6.98       1.0  T
   5   -202.4244350 -0.283378E-05  0.107E-02    6.98       1.0  T
   6   -202.4244353 -0.365307E-06  0.102E-02    6.98       1.0  T
   7   -202.4244358 -0.477497E-06  0.198E-03    6.98       4.6  T
   8   -202.4244358 -0.353985E-07  0.742E-04    6.98      12.4  T
   9   -202.4244358 -0.499338E-08  0.203E-04    6.98      45.2  T
     SCC iter.                  ...        0 min,  0.073 sec
     gradient                   ...        0 min,  0.047 sec
 * total energy  :  -201.1470541 Eh     change       -0.2762365E-01 Eh
   gradient norm :     0.0447963 Eh/α   predicted     0.0000000E+00 (-100.00%)
   displ. norm   :     0.5561749 α      lambda       -0.8249503E-02
   maximum displ.:     0.1747735 α      in ANC's #123, #138, #68, ...

........................................................................
.............................. CYCLE   22 ..............................
........................................................................

 iter      E             dE          RMSdq      gap      omega  full diag
   1   -202.4221893 -0.202422E+03  0.145E-01    7.01       0.0  T
   2   -202.4222114 -0.220874E-04  0.911E-02    7.01       1.0  T
   3   -202.4222038  0.756044E-05  0.769E-02    7.01       1.0  T
   4   -202.4222233 -0.195288E-04  0.586E-03    7.01       1.6  T
   5   -202.4222236 -0.264352E-06  0.287E-03    7.01       3.2  T
   6   -202.4222236 -0.500622E-07  0.992E-04    7.01       9.3  T
   7   -202.4222237 -0.286832E-08  0.106E-03    7.01       8.7  T
   8   -202.4222237 -0.502698E-08  0.186E-04    7.01      49.5  T
     SCC iter.                  ...        0 min,  0.074 sec
     gradient                   ...        0 min,  0.044 sec
 * total energy  :  -201.1533373 Eh     change       -0.6283155E-02 Eh
   gradient norm :     0.0368086 Eh/α   predicted    -0.5401194E-02 ( -14.04%)
   displ. norm   :     0.6801669 α      lambda       -0.7328873E-02
   maximum displ.:     0.1654902 α      in ANC's #68, #123, #122, ...

........................................................................
.............................. CYCLE   23 ..............................
........................................................................

 iter      E             dE          RMSdq      gap      omega  full diag
   1   -202.4120470 -0.202412E+03  0.140E-01    7.01       0.0  T
   2   -202.4120712 -0.242627E-04  0.855E-02    7.01       1.0  T
   3   -202.4120820 -0.107444E-04  0.172E-02    7.01       1.0  T
   4   -202.4120828 -0.844313E-06  0.956E-03    7.01       1.0  T
   5   -202.4120832 -0.406155E-06  0.386E-03    7.01       2.4  T
   6   -202.4120833 -0.894221E-07  0.116E-03    7.01       8.0  T
   7   -202.4120833 -0.862028E-08  0.856E-04    7.01      10.7  T
   8   -202.4120833 -0.354095E-08  0.424E-04    7.01      21.7  T
     SCC iter.                  ...        0 min,  0.072 sec
     gradient                   ...        0 min,  0.047 sec
 * total energy  :  -201.1570497 Eh     change       -0.3712385E-02 Eh
   gradient norm :     0.0591976 Eh/α   predicted    -0.5359704E-02 (  44.37%)
   displ. norm   :     0.6153374 α      lambda       -0.8035973E-02
   maximum displ.:     0.1481074 α      in ANC's #110, #123, #66, ...

........................................................................
.............................. CYCLE   24 ..............................
........................................................................

 iter      E             dE          RMSdq      gap      omega  full diag
   1   -202.4201323 -0.202420E+03  0.132E-01    6.99       0.0  T
   2   -202.4201571 -0.248488E-04  0.877E-02    7.00       1.0  T
   3   -202.4201523  0.482039E-05  0.889E-02    7.00       1.0  T
   4   -202.4201742 -0.219313E-04  0.114E-02    7.00       1.0  T
   5   -202.4201746 -0.400908E-06  0.808E-03    7.00       1.1  T
   6   -202.4201749 -0.299219E-06  0.394E-03    7.00       2.3  T
   7   -202.4201750 -0.808380E-07  0.101E-03    7.00       9.1  T
   8   -202.4201750 -0.895784E-08  0.218E-04    7.00      42.3  T
   9   -202.4201750 -0.375621E-09  0.915E-05    7.00     100.6  T
     SCC iter.                  ...        0 min,  0.077 sec
     gradient                   ...        0 min,  0.046 sec
 * total energy  :  -201.1602663 Eh     change       -0.3216655E-02 Eh
   gradient norm :     0.0573220 Eh/α   predicted    -0.5539358E-02 (  72.21%)
   displ. norm   :     0.5194511 α      lambda       -0.7397260E-02
   maximum displ.:     0.1362478 α      in ANC's #123, #135, #66, ...

........................................................................
.............................. CYCLE   25 ..............................
........................................................................

 iter      E             dE          RMSdq      gap      omega  full diag
   1   -202.4281172 -0.202428E+03  0.126E-01    7.00       0.0  T
   2   -202.4281362 -0.190079E-04  0.978E-02    7.01       1.0  T
   3   -202.4281464 -0.101800E-04  0.764E-02    7.01       1.0  T
   4   -202.4281611 -0.146984E-04  0.175E-02    7.01       1.0  T
   5   -202.4281620 -0.897941E-06  0.915E-03    7.01       1.0  T
   6   -202.4281624 -0.431900E-06  0.367E-03    7.01       2.5  T
   7   -202.4281625 -0.902021E-07  0.111E-03    7.01       8.3  T
   8   -202.4281625 -0.121355E-07  0.442E-04    7.01      20.8  T
   9   -202.4281625 -0.198548E-08  0.128E-04    7.01      71.8  T
     SCC iter.                  ...        0 min,  0.081 sec
     gradient                   ...        0 min,  0.048 sec
 * total energy  :  -201.1637767 Eh     change       -0.3510317E-02 Eh
   gradient norm :     0.0495588 Eh/α   predicted    -0.4696631E-02 (  33.80%)
   displ. norm   :     0.5026573 α      lambda       -0.6810627E-02
   maximum displ.:     0.1341997 α      in ANC's #68, #138, #66, ...

........................................................................
.............................. CYCLE   26 ..............................
........................................................................

 iter      E             dE          RMSdq      gap      omega  full diag
   1   -202.4406439 -0.202441E+03  0.102E-01    7.02       0.0  T
   2   -202.4406648 -0.208965E-04  0.660E-02    7.03       1.0  T
   3   -202.4406618  0.299108E-05  0.675E-02    7.03       1.0  T
   4   -202.4406770 -0.152058E-04  0.794E-03    7.03       1.2  T
   5   -202.4406774 -0.441152E-06  0.367E-03    7.03       2.5  T
   6   -202.4406775 -0.126578E-06  0.136E-03    7.03       6.7  T
   7   -202.4406776 -0.792119E-08  0.130E-03    7.03       7.1  T
   8   -202.4406776 -0.922779E-08  0.414E-04    7.03      22.3  T
   9   -202.4406776 -0.126775E-08  0.115E-04    7.03      80.2  T
     SCC iter.                  ...        0 min,  0.080 sec
     gradient                   ...        0 min,  0.050 sec
 * total energy  :  -201.1665246 Eh     change       -0.2747969E-02 Eh
   gradient norm :     0.0477379 Eh/α   predicted    -0.4265716E-02 (  55.23%)
   displ. norm   :     0.5944541 α      lambda       -0.6023077E-02
   maximum displ.:     0.1368269 α      in ANC's #66, #124, #70, ...

........................................................................
.............................. CYCLE   27 ..............................
........................................................................

 iter      E             dE          RMSdq      gap      omega  full diag
   1   -202.4175394 -0.202418E+03  0.109E-01    7.01       0.0  T
   2   -202.4175604 -0.210678E-04  0.695E-02    7.01       1.0  T
   3   -202.4175529  0.756959E-05  0.754E-02    7.01       1.0  T
   4   -202.4175719 -0.190058E-04  0.913E-03    7.01       1.0  T
   5   -202.4175723 -0.458477E-06  0.405E-03    7.01       2.3  T
   6   -202.4175725 -0.112895E-06  0.327E-03    7.01       2.8  T
   7   -202.4175725 -0.437405E-07  0.113E-03    7.01       8.1  T
   8   -202.4175725 -0.122662E-07  0.384E-04    7.01      24.0  T
   9   -202.4175725 -0.166182E-08  0.119E-04    7.01      77.1  T
     SCC iter.                  ...        0 min,  0.073 sec
     gradient                   ...        0 min,  0.049 sec
 * total energy  :  -201.1697339 Eh     change       -0.3209243E-02 Eh
   gradient norm :     0.0532464 Eh/α   predicted    -0.4075748E-02 (  27.00%)
   displ. norm   :     0.5193436 α      lambda       -0.6498268E-02
   maximum displ.:     0.1573140 α      in ANC's #123, #110, #102, ...

........................................................................
.............................. CYCLE   28 ..............................
........................................................................

 iter      E             dE          RMSdq      gap      omega  full diag
   1   -202.4302615 -0.202430E+03  0.118E-01    7.02       0.0  T
   2   -202.4302830 -0.214772E-04  0.896E-02    7.02       1.0  T
   3   -202.4302914 -0.842216E-05  0.722E-02    7.01       1.0  T
   4   -202.4303063 -0.149348E-04  0.156E-02    7.01       1.0  T
   5   -202.4303071 -0.770557E-06  0.979E-03    7.01       1.0  T
   6   -202.4303075 -0.467154E-06  0.379E-03    7.01       2.4  T
   7   -202.4303077 -0.111319E-06  0.113E-03    7.01       8.2  T
   8   -202.4303077 -0.127495E-07  0.522E-04    7.01      17.6  T
   9   -202.4303077 -0.319412E-08  0.140E-04    7.01      65.9  T
     SCC iter.                  ...        0 min,  0.077 sec
     gradient                   ...        0 min,  0.050 sec
 * total energy  :  -201.1701147 Eh     change       -0.3808234E-03 Eh
   gradient norm :     0.0693289 Eh/α   predicted    -0.4125488E-02 ( 983.31%)
   displ. norm   :     0.4825037 α      lambda       -0.9626437E-02
   maximum displ.:     0.2555861 α      in ANC's #68, #123, #69, ...

........................................................................
.............................. CYCLE   29 ..............................
........................................................................

 iter      E             dE          RMSdq      gap      omega  full diag
   1   -202.4657990 -0.202466E+03  0.152E-01    7.04       0.0  T
   2   -202.4658520 -0.530024E-04  0.950E-02    7.04       1.0  T
   3   -202.4658430  0.897048E-05  0.104E-01    7.04       1.0  T
   4   -202.4658794 -0.363476E-04  0.107E-02    7.04       1.0  T
   5   -202.4658802 -0.837276E-06  0.713E-03    7.04       1.3  T
   6   -202.4658804 -0.190782E-06  0.273E-03    7.04       3.4  T
   7   -202.4658804 -0.306520E-07  0.112E-03    7.04       8.2  T
   8   -202.4658804 -0.101138E-07  0.214E-04    7.04      43.1  T
   9   -202.4658804 -0.512586E-09  0.967E-05    7.04      95.2  T
     SCC iter.                  ...        0 min,  0.073 sec
     gradient                   ...        0 min,  0.047 sec
 * total energy  :  -201.1688531 Eh     change        0.1261560E-02 Eh
   gradient norm :     0.0945007 Eh/α   predicted    -0.5933788E-02 (-570.35%)
   displ. norm   :     0.3983050 α      lambda       -0.1097086E-01
   maximum displ.:     0.1804691 α      in ANC's #68, #123, #118, ...

........................................................................
.............................. CYCLE   30 ..............................
........................................................................

 iter      E             dE          RMSdq      gap      omega  full diag
   1   -202.4318685 -0.202432E+03  0.148E-01    7.02       0.0  T
   2   -202.4318870 -0.185345E-04  0.130E-01    7.03       1.0  T
   3   -202.4319193 -0.322580E-04  0.801E-02    7.03       1.0  T
   4   -202.4319360 -0.166529E-04  0.233E-02    7.03       1.0  T
   5   -202.4319380 -0.204846E-05  0.978E-03    7.03       1.0  T
   6   -202.4319386 -0.598561E-06  0.374E-03    7.03       2.5  T
   7   -202.4319387 -0.931882E-07  0.121E-03    7.03       7.6  T
   8   -202.4319387 -0.167529E-07  0.329E-04    7.03      28.0  T
   9   -202.4319387 -0.143217E-08  0.139E-04    7.03      66.0  T
     SCC iter.                  ...        0 min,  0.075 sec
     gradient                   ...        0 min,  0.045 sec
 * total energy  :  -201.1735162 Eh     change       -0.4663082E-02 Eh
   gradient norm :     0.0573745 Eh/α   predicted    -0.6355673E-02 (  36.30%)
   displ. norm   :     0.4173881 α      lambda       -0.6922870E-02
   maximum displ.:     0.1247309 α      in ANC's #68, #72, #66, ...

........................................................................
.............................. CYCLE   31 ..............................
........................................................................

 iter      E             dE          RMSdq      gap      omega  full diag
   1   -202.4421777 -0.202442E+03  0.107E-01    7.04       0.0  T
   2   -202.4422066 -0.289204E-04  0.679E-02    7.04       1.0  T
   3   -202.4422082 -0.162571E-05  0.691E-02    7.04       1.0  T
   4   -202.4422235 -0.152137E-04  0.118E-02    7.04       1.0  T
   5   -202.4422241 -0.661701E-06  0.672E-03    7.04       1.4  T
   6   -202.4422243 -0.188607E-06  0.540E-03    7.04       1.7  T
   7   -202.4422245 -0.159723E-06  0.122E-03    7.04       7.6  T
   8   -202.4422245 -0.186624E-07  0.418E-04    7.04      22.0  T
   9   -202.4422245 -0.200106E-08  0.139E-04    7.04      66.2  T
     SCC iter.                  ...        0 min,  0.078 sec
     gradient                   ...        0 min,  0.044 sec
 * total energy  :  -201.1737243 Eh     change       -0.2081244E-03 Eh
   gradient norm :     0.0686422 Eh/α   predicted    -0.4064460E-02 (1852.90%)
   displ. norm   :     0.4033683 α      lambda       -0.7110705E-02
   maximum displ.:     0.0995241 α      in ANC's #84, #140, #66, ...

........................................................................
.............................. CYCLE   32 ..............................
........................................................................

 iter      E             dE          RMSdq      gap      omega  full diag
   1   -202.4347423 -0.202435E+03  0.104E-01    7.02       0.0  T
   2   -202.4347591 -0.168318E-04  0.810E-02    7.02       1.0  T
   3   -202.4347675 -0.833558E-05  0.629E-02    7.02       1.0  T
   4   -202.4347801 -0.126818E-04  0.121E-02    7.02       1.0  T
   5   -202.4347806 -0.492593E-06  0.793E-03    7.02       1.2  T
   6   -202.4347810 -0.359098E-06  0.285E-03    7.02       3.2  T
   7   -202.4347811 -0.632986E-07  0.966E-04    7.02       9.5  T
   8   -202.4347811 -0.125280E-07  0.271E-04    7.02      34.0  T
     SCC iter.                  ...        0 min,  0.076 sec
     gradient                   ...        0 min,  0.045 sec
 * total energy  :  -201.1758119 Eh     change       -0.2087606E-02 Eh
   gradient norm :     0.0525413 Eh/α   predicted    -0.4133828E-02 (  98.02%)
   displ. norm   :     0.3837605 α      lambda       -0.5928592E-02
   maximum displ.:     0.1409867 α      in ANC's #123, #118, #66, ...

........................................................................
.............................. CYCLE   33 ..............................
........................................................................

 iter      E             dE          RMSdq      gap      omega  full diag
   1   -202.4441558 -0.202444E+03  0.943E-02    7.03       0.0  T
   2   -202.4441779 -0.220516E-04  0.583E-02    7.03       1.0  T
   3   -202.4441780 -0.131450E-06  0.591E-02    7.03       1.0  T
   4   -202.4441899 -0.119260E-04  0.736E-03    7.03       1.3  T
   5   -202.4441904 -0.515222E-06  0.400E-03    7.03       2.3  T
   6   -202.4441905 -0.883944E-07  0.295E-03    7.03       3.1  T
   7   -202.4441906 -0.402621E-07  0.105E-03    7.03       8.7  T
   8   -202.4441906 -0.157951E-07  0.170E-04    7.03      54.1  T
   9   -202.4441906 -0.409273E-09  0.982E-05    7.03      93.7  T
     SCC iter.                  ...        0 min,  0.077 sec
     gradient                   ...        0 min,  0.046 sec
 * total energy  :  -201.1766520 Eh     change       -0.8400112E-03 Eh
   gradient norm :     0.0548231 Eh/α   predicted    -0.3400863E-02 ( 304.86%)
   displ. norm   :     0.3633793 α      lambda       -0.5083297E-02
   maximum displ.:     0.0989444 α      in ANC's #68, #66, #84, ...

........................................................................
.............................. CYCLE   34 ..............................
........................................................................

 iter      E             dE          RMSdq      gap      omega  full diag
   1   -202.4517799 -0.202452E+03  0.887E-02    7.06       0.0  T
   2   -202.4517922 -0.123043E-04  0.693E-02    7.06       1.0  T
   3   -202.4517978 -0.559513E-05  0.549E-02    7.06       1.0  T
   4   -202.4518072 -0.937468E-05  0.112E-02    7.06       1.0  T
   5   -202.4518077 -0.457985E-06  0.673E-03    7.06       1.4  T
   6   -202.4518079 -0.254054E-06  0.267E-03    7.06       3.5  T
   7   -202.4518080 -0.469147E-07  0.867E-04    7.06      10.6  T
   8   -202.4518080 -0.862374E-08  0.294E-04    7.06      31.3  T
     SCC iter.                  ...        0 min,  0.070 sec
     gradient                   ...        0 min,  0.047 sec
 * total energy  :  -201.1780984 Eh     change       -0.1446474E-02 Eh
   gradient norm :     0.0471786 Eh/α   predicted    -0.2877259E-02 (  98.92%)
   displ. norm   :     0.4638847 α      lambda       -0.5701734E-02
   maximum displ.:     0.1264922 α      in ANC's #68, #123, #66, ...

........................................................................
.............................. CYCLE   35 ..............................
........................................................................

 iter      E             dE          RMSdq      gap      omega  full diag
   1   -202.4276969 -0.202428E+03  0.112E-01    7.00       0.0  T
   2   -202.4277334 -0.364718E-04  0.695E-02    7.01       1.0  T
   3   -202.4277318  0.156328E-05  0.744E-02    7.01       1.0  T
   4   -202.4277515 -0.197335E-04  0.104E-02    7.01       1.0  T
   5   -202.4277523 -0.743698E-06  0.536E-03    7.01       1.7  T
   6   -202.4277524 -0.160112E-06  0.423E-03    7.01       2.2  T
   7   -202.4277525 -0.681859E-07  0.136E-03    7.01       6.8  T
   8   -202.4277525 -0.177499E-07  0.322E-04    7.01      28.6  T
   9   -202.4277525 -0.905999E-09  0.123E-04    7.01      74.8  T
     SCC iter.                  ...        0 min,  0.079 sec
     gradient                   ...        0 min,  0.046 sec
 * total energy  :  -201.1770405 Eh     change        0.1057898E-02 Eh
   gradient norm :     0.0733517 Eh/α   predicted    -0.3464348E-02 (-427.47%)
   displ. norm   :     0.3126130 α      lambda       -0.7760914E-02
   maximum displ.:     0.1181431 α      in ANC's #68, #34, #123, ...

........................................................................
.............................. CYCLE   36 ..............................
........................................................................

 iter      E             dE          RMSdq      gap      omega  full diag
   1   -202.4401792 -0.202440E+03  0.926E-02    7.04       0.0  T
   2   -202.4402019 -0.226887E-04  0.574E-02    7.03       1.0  T
   3   -202.4402029 -0.999324E-06  0.587E-02    7.03       1.0  T
   4   -202.4402140 -0.111300E-04  0.727E-03    7.03       1.3  T
   5   -202.4402142 -0.252835E-06  0.788E-03    7.03       1.2  T
   6   -202.4402145 -0.293587E-06  0.191E-03    7.03       4.8  T
   7   -202.4402146 -0.199170E-07  0.960E-04    7.03       9.6  T
   8   -202.4402146 -0.106225E-07  0.190E-04    7.03      48.5  T
     SCC iter.                  ...        0 min,  0.069 sec
     gradient                   ...        0 min,  0.046 sec
 * total energy  :  -201.1798998 Eh     change       -0.2859315E-02 Eh
   gradient norm :     0.0411347 Eh/α   predicted    -0.4259687E-02 (  48.98%)
   displ. norm   :     0.4056523 α      lambda       -0.5831931E-02
   maximum displ.:     0.1033213 α      in ANC's #34, #123, #137, ...

........................................................................
.............................. CYCLE   37 ..............................
........................................................................

 iter      E             dE          RMSdq      gap      omega  full diag
   1   -202.4749831 -0.202475E+03  0.124E-01    7.09       0.0  T
   2   -202.4750218 -0.386976E-04  0.760E-02    7.09       1.0  T
   3   -202.4750283 -0.653903E-05  0.632E-02    7.08       1.0  T
   4   -202.4750410 -0.126378E-04  0.978E-03    7.08       1.0  T
   5   -202.4750415 -0.555442E-06  0.823E-03    7.08       1.1  T
   6   -202.4750418 -0.272208E-06  0.328E-03    7.08       2.8  T
   7   -202.4750418 -0.488318E-07  0.119E-03    7.08       7.7  T
   8   -202.4750419 -0.146670E-07  0.248E-04    7.08      37.0  T
   9   -202.4750419 -0.698776E-09  0.121E-04    7.08      76.0  T
     SCC iter.                  ...        0 min,  0.076 sec
     gradient                   ...        0 min,  0.050 sec
 * total energy  :  -201.1768005 Eh     change        0.3099393E-02 Eh
   gradient norm :     0.0861115 Eh/α   predicted    -0.3395796E-02 (-209.56%)
   displ. norm   :     0.3278763 α      lambda       -0.9779005E-02
   maximum displ.:     0.1309607 α      in ANC's #34, #52, #68, ...

........................................................................
.............................. CYCLE   38 ..............................
........................................................................

 iter      E             dE          RMSdq      gap      omega  full diag
   1   -202.4508557 -0.202451E+03  0.113E-01    7.04       0.0  T
   2   -202.4508880 -0.323277E-04  0.682E-02    7.05       1.0  T
   3   -202.4509000 -0.119981E-04  0.305E-02    7.05       1.0  T
   4   -202.4509034 -0.339676E-05  0.110E-02    7.05       1.0  T
   5   -202.4509041 -0.665921E-06  0.472E-03    7.05       1.9  T
   6   -202.4509042 -0.128360E-06  0.332E-03    7.05       2.8  T
   7   -202.4509043 -0.357346E-07  0.126E-03    7.05       7.3  T
   8   -202.4509043 -0.123777E-07  0.240E-04    7.05      38.3  T
   9   -202.4509043 -0.536176E-09  0.972E-05    7.05      94.8  T
     SCC iter.                  ...        0 min,  0.076 sec
     gradient                   ...        0 min,  0.045 sec
 * total energy  :  -201.1807376 Eh     change       -0.3937176E-02 Eh
   gradient norm :     0.0474472 Eh/α   predicted    -0.5415142E-02 (  37.54%)
   displ. norm   :     0.4910459 α      lambda       -0.8507503E-02
   maximum displ.:     0.1544176 α      in ANC's #137, #52, #138, ...

........................................................................
.............................. CYCLE   39 ..............................
........................................................................

 iter      E             dE          RMSdq      gap      omega  full diag
   1   -202.4169236 -0.202417E+03  0.162E-01    7.00       0.0  T
   2   -202.4169887 -0.650320E-04  0.109E-01    7.00       1.0  T
   3   -202.4169798  0.882914E-05  0.123E-01    7.00       1.0  T
   4   -202.4170306 -0.507943E-04  0.132E-02    7.00       1.0  T
   5   -202.4170318 -0.113795E-05  0.982E-03    7.00       1.0  T
   6   -202.4170322 -0.424299E-06  0.526E-03    7.00       1.7  T
   7   -202.4170323 -0.130947E-06  0.177E-03    7.00       5.2  T
   8   -202.4170324 -0.317318E-07  0.386E-04    7.00      23.8  T
   9   -202.4170324 -0.142379E-08  0.158E-04    7.00      58.1  T
     SCC iter.                  ...        0 min,  0.079 sec
     gradient                   ...        0 min,  0.053 sec
 * total energy  :  -201.1734227 Eh     change        0.7314883E-02 Eh
   gradient norm :     0.1163312 Eh/α   predicted    -0.5279454E-02 (-172.17%)
   displ. norm   :     0.3180815 α      lambda       -0.1734310E-01
   maximum displ.:     0.0922974 α      in ANC's #58, #52, #45, ...

........................................................................
.............................. CYCLE   40 ..............................
........................................................................

 iter      E             dE          RMSdq      gap      omega  full diag
   1   -202.4517855 -0.202452E+03  0.113E-01    7.04       0.0  T
   2   -202.4518205 -0.350083E-04  0.728E-02    7.04       1.0  T
   3   -202.4518193  0.123717E-05  0.828E-02    7.04       1.0  T
   4   -202.4518420 -0.226985E-04  0.101E-02    7.04       1.0  T
   5   -202.4518425 -0.444967E-06  0.908E-03    7.04       1.0  T
   6   -202.4518429 -0.422135E-06  0.326E-03    7.04       2.8  T
   7   -202.4518429 -0.564030E-07  0.124E-03    7.04       7.4  T
   8   -202.4518429 -0.167093E-07  0.224E-04    7.04      41.1  T
   9   -202.4518430 -0.639545E-09  0.936E-05    7.04      98.3  T
     SCC iter.                  ...        0 min,  0.075 sec
     gradient                   ...        0 min,  0.050 sec
 * total energy  :  -201.1821127 Eh     change       -0.8689972E-02 Eh
   gradient norm :     0.0316554 Eh/α   predicted    -0.9548910E-02 (   9.88%)
   displ. norm   :     0.5627488 α      lambda       -0.7034743E-02
   maximum displ.:     0.1691183 α      in ANC's #34, #137, #52, ...

........................................................................
.............................. CYCLE   41 ..............................
........................................................................

 iter      E             dE          RMSdq      gap      omega  full diag
   1   -202.4294293 -0.202429E+03  0.181E-01    7.07       0.0  T
   2   -202.4295166 -0.873671E-04  0.109E-01    7.07       1.0  T
   3   -202.4295387 -0.220216E-04  0.773E-02    7.07       1.0  T
   4   -202.4295574 -0.187219E-04  0.168E-02    7.07       1.0  T
   5   -202.4295591 -0.174510E-05  0.936E-03    7.07       1.0  T
   6   -202.4295595 -0.375491E-06  0.638E-03    7.07       1.4  T
   7   -202.4295597 -0.181244E-06  0.201E-03    7.07       4.6  T
   8   -202.4295597 -0.409930E-07  0.497E-04    7.07      18.5  T
   9   -202.4295597 -0.218094E-08  0.172E-04    7.07      53.5  T
     SCC iter.                  ...        0 min,  0.076 sec
     gradient                   ...        0 min,  0.046 sec
 * total energy  :  -201.1714508 Eh     change        0.1066189E-01 Eh
   gradient norm :     0.1365890 Eh/α   predicted    -0.4631275E-02 (-143.44%)
   displ. norm   :     0.3481542 α      lambda       -0.2372803E-01
   maximum displ.:     0.1432134 α      in ANC's #34, #52, #45, ...

........................................................................
.............................. CYCLE   42 ..............................
........................................................................

 iter      E             dE          RMSdq      gap      omega  full diag
   1   -202.4556002 -0.202456E+03  0.139E-01    7.07       0.0  T
   2   -202.4556541 -0.538612E-04  0.834E-02    7.07       1.0  T
   3   -202.4556705 -0.164590E-04  0.485E-02    7.07       1.0  T
   4   -202.4556798 -0.925929E-05  0.123E-02    7.07       1.0  T
   5   -202.4556808 -0.969805E-06  0.876E-03    7.07       1.1  T
   6   -202.4556810 -0.254340E-06  0.287E-03    7.07       3.2  T
   7   -202.4556810 -0.347255E-07  0.133E-03    7.07       6.9  T
   8   -202.4556811 -0.150925E-07  0.210E-04    7.07      43.9  T
   9   -202.4556811 -0.458186E-09  0.109E-04    7.07      84.7  T
     SCC iter.                  ...        0 min,  0.079 sec
     gradient                   ...        0 min,  0.048 sec
 * total energy  :  -201.1827356 Eh     change       -0.1128473E-01 Eh
   gradient norm :     0.0416472 Eh/α   predicted    -0.1330207E-01 (  17.88%)
   displ. norm   :     0.6257549 α      lambda       -0.1008058E-01
   maximum displ.:     0.2079234 α      in ANC's #137, #34, #52, ...
 * RMSD in coord.:     0.5321002 α      energy gain  -0.6330507E-01 Eh

generating ANC from model Hessian ...
Using Lindh-Hessian (1995)
 Shifting diagonal of input Hessian by    1.0099424620573717E-002
 Lowest  eigenvalues of input Hessian
    0.010000    0.010020    0.010025    0.010041    0.010054    0.010058
    0.010072    0.010076    0.010076    0.010077    0.010081    0.010085
    0.010086    0.010091    0.010092    0.010094    0.010095    0.010097
 Highest eigenvalues
    1.464204    1.482774    1.489581    1.528624    1.530494    1.578427


........................................................................
.............................. CYCLE   43 ..............................
........................................................................

 iter      E             dE          RMSdq      gap      omega  full diag
   1   -202.4159967 -0.202416E+03  0.203E-01    6.99       0.0  T
   2   -202.4160971 -0.100339E-03  0.123E-01    6.99       1.0  T
   3   -202.4161167 -0.195711E-04  0.973E-02    7.00       1.0  T
   4   -202.4161494 -0.327284E-04  0.177E-02    7.00       1.0  T
   5   -202.4161515 -0.208928E-05  0.829E-03    7.00       1.1  T
   6   -202.4161521 -0.589914E-06  0.316E-03    7.00       2.9  T
   7   -202.4161521 -0.408307E-07  0.309E-03    7.00       3.0  T
   8   -202.4161522 -0.552608E-07  0.596E-04    7.00      15.5  T
   9   -202.4161522 -0.315777E-08  0.201E-04    7.00      45.8  T
     SCC iter.                  ...        0 min,  0.079 sec
     gradient                   ...        0 min,  0.050 sec
 * total energy  :  -201.1670538 Eh     change        0.1568179E-01 Eh
   gradient norm :     0.1638361 Eh/α   predicted     0.0000000E+00 (-100.00%)
   displ. norm   :     0.2241235 α      lambda       -0.2363374E-01
   maximum displ.:     0.0561233 α      in ANC's #63, #272, #273, ...

........................................................................
.............................. CYCLE   44 ..............................
........................................................................

 iter      E             dE          RMSdq      gap      omega  full diag
   1   -202.4414323 -0.202441E+03  0.914E-02    7.06       0.0  T
   2   -202.4414538 -0.215450E-04  0.546E-02    7.06       1.0  T
   3   -202.4414641 -0.103099E-04  0.211E-02    7.06       1.0  T
   4   -202.4414657 -0.162441E-05  0.974E-03    7.06       1.0  T
   5   -202.4414663 -0.531860E-06  0.488E-03    7.06       1.9  T
   6   -202.4414664 -0.146261E-06  0.346E-03    7.06       2.7  T
   7   -202.4414665 -0.441002E-07  0.108E-03    7.06       8.5  T
   8   -202.4414665 -0.132626E-07  0.317E-04    7.06      29.0  T
   9   -202.4414665 -0.997545E-09  0.106E-04    7.06      86.9  T
     SCC iter.                  ...        0 min,  0.080 sec
     gradient                   ...        0 min,  0.047 sec
 * total energy  :  -201.1828513 Eh     change       -0.1579751E-01 Eh
   gradient norm :     0.0528026 Eh/α   predicted    -0.1241083E-01 ( -21.44%)
   displ. norm   :     0.3500089 α      lambda       -0.5749893E-02
   maximum displ.:     0.1036863 α      in ANC's #63, #70, #55, ...

........................................................................
.............................. CYCLE   45 ..............................
........................................................................

 iter      E             dE          RMSdq      gap      omega  full diag
   1   -202.4518441 -0.202452E+03  0.983E-02    7.11       0.0  T
   2   -202.4518591 -0.149576E-04  0.653E-02    7.11       1.0  T
   3   -202.4518572  0.192482E-05  0.646E-02    7.11       1.0  T
   4   -202.4518701 -0.128809E-04  0.108E-02    7.11       1.0  T
   5   -202.4518704 -0.340241E-06  0.518E-03    7.11       1.8  T
   6   -202.4518705 -0.747058E-07  0.426E-03    7.11       2.2  T
   7   -202.4518706 -0.885178E-07  0.758E-04    7.11      12.2  T
   8   -202.4518706 -0.527368E-08  0.266E-04    7.11      34.6  T
     SCC iter.                  ...        0 min,  0.065 sec
     gradient                   ...        0 min,  0.048 sec
 * total energy  :  -201.1860633 Eh     change       -0.3212042E-02 Eh
   gradient norm :     0.0287815 Eh/α   predicted    -0.3230785E-02 (   0.58%)
   displ. norm   :     0.4263114 α      lambda       -0.3514367E-02
   maximum displ.:     0.1644086 α      in ANC's #69, #217, #40, ...

........................................................................
.............................. CYCLE   46 ..............................
........................................................................

 iter      E             dE          RMSdq      gap      omega  full diag
   1   -202.4631339 -0.202463E+03  0.115E-01    7.25       0.0  T
   2   -202.4631386 -0.470068E-05  0.102E-01    7.24       1.0  T
   3   -202.4631585 -0.198735E-04  0.616E-02    7.24       1.0  T
   4   -202.4631664 -0.792312E-05  0.261E-02    7.23       1.0  T
   5   -202.4631675 -0.111549E-05  0.112E-02    7.23       1.0  T
   6   -202.4631681 -0.547087E-06  0.288E-03    7.23       3.2  T
   7   -202.4631682 -0.655156E-07  0.868E-04    7.23      10.6  T
   8   -202.4631682 -0.432036E-08  0.398E-04    7.23      23.1  T
     SCC iter.                  ...        0 min,  0.069 sec
     gradient                   ...        0 min,  0.047 sec
 * total energy  :  -201.1922224 Eh     change       -0.6159082E-02 Eh
   gradient norm :     0.0512021 Eh/α   predicted    -0.2076538E-02 ( -66.28%)
   displ. norm   :     0.5532042 α      lambda       -0.1404858E-01
   maximum displ.:     0.2815298 α      in ANC's #217, #63, #216, ...

........................................................................
.............................. CYCLE   47 ..............................
........................................................................

 iter      E             dE          RMSdq      gap      omega  full diag
   1   -202.4484593 -0.202448E+03  0.156E-01    7.46       0.0  T
   2   -202.4484708 -0.114688E-04  0.142E-01    7.45       1.0  T
   3   -202.4485154 -0.446097E-04  0.746E-02    7.45       1.0  T
   4   -202.4485271 -0.117052E-04  0.408E-02    7.44       1.0  T
   5   -202.4485310 -0.392094E-05  0.137E-02    7.44       1.0  T
   6   -202.4485318 -0.814908E-06  0.459E-03    7.44       2.0  T
   7   -202.4485320 -0.182411E-06  0.146E-03    7.44       6.3  T
   8   -202.4485320 -0.178522E-07  0.688E-04    7.44      13.4  T
   9   -202.4485321 -0.677710E-08  0.207E-04    7.44      44.6  T
     SCC iter.                  ...        0 min,  0.073 sec
     gradient                   ...        0 min,  0.047 sec
 * total energy  :  -201.1876937 Eh     change        0.4528664E-02 Eh
   gradient norm :     0.0574720 Eh/α   predicted    -0.9174019E-02 (-302.58%)
   displ. norm   :     0.3046224 α      lambda       -0.8858349E-02
   maximum displ.:     0.1621045 α      in ANC's #217, #69, #63, ...

........................................................................
.............................. CYCLE   48 ..............................
........................................................................

 iter      E             dE          RMSdq      gap      omega  full diag
   1   -202.4591088 -0.202459E+03  0.131E-01    7.36       0.0  T
   2   -202.4590871  0.217050E-04  0.155E-01    7.37       1.0  T
   3   -202.4591555 -0.683841E-04  0.513E-02    7.37       1.0  T
   4   -202.4591606 -0.510989E-05  0.287E-02    7.38       1.0  T
   5   -202.4591620 -0.143611E-05  0.140E-02    7.38       1.0  T
   6   -202.4591629 -0.892964E-06  0.315E-03    7.38       2.9  T
   7   -202.4591630 -0.872402E-07  0.114E-03    7.38       8.1  T
   8   -202.4591630 -0.830690E-08  0.461E-04    7.38      20.0  T
   9   -202.4591630 -0.244438E-08  0.213E-04    7.38      43.1  T
     SCC iter.                  ...        0 min,  0.075 sec
     gradient                   ...        0 min,  0.047 sec
 * total energy  :  -201.1931378 Eh     change       -0.5444049E-02 Eh
   gradient norm :     0.0301530 Eh/α   predicted    -0.4840175E-02 ( -11.09%)
   displ. norm   :     0.4999680 α      lambda       -0.8133794E-02
   maximum displ.:     0.2754618 α      in ANC's #217, #216, #40, ...

........................................................................
.............................. CYCLE   49 ..............................
........................................................................

 iter      E             dE          RMSdq      gap      omega  full diag
   1   -202.4498151 -0.202450E+03  0.172E-01    7.09       0.0  T
   2   -202.4498264 -0.112971E-04  0.161E-01    7.10       1.0  T
   3   -202.4498894 -0.630142E-04  0.788E-02    7.11       1.0  T
   4   -202.4499038 -0.143707E-04  0.387E-02    7.12       1.0  T
   5   -202.4499065 -0.272203E-05  0.186E-02    7.12       1.0  T
   6   -202.4499080 -0.152216E-05  0.415E-03    7.12       2.2  T
   7   -202.4499082 -0.179398E-06  0.157E-03    7.12       5.9  T
   8   -202.4499082 -0.176212E-07  0.721E-04    7.12      12.8  T
   9   -202.4499082 -0.726536E-08  0.272E-04    7.12      33.8  T
     SCC iter.                  ...        0 min,  0.079 sec
     gradient                   ...        0 min,  0.048 sec
 * total energy  :  -201.1885896 Eh     change        0.4548151E-02 Eh
   gradient norm :     0.0592897 Eh/α   predicted    -0.5083506E-02 (-211.77%)
   displ. norm   :     0.3139685 α      lambda       -0.1096291E-01
   maximum displ.:     0.1736275 α      in ANC's #217, #69, #63, ...

........................................................................
.............................. CYCLE   50 ..............................
........................................................................

 iter      E             dE          RMSdq      gap      omega  full diag
   1   -202.4668573 -0.202467E+03  0.143E-01    7.29       0.0  T
   2   -202.4668408  0.164861E-04  0.162E-01    7.28       1.0  T
   3   -202.4669161 -0.752743E-04  0.578E-02    7.28       1.0  T
   4   -202.4669237 -0.768298E-05  0.301E-02    7.27       1.0  T
   5   -202.4669253 -0.159397E-05  0.161E-02    7.27       1.0  T
   6   -202.4669265 -0.114621E-05  0.366E-03    7.27       2.5  T
   7   -202.4669266 -0.118750E-06  0.127E-03    7.27       7.2  T
   8   -202.4669266 -0.102278E-07  0.616E-04    7.27      14.9  T
   9   -202.4669266 -0.460210E-08  0.174E-04    7.27      52.8  T
     SCC iter.                  ...        0 min,  0.076 sec
     gradient                   ...        0 min,  0.050 sec
 * total energy  :  -201.1957766 Eh     change       -0.7186969E-02 Eh
   gradient norm :     0.0273915 Eh/α   predicted    -0.6021791E-02 ( -16.21%)
   displ. norm   :     0.4362985 α      lambda       -0.3586479E-02
[...]
    30   8 O        1.607    -0.675    27.065     7.021
    31   8 O        1.608    -0.667    26.860     6.995
    32   1 H        0.802     0.363     0.560     1.176
    33   1 H        0.805     0.319     0.666     1.282
    34   1 H        0.805     0.322     0.660     1.276
    35   1 H        0.804     0.366     0.552     1.167
    36   1 H        0.805     0.319     0.666     1.282
    37   1 H        0.804     0.351     0.587     1.203
    38   1 H        0.805     0.324     0.652     1.268
    39   1 H        0.803     0.367     0.551     1.166
    40   1 H        0.804     0.325     0.651     1.267
    41   1 H        0.803     0.354     0.580     1.197
    42   1 H        0.803     0.361     0.564     1.180
    43   1 H        0.805     0.358     0.569     1.185
    44   1 H        0.805     0.316     0.673     1.289
    45   1 H        0.803     0.354     0.580     1.196
    46   1 H        0.805     0.309     0.693     1.308
    47   1 H        0.802     0.355     0.577     1.193
    48   1 H        0.805     0.317     0.672     1.288
    49   1 H        0.803     0.359     0.567     1.183
    50   1 H        0.804     0.342     0.606     1.223
    51   1 H        0.804     0.345     0.601     1.217
    52   1 H        0.804     0.368     0.548     1.163
    53   1 H        0.804     0.352     0.584     1.200
    54   1 H        0.805     0.319     0.666     1.282
    55   1 H        0.803     0.353     0.581     1.198
    56   8 O        1.609    -0.708    27.930     7.133
    57   1 H        0.805     0.339     0.614     1.231
    58   1 H        0.803     0.341     0.610     1.226
    59   8 O        1.610    -0.739    28.771     7.239
    60   1 H        0.805     0.376     0.530     1.144
    61   1 H        0.805     0.363     0.559     1.175
    62   8 O        1.610    -0.727    28.442     7.198
    63   1 H        0.805     0.380     0.523     1.136
    64   1 H        0.805     0.347     0.595     1.211
    65   8 O        1.607    -0.712    28.043     7.147
    66   1 H        0.805     0.341     0.610     1.227
    67   1 H        0.802     0.351     0.586     1.203
    68   8 O        1.610    -0.698    27.662     7.099
    69   1 H        0.805     0.368     0.549     1.163
    70   1 H        0.805     0.352     0.583     1.199
    71   8 O        1.610    -0.730    28.532     7.209
    72   1 H        0.805     0.359     0.568     1.184
    73   1 H        0.805     0.372     0.540     1.154
    74   8 O        1.610    -0.733    28.597     7.218
    75   1 H        0.805     0.368     0.547     1.162
    76   1 H        0.805     0.364     0.556     1.171
    77   8 O        1.610    -0.726    28.420     7.195
    78   1 H        0.805     0.379     0.525     1.138
    79   1 H        0.805     0.347     0.594     1.211
    80   8 O        1.611    -0.696    27.596     7.090
    81   1 H        0.805     0.365     0.555     1.170
    82   1 H        0.805     0.347     0.595     1.211
    83   8 O        1.608    -0.701    27.735     7.108
    84   1 H        0.802     0.351     0.586     1.203
    85   1 H        0.805     0.335     0.623     1.240
    86   8 O        1.611    -0.695    27.571     7.087
    87   1 H        0.805     0.352     0.584     1.201
    88   1 H        0.805     0.362     0.561     1.177
    89   8 O        1.607    -0.696    27.600     7.090
    90   1 H        0.806     0.338     0.616     1.233
    91   1 H        0.802     0.369     0.545     1.160
    92   8 O        1.611    -0.696    27.595     7.090
    93   1 H        0.805     0.358     0.570     1.186
    94   1 H        0.805     0.355     0.576     1.192
    95   8 O        1.610    -0.695    27.566     7.086
    96   1 H        0.805     0.354     0.580     1.196
    97   1 H        0.805     0.358     0.570     1.186
    98   8 O        1.611    -0.695    27.568     7.086
    99   1 H        0.805     0.356     0.575     1.191
   100   1 H        0.805     0.355     0.576     1.192
   101   8 O        1.611    -0.691    27.483     7.076
   102   1 H        0.805     0.350     0.589     1.206
   103   1 H        0.805     0.361     0.564     1.179
   104   8 O        1.611    -0.698    27.653     7.097
   105   1 H        0.805     0.356     0.574     1.190
   106   1 H        0.805     0.357     0.572     1.188
   107   8 O        1.610    -0.697    27.641     7.096
   108   1 H        0.805     0.357     0.572     1.188
   109   1 H        0.805     0.363     0.559     1.175
   110   8 O        1.610    -0.737    28.712     7.232
   111   1 H        0.805     0.376     0.531     1.145
   112   1 H        0.805     0.361     0.563     1.179
   113   8 O        1.610    -0.714    28.088     7.153
   114   1 H        0.805     0.365     0.554     1.169
   115   1 H        0.805     0.349     0.590     1.207
   116   8 O        1.610    -0.730    28.521     7.208
   117   1 H        0.805     0.380     0.524     1.137
   118   1 H        0.805     0.351     0.587     1.203

 Mol. C6AA /au·bohr⁶  :      77870.869571
 Mol. C8AA /au·bohr⁸  :    1643434.149841
 Mol. α(0) /au        :        425.803184


Wiberg/Mayer (AO) data.
largest (>0.10) Wiberg bond orders for each atom

 ---------------------------------------------------------------------------
     #   Z sym  total        # sym  WBO       # sym  WBO       # sym  WBO
 ---------------------------------------------------------------------------
     1  26 Fe   1.354 --     2 O    0.196     4 O    0.196     3 O    0.192
                             6 O    0.187     7 O    0.180     5 O    0.179
                            23 O    0.158
     2   8 O    1.923 --    13 H    0.839    12 H    0.833     1 Fe   0.196
     3   8 O    1.929 --    16 H    0.833    17 H    0.815     1 Fe   0.192
     4   8 O    1.931 --    14 H    0.842    15 H    0.835     1 Fe   0.196
     5   8 O    1.936 --    19 H    0.844    18 H    0.810     1 Fe   0.179
     6   8 O    1.927 --     8 H    0.841     9 H    0.816     1 Fe   0.187
     7   8 O    1.916 --    10 H    0.848    11 H    0.822     1 Fe   0.180
     8   1 H    0.875 --     6 O    0.841
     9   1 H    0.873 --     6 O    0.816
    10   1 H    0.880 --     7 O    0.848
    11   1 H    0.877 --     7 O    0.822
    12   1 H    0.880 --     2 O    0.833
    13   1 H    0.880 --     2 O    0.839
    14   1 H    0.877 --     4 O    0.842
    15   1 H    0.880 --     4 O    0.835
    16   1 H    0.872 --     3 O    0.833
    17   1 H    0.870 --     3 O    0.815
    18   1 H    0.871 --     5 O    0.810
    19   1 H    0.875 --     5 O    0.844
    20   8 O    1.835 --    34 H    0.857    35 H    0.843
    21   8 O    1.860 --    54 H    0.868    55 H    0.828
    22   8 O    1.900 --    40 H    0.857    41 H    0.825
    23   8 O    1.958 --    43 H    0.854    42 H    0.813     1 Fe   0.158
    24   8 O    1.843 --    36 H    0.866    37 H    0.839
    25   8 O    1.872 --    33 H    0.867    32 H    0.800
    26   8 O    1.853 --    53 H    0.849    52 H    0.837
    27   8 O    1.819 --    51 H    0.839    50 H    0.833
    28   8 O    1.858 --    48 H    0.865    49 H    0.821
    29   8 O    1.859 --    38 H    0.860    39 H    0.822
    30   8 O    1.824 --    46 H    0.871    47 H    0.809
    31   8 O    1.839 --    44 H    0.869    45 H    0.815
    32   1 H    0.869 --    25 O    0.800
    33   1 H    0.898 --    25 O    0.867
    34   1 H    0.897 --    20 O    0.857
    35   1 H    0.866 --    20 O    0.843
    36   1 H    0.898 --    24 O    0.866
    37   1 H    0.877 --    24 O    0.839
    38   1 H    0.895 --    29 O    0.860
    39   1 H    0.865 --    29 O    0.822
    40   1 H    0.894 --    22 O    0.857
    41   1 H    0.875 --    22 O    0.825
    42   1 H    0.869 --    23 O    0.813
    43   1 H    0.872 --    23 O    0.854
    44   1 H    0.900 --    31 O    0.869
    45   1 H    0.875 --    31 O    0.815
    46   1 H    0.904 --    30 O    0.871
    47   1 H    0.874 --    30 O    0.809
    48   1 H    0.899 --    28 O    0.865
    49   1 H    0.871 --    28 O    0.821
    50   1 H    0.883 --    27 O    0.833
    51   1 H    0.881 --    27 O    0.839
    52   1 H    0.865 --    26 O    0.837
    53   1 H    0.876 --    26 O    0.849
    54   1 H    0.898 --    21 O    0.868
    55   1 H    0.875 --    21 O    0.828
    56   8 O    1.749 --    57 H    0.885    58 H    0.844
    57   1 H    0.885 --    56 O    0.885
    58   1 H    0.884 --    56 O    0.844
    59   8 O    1.726 --    61 H    0.868    60 H    0.858
    60   1 H    0.858 --    59 O    0.858
    61   1 H    0.868 --    59 O    0.868
    62   8 O    1.735 --    64 H    0.879    63 H    0.856
    63   1 H    0.856 --    62 O    0.856
    64   1 H    0.879 --    62 O    0.879
    65   8 O    1.772 --    66 H    0.880    67 H    0.807
    66   1 H    0.884 --    65 O    0.880
    67   1 H    0.877 --    65 O    0.807
    68   8 O    1.779 --    70 H    0.874    69 H    0.863
    69   1 H    0.865 --    68 O    0.863
    70   1 H    0.876 --    68 O    0.874
    71   8 O    1.733 --    72 H    0.871    73 H    0.862
    72   1 H    0.871 --    71 O    0.871
    73   1 H    0.862 --    71 O    0.862
    74   8 O    1.731 --    76 H    0.867    75 H    0.864
    75   1 H    0.864 --    74 O    0.864
    76   1 H    0.867 --    74 O    0.867
    77   8 O    1.736 --    79 H    0.879    78 H    0.856
    78   1 H    0.856 --    77 O    0.856
    79   1 H    0.879 --    77 O    0.879
    80   8 O    1.773 --    82 H    0.876    81 H    0.865
    81   1 H    0.867 --    80 O    0.865
    82   1 H    0.879 --    80 O    0.876
    83   8 O    1.788 --    85 H    0.885    84 H    0.816
    84   1 H    0.877 --    83 O    0.816
    85   1 H    0.887 --    83 O    0.885
    86   8 O    1.778 --    87 H    0.874    88 H    0.867
    87   1 H    0.876 --    86 O    0.874
    88   1 H    0.869 --    86 O    0.867
    89   8 O    1.821 --    90 H    0.878    91 H    0.794
    90   1 H    0.885 --    89 O    0.878
    91   1 H    0.863 --    89 O    0.794
    92   8 O    1.775 --    94 H    0.871    93 H    0.869
    93   1 H    0.872 --    92 O    0.869
    94   1 H    0.874 --    92 O    0.871
    95   8 O    1.777 --    96 H    0.873    97 H    0.870
    96   1 H    0.875 --    95 O    0.873
    97   1 H    0.872 --    95 O    0.870
    98   8 O    1.772 --    99 H    0.871   100 H    0.871
    99   1 H    0.874 --    98 O    0.871
   100   1 H    0.874 --    98 O    0.871
   101   8 O    1.781 --   102 H    0.875   103 H    0.868
   102   1 H    0.878 --   101 O    0.875
   103   1 H    0.870 --   101 O    0.868
   104   8 O    1.770 --   105 H    0.871   106 H    0.869
   105   1 H    0.873 --   104 O    0.871
   106   1 H    0.872 --   104 O    0.869
   107   8 O    1.781 --   108 H    0.870   109 H    0.866
   108   1 H    0.872 --   107 O    0.870
   109   1 H    0.868 --   107 O    0.866
   110   8 O    1.728 --   112 H    0.869   111 H    0.858
   111   1 H    0.859 --   110 O    0.858
   112   1 H    0.870 --   110 O    0.869
   113   8 O    1.745 --   115 H    0.878   114 H    0.867
   114   1 H    0.867 --   113 O    0.867
   115   1 H    0.878 --   113 O    0.878
   116   8 O    1.733 --   118 H    0.877   117 H    0.856
   117   1 H    0.856 --   116 O    0.856
   118   1 H    0.877 --   116 O    0.877
 ---------------------------------------------------------------------------

Topologies differ in total number of bonds
Writing topology from bond orders to xtbtopo.mol

molecular dipole:
                 x           y           z       tot (Debye)
 q only:       -0.639      -0.203      -3.890
   full:       -0.628       0.190      -4.962      12.723
molecular quadrupole (traceless):
                xx          xy          yy          xz          yz          zz
 q only:       34.865     -20.458     -10.561       8.314      27.247     -24.304
  q+dip:       42.160     -25.168     -14.293      10.333      35.657     -27.867
   full:       41.819     -25.368     -14.036      10.993      35.915     -27.784

           -------------------------------------------------
          |                Geometry Summary                 |
           -------------------------------------------------

      molecular mass/u    :      758.4413148
   center of mass at/Å    :        0.1248392       0.0945674       0.0378815
  moments of inertia/u·Å² :        0.1374431E+05   0.1608390E+05   0.1671970E+05
rotational constants/cm⁻¹ :        0.1226517E-02   0.1048106E-02   0.1008250E-02

 * 78 selected distances

     #   Z          #   Z                                           value/Å
     6   8 O        8   1 H                                       0.9678865
     6   8 O        9   1 H                                       0.9734691
     7   8 O       10   1 H                                       0.9659116
     7   8 O       11   1 H                                       0.9750344
     2   8 O       12   1 H                                       0.9688575
     2   8 O       13   1 H                                       0.9677562
     4   8 O       14   1 H                                       0.9643953
     4   8 O       15   1 H                                       0.9668506
     3   8 O       16   1 H                                       0.9682331
     3   8 O       17   1 H                                       0.9755341
     5   8 O       18   1 H                                       0.9764861
     5   8 O       19   1 H                                       0.9655196
    25   8 O       32   1 H                                       0.9873734
    25   8 O       33   1 H                                       0.9648033
    20   8 O       34   1 H                                       0.9668534
    20   8 O       35   1 H                                       0.9717187
    24   8 O       36   1 H                                       0.9654215
    24   8 O       37   1 H                                       0.9717762
    29   8 O       38   1 H                                       0.9661247
    29   8 O       39   1 H                                       0.9759417
    22   8 O       40   1 H                                       0.9682505
    22   8 O       41   1 H                                       0.9769969
    23   8 O       42   1 H                                       0.9761475
    23   8 O       43   1 H                                       0.9608022
    31   8 O       44   1 H                                       0.9640339
    31   8 O       45   1 H                                       0.9808627
    30   8 O       46   1 H                                       0.9640278
    30   8 O       47   1 H                                       0.9848240
    28   8 O       48   1 H                                       0.9657040
    28   8 O       49   1 H                                       0.9793014
    27   8 O       50   1 H                                       0.9741322
    27   8 O       51   1 H                                       0.9734239
    26   8 O       52   1 H                                       0.9731587
    26   8 O       53   1 H                                       0.9712645
    21   8 O       54   1 H                                       0.9650366
    21   8 O       55   1 H                                       0.9762252
    56   8 O       57   1 H                                       0.9598214
    56   8 O       58   1 H                                       0.9773487
    59   8 O       60   1 H                                       0.9641736
    59   8 O       61   1 H                                       0.9624924
    62   8 O       63   1 H                                       0.9644952
    62   8 O       64   1 H                                       0.9602556
    65   8 O       66   1 H                                       0.9596912
    65   8 O       67   1 H                                       0.9881492
    68   8 O       69   1 H                                       0.9624025
    68   8 O       70   1 H                                       0.9604362
    71   8 O       72   1 H                                       0.9618508
    71   8 O       73   1 H                                       0.9635323
    74   8 O       75   1 H                                       0.9631915
    74   8 O       76   1 H                                       0.9626288
    77   8 O       78   1 H                                       0.9643901
    77   8 O       79   1 H                                       0.9603250
    80   8 O       81   1 H                                       0.9622601
    80   8 O       82   1 H                                       0.9596157
    83   8 O       84   1 H                                       0.9829189
    83   8 O       85   1 H                                       0.9591226
    86   8 O       87   1 H                                       0.9603807
    86   8 O       88   1 H                                       0.9615861
    89   8 O       90   1 H                                       0.9576822 (min)
    89   8 O       91   1 H                                       0.9882838 (max)
    92   8 O       93   1 H                                       0.9609845
    92   8 O       94   1 H                                       0.9608095
    95   8 O       96   1 H                                       0.9608790
    95   8 O       97   1 H                                       0.9615969
    98   8 O       99   1 H                                       0.9606675
    98   8 O      100   1 H                                       0.9605321
   101   8 O      102   1 H                                       0.9597529
   101   8 O      103   1 H                                       0.9612797
   104   8 O      105   1 H                                       0.9608196
   104   8 O      106   1 H                                       0.9609785
   107   8 O      108   1 H                                       0.9609738
   107   8 O      109   1 H                                       0.9616323
   110   8 O      111   1 H                                       0.9639667
   110   8 O      112   1 H                                       0.9620595
   113   8 O      114   1 H                                       0.9627818
   113   8 O      115   1 H                                       0.9604776
   116   8 O      117   1 H                                       0.9644765
   116   8 O      118   1 H                                       0.9607323

 * 1 distinct bonds (by element types)

   Z      Z             #   av. dist./Å        max./Å        min./Å
   1 H    8 O          78     0.9670843     0.9882838     0.9576822


optimized geometry written to: xtbopt.xyz


           -------------------------------------------------
          | TOTAL ENERGY             -201.250664264465 Eh   |
          | GRADIENT NORM               0.000054320883 Eh/α |
          | HOMO-LUMO GAP               7.035158612810 eV   |
           -------------------------------------------------
########################################################################
[WARNING] Runtime exception occurred
-2- restart_readRestart: Multiplicity missmatch in restart file.
-1- restart_readRestart: Number of electron missmatch in restart file.
########################################################################

------------------------------------------------------------------------
 * finished run on 2024/05/10 at 17:57:50.118     
------------------------------------------------------------------------
 total:
 * wall-time:     0 d,  0 h,  1 min, 28.131 sec
 *  cpu-time:     0 d,  0 h, 10 min, 34.433 sec
 * ratio c/w:     7.199 speedup
 SCF:
 * wall-time:     0 d,  0 h,  0 min,  0.178 sec
 *  cpu-time:     0 d,  0 h,  0 min,  1.342 sec
 * ratio c/w:     7.549 speedup
 ANC optimizer:
 * wall-time:     0 d,  0 h,  1 min, 27.760 sec
 *  cpu-time:     0 d,  0 h, 10 min, 31.642 sec
 * ratio c/w:     7.197 speedup

