      -----------------------------------------------------------      
     |                   =====================                   |     
     |                           x T B                           |     
     |                   =====================                   |     
     |                         S. Grimme                         |     
     |          Mulliken Center for Theoretical Chemistry        |     
     |                    University of Bonn                     |     
      -----------------------------------------------------------      

   * xtb version 6.6.0 (conda-forge) compiled by 'runner@Mac-1676020848589.local' on 2023-02-10

   xtb is free software: you can redistribute it and/or modify it under
   the terms of the GNU Lesser General Public License as published by
   the Free Software Foundation, either version 3 of the License, or
   (at your option) any later version.
   
   xtb is distributed in the hope that it will be useful,
   but WITHOUT ANY WARRANTY; without even the implied warranty of
   MERCHANTABILITY or FITNESS FOR A PARTICULAR PURPOSE.  See the
   GNU Lesser General Public License for more details.
   
   Cite this work as:
   * C. Bannwarth, E. Caldeweyher, S. Ehlert, A. Hansen, P. Pracht,
     J. Seibert, S. Spicher, S. Grimme, WIREs Comput. Mol. Sci., 2020, 11,
     e01493. DOI: 10.1002/wcms.1493
   
   for GFN2-xTB:
   * C. Bannwarth, S. Ehlert and S. Grimme., J. Chem. Theory Comput., 2019,
     15, 1652-1671. DOI: 10.1021/acs.jctc.8b01176
   for GFN1-xTB:
   * S. Grimme, C. Bannwarth, P. Shushkov, J. Chem. Theory Comput., 2017,
     13, 1989-2009. DOI: 10.1021/acs.jctc.7b00118
   for GFN0-xTB:
   * P. Pracht, E. Caldeweyher, S. Ehlert, S. Grimme, ChemRxiv, 2019, preprint.
     DOI: 10.26434/chemrxiv.8326202.v1
   for GFN-FF:
   * S. Spicher and S. Grimme, Angew. Chem. Int. Ed., 2020, 59, 15665-15673.
     DOI: 10.1002/anie.202004239
   
   for ALPB and GBSA implicit solvation:
   * S. Ehlert, M. Stahn, S. Spicher, S. Grimme, J. Chem. Theory Comput.,
     2021, 17, 4250-4261. DOI: 10.1021/acs.jctc.1c00471
   
   for DFT-D4:
   * E. Caldeweyher, C. Bannwarth and S. Grimme, J. Chem. Phys., 2017,
     147, 034112. DOI: 10.1063/1.4993215
   * E. Caldeweyher, S. Ehlert, A. Hansen, H. Neugebauer, S. Spicher,
     C. Bannwarth and S. Grimme, J. Chem. Phys., 2019, 150, 154122.
     DOI: 10.1063/1.5090222
   * E. Caldeweyher, J.-M. Mewes, S. Ehlert and S. Grimme, Phys. Chem. Chem. Phys.
     2020, 22, 8499-8512. DOI: 10.1039/D0CP00502A
   
   for sTDA-xTB:
   * S. Grimme and C. Bannwarth, J. Chem. Phys., 2016, 145, 054103.
     DOI: 10.1063/1.4959605
   
   in the mass-spec context:
   * V. Asgeirsson, C. Bauer and S. Grimme, Chem. Sci., 2017, 8, 4879.
     DOI: 10.1039/c7sc00601b
   * J. Koopman and S. Grimme, ACS Omega 2019, 4, 12, 15120-15133.
     DOI: 10.1021/acsomega.9b02011
   
   for metadynamics refer to:
   * S. Grimme, J. Chem. Theory Comput., 2019, 155, 2847-2862
     DOI: 10.1021/acs.jctc.9b00143
   
   for SPH calculations refer to:
   * S. Spicher and S. Grimme, J. Chem. Theory Comput., 2021, 17, 1701-1714
     DOI: 10.1021/acs.jctc.0c01306
   
   with help from (in alphabetical order)
   P. Atkinson, C. Bannwarth, F. Bohle, G. Brandenburg, E. Caldeweyher
   M. Checinski, S. Dohm, S. Ehlert, S. Ehrlich, I. Gerasimov, C. Hölzer
   A. Katbashev, J. Koopman, C. Lavigne, S. Lehtola, F. März, M. Müller,
   F. Musil, H. Neugebauer, J. Pisarek, C. Plett, P. Pracht, F. Pultar,
   J. Seibert, P. Shushkov, S. Spicher, M. Stahn, M. Steiner, T. Strunk,
   J. Stückrath, T. Rose, and J. Unsleber
   
 * started run on 2024/05/10 at 17:55:53.985     

           -------------------------------------------------
          |                Calculation Setup                |
           -------------------------------------------------

          program call               : xtb Fe_39H2O_3_6.xyz --gfn2 --chrg 3 --uhf 6 --hess --alpb water
          coordinate file            : Fe_39H2O_3_6.xyz
          omp threads                :                     8

   ID    Z sym.   atoms
    1   26 Fe     1
    2    8 O      2-7, 20-31, 56, 59, 62, 65, 68, 71, 74, 77, 80, 83, 86, 89,
                  92, 95, 98, 101, 104, 107, 110, 113, 116
    3    1 H      8-19, 32-55, 57, 58, 60, 61, 63, 64, 66, 67, 69, 70, 72,
                  73, 75, 76, 78, 79, 81, 82, 84, 85, 87, 88, 90, 91, 93, 94,
                  96, 97, 99, 100, 102, 103, 105, 106, 108, 109, 111, 112,
                  114, 115, 117, 118

molecular fragmentation (1/2 indicates fragments):
111122222221112112222222222222222222222222222222222222222222222222222222
2222222222222222222222222222222222222222222222
# atoms in fragment 1/2:     9   109
 fragment masses (1/2) :      108.88      649.56
CMA distance (Bohr)    :   1.325
constraining FC (au)   :  0.0500

           -------------------------------------------------
          |                 G F N 2 - x T B                 |
           -------------------------------------------------

        Reference                      10.1021/acs.jctc.8b01176
      * Hamiltonian:
        H0-scaling (s, p, d)           1.850000    2.230000    2.230000
        zeta-weighting                 0.500000
      * Dispersion:
        s8                             2.700000
        a1                             0.520000
        a2                             5.000000
        s9                             5.000000
      * Repulsion:
        kExp                           1.500000    1.000000
        rExp                           1.000000
      * Coulomb:
        alpha                          2.000000
        third order                    shell-resolved
        anisotropic                    true
        a3                             3.000000
        a5                             4.000000
        cn-shift                       1.200000
        cn-exp                         4.000000
        max-rad                        5.000000

      * Solvation model:               ALPB
        Solvent                        water
        Parameter file                 internal GFN2-xTB/ALPB
        Dielectric constant                8.0200E+01
        Reference state                gsolv [1 M gas/solution]
        Free energy shift                  1.0808E-03 Eh       6.7819E-01 kcal/mol
        Temperature                        2.9815E+02 K
        Density                            1.0000E+00 kg/L
        Solvent mass                       1.8000E+01 g/mol
        Interaction kernel             P16
        Born radius scaling (c1)           1.4744E+00
        Born radii integrator          GBOBC
        Born offset                        0.0000E+00 a0       0.0000E+00 AA
        H-bond correction              true
        Ion screening                  false
        Surface tension                    1.0000E-05 Eh       1.5569E+01 dyn/cm
        Grid points                               230 per atom
q/qsh data taken from xtbrestart
CAMM data taken from xtbrestart

          ...................................................
          :                      SETUP                      :
          :.................................................:
          :  # basis functions                 244          :
          :  # atomic orbitals                 243          :
          :  # shells                          159          :
          :  # electrons                       317          :
          :  max. iterations                   250          :
          :  Hamiltonian                  GFN2-xTB          :
          :  restarted?                       true          :
          :  GBSA solvation                   true          :
          :  PC potential                    false          :
          :  electronic temp.          300.0000000     K    :
          :  accuracy                    1.0000000          :
          :  -> integral cutoff          0.2500000E+02      :
          :  -> integral neglect         0.1000000E-07      :
          :  -> SCF convergence          0.1000000E-05 Eh   :
          :  -> wf. convergence          0.1000000E-03 e    :
          :  Broyden damping             0.4000000          :
          ...................................................

 iter      E             dE          RMSdq      gap      omega  full diag
   1   -202.1577194 -0.202158E+03  0.973E-07    7.93       0.0  T
   2   -202.1577194  0.255795E-12  0.628E-07    7.93   14654.8  T
   3   -202.1577194  0.113687E-12  0.206E-07    7.93   44627.9  T

   *** convergence criteria satisfied after 3 iterations ***

         #    Occupation            Energy/Eh            Energy/eV
      -------------------------------------------------------------
         1        2.0000           -0.6670042             -18.1501
       ...           ...                  ...                  ...
       155        2.0000           -0.3920291             -10.6677
       156        2.0000           -0.3902120             -10.6182
       157        1.0000           -0.3501007              -9.5267
       158        1.0000           -0.3472290              -9.4486
       159        1.0000           -0.3341963              -9.0939
       160        1.0000           -0.3258300              -8.8663
       161        1.0000           -0.3167300              -8.6187 (HOMO)
       162                         -0.0254696              -0.6931 (LUMO)
       163                          0.0253281               0.6892
       164                          0.0433402               1.1793
       165                          0.0620361               1.6881
       166                          0.0759767               2.0674
       ...                                ...                  ...
       243                          1.2578199              34.2270
      -------------------------------------------------------------
                  HL-Gap            0.2912604 Eh            7.9256 eV
             Fermi-level           -0.2706044 Eh           -7.3635 eV

 SCC (total)                   0 d,  0 h,  0 min,  0.094 sec
 SCC setup                      ...        0 min,  0.003 sec (  3.599%)
 Dispersion                     ...        0 min,  0.002 sec (  1.645%)
 classical contributions        ...        0 min,  0.001 sec (  0.537%)
 integral evaluation            ...        0 min,  0.005 sec (  5.508%)
 iterations                     ...        0 min,  0.039 sec ( 41.164%)
 molecular gradient             ...        0 min,  0.044 sec ( 46.850%)
 printout                       ...        0 min,  0.001 sec (  0.682%)

         :::::::::::::::::::::::::::::::::::::::::::::::::::::
         ::                     SUMMARY                     ::
         :::::::::::::::::::::::::::::::::::::::::::::::::::::
         :: total energy            -200.900154773853 Eh    ::
         :: total w/o Gsasa/hb      -200.599568950157 Eh    ::
         :: gradient norm              0.000047864715 Eh/a0 ::
         :: HOMO-LUMO gap              7.925599279153 eV    ::
         ::.................................................::
         :: SCC energy              -202.157719443412 Eh    ::
         :: -> isotropic ES            1.772423769628 Eh    ::
         :: -> anisotropic ES         -0.208156239359 Eh    ::
         :: -> anisotropic XC         -0.011656501660 Eh    ::
         :: -> dispersion             -0.049913750362 Eh    ::
         :: -> Gsolv                  -0.934478931285 Eh    ::
         ::    -> Gelec               -0.633893107589 Eh    ::
         ::    -> Gsasa                0.030077724030 Eh    ::
         ::    -> Ghb                 -0.331744307425 Eh    ::
         ::    -> Gshift               0.001080759698 Eh    ::
         :: repulsion energy           1.254468785243 Eh    ::
         :: add. restraining           0.000000000000 Eh    ::
         :: total charge               3.000000000075 e     ::
         :::::::::::::::::::::::::::::::::::::::::::::::::::::

           ------------------------------------------------- 
          |                Numerical Hessian                |
           ------------------------------------------------- 
step length          :   0.00500
SCC accuracy         :   0.30000
Hessian scale factor :   1.00000
frozen atoms in %    :   0.00000    0
RMS gradient         :   0.00005
estimated CPU  time     27.33 min
estimated wall time      3.63 min

writing file <hessian>.

 projected vibrational frequencies (cm⁻¹)
eigval :       -0.00    -0.00    -0.00     0.00     0.00     0.00
eigval :       -9.55     8.56     9.20    15.24    19.06    19.81
eigval :       21.02    22.82    24.31    26.06    27.43    29.12
eigval :       31.13    32.63    34.37    35.44    35.74    37.29
eigval :       37.38    39.18    39.95    40.44    41.35    41.52
eigval :       43.18    43.60    44.38    46.01    47.05    49.03
eigval :       49.35    50.03    50.31    52.88    54.78    55.63
eigval :       57.51    58.10    58.97    60.14    60.85    62.69
eigval :       62.87    63.64    65.34    65.59    67.59    69.81
eigval :       70.64    71.62    72.51    73.53    76.11    76.56
eigval :       77.02    79.48    80.37    80.89    82.86    86.07
eigval :       86.47    88.67    90.25    92.69    93.82    97.50
eigval :       99.32   101.24   106.02   108.60   111.00   113.87
eigval :      115.41   119.24   122.01   123.24   128.62   131.26
eigval :      132.67   133.61   135.80   137.03   145.26   146.74
eigval :      148.78   151.24   154.68   157.69   158.30   159.28
eigval :      162.11   163.86   165.44   167.96   170.42   171.84
eigval :      177.06   178.13   180.79   181.84   182.82   183.27
eigval :      190.11   191.28   192.66   195.23   196.73   198.24
eigval :      203.71   204.71   206.25   211.51   212.57   213.95
eigval :      216.50   217.89   218.87   222.95   225.39   225.90
eigval :      228.16   230.48   233.37   236.58   237.97   241.39
eigval :      241.84   243.47   246.15   249.08   251.10   252.00
eigval :      254.62   255.66   259.99   260.84   263.55   264.60
eigval :      271.30   272.88   274.21   277.28   281.75   282.72
eigval :      285.92   288.86   291.51   296.13   298.44   300.97
eigval :      304.48   305.28   306.14   309.74   314.37   318.78
eigval :      319.96   324.32   326.49   328.20   328.34   330.18
eigval :      330.66   332.48   346.25   353.63   355.67   358.54
eigval :      361.61   369.16   390.17   398.90   404.79   421.92
eigval :      428.43   436.08   442.57   460.02   466.44   474.39
eigval :      483.82   489.00   490.04   492.63   496.66   507.24
eigval :      510.08   515.22   520.38   529.49   543.88   546.56
eigval :      551.01   553.51   559.10   563.60   574.10   576.83
eigval :      579.39   588.54   592.74   604.33   608.18   612.33
eigval :      617.26   624.72   633.69   638.55   646.96   655.46
eigval :      672.65   685.01   689.68   691.93   713.25   721.22
eigval :      722.34   736.03   743.74   756.96   774.89   778.13
eigval :      782.97   799.86   821.82   826.60   830.71   845.44
eigval :      871.39   890.06   918.09  1448.06  1455.16  1456.52
eigval :     1457.54  1458.83  1458.98  1459.83  1462.66  1462.74
eigval :     1463.19  1463.42  1464.10  1464.74  1464.82  1465.38
eigval :     1465.56  1467.06  1470.40  1472.00  1473.05  1473.45
eigval :     1475.15  1476.25  1477.65  1478.44  1479.97  1483.97
eigval :     1484.64  1487.15  1489.26  1490.92  1492.72  1492.99
eigval :     1494.95  1498.10  1500.90  1506.10  1508.15  1526.35
eigval :     3048.78  3068.09  3092.26  3117.54  3122.28  3162.14
eigval :     3190.11  3211.63  3228.53  3238.96  3252.36  3263.77
eigval :     3267.39  3273.53  3283.10  3304.88  3308.86  3329.05
eigval :     3338.04  3343.67  3354.36  3369.65  3377.20  3454.36
eigval :     3497.18  3504.66  3506.41  3508.95  3518.87  3539.80
eigval :     3548.76  3551.60  3552.42  3555.74  3567.98  3577.87
eigval :     3582.67  3585.03  3587.07  3587.59  3588.32  3588.71
eigval :     3595.45  3595.89  3601.31  3604.19  3605.44  3606.89
eigval :     3608.68  3610.76  3613.99  3615.04  3616.26  3619.50
eigval :     3625.26  3626.43  3627.03  3627.67  3628.26  3632.92
eigval :     3632.98  3633.46  3635.34  3637.02  3638.12  3638.63
eigval :     3639.04  3641.31  3641.96  3642.43  3644.52  3646.98
eigval :     3648.73  3650.06  3650.83  3651.00  3654.50  3679.75
           -------------------------------------------------
          |                Property Printout                |
           -------------------------------------------------

    * Orbital Energies and Occupations

         #    Occupation            Energy/Eh            Energy/eV
      -------------------------------------------------------------
         1        2.0000           -0.6670042             -18.1501
       ...           ...                  ...                  ...
       149        2.0000           -0.3994184             -10.8687
       150        2.0000           -0.3979384             -10.8285
       151        2.0000           -0.3978706             -10.8266
       152        2.0000           -0.3971745             -10.8077
       153        2.0000           -0.3963859             -10.7862
       154        2.0000           -0.3948174             -10.7435
       155        2.0000           -0.3920291             -10.6677
       156        2.0000           -0.3902120             -10.6182
       157        1.0000           -0.3501007              -9.5267
       158        1.0000           -0.3472290              -9.4486
       159        1.0000           -0.3341963              -9.0939
       160        1.0000           -0.3258300              -8.8663
       161        1.0000           -0.3167300              -8.6187 (HOMO)
       162                         -0.0254696              -0.6931 (LUMO)
       163                          0.0253281               0.6892
       164                          0.0433402               1.1793
       165                          0.0620361               1.6881
       166                          0.0759767               2.0674
       167                          0.0837784               2.2797
       168                          0.0876875               2.3861
       169                          0.0963080               2.6207
       170                          0.0977736               2.6606
       171                          0.0990672               2.6958
       172                          0.1092540               2.9730
       ...                                ...                  ...
       243                          1.2578199              34.2270
      -------------------------------------------------------------
                  HL-Gap            0.2912604 Eh            7.9256 eV
             Fermi-level           -0.2706044 Eh           -7.3635 eV

     #   Z          covCN         q      C6AA      α(0)
     1  26 Fe       2.228     1.678     4.558     6.887
     2   8 O        2.046    -0.625    25.693     6.846
     3   8 O        2.013    -0.629    25.795     6.859
     4   8 O        1.962    -0.631    25.866     6.869
     5   8 O        1.840    -0.633    25.921     6.875
     6   8 O        1.922    -0.634    25.925     6.876
     7   8 O        1.925    -0.636    25.992     6.885
     8   1 H        0.803     0.383     0.518     1.130
     9   1 H        0.804     0.378     0.528     1.141
    10   1 H        0.803     0.377     0.529     1.142
    11   1 H        0.803     0.379     0.525     1.139
    12   1 H        0.804     0.381     0.521     1.134
    13   1 H        0.803     0.385     0.513     1.125
    14   1 H        0.804     0.382     0.519     1.131
    15   1 H        0.804     0.379     0.524     1.137
    16   1 H        0.804     0.385     0.513     1.125
    17   1 H        0.802     0.385     0.513     1.126
    18   1 H        0.802     0.387     0.509     1.121
    19   1 H        0.805     0.372     0.539     1.154
    20   8 O        1.610    -0.654    26.506     6.949
    21   8 O        1.608    -0.653    26.496     6.947
    22   8 O        1.608    -0.644    26.265     6.917
    23   8 O        1.770    -0.627    25.782     6.856
    24   8 O        1.609    -0.647    26.341     6.927
    25   8 O        1.607    -0.661    26.706     6.975
    26   8 O        1.609    -0.671    26.955     7.007
    27   8 O        1.607    -0.692    27.505     7.078
    28   8 O        1.608    -0.654    26.506     6.948
    29   8 O        1.608    -0.665    26.800     6.987
    30   8 O        1.607    -0.665    26.789     6.986
    31   8 O        1.608    -0.676    27.072     7.022
    32   1 H        0.802     0.366     0.552     1.167
    33   1 H        0.805     0.319     0.667     1.283
    34   1 H        0.805     0.321     0.662     1.278
    35   1 H        0.805     0.372     0.539     1.153
    36   1 H        0.805     0.316     0.674     1.290
    37   1 H        0.804     0.359     0.567     1.183
    38   1 H        0.805     0.322     0.657     1.274
    39   1 H        0.804     0.371     0.541     1.155
    40   1 H        0.805     0.320     0.664     1.280
    41   1 H        0.803     0.365     0.555     1.171
    42   1 H        0.802     0.382     0.520     1.133
    43   1 H        0.805     0.367     0.551     1.166
    44   1 H        0.805     0.316     0.674     1.289
    45   1 H        0.803     0.374     0.536     1.150
    46   1 H        0.805     0.309     0.694     1.308
    47   1 H        0.802     0.362     0.560     1.176
    48   1 H        0.805     0.315     0.677     1.293
    49   1 H        0.803     0.365     0.555     1.170
    50   1 H        0.804     0.351     0.587     1.203
    51   1 H        0.804     0.354     0.578     1.194
    52   1 H        0.805     0.323     0.656     1.272
    53   1 H        0.804     0.352     0.583     1.199
    54   1 H        0.805     0.315     0.677     1.293
    55   1 H        0.803     0.362     0.560     1.176
    56   8 O        1.611    -0.688    27.403     7.065
    57   1 H        0.805     0.340     0.611     1.228
    58   1 H        0.805     0.366     0.551     1.166
    59   8 O        1.610    -0.740    28.783     7.241
    60   1 H        0.805     0.386     0.511     1.123
    61   1 H        0.805     0.353     0.580     1.196
    62   8 O        1.610    -0.730    28.514     7.207
    63   1 H        0.805     0.386     0.511     1.123
    64   1 H        0.805     0.344     0.602     1.219
    65   8 O        1.610    -0.746    28.950     7.262
    66   1 H        0.805     0.365     0.554     1.169
    67   1 H        0.805     0.380     0.522     1.135
    68   8 O        1.611    -0.689    27.419     7.067
    69   1 H        0.805     0.355     0.576     1.192
    70   1 H        0.805     0.349     0.590     1.207
    71   8 O        1.610    -0.737    28.711     7.232
    72   1 H        0.805     0.360     0.565     1.180
    73   1 H        0.805     0.377     0.530     1.143
    74   8 O        1.610    -0.710    27.983     7.140
    75   1 H        0.805     0.361     0.563     1.178
    76   1 H        0.805     0.349     0.590     1.207
    77   8 O        1.610    -0.722    28.309     7.181
    78   1 H        0.805     0.382     0.520     1.132
    79   1 H        0.805     0.341     0.610     1.227
    80   8 O        1.611    -0.690    27.443     7.070
    81   1 H        0.805     0.361     0.564     1.179
    82   1 H        0.805     0.344     0.602     1.219
    83   8 O        1.609    -0.692    27.501     7.078
    84   1 H        0.803     0.358     0.569     1.185
    85   1 H        0.806     0.336     0.622     1.239
    86   8 O        1.611    -0.690    27.441     7.070
    87   1 H        0.805     0.346     0.599     1.215
    88   1 H        0.805     0.359     0.568     1.184
    89   8 O        1.610    -0.716    28.139     7.159
    90   1 H        0.805     0.341     0.609     1.226
    91   1 H        0.805     0.375     0.533     1.147
    92   8 O        1.611    -0.690    27.432     7.069
    93   1 H        0.805     0.352     0.582     1.199
    94   1 H        0.805     0.352     0.583     1.199
    95   8 O        1.611    -0.690    27.439     7.070
    96   1 H        0.805     0.354     0.579     1.195
    97   1 H        0.805     0.350     0.587     1.204
    98   8 O        1.611    -0.693    27.522     7.081
    99   1 H        0.805     0.348     0.593     1.209
   100   1 H        0.805     0.363     0.558     1.173
   101   8 O        1.611    -0.690    27.450     7.071
   102   1 H        0.805     0.342     0.607     1.224
   103   1 H        0.805     0.367     0.550     1.165
   104   8 O        1.611    -0.692    27.487     7.076
   105   1 H        0.805     0.350     0.589     1.205
   106   1 H        0.805     0.357     0.572     1.188
   107   8 O        1.611    -0.687    27.367     7.061
   108   1 H        0.805     0.353     0.580     1.197
   109   1 H        0.805     0.353     0.582     1.198
   110   8 O        1.610    -0.744    28.915     7.257
   111   1 H        0.805     0.379     0.525     1.138
   112   1 H        0.805     0.365     0.554     1.169
   113   8 O        1.610    -0.711    28.006     7.142
   114   1 H        0.805     0.350     0.587     1.203
   115   1 H        0.805     0.361     0.564     1.179
   116   8 O        1.610    -0.720    28.257     7.174
   117   1 H        0.805     0.347     0.595     1.212
   118   1 H        0.805     0.373     0.536     1.150

 Mol. C6AA /au·bohr⁶  :      69061.477505
 Mol. C8AA /au·bohr⁸  :    1271548.222143
 Mol. α(0) /au        :        374.157127


Wiberg/Mayer (AO) data.
largest (>0.10) Wiberg bond orders for each atom

 ---------------------------------------------------------------------------
     #   Z sym  total        # sym  WBO       # sym  WBO       # sym  WBO
 ---------------------------------------------------------------------------
     1  26 Fe   1.749 --     2 O    0.275     3 O    0.272     4 O    0.259
                             7 O    0.243     6 O    0.242     5 O    0.205
                            23 O    0.184
     2   8 O    1.928 --    12 H    0.800    13 H    0.789     1 Fe   0.275
     3   8 O    1.920 --    16 H    0.803    17 H    0.776     1 Fe   0.272
     4   8 O    1.919 --    15 H    0.800    14 H    0.794     1 Fe   0.259
     5   8 O    1.930 --    19 H    0.855    18 H    0.774     1 Fe   0.205
     6   8 O    1.916 --     9 H    0.801     8 H    0.800     1 Fe   0.242
     7   8 O    1.911 --    10 H    0.800    11 H    0.790     1 Fe   0.243
     8   1 H    0.851 --     6 O    0.800
     9   1 H    0.856 --     6 O    0.801
    10   1 H    0.855 --     7 O    0.800
    11   1 H    0.854 --     7 O    0.790
    12   1 H    0.851 --     2 O    0.800
    13   1 H    0.844 --     2 O    0.789
    14   1 H    0.850 --     4 O    0.794
    15   1 H    0.852 --     4 O    0.800
    16   1 H    0.849 --     3 O    0.803
    17   1 H    0.850 --     3 O    0.776
    18   1 H    0.849 --     5 O    0.774
    19   1 H    0.860 --     5 O    0.855
    20   8 O    1.852 --    34 H    0.865    35 H    0.852
    21   8 O    1.863 --    54 H    0.871    55 H    0.819
    22   8 O    1.901 --    40 H    0.862    41 H    0.810
    23   8 O    1.938 --    43 H    0.855    42 H    0.777     1 Fe   0.184
    24   8 O    1.867 --    36 H    0.870    37 H    0.828
    25   8 O    1.879 --    33 H    0.863    32 H    0.801
    26   8 O    1.818 --    52 H    0.866    53 H    0.852
    27   8 O    1.833 --    51 H    0.831    50 H    0.829
    28   8 O    1.868 --    48 H    0.871    49 H    0.817
    29   8 O    1.855 --    38 H    0.861    39 H    0.822
    30   8 O    1.847 --    46 H    0.873    47 H    0.805
    31   8 O    1.839 --    44 H    0.866    45 H    0.807
    32   1 H    0.866 --    25 O    0.801
    33   1 H    0.898 --    25 O    0.863
    34   1 H    0.897 --    20 O    0.865
    35   1 H    0.861 --    20 O    0.852
    36   1 H    0.900 --    24 O    0.870
    37   1 H    0.871 --    24 O    0.828
    38   1 H    0.896 --    29 O    0.861
    39   1 H    0.862 --    29 O    0.822
    40   1 H    0.898 --    22 O    0.862
    41   1 H    0.867 --    22 O    0.810
    42   1 H    0.853 --    23 O    0.777
    43   1 H    0.865 --    23 O    0.855
    44   1 H    0.900 --    31 O    0.866
    45   1 H    0.860 --    31 O    0.807
    46   1 H    0.904 --    30 O    0.873
    47   1 H    0.869 --    30 O    0.805
    48   1 H    0.901 --    28 O    0.871
    49   1 H    0.867 --    28 O    0.817
    50   1 H    0.877 --    27 O    0.829
    51   1 H    0.874 --    27 O    0.831
    52   1 H    0.896 --    26 O    0.866
    53   1 H    0.876 --    26 O    0.852
    54   1 H    0.901 --    21 O    0.871
    55   1 H    0.869 --    21 O    0.819
    56   8 O    1.783 --    57 H    0.882    58 H    0.864
    57   1 H    0.884 --    56 O    0.882
    58   1 H    0.866 --    56 O    0.864
    59   8 O    1.726 --    61 H    0.875    60 H    0.851
    60   1 H    0.851 --    59 O    0.851
    61   1 H    0.875 --    59 O    0.875
    62   8 O    1.733 --    64 H    0.882    63 H    0.851
    63   1 H    0.851 --    62 O    0.851
    64   1 H    0.882 --    62 O    0.882
    65   8 O    1.721 --    66 H    0.866    67 H    0.855
    66   1 H    0.867 --    65 O    0.866
    67   1 H    0.855 --    65 O    0.855
    68   8 O    1.776 --    70 H    0.875    69 H    0.870
    69   1 H    0.874 --    68 O    0.870
    70   1 H    0.878 --    68 O    0.875
    71   8 O    1.728 --    72 H    0.870    73 H    0.858
    72   1 H    0.870 --    71 O    0.870
    73   1 H    0.858 --    71 O    0.858
    74   8 O    1.748 --    76 H    0.878    75 H    0.870
    75   1 H    0.870 --    74 O    0.870
    76   1 H    0.878 --    74 O    0.878
    77   8 O    1.738 --    79 H    0.884    78 H    0.854
    78   1 H    0.854 --    77 O    0.854
    79   1 H    0.884 --    77 O    0.884
    80   8 O    1.775 --    82 H    0.878    81 H    0.867
    81   1 H    0.870 --    80 O    0.867
    82   1 H    0.882 --    80 O    0.878
    83   8 O    1.798 --    85 H    0.881    84 H    0.820
    84   1 H    0.872 --    83 O    0.820
    85   1 H    0.887 --    83 O    0.881
    86   8 O    1.775 --    87 H    0.878    88 H    0.868
    87   1 H    0.881 --    86 O    0.878
    88   1 H    0.871 --    86 O    0.868
    89   8 O    1.743 --    90 H    0.884    91 H    0.859
    90   1 H    0.884 --    89 O    0.884
    91   1 H    0.859 --    89 O    0.859
    92   8 O    1.776 --    94 H    0.873    93 H    0.873
    93   1 H    0.876 --    92 O    0.873
    94   1 H    0.876 --    92 O    0.873
    95   8 O    1.775 --    97 H    0.874    96 H    0.872
    96   1 H    0.875 --    95 O    0.872
    97   1 H    0.877 --    95 O    0.874
    98   8 O    1.778 --    99 H    0.876   100 H    0.865
    99   1 H    0.879 --    98 O    0.876
   100   1 H    0.868 --    98 O    0.865
   101   8 O    1.781 --   102 H    0.881   103 H    0.863
   102   1 H    0.883 --   101 O    0.881
   103   1 H    0.865 --   101 O    0.863
   104   8 O    1.774 --   105 H    0.875   106 H    0.869
   105   1 H    0.878 --   104 O    0.875
   106   1 H    0.872 --   104 O    0.869
   107   8 O    1.784 --   109 H    0.874   108 H    0.872
   108   1 H    0.875 --   107 O    0.872
   109   1 H    0.876 --   107 O    0.874
   110   8 O    1.722 --   112 H    0.866   111 H    0.856
   111   1 H    0.856 --   110 O    0.856
   112   1 H    0.867 --   110 O    0.866
   113   8 O    1.747 --   114 H    0.877   115 H    0.870
   114   1 H    0.877 --   113 O    0.877
   115   1 H    0.870 --   113 O    0.870
   116   8 O    1.740 --   117 H    0.880   118 H    0.860
   117   1 H    0.880 --   116 O    0.880
   118   1 H    0.861 --   116 O    0.860
 ---------------------------------------------------------------------------

Topologies differ in total number of bonds
Writing topology from bond orders to xtbtopo.mol

molecular dipole:
                 x           y           z       tot (Debye)
 q only:       -0.536       1.949      -1.295
   full:       -0.848       2.178      -2.058       7.917
molecular quadrupole (traceless):
                xx          xy          yy          xz          yz          zz
 q only:       -7.721     -12.852      21.909      12.075      36.650     -14.188
  q+dip:      -15.300     -17.394      32.125      13.104      47.351     -16.826
   full:      -16.460     -17.717      33.119      12.811      48.028     -16.660

           -------------------------------------------------
          |               Frequency Printout                |
           -------------------------------------------------
 projected vibrational frequencies (cm⁻¹)
eigval :       -0.00    -0.00    -0.00     0.00     0.00     0.00
eigval :       -9.55     8.56     9.20    15.24    19.06    19.81
eigval :       21.02    22.82    24.31    26.06    27.43    29.12
eigval :       31.13    32.63    34.37    35.44    35.74    37.29
eigval :       37.38    39.18    39.95    40.44    41.35    41.52
eigval :       43.18    43.60    44.38    46.01    47.05    49.03
eigval :       49.35    50.03    50.31    52.88    54.78    55.63
eigval :       57.51    58.10    58.97    60.14    60.85    62.69
eigval :       62.87    63.64    65.34    65.59    67.59    69.81
eigval :       70.64    71.62    72.51    73.53    76.11    76.56
eigval :       77.02    79.48    80.37    80.89    82.86    86.07
eigval :       86.47    88.67    90.25    92.69    93.82    97.50
eigval :       99.32   101.24   106.02   108.60   111.00   113.87
eigval :      115.41   119.24   122.01   123.24   128.62   131.26
eigval :      132.67   133.61   135.80   137.03   145.26   146.74
eigval :      148.78   151.24   154.68   157.69   158.30   159.28
eigval :      162.11   163.86   165.44   167.96   170.42   171.84
eigval :      177.06   178.13   180.79   181.84   182.82   183.27
eigval :      190.11   191.28   192.66   195.23   196.73   198.24
eigval :      203.71   204.71   206.25   211.51   212.57   213.95
eigval :      216.50   217.89   218.87   222.95   225.39   225.90
eigval :      228.16   230.48   233.37   236.58   237.97   241.39
eigval :      241.84   243.47   246.15   249.08   251.10   252.00
eigval :      254.62   255.66   259.99   260.84   263.55   264.60
eigval :      271.30   272.88   274.21   277.28   281.75   282.72
eigval :      285.92   288.86   291.51   296.13   298.44   300.97
eigval :      304.48   305.28   306.14   309.74   314.37   318.78
eigval :      319.96   324.32   326.49   328.20   328.34   330.18
eigval :      330.66   332.48   346.25   353.63   355.67   358.54
eigval :      361.61   369.16   390.17   398.90   404.79   421.92
eigval :      428.43   436.08   442.57   460.02   466.44   474.39
eigval :      483.82   489.00   490.04   492.63   496.66   507.24
eigval :      510.08   515.22   520.38   529.49   543.88   546.56
eigval :      551.01   553.51   559.10   563.60   574.10   576.83
eigval :      579.39   588.54   592.74   604.33   608.18   612.33
eigval :      617.26   624.72   633.69   638.55   646.96   655.46
eigval :      672.65   685.01   689.68   691.93   713.25   721.22
eigval :      722.34   736.03   743.74   756.96   774.89   778.13
eigval :      782.97   799.86   821.82   826.60   830.71   845.44
eigval :      871.39   890.06   918.09  1448.06  1455.16  1456.52
eigval :     1457.54  1458.83  1458.98  1459.83  1462.66  1462.74
eigval :     1463.19  1463.42  1464.10  1464.74  1464.82  1465.38
eigval :     1465.56  1467.06  1470.40  1472.00  1473.05  1473.45
eigval :     1475.15  1476.25  1477.65  1478.44  1479.97  1483.97
eigval :     1484.64  1487.15  1489.26  1490.92  1492.72  1492.99
eigval :     1494.95  1498.10  1500.90  1506.10  1508.15  1526.35
eigval :     3048.78  3068.09  3092.26  3117.54  3122.28  3162.14
eigval :     3190.11  3211.63  3228.53  3238.96  3252.36  3263.77
eigval :     3267.39  3273.53  3283.10  3304.88  3308.86  3329.05
eigval :     3338.04  3343.67  3354.36  3369.65  3377.20  3454.36
eigval :     3497.18  3504.66  3506.41  3508.95  3518.87  3539.80
eigval :     3548.76  3551.60  3552.42  3555.74  3567.98  3577.87
eigval :     3582.67  3585.03  3587.07  3587.59  3588.32  3588.71
eigval :     3595.45  3595.89  3601.31  3604.19  3605.44  3606.89
eigval :     3608.68  3610.76  3613.99  3615.04  3616.26  3619.50
eigval :     3625.26  3626.43  3627.03  3627.67  3628.26  3632.92
eigval :     3632.98  3633.46  3635.34  3637.02  3638.12  3638.63
eigval :     3639.04  3641.31  3641.96  3642.43  3644.52  3646.98
eigval :     3648.73  3650.06  3650.83  3651.00  3654.50  3679.75
 reduced masses (amu)
   1: 17.07   2: 14.70   3: 16.70   4: 17.03   5: 14.27   6: 14.94   7: 13.97   8: 15.38
   9: 14.12  10: 14.19  11: 14.35  12: 14.46  13: 14.64  14: 14.65  15: 14.92  16: 14.54
  17: 14.77  18: 14.99  19: 14.47  20: 14.86  21: 14.82  22: 14.51  23: 14.37  24: 14.71
  25: 14.35  26: 14.42  27: 14.60  28: 14.67  29: 14.90  30: 14.39  31: 14.77  32: 14.51
  33: 14.78  34: 14.52  35: 14.77  36: 14.48  37: 14.89  38: 14.80  39: 15.38  40: 14.48
  41: 14.43  42: 14.53  43: 14.58  44: 14.54  45: 14.53  46: 14.44  47: 14.57  48: 14.85
  49: 14.42  50: 14.39  51: 14.64  52: 14.48  53: 14.33  54: 13.94  55: 14.41  56: 14.74
  57: 14.66  58: 14.52  59: 14.19  60: 14.91  61: 14.69  62: 14.57  63: 14.80  64: 14.60
  65: 14.83  66: 14.62  67: 14.03  68: 14.92  69: 14.85  70:  9.48  71: 12.90  72: 17.89
  73: 15.80  74: 12.85  75:  9.83  76: 18.94  77: 13.48  78: 15.23  79: 14.25  80: 12.87
  81: 17.54  82:  5.88  83:  6.72  84:  9.73  85: 12.85  86: 10.03  87: 12.52  88: 14.28
  89: 13.65  90:  5.07  91:  7.93  92: 12.53  93: 10.96  94:  2.54  95:  6.30  96:  7.09
  97:  8.80  98:  7.78  99:  6.29 100:  8.16 101: 14.83 102:  9.51 103: 11.65 104:  8.22
 105:  5.50 106:  4.47 107:  6.56 108:  6.06 109:  8.79 110:  6.67 111:  8.02 112:  7.44
 113:  7.58 114:  8.95 115:  3.59 116:  5.25 117:  5.90 118:  5.69 119:  5.25 120: 10.19
 121:  8.36 122:  5.82 123:  5.10 124:  6.89 125:  9.73 126:  5.88 127:  6.74 128:  4.34
 129:  8.14 130:  4.90 131: 10.79 132:  7.04 133:  9.53 134:  8.83 135: 10.40 136:  7.60
 137:  8.78 138:  3.09 139:  7.01 140:  7.42 141:  8.08 142:  4.22 143:  5.98 144:  7.48
 145:  8.64 146:  8.00 147:  6.07 148:  8.49 149:  6.72 150:  4.33 151: 10.23 152:  8.89
 153: 11.80 154:  5.43 155:  9.67 156:  7.50 157:  7.86 158:  3.71 159:  5.59 160:  7.40
 161: 11.74 162: 10.19 163:  3.77 164:  5.64 165:  9.13 166:  4.99 167:  8.69 168:  2.59
 169:  8.90 170:  3.47 171: 15.25 172: 20.80 173: 15.69 174:  2.69 175: 13.08 176:  6.39
 177:  1.67 178:  1.55 179:  2.68 180:  1.51 181:  1.95 182:  2.32 183:  1.54 184:  2.19
 185:  1.58 186:  2.04 187:  1.79 188:  1.59 189:  1.80 190:  1.61 191:  1.67 192:  1.92
 193:  1.65 194:  1.47 195:  1.84 196:  1.65 197:  1.79 198:  1.84 199:  1.71 200:  1.91
 201:  1.68 202:  1.69 203:  1.77 204:  1.65 205:  1.99 206:  1.62 207:  1.72 208:  1.82
 209:  1.78 210:  1.88 211:  1.81 212:  1.79 213:  1.63 214:  1.55 215:  1.81 216:  1.70
 217:  1.72 218:  1.62 219:  1.81 220:  1.88 221:  1.72 222:  1.76 223:  2.00 224:  1.53
 225:  1.77 226:  1.78 227:  1.85 228:  1.75 229:  2.02 230:  1.85 231:  1.95 232:  2.10
 233:  1.98 234:  2.06 235:  1.94 236:  2.07 237:  2.14 238:  2.02 239:  2.08 240:  2.07
 241:  2.07 242:  2.13 243:  2.12 244:  2.06 245:  2.13 246:  2.16 247:  2.14 248:  2.14
 249:  2.12 250:  2.07 251:  2.10 252:  2.10 253:  2.10 254:  2.15 255:  2.06 256:  2.12
 257:  2.12 258:  2.14 259:  2.08 260:  2.04 261:  1.95 262:  1.98 263:  2.11 264:  2.02
 265:  2.00 266:  2.09 267:  2.02 268:  2.02 269:  2.04 270:  2.11 271:  2.06 272:  2.02
 273:  2.00 274:  1.96 275:  1.94 276:  1.94 277:  1.91 278:  1.90 279:  1.99 280:  1.91
 281:  1.91 282:  2.10 283:  1.92 284:  1.93 285:  1.95 286:  2.04 287:  2.00 288:  1.98
 289:  1.96 290:  1.84 291:  1.89 292:  2.07 293:  1.69 294:  1.78 295:  1.90 296:  1.72
 297:  1.81 298:  1.65 299:  1.60 300:  2.06 301:  1.65 302:  1.81 303:  1.78 304:  1.77
 305:  2.10 306:  1.60 307:  1.77 308:  1.82 309:  1.81 310:  1.78 311:  1.82 312:  1.83
 313:  1.82 314:  1.85 315:  1.82 316:  1.84 317:  1.86 318:  1.84 319:  1.82 320:  1.82
 321:  1.88 322:  1.84 323:  1.81 324:  1.82 325:  1.83 326:  1.89 327:  1.86 328:  1.87
 329:  1.84 330:  1.92 331:  1.85 332:  1.96 333:  1.84 334:  2.11 335:  1.90 336:  1.58
 337:  1.73 338:  1.86 339:  1.87 340:  2.11 341:  1.77 342:  1.79 343:  1.57 344:  1.84
 345:  1.80 346:  1.82 347:  1.85 348:  1.85 349:  1.84 350:  1.82 351:  1.82 352:  1.83
 353:  1.85 354:  1.84
 IR intensities (km·mol⁻¹)
   1: 11.16   2:  3.17   3:  8.98   4:  9.48   5:  0.13   6:  1.90   7:  0.02   8: 31.71
   9:  0.89  10: 10.33  11: 17.98  12:  3.71  13:  0.97  14:  1.67  15:  3.35  16:  4.05
  17:  1.65  18:  5.84  19:  1.66  20:  1.50  21:  0.54  22:  6.91  23:  5.98  24:  5.37
  25:  2.31  26:  1.42  27:  4.57  28:  7.42  29:  4.51  30:  1.45  31:  6.03  32:  2.88
  33:  0.05  34:  2.33  35:  0.78  36:  4.07  37:  4.50  38:  2.73  39:  3.54  40:  1.54
  41:  2.14  42:  3.65  43:  3.13  44:  1.79  45:  7.21  46:  5.65  47:  2.71  48:  8.41
  49:  5.00  50:  2.48  51:  1.29  52: 12.31  53:  3.20  54:  5.72  55:  4.16  56:  2.42
  57:  3.32  58:  1.59  59:  7.94  60:  5.93  61:  6.40  62: 16.57  63:  9.01  64:  0.50
  65:  5.28  66:  3.69  67: 12.04  68: 21.22  69: 23.33  70: 57.90  71: 29.65  72: 11.84
  73:  2.29  74:  8.34  75: 42.66  76: 15.39  77:  5.00  78: 19.66  79:  4.57  80: 11.17
  81: 22.27  82:203.40  83:  2.63  84: 89.47  85:  6.24  86: 43.05  87: 21.01  88: 14.38
  89: 17.30  90:184.02  91:101.52  92: 31.29  93:  9.82  94: 84.43  95:200.09  96: 37.17
  97: 18.44  98:100.88  99: 84.16 100: 86.43 101:  3.77 102: 69.96 103:126.31 104:157.27
 105: 74.90 106:166.85 107: 42.97 108:142.82 109: 40.49 110: 72.85 111: 90.57 112:451.36
 113:111.78 114:164.92 115: 23.98 116:129.19 117:243.10 118: 82.75 119:124.21 120: 25.22
 121:264.77 122:187.88 123:455.62 124: 47.71 125: 99.24 126:438.44 127: 82.18 128:980.75
 129:243.22 130:344.01 131:255.02 132:370.77 133: 47.71 134: 48.53 135: 19.08 136:281.63
 137:135.23 138:500.90 139:190.11 140: 26.93 141:211.04 142:332.70 143: 14.28 144:238.54
 145:102.11 146: 41.25 147:123.86 148: 33.41 149:213.34 150: 59.09 151: 16.90 152: 79.71
 153: 23.55 154: 72.73 155: 11.38 156: 53.98 157: 42.90 158: 48.93 159: 15.94 160: 46.18
 161: 21.68 162: 25.09 163:171.32 164: 12.27 165: 29.70 166: 98.80 167:230.44 168: 82.93
 169: 82.12 170: 74.28 171: 28.53 172: 37.85 173: 60.66 174: 88.21 175: 21.55 176:  2.58
 177: 27.56 178: 32.33 179: 92.07 180: 12.98 181:171.14 182: 35.81 183: 75.95 184:230.60
 185:156.93 186: 58.89 187: 29.20 188: 32.24 189:113.09 190: 16.15 191: 25.30 192: 58.28
 193: 77.37 194: 64.95 195: 34.56 196: 75.82 197:150.95 198:109.98 199: 87.18 200: 86.76
 201: 71.32 202: 35.51 203: 10.34 204:227.15 205:308.27 206: 55.75 207:122.54 208:173.85
 209:219.54 210:284.39 211:287.30 212:128.53 213: 24.30 214: 53.33 215:434.72 216:236.16
 217:237.65 218: 51.32 219:182.14 220:283.57 221:510.05 222:101.53 223:954.68 224:126.61
 225: 62.44 226:225.62 227:680.45 228: 31.23 229:562.14 230:149.66 231:452.93 232:763.04
 233:753.34 234:466.28 235:493.52 236: 68.05 237:240.27 238:305.52 239: 88.30 240:102.38
 241: 46.43 242:246.55 243:225.75 244:511.94 245:413.84 246:146.49 247: 22.10 248:316.94
 249:676.38 250: 79.17 251:443.00 252:191.23 253:108.15 254:152.51 255:381.52 256: 86.09
 257: 57.09 258:249.04 259:105.36 260:196.35 261:235.66 262:210.71 263:222.46 264: 86.27
 265:292.87 266: 84.34 267:135.98 268:117.57 269:179.09 270: 15.86 271:284.75 272:123.24
 273:110.91 274: 66.23 275:339.48 276:167.33 277:608.84 278:****** 279:451.80 280:******
 281:879.05 282:****** 283:588.71 284:****** 285:232.96 286:****** 287:934.69 288:******
 289:104.99 290:483.32 291:****** 292:****** 293:150.44 294:996.70 295:413.44 296:******
 297:****** 298:131.70 299:302.66 300:369.52 301:205.31 302:552.12 303:211.61 304:125.49
 305:299.08 306:128.18 307:197.09 308:137.43 309:375.93 310:192.54 311:220.71 312: 93.84
 313:111.84 314:118.36 315:111.31 316:120.26 317: 66.22 318: 92.18 319: 41.39 320:106.54
 321:109.28 322: 84.71 323: 85.57 324:114.49 325:112.16 326: 78.34 327: 96.13 328:102.18
 329: 78.60 330: 95.47 331: 76.58 332:102.09 333:101.38 334:141.29 335: 90.61 336: 33.91
 337: 60.26 338: 84.11 339: 91.97 340:142.28 341: 62.56 342: 68.30 343: 34.36 344: 68.90
 345: 52.26 346:126.39 347: 83.45 348: 75.40 349: 73.00 350: 67.00 351: 78.71 352: 63.47
 353: 59.42 354: 64.33
 Raman intensities (amu)
   1:  0.00   2:  0.00   3:  0.00   4:  0.00   5:  0.00   6:  0.00   7:  0.00   8:  0.00
   9:  0.00  10:  0.00  11:  0.00  12:  0.00  13:  0.00  14:  0.00  15:  0.00  16:  0.00
  17:  0.00  18:  0.00  19:  0.00  20:  0.00  21:  0.00  22:  0.00  23:  0.00  24:  0.00
  25:  0.00  26:  0.00  27:  0.00  28:  0.00  29:  0.00  30:  0.00  31:  0.00  32:  0.00
  33:  0.00  34:  0.00  35:  0.00  36:  0.00  37:  0.00  38:  0.00  39:  0.00  40:  0.00
  41:  0.00  42:  0.00  43:  0.00  44:  0.00  45:  0.00  46:  0.00  47:  0.00  48:  0.00
  49:  0.00  50:  0.00  51:  0.00  52:  0.00  53:  0.00  54:  0.00  55:  0.00  56:  0.00
  57:  0.00  58:  0.00  59:  0.00  60:  0.00  61:  0.00  62:  0.00  63:  0.00  64:  0.00
  65:  0.00  66:  0.00  67:  0.00  68:  0.00  69:  0.00  70:  0.00  71:  0.00  72:  0.00
Molecule has no symmetry elements
It seems to be the C1 point group
  73:  0.00  74:  0.00  75:  0.00  76:  0.00  77:  0.00  78:  0.00  79:  0.00  80:  0.00
  81:  0.00  82:  0.00  83:  0.00  84:  0.00  85:  0.00  86:  0.00  87:  0.00  88:  0.00
  89:  0.00  90:  0.00  91:  0.00  92:  0.00  93:  0.00  94:  0.00  95:  0.00  96:  0.00
  97:  0.00  98:  0.00  99:  0.00 100:  0.00 101:  0.00 102:  0.00 103:  0.00 104:  0.00
 105:  0.00 106:  0.00 107:  0.00 108:  0.00 109:  0.00 110:  0.00 111:  0.00 112:  0.00
 113:  0.00 114:  0.00 115:  0.00 116:  0.00 117:  0.00 118:  0.00 119:  0.00 120:  0.00
 121:  0.00 122:  0.00 123:  0.00 124:  0.00 125:  0.00 126:  0.00 127:  0.00 128:  0.00
 129:  0.00 130:  0.00 131:  0.00 132:  0.00 133:  0.00 134:  0.00 135:  0.00 136:  0.00
 137:  0.00 138:  0.00 139:  0.00 140:  0.00 141:  0.00 142:  0.00 143:  0.00 144:  0.00
 145:  0.00 146:  0.00 147:  0.00 148:  0.00 149:  0.00 150:  0.00 151:  0.00 152:  0.00
 153:  0.00 154:  0.00 155:  0.00 156:  0.00 157:  0.00 158:  0.00 159:  0.00 160:  0.00
 161:  0.00 162:  0.00 163:  0.00 164:  0.00 165:  0.00 166:  0.00 167:  0.00 168:  0.00
 169:  0.00 170:  0.00 171:  0.00 172:  0.00 173:  0.00 174:  0.00 175:  0.00 176:  0.00
 177:  0.00 178:  0.00 179:  0.00 180:  0.00 181:  0.00 182:  0.00 183:  0.00 184:  0.00
 185:  0.00 186:  0.00 187:  0.00 188:  0.00 189:  0.00 190:  0.00 191:  0.00 192:  0.00
 193:  0.00 194:  0.00 195:  0.00 196:  0.00 197:  0.00 198:  0.00 199:  0.00 200:  0.00
 201:  0.00 202:  0.00 203:  0.00 204:  0.00 205:  0.00 206:  0.00 207:  0.00 208:  0.00
 209:  0.00 210:  0.00 211:  0.00 212:  0.00 213:  0.00 214:  0.00 215:  0.00 216:  0.00
 217:  0.00 218:  0.00 219:  0.00 220:  0.00 221:  0.00 222:  0.00 223:  0.00 224:  0.00
 225:  0.00 226:  0.00 227:  0.00 228:  0.00 229:  0.00 230:  0.00 231:  0.00 232:  0.00
 233:  0.00 234:  0.00 235:  0.00 236:  0.00 237:  0.00 238:  0.00 239:  0.00 240:  0.00
 241:  0.00 242:  0.00 243:  0.00 244:  0.00 245:  0.00 246:  0.00 247:  0.00 248:  0.00
 249:  0.00 250:  0.00 251:  0.00 252:  0.00 253:  0.00 254:  0.00 255:  0.00 256:  0.00
 257:  0.00 258:  0.00 259:  0.00 260:  0.00 261:  0.00 262:  0.00 263:  0.00 264:  0.00
 265:  0.00 266:  0.00 267:  0.00 268:  0.00 269:  0.00 270:  0.00 271:  0.00 272:  0.00
 273:  0.00 274:  0.00 275:  0.00 276:  0.00 277:  0.00 278:  0.00 279:  0.00 280:  0.00
 281:  0.00 282:  0.00 283:  0.00 284:  0.00 285:  0.00 286:  0.00 287:  0.00 288:  0.00
 289:  0.00 290:  0.00 291:  0.00 292:  0.00 293:  0.00 294:  0.00 295:  0.00 296:  0.00
 297:  0.00 298:  0.00 299:  0.00 300:  0.00 301:  0.00 302:  0.00 303:  0.00 304:  0.00
 305:  0.00 306:  0.00 307:  0.00 308:  0.00 309:  0.00 310:  0.00 311:  0.00 312:  0.00
 313:  0.00 314:  0.00 315:  0.00 316:  0.00 317:  0.00 318:  0.00 319:  0.00 320:  0.00
 321:  0.00 322:  0.00 323:  0.00 324:  0.00 325:  0.00 326:  0.00 327:  0.00 328:  0.00
 329:  0.00 330:  0.00 331:  0.00 332:  0.00 333:  0.00 334:  0.00 335:  0.00 336:  0.00
 337:  0.00 338:  0.00 339:  0.00 340:  0.00 341:  0.00 342:  0.00 343:  0.00 344:  0.00
 345:  0.00 346:  0.00 347:  0.00 348:  0.00 349:  0.00 350:  0.00 351:  0.00 352:  0.00
 353:  0.00 354:  0.00
 output can be read by thermo (or use thermo option).
 writing <g98.out> molden fake output.
 recommended (thermochemical) frequency scaling factor: 1.0
           -------------------------------------------------
          |             Thermodynamic Functions             |
           -------------------------------------------------

c1  symmetry found (for desy threshold:  0.10E+00) used in thermo
 inverting freq            1   9.5541445325988903     

          ...................................................
          :                      SETUP                      :
          :.................................................:
          :  # frequencies                         348      :
          :  # imaginary freq.                       0      :
          :  linear?                             false      :
          :  only rotor calc.                    false      :
          :  symmetry                               c1      :
          :  rotational number                       1      :
          :  scaling factor                  1.0000000      :
          :  rotor cutoff                   50.0000000 cm⁻¹ :
          :  imag. cutoff                  -20.0000000 cm⁻¹ :
          :.................................................:

    mode    ω/cm⁻¹     T·S(HO)/kcal·mol⁻¹    T·S(FR)/kcal·mol⁻¹   T·S(vib)
   ------------------------------------------------------------------------
       1      9.55    -2.41551 (  0.13%)    -1.54681 ( 99.87%)    -1.54797
       2      8.56    -2.48085 (  0.09%)    -1.57948 ( 99.91%)    -1.58026
       3      9.20    -2.43808 (  0.11%)    -1.55810 ( 99.89%)    -1.55910
       4     15.24    -2.13887 (  0.86%)    -1.40847 ( 99.14%)    -1.41472
       5     19.06    -2.00658 (  2.07%)    -1.34229 ( 97.93%)    -1.35602
       6     19.81    -1.98374 (  2.40%)    -1.33086 ( 97.60%)    -1.34655
       7     21.02    -1.94847 (  3.03%)    -1.31321 ( 96.97%)    -1.33246
       8     22.82    -1.89995 (  4.16%)    -1.28893 ( 95.84%)    -1.31433
       9     24.31    -1.86247 (  5.29%)    -1.27017 ( 94.71%)    -1.30152
      10     26.06    -1.82143 (  6.87%)    -1.24962 ( 93.13%)    -1.28890
      11     27.43    -1.79097 (  8.31%)    -1.23438 ( 91.69%)    -1.28062
      12     29.12    -1.75572 ( 10.31%)    -1.21672 ( 89.69%)    -1.27231
      13     31.13    -1.71617 ( 13.06%)    -1.19691 ( 86.94%)    -1.26475
      14     32.63    -1.68831 ( 15.36%)    -1.18296 ( 84.64%)    -1.26056
      15     34.37    -1.65767 ( 18.25%)    -1.16761 ( 81.75%)    -1.25703
      16     35.44    -1.63951 ( 20.15%)    -1.15850 ( 79.85%)    -1.25544
      17     35.74    -1.63449 ( 20.71%)    -1.15599 ( 79.29%)    -1.25506
      18     37.29    -1.60952 ( 23.62%)    -1.14347 ( 76.38%)    -1.25354
      19     37.38    -1.60799 ( 23.81%)    -1.14270 ( 76.19%)    -1.25347
      20     39.18    -1.58019 ( 27.39%)    -1.12876 ( 72.61%)    -1.25239
      21     39.95    -1.56879 ( 28.95%)    -1.12305 ( 71.05%)    -1.25208
      22     40.44    -1.56153 ( 29.97%)    -1.11941 ( 70.03%)    -1.25190
      23     41.35    -1.54837 ( 31.87%)    -1.11281 ( 68.13%)    -1.25163
      24     41.52    -1.54596 ( 32.23%)    -1.11160 ( 67.77%)    -1.25158
      25     43.18    -1.52277 ( 35.75%)    -1.09996 ( 64.25%)    -1.25111
      26     43.60    -1.51714 ( 36.63%)    -1.09714 ( 63.37%)    -1.25099
      27     44.38    -1.50666 ( 38.30%)    -1.09187 ( 61.70%)    -1.25072
      28     46.01    -1.48533 ( 41.76%)    -1.08117 ( 58.24%)    -1.24996
      29     47.05    -1.47218 ( 43.95%)    -1.07456 ( 56.05%)    -1.24930
      30     49.03    -1.44783 ( 48.05%)    -1.06234 ( 51.95%)    -1.24755
      31     49.35    -1.44402 ( 48.69%)    -1.06042 ( 51.31%)    -1.24720
      32     50.03    -1.43595 ( 50.06%)    -1.05637 ( 49.94%)    -1.24639
      33     50.31    -1.43267 ( 50.62%)    -1.05472 ( 49.38%)    -1.24602
      34     52.88    -1.40329 ( 55.58%)    -1.03995 ( 44.42%)    -1.24189
      35     54.78    -1.38246 ( 59.04%)    -1.02948 ( 40.96%)    -1.23786
      36     55.63    -1.37341 ( 60.51%)    -1.02493 ( 39.49%)    -1.23581
      37     57.51    -1.35385 ( 63.64%)    -1.01509 ( 36.36%)    -1.23068
      38     58.10    -1.34781 ( 64.58%)    -1.01205 ( 35.42%)    -1.22890
      39     58.97    -1.33912 ( 65.92%)    -1.00767 ( 34.08%)    -1.22617
      40     60.14    -1.32753 ( 67.67%)    -1.00184 ( 32.33%)    -1.22223
      41     60.85    -1.32064 ( 68.69%)    -0.99837 ( 31.31%)    -1.21972
      42     62.69    -1.30308 ( 71.20%)    -0.98953 ( 28.80%)    -1.21277
      43     62.87    -1.30144 ( 71.42%)    -0.98870 ( 28.58%)    -1.21207
      44     63.64    -1.29428 ( 72.41%)    -0.98509 ( 27.59%)    -1.20897
      45     65.34    -1.27880 ( 74.46%)    -0.97729 ( 25.54%)    -1.20180
      46     65.59    -1.27651 ( 74.76%)    -0.97613 ( 25.24%)    -1.20069
      47     67.59    -1.25892 ( 76.95%)    -0.96726 ( 23.05%)    -1.19169
      48     69.81    -1.23988 ( 79.17%)    -0.95765 ( 20.83%)    -1.18109
      49     70.64    -1.23298 ( 79.94%)    -0.95417 ( 20.06%)    -1.17704
      50     71.62    -1.22488 ( 80.81%)    -0.95008 ( 19.19%)    -1.17214
      51     72.51    -1.21762 ( 81.56%)    -0.94642 ( 18.44%)    -1.16762
      52     73.53    -1.20943 ( 82.39%)    -0.94228 ( 17.61%)    -1.16238
      53     76.11    -1.18925 ( 84.30%)    -0.93208 ( 15.70%)    -1.14887
      54     76.56    -1.18582 ( 84.61%)    -0.93034 ( 15.39%)    -1.14649
      55     77.02    -1.18229 ( 84.92%)    -0.92856 ( 15.08%)    -1.14402
      56     79.48    -1.16389 ( 86.46%)    -0.91925 ( 13.54%)    -1.13076
      57     80.37    -1.15733 ( 86.97%)    -0.91593 ( 13.03%)    -1.12589
      58     80.89    -1.15358 ( 87.26%)    -0.91403 ( 12.74%)    -1.12306
      59     82.86    -1.13953 ( 88.29%)    -0.90691 ( 11.71%)    -1.11230
      60     86.07    -1.11731 ( 89.78%)    -0.89565 ( 10.22%)    -1.09465
      61     86.47    -1.11461 ( 89.94%)    -0.89428 ( 10.06%)    -1.09245
      62     88.67    -1.09994 ( 90.82%)    -0.88684 (  9.18%)    -1.08037
      63     90.25    -1.08962 ( 91.39%)    -0.88159 (  8.61%)    -1.07171
      64     92.69    -1.07411 ( 92.19%)    -0.87371 (  7.81%)    -1.05846
      65     93.82    -1.06700 ( 92.54%)    -0.87010 (  7.46%)    -1.05231
      66     97.50    -1.04460 ( 93.53%)    -0.85870 (  6.47%)    -1.03258
      67     99.32    -1.03389 ( 93.96%)    -0.85324 (  6.04%)    -1.02299
      68    101.24    -1.02275 ( 94.38%)    -0.84756 (  5.62%)    -1.01291
      69    106.02    -0.99597 ( 95.29%)    -0.83389 (  4.71%)    -0.98833
      70    108.60    -0.98203 ( 95.70%)    -0.82676 (  4.30%)    -0.97535
      71    111.00    -0.96939 ( 96.05%)    -0.82029 (  3.95%)    -0.96350
      72    113.87    -0.95464 ( 96.42%)    -0.81274 (  3.58%)    -0.94955
      73    115.41    -0.94685 ( 96.60%)    -0.80874 (  3.40%)    -0.94215
      74    119.24    -0.92805 ( 97.00%)    -0.79909 (  3.00%)    -0.92418
      75    122.01    -0.91482 ( 97.26%)    -0.79228 (  2.74%)    -0.91146
      76    123.24    -0.90904 ( 97.36%)    -0.78931 (  2.64%)    -0.90588
      77    128.62    -0.88447 ( 97.77%)    -0.77664 (  2.23%)    -0.88206
      78    131.26    -0.87284 ( 97.94%)    -0.77063 (  2.06%)    -0.87073
      79    132.67    -0.86673 ( 98.02%)    -0.76747 (  1.98%)    -0.86477
      80    133.61    -0.86267 ( 98.08%)    -0.76537 (  1.92%)    -0.86079
      81    135.80    -0.85336 ( 98.20%)    -0.76055 (  1.80%)    -0.85169
      82    137.03    -0.84820 ( 98.26%)    -0.75788 (  1.74%)    -0.84663
      83    145.26    -0.81497 ( 98.62%)    -0.74061 (  1.38%)    -0.81394
      84    146.74    -0.80920 ( 98.67%)    -0.73760 (  1.33%)    -0.80825
      85    148.78    -0.80135 ( 98.74%)    -0.73351 (  1.26%)    -0.80050
      86    151.24    -0.79205 ( 98.82%)    -0.72865 (  1.18%)    -0.79131
      87    154.68    -0.77930 ( 98.92%)    -0.72198 (  1.08%)    -0.77868
      88    157.69    -0.76843 ( 99.00%)    -0.71628 (  1.00%)    -0.76791
      89    158.30    -0.76625 ( 99.01%)    -0.71514 (  0.99%)    -0.76574
      90    159.28    -0.76275 ( 99.04%)    -0.71330 (  0.96%)    -0.76227
      91    162.11    -0.75282 ( 99.10%)    -0.70809 (  0.90%)    -0.75242
      92    163.86    -0.74678 ( 99.14%)    -0.70490 (  0.86%)    -0.74642
      93    165.44    -0.74141 ( 99.17%)    -0.70208 (  0.83%)    -0.74108
      94    167.96    -0.73292 ( 99.22%)    -0.69760 (  0.78%)    -0.73265
      95    170.42    -0.72474 ( 99.26%)    -0.69328 (  0.74%)    -0.72451
      96    171.84    -0.72010 ( 99.29%)    -0.69082 (  0.71%)    -0.71989
      97    177.06    -0.70339 ( 99.37%)    -0.68196 (  0.63%)    -0.70326
      98    178.13    -0.70003 ( 99.38%)    -0.68017 (  0.62%)    -0.69990
      99    180.79    -0.69177 ( 99.42%)    -0.67578 (  0.58%)    -0.69167
     100    181.84    -0.68857 ( 99.43%)    -0.67408 (  0.57%)    -0.68849
     101    182.82    -0.68556 ( 99.44%)    -0.67247 (  0.56%)    -0.68549
     102    183.27    -0.68420 ( 99.45%)    -0.67175 (  0.55%)    -0.68413
     103    190.11    -0.66392 ( 99.52%)    -0.66090 (  0.48%)    -0.66390
     104    191.28    -0.66052 ( 99.54%)    -0.65908 (  0.46%)    -0.66051
     105    192.66    -0.65655 ( 99.55%)    -0.65695 (  0.45%)    -0.65656
     106    195.23    -0.64925 ( 99.57%)    -0.65302 (  0.43%)    -0.64927
     107    196.73    -0.64504 ( 99.58%)    -0.65076 (  0.42%)    -0.64507
     108    198.24    -0.64083 ( 99.60%)    -0.64848 (  0.40%)    -0.64086
     109    203.71    -0.62591 ( 99.64%)    -0.64043 (  0.36%)    -0.62597
     110    204.71    -0.62325 ( 99.65%)    -0.63898 (  0.35%)    -0.62330
     111    206.25    -0.61914 ( 99.66%)    -0.63675 (  0.34%)    -0.61920
     112    211.51    -0.60541 ( 99.69%)    -0.62929 (  0.31%)    -0.60549
     113    212.57    -0.60270 ( 99.69%)    -0.62781 (  0.31%)    -0.60278
     114    213.95    -0.59919 ( 99.70%)    -0.62590 (  0.30%)    -0.59927
     115    216.50    -0.59278 ( 99.72%)    -0.62239 (  0.28%)    -0.59287
     116    217.89    -0.58930 ( 99.72%)    -0.62049 (  0.28%)    -0.58939
     117    218.87    -0.58687 ( 99.73%)    -0.61915 (  0.27%)    -0.58696
     118    222.95    -0.57691 ( 99.75%)    -0.61368 (  0.25%)    -0.57700
     119    225.39    -0.57106 ( 99.76%)    -0.61046 (  0.24%)    -0.57116
     120    225.90    -0.56984 ( 99.76%)    -0.60979 (  0.24%)    -0.56994
     121    228.16    -0.56450 ( 99.77%)    -0.60684 (  0.23%)    -0.56460
     122    230.48    -0.55910 ( 99.78%)    -0.60385 (  0.22%)    -0.55920
     123    233.37    -0.55242 ( 99.79%)    -0.60015 (  0.21%)    -0.55252
     124    236.58    -0.54515 ( 99.80%)    -0.59611 (  0.20%)    -0.54525
     125    237.97    -0.54204 ( 99.81%)    -0.59438 (  0.19%)    -0.54215
     126    241.39    -0.53446 ( 99.82%)    -0.59014 (  0.18%)    -0.53456
     127    241.84    -0.53348 ( 99.82%)    -0.58960 (  0.18%)    -0.53358
     128    243.47    -0.52992 ( 99.82%)    -0.58760 (  0.18%)    -0.53002
     129    246.15    -0.52415 ( 99.83%)    -0.58437 (  0.17%)    -0.52426
     130    249.08    -0.51790 ( 99.84%)    -0.58085 (  0.16%)    -0.51801
     131    251.10    -0.51366 ( 99.84%)    -0.57846 (  0.16%)    -0.51376
     132    252.00    -0.51179 ( 99.85%)    -0.57741 (  0.15%)    -0.51189
     133    254.62    -0.50638 ( 99.85%)    -0.57435 (  0.15%)    -0.50648
     134    255.66    -0.50424 ( 99.85%)    -0.57313 (  0.15%)    -0.50434
     135    259.99    -0.49547 ( 99.86%)    -0.56816 (  0.14%)    -0.49557
     136    260.84    -0.49378 ( 99.87%)    -0.56719 (  0.13%)    -0.49388
     137    263.55    -0.48840 ( 99.87%)    -0.56412 (  0.13%)    -0.48850
     138    264.60    -0.48635 ( 99.87%)    -0.56295 (  0.13%)    -0.48645
     139    271.30    -0.47344 ( 99.88%)    -0.55555 (  0.12%)    -0.47354
     140    272.88    -0.47044 ( 99.89%)    -0.55382 (  0.11%)    -0.47054
     141    274.21    -0.46795 ( 99.89%)    -0.55238 (  0.11%)    -0.46805
     142    277.28    -0.46225 ( 99.89%)    -0.54908 (  0.11%)    -0.46234
     143    281.75    -0.45410 ( 99.90%)    -0.54435 (  0.10%)    -0.45419
     144    282.72    -0.45234 ( 99.90%)    -0.54333 (  0.10%)    -0.45243
     145    285.92    -0.44663 ( 99.91%)    -0.54000 (  0.09%)    -0.44672
     146    288.86    -0.44145 ( 99.91%)    -0.53697 (  0.09%)    -0.44154
     147    291.51    -0.43685 ( 99.91%)    -0.53426 (  0.09%)    -0.43693
     148    296.13    -0.42894 ( 99.92%)    -0.52960 (  0.08%)    -0.42902
     149    298.44    -0.42505 ( 99.92%)    -0.52730 (  0.08%)    -0.42513
   ------------------------------------------------------------------------

   temp. (K)  partition function   enthalpy   heat capacity  entropy
                                   cal/mol     cal/K/mol   cal/K/mol   J/K/mol
 298.15  VIB  0.993E+69            75475.921    348.393    513.635
         ROT  0.154E+09              888.752      2.981     40.440
         INT  0.153E+78            76364.673    351.374    554.076
         TR   0.202E+29             1481.254      4.968     45.737
         TOT                       77845.9271   356.3419   599.8124  2509.6150

       T/K    H(0)-H(T)+PV         H(T)/Eh          T*S/Eh         G(T)/Eh
   ------------------------------------------------------------------------
    298.15    0.124055E+00    0.102314E+01    0.284990E+00    0.738153E+00
   ------------------------------------------------------------------------

         :::::::::::::::::::::::::::::::::::::::::::::::::::::
         ::                  THERMODYNAMIC                  ::
         :::::::::::::::::::::::::::::::::::::::::::::::::::::
         :: total free energy        -200.162002223184 Eh   ::
         ::.................................................::
         :: total energy             -200.900154785549 Eh   ::
         :: zero point energy           0.899087394160 Eh   ::
         :: G(RRHO) w/o ZPVE           -0.160934831795 Eh   ::
         :: G(RRHO) contrib.            0.738152562365 Eh   ::
         :::::::::::::::::::::::::::::::::::::::::::::::::::::
imag cut-off (cm-1) :    5.00
 found            1  significant imaginary frequency
 writing imag mode distorted coords to xtbhess.xyz
 for further optimization.

           -------------------------------------------------
          | TOTAL ENERGY             -200.900154785549 Eh   |
          | TOTAL ENTHALPY           -199.877012010038 Eh   |
          | TOTAL FREE ENERGY        -200.162002223184 Eh   |
          | GRADIENT NORM               0.000047855997 Eh/α |
          | HOMO-LUMO GAP               7.925599396168 eV   |
           -------------------------------------------------

------------------------------------------------------------------------
 * finished run on 2024/05/10 at 17:56:21.946     
------------------------------------------------------------------------
 total:
 * wall-time:     0 d,  0 h,  0 min, 27.960 sec
 *  cpu-time:     0 d,  0 h,  3 min, 32.569 sec
 * ratio c/w:     7.603 speedup
 SCF:
 * wall-time:     0 d,  0 h,  0 min,  0.094 sec
 *  cpu-time:     0 d,  0 h,  0 min,  0.693 sec
 * ratio c/w:     7.357 speedup
 analytical hessian:
 * wall-time:     0 d,  0 h,  0 min, 27.617 sec
 *  cpu-time:     0 d,  0 h,  3 min, 29.973 sec
 * ratio c/w:     7.603 speedup

