      -----------------------------------------------------------      
     |                   =====================                   |     
     |                           x T B                           |     
     |                   =====================                   |     
     |                         S. Grimme                         |     
     |          Mulliken Center for Theoretical Chemistry        |     
     |                    University of Bonn                     |     
      -----------------------------------------------------------      

   * xtb version 6.6.0 (conda-forge) compiled by 'runner@Mac-1676020848589.local' on 2023-02-10

   xtb is free software: you can redistribute it and/or modify it under
   the terms of the GNU Lesser General Public License as published by
   the Free Software Foundation, either version 3 of the License, or
   (at your option) any later version.
   
   xtb is distributed in the hope that it will be useful,
   but WITHOUT ANY WARRANTY; without even the implied warranty of
   MERCHANTABILITY or FITNESS FOR A PARTICULAR PURPOSE.  See the
   GNU Lesser General Public License for more details.
   
   Cite this work as:
   * C. Bannwarth, E. Caldeweyher, S. Ehlert, A. Hansen, P. Pracht,
     J. Seibert, S. Spicher, S. Grimme, WIREs Comput. Mol. Sci., 2020, 11,
     e01493. DOI: 10.1002/wcms.1493
   
   for GFN2-xTB:
   * C. Bannwarth, S. Ehlert and S. Grimme., J. Chem. Theory Comput., 2019,
     15, 1652-1671. DOI: 10.1021/acs.jctc.8b01176
   for GFN1-xTB:
   * S. Grimme, C. Bannwarth, P. Shushkov, J. Chem. Theory Comput., 2017,
     13, 1989-2009. DOI: 10.1021/acs.jctc.7b00118
   for GFN0-xTB:
   * P. Pracht, E. Caldeweyher, S. Ehlert, S. Grimme, ChemRxiv, 2019, preprint.
     DOI: 10.26434/chemrxiv.8326202.v1
   for GFN-FF:
   * S. Spicher and S. Grimme, Angew. Chem. Int. Ed., 2020, 59, 15665-15673.
     DOI: 10.1002/anie.202004239
   
   for ALPB and GBSA implicit solvation:
   * S. Ehlert, M. Stahn, S. Spicher, S. Grimme, J. Chem. Theory Comput.,
     2021, 17, 4250-4261. DOI: 10.1021/acs.jctc.1c00471
   
   for DFT-D4:
   * E. Caldeweyher, C. Bannwarth and S. Grimme, J. Chem. Phys., 2017,
     147, 034112. DOI: 10.1063/1.4993215
   * E. Caldeweyher, S. Ehlert, A. Hansen, H. Neugebauer, S. Spicher,
     C. Bannwarth and S. Grimme, J. Chem. Phys., 2019, 150, 154122.
     DOI: 10.1063/1.5090222
   * E. Caldeweyher, J.-M. Mewes, S. Ehlert and S. Grimme, Phys. Chem. Chem. Phys.
     2020, 22, 8499-8512. DOI: 10.1039/D0CP00502A
   
   for sTDA-xTB:
   * S. Grimme and C. Bannwarth, J. Chem. Phys., 2016, 145, 054103.
     DOI: 10.1063/1.4959605
   
   in the mass-spec context:
   * V. Asgeirsson, C. Bauer and S. Grimme, Chem. Sci., 2017, 8, 4879.
     DOI: 10.1039/c7sc00601b
   * J. Koopman and S. Grimme, ACS Omega 2019, 4, 12, 15120-15133.
     DOI: 10.1021/acsomega.9b02011
   
   for metadynamics refer to:
   * S. Grimme, J. Chem. Theory Comput., 2019, 155, 2847-2862
     DOI: 10.1021/acs.jctc.9b00143
   
   for SPH calculations refer to:
   * S. Spicher and S. Grimme, J. Chem. Theory Comput., 2021, 17, 1701-1714
     DOI: 10.1021/acs.jctc.0c01306
   
   with help from (in alphabetical order)
   P. Atkinson, C. Bannwarth, F. Bohle, G. Brandenburg, E. Caldeweyher
   M. Checinski, S. Dohm, S. Ehlert, S. Ehrlich, I. Gerasimov, C. Hölzer
   A. Katbashev, J. Koopman, C. Lavigne, S. Lehtola, F. März, M. Müller,
   F. Musil, H. Neugebauer, J. Pisarek, C. Plett, P. Pracht, F. Pultar,
   J. Seibert, P. Shushkov, S. Spicher, M. Stahn, M. Steiner, T. Strunk,
   J. Stückrath, T. Rose, and J. Unsleber
   
 * started run on 2024/05/10 at 17:55:05.150     

           -------------------------------------------------
          |                Calculation Setup                |
           -------------------------------------------------

          program call               : xtb Fe_39H2O.xyz --opt extreme --gfn2 --chrg 3 --uhf 6 --alpb water
          coordinate file            : Fe_39H2O.xyz
          omp threads                :                     8

   ID    Z sym.   atoms
    1   26 Fe     1
    2    8 O      2-7, 20-31, 56, 59, 62, 65, 68, 71, 74, 77, 80, 83, 86, 89,
                  92, 95, 98, 101, 104, 107, 110, 113, 116
    3    1 H      8-19, 32-55, 57, 58, 60, 61, 63, 64, 66, 67, 69, 70, 72,
                  73, 75, 76, 78, 79, 81, 82, 84, 85, 87, 88, 90, 91, 93, 94,
                  96, 97, 99, 100, 102, 103, 105, 106, 108, 109, 111, 112,
                  114, 115, 117, 118

molecular fragmentation (1/2 indicates fragments):
111222222221222122222222222222222222222222222222222222222222222222222222
2222222222222222222222222222222222222222222222
# atoms in fragment 1/2:     5   113
 fragment masses (1/2) :       89.86      668.58
CMA distance (Bohr)    :   0.903
constraining FC (au)   :  0.0500

           -------------------------------------------------
          |                 G F N 2 - x T B                 |
           -------------------------------------------------

        Reference                      10.1021/acs.jctc.8b01176
      * Hamiltonian:
        H0-scaling (s, p, d)           1.850000    2.230000    2.230000
        zeta-weighting                 0.500000
      * Dispersion:
        s8                             2.700000
        a1                             0.520000
        a2                             5.000000
        s9                             5.000000
      * Repulsion:
        kExp                           1.500000    1.000000
        rExp                           1.000000
      * Coulomb:
        alpha                          2.000000
        third order                    shell-resolved
        anisotropic                    true
        a3                             3.000000
        a5                             4.000000
        cn-shift                       1.200000
        cn-exp                         4.000000
        max-rad                        5.000000

      * Solvation model:               ALPB
        Solvent                        water
        Parameter file                 internal GFN2-xTB/ALPB
        Dielectric constant                8.0200E+01
        Reference state                gsolv [1 M gas/solution]
        Free energy shift                  1.0808E-03 Eh       6.7819E-01 kcal/mol
        Temperature                        2.9815E+02 K
        Density                            1.0000E+00 kg/L
        Solvent mass                       1.8000E+01 g/mol
        Interaction kernel             P16
        Born radius scaling (c1)           1.4744E+00
        Born radii integrator          GBOBC
        Born offset                        0.0000E+00 a0       0.0000E+00 AA
        H-bond correction              true
        Ion screening                  false
        Surface tension                    1.0000E-05 Eh       1.5569E+01 dyn/cm
        Grid points                               230 per atom

          ...................................................
          :                      SETUP                      :
          :.................................................:
          :  # basis functions                 244          :
          :  # atomic orbitals                 243          :
          :  # shells                          159          :
          :  # electrons                       317          :
          :  max. iterations                   250          :
          :  Hamiltonian                  GFN2-xTB          :
          :  restarted?                      false          :
          :  GBSA solvation                   true          :
          :  PC potential                    false          :
          :  electronic temp.          300.0000000     K    :
          :  accuracy                    1.0000000          :
          :  -> integral cutoff          0.2500000E+02      :
          :  -> integral neglect         0.1000000E-07      :
          :  -> SCF convergence          0.1000000E-05 Eh   :
          :  -> wf. convergence          0.1000000E-03 e    :
          :  Broyden damping             0.4000000          :
          ...................................................

 iter      E             dE          RMSdq      gap      omega  full diag
   1   -202.2421605 -0.202242E+03  0.463E+00    6.87       0.0  T
   2   -202.3143363 -0.721759E-01  0.267E+00    7.72       1.0  T
   3   -202.3307285 -0.163922E-01  0.659E-01    8.38       1.0  T
   4   -202.3382127 -0.748418E-02  0.415E-01    7.89       1.0  T
   5   -202.3433291 -0.511639E-02  0.153E-01    8.17       1.0  T
   6   -202.3433811 -0.520197E-04  0.777E-02    8.13       1.0  T
   7   -202.3435824 -0.201255E-03  0.464E-02    8.21       1.0  T
   8   -202.3436411 -0.587485E-04  0.213E-02    8.20       1.0  T
   9   -202.3436585 -0.173919E-04  0.549E-03    8.18       1.7  T
  10   -202.3436595 -0.941183E-06  0.154E-03    8.18       6.0  T
  11   -202.3436595 -0.193418E-08  0.121E-03    8.18       7.6  T
  12   -202.3436595 -0.547697E-07  0.429E-04    8.19      21.4  T
  13   -202.3436595 -0.685910E-08  0.110E-04    8.18      83.6  T

   *** convergence criteria satisfied after 13 iterations ***

         #    Occupation            Energy/Eh            Energy/eV
      -------------------------------------------------------------
         1        2.0000           -0.6837568             -18.6060
       ...           ...                  ...                  ...
       155        2.0000           -0.3920466             -10.6681
       156        2.0000           -0.3871179             -10.5340
       157        1.0000           -0.3489658              -9.4958
       158        1.0000           -0.3451046              -9.3908
       159        1.0000           -0.3334979              -9.0749
       160        1.0000           -0.3261834              -8.8759
       161        1.0000           -0.3218567              -8.7582 (HOMO)
       162                         -0.0210744              -0.5735 (LUMO)
       163                          0.0184073               0.5009
       164                          0.0440991               1.2000
       165                          0.0542988               1.4775
       166                          0.0682626               1.8575
       ...                                ...                  ...
       243                          1.1608549              31.5885
      -------------------------------------------------------------
                  HL-Gap            0.3007823 Eh            8.1847 eV
             Fermi-level           -0.2697560 Eh           -7.3404 eV

 SCC (total)                   0 d,  0 h,  0 min,  0.183 sec
 SCC setup                      ...        0 min,  0.003 sec (  1.783%)
 Dispersion                     ...        0 min,  0.002 sec (  1.145%)
 classical contributions        ...        0 min,  0.000 sec (  0.249%)
 integral evaluation            ...        0 min,  0.006 sec (  3.017%)
 iterations                     ...        0 min,  0.126 sec ( 68.623%)
 molecular gradient             ...        0 min,  0.045 sec ( 24.549%)
 printout                       ...        0 min,  0.001 sec (  0.619%)

         :::::::::::::::::::::::::::::::::::::::::::::::::::::
         ::                     SUMMARY                     ::
         :::::::::::::::::::::::::::::::::::::::::::::::::::::
         :: total energy            -200.537207049378 Eh    ::
         :: total w/o Gsasa/hb      -200.306694534434 Eh    ::
         :: gradient norm              0.562377505379 Eh/a0 ::
         :: HOMO-LUMO gap              8.184702371397 eV    ::
         ::.................................................::
         :: SCC energy              -202.343659526876 Eh    ::
         :: -> isotropic ES            1.754756762541 Eh    ::
         :: -> anisotropic ES         -0.129147799849 Eh    ::
         :: -> anisotropic XC         -0.026039644215 Eh    ::
         :: -> dispersion             -0.047727722057 Eh    ::
         :: -> Gsolv                  -0.885049080429 Eh    ::
         ::    -> Gelec               -0.654536565486 Eh    ::
         ::    -> Gsasa                0.033225391885 Eh    ::
         ::    -> Ghb                 -0.264818666526 Eh    ::
         ::    -> Gshift               0.001080759698 Eh    ::
         :: repulsion energy           1.803601666064 Eh    ::
         :: add. restraining           0.000000000000 Eh    ::
         :: total charge               2.999999999981 e     ::
         :::::::::::::::::::::::::::::::::::::::::::::::::::::

      ----------------------------------------------------------- 
     |                   =====================                   |
     |                        A N C O P T                        |
     |                   =====================                   |
     |               Approximate Normal Coordinate               |
     |                Rational Function Optimizer                |
      ----------------------------------------------------------- 

          ...................................................
          :                      SETUP                      :
          :.................................................:
          :   optimization level           extreme          :
          :   max. optcycles                  2360          :
          :   ANC micro-cycles                  20          :
          :   degrees of freedom               348          :
          :.................................................:
          :   RF solver                   davidson          :
          :   write xtbopt.log                true          :
          :   linear?                        false          :
          :   energy convergence         0.5000000E-07 Eh   :
          :   grad. convergence          0.5000000E-04 Eh/α :
          :   maxmium RF displ.          1.0000000          :
          :   Hlow (freq-cutoff)         0.1000000E-01      :
          :   Hmax (freq-cutoff)         5.0000000          :
          :   S6 in model hess.         20.0000000          :
          ...................................................

generating ANC from model Hessian ...
Using Lindh-Hessian (1995)
 Shifting diagonal of input Hessian by    1.0485544178753669E-002
 Lowest  eigenvalues of input Hessian
    0.010000    0.010250    0.010269    0.010285    0.010313    0.010321
    0.010331    0.010350    0.010355    0.010367    0.010384    0.010406
    0.010410    0.010424    0.010426    0.010434    0.010445    0.010446
 Highest eigenvalues
    1.705046    1.705108    1.705271    1.706837    1.708880    1.734488


........................................................................
.............................. CYCLE    1 ..............................
........................................................................

 iter      E             dE          RMSdq      gap      omega  full diag
   1   -202.3436595 -0.202344E+03  0.293E-05    8.18       0.0  T
   2   -202.3436595 -0.258638E-10  0.150E-05    8.18     614.3  T
   3   -202.3436595 -0.483169E-11  0.515E-06    8.18    1786.2  T
     SCC iter.                  ...        0 min,  0.025 sec
     gradient                   ...        0 min,  0.043 sec
 * total energy  :  -200.5372070 Eh     change       -0.5678373E-09 Eh
   gradient norm :     0.5623398 Eh/α   predicted     0.0000000E+00 (-100.00%)
   displ. norm   :     0.5560456 α      lambda       -0.2579983E+00
   maximum displ.:     0.1792653 α      in ANC's #228, #252, #256, ...

........................................................................
.............................. CYCLE    2 ..............................
........................................................................

 iter      E             dE          RMSdq      gap      omega  full diag
   1   -202.1246324 -0.202125E+03  0.236E-01    8.14       0.0  T
   2   -202.1248026 -0.170271E-03  0.138E-01    8.15       1.0  T
   3   -202.1248679 -0.652865E-04  0.216E-02    8.16       1.0  T
   4   -202.1248721 -0.420722E-05  0.764E-03    8.16       1.2  T
   5   -202.1248725 -0.319821E-06  0.348E-03    8.16       2.6  T
   6   -202.1248725 -0.699884E-07  0.925E-04    8.16      10.0  T
   7   -202.1248725 -0.991525E-08  0.177E-04    8.16      51.9  T
     SCC iter.                  ...        0 min,  0.061 sec
     gradient                   ...        0 min,  0.041 sec
 * total energy  :  -200.6915285 Eh     change       -0.1543215E+00 Eh
   gradient norm :     0.1961038 Eh/α   predicted    -0.1689098E+00 (   9.45%)
   displ. norm   :     0.6175199 α      lambda       -0.6956202E-01
   maximum displ.:     0.2144822 α      in ANC's #226, #228, #211, ...

........................................................................
.............................. CYCLE    3 ..............................
........................................................................

 iter      E             dE          RMSdq      gap      omega  full diag
   1   -202.0044143 -0.202004E+03  0.185E-01    8.10       0.0  T
   2   -202.0045755 -0.161205E-03  0.106E-01    8.12       1.0  T
   3   -202.0046220 -0.464502E-04  0.238E-02    8.13       1.0  T
   4   -202.0046251 -0.308109E-05  0.936E-03    8.13       1.0  T
   5   -202.0046259 -0.827171E-06  0.322E-03    8.13       2.9  T
   6   -202.0046259 -0.474061E-07  0.125E-03    8.13       7.4  T
   7   -202.0046260 -0.103193E-07  0.198E-04    8.13      46.4  T
   8   -202.0046260 -0.312156E-09  0.895E-05    8.13     102.9  T
     SCC iter.                  ...        0 min,  0.062 sec
     gradient                   ...        0 min,  0.044 sec
 * total energy  :  -200.7352772 Eh     change       -0.4374862E-01 Eh
   gradient norm :     0.0448631 Eh/α   predicted    -0.4804419E-01 (   9.82%)
   displ. norm   :     0.6787134 α      lambda       -0.2373034E-01
   maximum displ.:     0.1833005 α      in ANC's #180, #226, #211, ...

........................................................................
.............................. CYCLE    4 ..............................
........................................................................

 iter      E             dE          RMSdq      gap      omega  full diag
   1   -201.9953907 -0.201995E+03  0.132E-01    8.04       0.0  T
   2   -201.9954491 -0.583830E-04  0.772E-02    8.06       1.0  T
   3   -201.9954647 -0.155332E-04  0.213E-02    8.06       1.0  T
   4   -201.9954660 -0.138422E-05  0.558E-03    8.07       1.6  T
   5   -201.9954664 -0.393750E-06  0.193E-03    8.07       4.8  T
   6   -201.9954665 -0.244669E-07  0.771E-04    8.07      11.9  T
   7   -201.9954665 -0.572874E-08  0.209E-04    8.07      44.0  T
     SCC iter.                  ...        0 min,  0.056 sec
     gradient                   ...        0 min,  0.041 sec
 * total energy  :  -200.7538882 Eh     change       -0.1861109E-01 Eh
   gradient norm :     0.0611641 Eh/α   predicted    -0.1733192E-01 (  -6.87%)
   displ. norm   :     0.7791030 α      lambda       -0.2086392E-01
   maximum displ.:     0.2298685 α      in ANC's #226, #211, #180, ...

........................................................................
.............................. CYCLE    5 ..............................
........................................................................

 iter      E             dE          RMSdq      gap      omega  full diag
   1   -202.0107386 -0.202011E+03  0.139E-01    7.95       0.0  T
   2   -202.0108080 -0.693779E-04  0.812E-02    7.98       1.0  T
   3   -202.0108243 -0.163059E-04  0.260E-02    7.98       1.0  T
   4   -202.0108264 -0.213230E-05  0.597E-03    7.99       1.5  T
   5   -202.0108269 -0.423520E-06  0.212E-03    7.99       4.3  T
   6   -202.0108269 -0.214479E-07  0.923E-04    7.99      10.0  T
   7   -202.0108269 -0.698105E-08  0.219E-04    7.99      42.0  T
     SCC iter.                  ...        0 min,  0.056 sec
     gradient                   ...        0 min,  0.043 sec
 * total energy  :  -200.7664985 Eh     change       -0.1261029E-01 Eh
   gradient norm :     0.0636136 Eh/α   predicted    -0.1676418E-01 (  32.94%)
   displ. norm   :     0.6867693 α      lambda       -0.1495720E-01
   maximum displ.:     0.2083675 α      in ANC's #1, #226, #211, ...

........................................................................
.............................. CYCLE    6 ..............................
........................................................................

 iter      E             dE          RMSdq      gap      omega  full diag
   1   -202.0425008 -0.202043E+03  0.126E-01    7.96       0.0  T
   2   -202.0425538 -0.529344E-04  0.751E-02    7.98       1.0  T
   3   -202.0425654 -0.116191E-04  0.193E-02    7.99       1.0  T
   4   -202.0425669 -0.145307E-05  0.502E-03    7.99       1.8  T
   5   -202.0425671 -0.284427E-06  0.158E-03    7.99       5.8  T
   6   -202.0425671 -0.939897E-08  0.734E-04    7.99      12.5  T
   7   -202.0425672 -0.376434E-08  0.145E-04    7.99      63.3  T
     SCC iter.                  ...        0 min,  0.058 sec
     gradient                   ...        0 min,  0.042 sec
 * total energy  :  -200.7777668 Eh     change       -0.1126821E-01 Eh
   gradient norm :     0.0419704 Eh/α   predicted    -0.1100590E-01 (  -2.33%)
   displ. norm   :     0.7477922 α      lambda       -0.1190316E-01
   maximum displ.:     0.1446197 α      in ANC's #152, #183, #226, ...

........................................................................
.............................. CYCLE    7 ..............................
........................................................................

 iter      E             dE          RMSdq      gap      omega  full diag
   1   -202.0379095 -0.202038E+03  0.147E-01    8.02       0.0  T
   2   -202.0379505 -0.409908E-04  0.893E-02    8.03       1.0  T
   3   -202.0379678 -0.172841E-04  0.113E-02    8.03       1.0  T
   4   -202.0379689 -0.107372E-05  0.504E-03    8.03       1.8  T
   5   -202.0379691 -0.246408E-06  0.190E-03    8.03       4.8  T
   6   -202.0379691 -0.279724E-07  0.777E-04    8.03      11.8  T
   7   -202.0379691 -0.844349E-08  0.171E-04    8.03      53.8  T
     SCC iter.                  ...        0 min,  0.059 sec
     gradient                   ...        0 min,  0.042 sec
 * total energy  :  -200.7841350 Eh     change       -0.6368267E-02 Eh
   gradient norm :     0.0803620 Eh/α   predicted    -0.9279679E-02 (  45.72%)
   displ. norm   :     0.6166361 α      lambda       -0.1308114E-01
   maximum displ.:     0.1312081 α      in ANC's #156, #141, #226, ...

........................................................................
.............................. CYCLE    8 ..............................
........................................................................

 iter      E             dE          RMSdq      gap      omega  full diag
   1   -202.0614793 -0.202061E+03  0.114E-01    8.05       0.0  T
   2   -202.0615126 -0.333224E-04  0.680E-02    8.05       1.0  T
   3   -202.0615249 -0.122269E-04  0.115E-02    8.05       1.0  T
   4   -202.0615257 -0.843410E-06  0.498E-03    8.05       1.8  T
   5   -202.0615259 -0.221257E-06  0.145E-03    8.05       6.4  T
   6   -202.0615259 -0.107918E-07  0.587E-04    8.05      15.7  T
   7   -202.0615260 -0.266624E-08  0.113E-04    8.05      81.3  T
     SCC iter.                  ...        0 min,  0.053 sec
     gradient                   ...        0 min,  0.046 sec
 * total energy  :  -200.7917297 Eh     change       -0.7594650E-02 Eh
   gradient norm :     0.0584257 Eh/α   predicted    -0.9027562E-02 (  18.87%)
   displ. norm   :     0.6810247 α      lambda       -0.1488697E-01
   maximum displ.:     0.1683896 α      in ANC's #186, #122, #155, ...

........................................................................
.............................. CYCLE    9 ..............................
........................................................................

 iter      E             dE          RMSdq      gap      omega  full diag
   1   -202.0904061 -0.202090E+03  0.173E-01    8.06       0.0  T
   2   -202.0904882 -0.821308E-04  0.103E-01    8.05       1.0  T
   3   -202.0905205 -0.323598E-04  0.191E-02    8.05       1.0  T
   4   -202.0905230 -0.247881E-05  0.831E-03    8.05       1.1  T
   5   -202.0905237 -0.636185E-06  0.240E-03    8.05       3.8  T
   6   -202.0905237 -0.382474E-07  0.104E-03    8.05       8.8  T
   7   -202.0905237 -0.116895E-07  0.222E-04    8.05      41.5  T
   8   -202.0905237 -0.736918E-09  0.103E-04    8.05      89.4  T
     SCC iter.                  ...        0 min,  0.065 sec
     gradient                   ...        0 min,  0.044 sec
 * total energy  :  -200.7897078 Eh     change        0.2021895E-02 Eh
   gradient norm :     0.1323463 Eh/α   predicted    -0.1089574E-01 (-638.89%)
   displ. norm   :     0.4341405 α      lambda       -0.1912099E-01
   maximum displ.:     0.1388944 α      in ANC's #1, #138, #152, ...

........................................................................
.............................. CYCLE   10 ..............................
........................................................................

 iter      E             dE          RMSdq      gap      omega  full diag
   1   -202.0632967 -0.202063E+03  0.128E-01    8.05       0.0  T
   2   -202.0633414 -0.446862E-04  0.769E-02    8.06       1.0  T
   3   -202.0633604 -0.189994E-04  0.115E-02    8.06       1.0  T
   4   -202.0633618 -0.137472E-05  0.399E-03    8.06       2.3  T
   5   -202.0633619 -0.128931E-06  0.181E-03    8.06       5.1  T
   6   -202.0633619 -0.329136E-07  0.509E-04    8.06      18.1  T
   7   -202.0633619 -0.411242E-08  0.146E-04    8.06      63.1  T
     SCC iter.                  ...        0 min,  0.057 sec
     gradient                   ...        0 min,  0.045 sec
 * total energy  :  -200.8011222 Eh     change       -0.1141446E-01 Eh
   gradient norm :     0.0507852 Eh/α   predicted    -0.1136243E-01 (  -0.46%)
   displ. norm   :     0.6280540 α      lambda       -0.1275335E-01
   maximum displ.:     0.1422093 α      in ANC's #186, #213, #141, ...

........................................................................
.............................. CYCLE   11 ..............................
........................................................................

 iter      E             dE          RMSdq      gap      omega  full diag
   1   -202.0647275 -0.202065E+03  0.172E-01    8.11       0.0  T
   2   -202.0648099 -0.823933E-04  0.102E-01    8.11       1.0  T
   3   -202.0648475 -0.376724E-04  0.159E-02    8.11       1.0  T
   4   -202.0648505 -0.291618E-05  0.590E-03    8.11       1.6  T
   5   -202.0648508 -0.320923E-06  0.271E-03    8.11       3.4  T
   6   -202.0648509 -0.892598E-07  0.518E-04    8.11      17.8  T
   7   -202.0648509 -0.438101E-08  0.213E-04    8.11      43.3  T
     SCC iter.                  ...        0 min,  0.060 sec
     gradient                   ...        0 min,  0.040 sec
 * total energy  :  -200.7955661 Eh     change        0.5556104E-02 Eh
   gradient norm :     0.1248184 Eh/α   predicted    -0.8891954E-02 (-260.04%)
   displ. norm   :     0.4286086 α      lambda       -0.2411511E-01
   maximum displ.:     0.1601412 α      in ANC's #141, #74, #186, ...

........................................................................
.............................. CYCLE   12 ..............................
........................................................................

 iter      E             dE          RMSdq      gap      omega  full diag
   1   -202.0815685 -0.202082E+03  0.151E-01    8.13       0.0  T
   2   -202.0816360 -0.674544E-04  0.896E-02    8.13       1.0  T
   3   -202.0816641 -0.280674E-04  0.145E-02    8.13       1.0  T
   4   -202.0816660 -0.198210E-05  0.534E-03    8.13       1.7  T
   5   -202.0816663 -0.224593E-06  0.222E-03    8.13       4.1  T
   6   -202.0816663 -0.407619E-07  0.471E-04    8.13      19.5  T
   7   -202.0816663 -0.269017E-08  0.158E-04    8.13      58.4  T
     SCC iter.                  ...        0 min,  0.059 sec
     gradient                   ...        0 min,  0.041 sec
 * total energy  :  -200.8063780 Eh     change       -0.1081190E-01 Eh
   gradient norm :     0.0752329 Eh/α   predicted    -0.1427260E-01 (  32.01%)
   displ. norm   :     0.6563429 α      lambda       -0.1964938E-01
   maximum displ.:     0.2131499 α      in ANC's #74, #138, #122, ...

........................................................................
.............................. CYCLE   13 ..............................
........................................................................

 iter      E             dE          RMSdq      gap      omega  full diag
   1   -202.0512391 -0.202051E+03  0.215E-01    8.04       0.0  T
   2   -202.0513644 -0.125319E-03  0.129E-01    8.04       1.0  T
   3   -202.0514265 -0.621557E-04  0.197E-02    8.04       1.0  T
   4   -202.0514303 -0.377403E-05  0.974E-03    8.04       1.0  T
   5   -202.0514313 -0.100515E-05  0.338E-03    8.04       2.7  T
   6   -202.0514315 -0.132043E-06  0.867E-04    8.04      10.6  T
   7   -202.0514315 -0.110263E-07  0.296E-04    8.04      31.1  T
     SCC iter.                  ...        0 min,  0.056 sec
     gradient                   ...        0 min,  0.043 sec
 * total energy  :  -200.7952895 Eh     change        0.1108848E-01 Eh
   gradient norm :     0.1719745 Eh/α   predicted    -0.1405704E-01 (-226.77%)
   displ. norm   :     0.3841159 α      lambda       -0.2976709E-01
   maximum displ.:     0.1389074 α      in ANC's #74, #213, #81, ...

........................................................................
.............................. CYCLE   14 ..............................
........................................................................

 iter      E             dE          RMSdq      gap      omega  full diag
   1   -202.0782555 -0.202078E+03  0.144E-01    8.10       0.0  T
   2   -202.0783185 -0.629766E-04  0.858E-02    8.10       1.0  T
   3   -202.0783467 -0.282306E-04  0.136E-02    8.10       1.0  T
   4   -202.0783488 -0.206830E-05  0.431E-03    8.10       2.1  T
   5   -202.0783489 -0.142505E-06  0.217E-03    8.10       4.2  T
   6   -202.0783490 -0.524749E-07  0.386E-04    8.10      23.8  T
   7   -202.0783490 -0.222153E-08  0.178E-04    8.10      51.6  T
     SCC iter.                  ...        0 min,  0.054 sec
     gradient                   ...        0 min,  0.040 sec
 * total energy  :  -200.8117873 Eh     change       -0.1649771E-01 Eh
   gradient norm :     0.0557813 Eh/α   predicted    -0.1707954E-01 (   3.53%)
   displ. norm   :     0.7038099 α      lambda       -0.1661374E-01
   maximum displ.:     0.2340402 α      in ANC's #152, #155, #138, ...

........................................................................
.............................. CYCLE   15 ..............................
........................................................................

 iter      E             dE          RMSdq      gap      omega  full diag
   1   -202.0642672 -0.202064E+03  0.219E-01    8.09       0.0  T
   2   -202.0644009 -0.133671E-03  0.131E-01    8.08       1.0  T
   3   -202.0644740 -0.731512E-04  0.201E-02    8.08       1.0  T
   4   -202.0644793 -0.528802E-05  0.765E-03    8.09       1.2  T
   5   -202.0644800 -0.631582E-06  0.371E-03    8.09       2.5  T
   6   -202.0644802 -0.202995E-06  0.668E-04    8.09      13.8  T
   7   -202.0644802 -0.682039E-08  0.320E-04    8.09      28.8  T
     SCC iter.                  ...        0 min,  0.051 sec
     gradient                   ...        0 min,  0.040 sec
 * total energy  :  -200.7950001 Eh     change        0.1678714E-01 Eh
   gradient norm :     0.1813035 Eh/α   predicted    -0.1242167E-01 (-174.00%)
   displ. norm   :     0.3953138 α      lambda       -0.3749119E-01
   maximum displ.:     0.1617803 α      in ANC's #155, #152, #138, ...

........................................................................
.............................. CYCLE   16 ..............................
........................................................................

 iter      E             dE          RMSdq      gap      omega  full diag
   1   -202.0723658 -0.202072E+03  0.153E-01    8.12       0.0  T
   2   -202.0724378 -0.719007E-04  0.914E-02    8.12       1.0  T
   3   -202.0724736 -0.358477E-04  0.147E-02    8.12       1.0  T
   4   -202.0724761 -0.252364E-05  0.496E-03    8.12       1.9  T
   5   -202.0724763 -0.209062E-06  0.255E-03    8.12       3.6  T
   6   -202.0724764 -0.773400E-07  0.457E-04    8.12      20.1  T
   7   -202.0724764 -0.330493E-08  0.213E-04    8.12      43.3  T
     SCC iter.                  ...        0 min,  0.059 sec
     gradient                   ...        0 min,  0.040 sec
 * total energy  :  -200.8165397 Eh     change       -0.2153960E-01 Eh
   gradient norm :     0.0539681 Eh/α   predicted    -0.2167503E-01 (   0.63%)
   displ. norm   :     0.6044736 α      lambda       -0.1110315E-01
   maximum displ.:     0.2497550 α      in ANC's #122, #72, #138, ...

........................................................................
.............................. CYCLE   17 ..............................
........................................................................

 iter      E             dE          RMSdq      gap      omega  full diag
   1   -202.1189423 -0.202119E+03  0.145E-01    8.13       0.0  T
   2   -202.1189924 -0.501457E-04  0.865E-02    8.13       1.0  T
   3   -202.1190197 -0.273150E-04  0.122E-02    8.13       1.0  T
   4   -202.1190216 -0.190912E-05  0.452E-03    8.13       2.0  T
   5   -202.1190219 -0.227028E-06  0.235E-03    8.13       3.9  T
   6   -202.1190219 -0.814543E-07  0.609E-04    8.13      15.1  T
   7   -202.1190220 -0.615975E-08  0.191E-04    8.13      48.1  T
     SCC iter.                  ...        0 min,  0.060 sec
     gradient                   ...        0 min,  0.045 sec
 * total energy  :  -200.8121672 Eh     change        0.4372549E-02 Eh
   gradient norm :     0.1339859 Eh/α   predicted    -0.7580048E-02 (-273.36%)
   displ. norm   :     0.4310579 α      lambda       -0.1686324E-01
   maximum displ.:     0.1197551 α      in ANC's #120, #56, #72, ...

........................................................................
.............................. CYCLE   18 ..............................
........................................................................

 iter      E             dE          RMSdq      gap      omega  full diag
   1   -202.0707286 -0.202071E+03  0.127E-01    8.12       0.0  T
   2   -202.0707664 -0.378228E-04  0.762E-02    8.12       1.0  T
   3   -202.0707840 -0.176640E-04  0.107E-02    8.12       1.0  T
   4   -202.0707852 -0.120432E-05  0.340E-03    8.12       2.7  T
   5   -202.0707853 -0.823831E-07  0.168E-03    8.12       5.5  T
   6   -202.0707854 -0.336171E-07  0.236E-04    8.12      39.1  T
   7   -202.0707854 -0.854499E-09  0.132E-04    8.12      69.8  T
     SCC iter.                  ...        0 min,  0.056 sec
     gradient                   ...        0 min,  0.046 sec
 * total energy  :  -200.8204318 Eh     change       -0.8264654E-02 Eh
   gradient norm :     0.0729063 Eh/α   predicted    -0.9998302E-02 (  20.98%)
   displ. norm   :     0.6645780 α      lambda       -0.1856128E-01
   maximum displ.:     0.2855374 α      in ANC's #122, #72, #58, ...

........................................................................
.............................. CYCLE   19 ..............................
........................................................................

 iter      E             dE          RMSdq      gap      omega  full diag
   1   -202.0969123 -0.202097E+03  0.201E-01    8.06       0.0  T
   2   -202.0970356 -0.123359E-03  0.120E-01    8.06       1.0  T
   3   -202.0970995 -0.639102E-04  0.196E-02    8.06       1.0  T
   4   -202.0971045 -0.493947E-05  0.753E-03    8.06       1.2  T
   5   -202.0971051 -0.648758E-06  0.353E-03    8.06       2.6  T
   6   -202.0971053 -0.187095E-06  0.871E-04    8.06      10.6  T
   7   -202.0971053 -0.133408E-07  0.304E-04    8.06      30.3  T
     SCC iter.                  ...        0 min,  0.059 sec
     gradient                   ...        0 min,  0.039 sec
 * total energy  :  -200.8071640 Eh     change        0.1326779E-01 Eh
   gradient norm :     0.1550176 Eh/α   predicted    -0.1337957E-01 (-200.84%)
   displ. norm   :     0.3978529 α      lambda       -0.3017208E-01
   maximum displ.:     0.1454868 α      in ANC's #122, #54, #67, ...

........................................................................
.............................. CYCLE   20 ..............................
........................................................................

 iter      E             dE          RMSdq      gap      omega  full diag
   1   -202.0858182 -0.202086E+03  0.143E-01    8.13       0.0  T
   2   -202.0858806 -0.624300E-04  0.853E-02    8.13       1.0  T
   3   -202.0859112 -0.305236E-04  0.138E-02    8.13       1.0  T
   4   -202.0859134 -0.223756E-05  0.507E-03    8.13       1.8  T
   5   -202.0859136 -0.237685E-06  0.242E-03    8.13       3.8  T
   6   -202.0859137 -0.766041E-07  0.387E-04    8.13      23.8  T
   7   -202.0859137 -0.230318E-08  0.174E-04    8.13      52.8  T
     SCC iter.                  ...        0 min,  0.057 sec
     gradient                   ...        0 min,  0.040 sec
 * total energy  :  -200.8240392 Eh     change       -0.1687521E-01 Eh
   gradient norm :     0.0597108 Eh/α   predicted    -0.1747397E-01 (   3.55%)
   displ. norm   :     0.7481943 α      lambda       -0.1966535E-01
   maximum displ.:     0.3280024 α      in ANC's #49, #122, #72, ...
 * RMSD in coord.:     0.6036367 α      energy gain  -0.2868322E+00 Eh

generating ANC from model Hessian ...
Using Lindh-Hessian (1995)
 Shifting diagonal of input Hessian by    1.0173389435003573E-002
 Lowest  eigenvalues of input Hessian
    0.010000    0.010054    0.010066    0.010076    0.010091    0.010099
    0.010106    0.010119    0.010130    0.010133    0.010142    0.010144
    0.010145    0.010149    0.010154    0.010155    0.010160    0.010162
 Highest eigenvalues
    1.449426    1.459406    1.474568    1.616490    1.674286    1.792697


........................................................................
.............................. CYCLE   21 ..............................
........................................................................

 iter      E             dE          RMSdq      gap      omega  full diag
   1   -202.0948459 -0.202095E+03  0.256E-01    8.12       0.0  T
   2   -202.0950163 -0.170396E-03  0.154E-01    8.12       1.0  T
   3   -202.0950968 -0.805244E-04  0.225E-02    8.12       1.0  T
   4   -202.0951022 -0.535627E-05  0.698E-03    8.12       1.3  T
   5   -202.0951025 -0.375451E-06  0.353E-03    8.12       2.6  T
   6   -202.0951027 -0.151703E-06  0.706E-04    8.12      13.0  T
   7   -202.0951027 -0.826319E-08  0.321E-04    8.12      28.7  T
     SCC iter.                  ...        0 min,  0.054 sec
     gradient                   ...        0 min,  0.042 sec
 * total energy  :  -200.8018495 Eh     change        0.2218975E-01 Eh
   gradient norm :     0.2296573 Eh/α   predicted     0.0000000E+00 (-100.00%)
   displ. norm   :     0.2856355 α      lambda       -0.3956558E-01
   maximum displ.:     0.0981908 α      in ANC's #143, #347, #318, ...

........................................................................
.............................. CYCLE   22 ..............................
........................................................................

 iter      E             dE          RMSdq      gap      omega  full diag
   1   -202.0964692 -0.202096E+03  0.118E-01    8.13       0.0  T
   2   -202.0965078 -0.386202E-04  0.704E-02    8.13       1.0  T
   3   -202.0965267 -0.189315E-04  0.107E-02    8.13       1.0  T
   4   -202.0965281 -0.136736E-05  0.381E-03    8.13       2.4  T
   5   -202.0965283 -0.145764E-06  0.178E-03    8.13       5.2  T
   6   -202.0965283 -0.436167E-07  0.368E-04    8.13      25.0  T
   7   -202.0965283 -0.199623E-08  0.161E-04    8.13      57.2  T
     SCC iter.                  ...        0 min,  0.062 sec
     gradient                   ...        0 min,  0.041 sec
 * total energy  :  -200.8265293 Eh     change       -0.2467982E-01 Eh
   gradient norm :     0.0582007 Eh/α   predicted    -0.2139840E-01 ( -13.30%)
   displ. norm   :     0.5752139 α      lambda       -0.1093953E-01
   maximum displ.:     0.2400542 α      in ANC's #61, #60, #143, ...

........................................................................
.............................. CYCLE   23 ..............................
........................................................................

 iter      E             dE          RMSdq      gap      omega  full diag
   1   -202.0834714 -0.202083E+03  0.177E-01    8.13       0.0  T
   2   -202.0835348 -0.634465E-04  0.107E-01    8.13       1.0  T
   3   -202.0835576 -0.228100E-04  0.133E-02    8.13       1.0  T
   4   -202.0835595 -0.184903E-05  0.325E-03    8.13       2.8  T
   5   -202.0835595 -0.489433E-07  0.154E-03    8.13       6.0  T
   6   -202.0835595 -0.161539E-07  0.378E-04    8.13      24.3  T
   7   -202.0835596 -0.161154E-08  0.118E-04    8.13      77.9  T
     SCC iter.                  ...        0 min,  0.058 sec
     gradient                   ...        0 min,  0.041 sec
 * total energy  :  -200.8320137 Eh     change       -0.5484357E-02 Eh
   gradient norm :     0.0628286 Eh/α   predicted    -0.7281060E-02 (  32.76%)
   displ. norm   :     0.5181601 α      lambda       -0.8293503E-02
   maximum displ.:     0.2910368 α      in ANC's #61, #60, #129, ...

........................................................................
.............................. CYCLE   24 ..............................
........................................................................

 iter      E             dE          RMSdq      gap      omega  full diag
   1   -202.0955389 -0.202096E+03  0.134E-01    8.12       0.0  T
   2   -202.0955620 -0.230866E-04  0.818E-02    8.13       1.0  T
   3   -202.0955731 -0.110642E-04  0.779E-03    8.13       1.2  T
   4   -202.0955736 -0.498278E-06  0.326E-03    8.13       2.8  T
   5   -202.0955736 -0.558312E-07  0.126E-03    8.13       7.3  T
   6   -202.0955736 -0.714817E-08  0.414E-04    8.13      22.2  T
   7   -202.0955736 -0.183672E-08  0.762E-05    8.13     120.8  T
     SCC iter.                  ...        0 min,  0.058 sec
     gradient                   ...        0 min,  0.045 sec
 * total energy  :  -200.8352224 Eh     change       -0.3208720E-02 Eh
   gradient norm :     0.0469731 Eh/α   predicted    -0.5260120E-02 (  63.93%)
   displ. norm   :     0.5136261 α      lambda       -0.5601012E-02
   maximum displ.:     0.1164912 α      in ANC's #66, #125, #130, ...

........................................................................
.............................. CYCLE   25 ..............................
........................................................................

 iter      E             dE          RMSdq      gap      omega  full diag
   1   -202.1055513 -0.202106E+03  0.965E-02    8.12       0.0  T
   2   -202.1055636 -0.122787E-04  0.587E-02    8.12       1.0  T
   3   -202.1055692 -0.556789E-05  0.573E-03    8.12       1.6  T
   4   -202.1055695 -0.312746E-06  0.251E-03    8.12       3.7  T
   5   -202.1055695 -0.503127E-07  0.963E-04    8.12       9.6  T
   6   -202.1055696 -0.806872E-08  0.317E-04    8.12      29.1  T
     SCC iter.                  ...        0 min,  0.048 sec
     gradient                   ...        0 min,  0.044 sec
 * total energy  :  -200.8382794 Eh     change       -0.3056995E-02 Eh
   gradient norm :     0.0324038 Eh/α   predicted    -0.3539317E-02 (  15.78%)
   displ. norm   :     0.6413303 α      lambda       -0.5809222E-02
   maximum displ.:     0.2129459 α      in ANC's #122, #129, #143, ...

........................................................................
.............................. CYCLE   26 ..............................
........................................................................

 iter      E             dE          RMSdq      gap      omega  full diag
   1   -202.0868742 -0.202087E+03  0.126E-01    8.12       0.0  T
   2   -202.0869025 -0.283124E-04  0.762E-02    8.12       1.0  T
   3   -202.0869135 -0.109893E-04  0.906E-03    8.12       1.0  T
   4   -202.0869144 -0.884989E-06  0.342E-03    8.12       2.7  T
   5   -202.0869145 -0.106234E-06  0.149E-03    8.12       6.2  T
   6   -202.0869145 -0.221191E-07  0.527E-04    8.12      17.5  T
   7   -202.0869145 -0.463160E-08  0.128E-04    8.12      72.0  T
     SCC iter.                  ...        0 min,  0.060 sec
     gradient                   ...        0 min,  0.040 sec
 * total energy  :  -200.8404532 Eh     change       -0.2173869E-02 Eh
   gradient norm :     0.0650596 Eh/α   predicted    -0.4099311E-02 (  88.57%)
   displ. norm   :     0.5077553 α      lambda       -0.8108765E-02
   maximum displ.:     0.1462530 α      in ANC's #60, #120, #117, ...

........................................................................
.............................. CYCLE   27 ..............................
........................................................................

 iter      E             dE          RMSdq      gap      omega  full diag
   1   -202.0953550 -0.202095E+03  0.118E-01    8.13       0.0  T
   2   -202.0953861 -0.310582E-04  0.711E-02    8.13       1.0  T
   3   -202.0953988 -0.127037E-04  0.963E-03    8.13       1.0  T
   4   -202.0953996 -0.839319E-06  0.361E-03    8.13       2.6  T
   5   -202.0953997 -0.823007E-07  0.140E-03    8.13       6.6  T
   6   -202.0953997 -0.120165E-07  0.395E-04    8.13      23.3  T
   7   -202.0953997 -0.171843E-08  0.908E-05    8.13     101.4  T
     SCC iter.                  ...        0 min,  0.059 sec
     gradient                   ...        0 min,  0.045 sec
 * total energy  :  -200.8428026 Eh     change       -0.2349391E-02 Eh
   gradient norm :     0.0620066 Eh/α   predicted    -0.5099661E-02 ( 117.06%)
   displ. norm   :     0.5011855 α      lambda       -0.9208649E-02
   maximum displ.:     0.2055139 α      in ANC's #143, #146, #122, ...

........................................................................
.............................. CYCLE   28 ..............................
........................................................................

 iter      E             dE          RMSdq      gap      omega  full diag
   1   -202.1198059 -0.202120E+03  0.133E-01    8.15       0.0  T
   2   -202.1198450 -0.390535E-04  0.807E-02    8.15       1.0  T
   3   -202.1198648 -0.197602E-04  0.106E-02    8.15       1.0  T
   4   -202.1198660 -0.126049E-05  0.344E-03    8.15       2.7  T
   5   -202.1198661 -0.946619E-07  0.170E-03    8.15       5.4  T
   6   -202.1198662 -0.390079E-07  0.333E-04    8.15      27.6  T
   7   -202.1198662 -0.180731E-08  0.166E-04    8.15      55.6  T
     SCC iter.                  ...        0 min,  0.060 sec
     gradient                   ...        0 min,  0.043 sec
 * total energy  :  -200.8413497 Eh     change        0.1452968E-02 Eh
   gradient norm :     0.0955772 Eh/α   predicted    -0.5760872E-02 (-496.49%)
   displ. norm   :     0.3879429 α      lambda       -0.1058620E-01
   maximum displ.:     0.1903490 α      in ANC's #143, #129, #61, ...

........................................................................
.............................. CYCLE   29 ..............................
........................................................................

 iter      E             dE          RMSdq      gap      omega  full diag
   1   -202.1127401 -0.202113E+03  0.119E-01    8.14       0.0  T
   2   -202.1127724 -0.323167E-04  0.716E-02    8.14       1.0  T
   3   -202.1127873 -0.148486E-04  0.976E-03    8.14       1.0  T
   4   -202.1127883 -0.101389E-05  0.328E-03    8.14       2.8  T
   5   -202.1127884 -0.801242E-07  0.152E-03    8.14       6.1  T
   6   -202.1127884 -0.280463E-07  0.264E-04    8.14      34.8  T
   7   -202.1127884 -0.105601E-08  0.143E-04    8.14      64.3  T
     SCC iter.                  ...        0 min,  0.056 sec
     gradient                   ...        0 min,  0.040 sec
 * total energy  :  -200.8456530 Eh     change       -0.4303339E-02 Eh
   gradient norm :     0.0545332 Eh/α   predicted    -0.6089707E-02 (  41.51%)
   displ. norm   :     0.4536895 α      lambda       -0.6727476E-02
   maximum displ.:     0.1343031 α      in ANC's #146, #122, #125, ...

........................................................................
.............................. CYCLE   30 ..............................
........................................................................

 iter      E             dE          RMSdq      gap      omega  full diag
   1   -202.0946325 -0.202095E+03  0.115E-01    8.14       0.0  T
   2   -202.0946621 -0.295808E-04  0.694E-02    8.13       1.0  T
   3   -202.0946762 -0.141447E-04  0.942E-03    8.13       1.0  T
   4   -202.0946772 -0.987397E-06  0.374E-03    8.13       2.5  T
   5   -202.0946773 -0.125037E-06  0.167E-03    8.13       5.5  T
   6   -202.0946774 -0.358509E-07  0.398E-04    8.13      23.1  T
   7   -202.0946774 -0.280787E-08  0.132E-04    8.13      69.6  T
     SCC iter.                  ...        0 min,  0.052 sec
     gradient                   ...        0 min,  0.041 sec
 * total energy  :  -200.8465066 Eh     change       -0.8536268E-03 Eh
   gradient norm :     0.0607653 Eh/α   predicted    -0.4056113E-02 ( 375.16%)
   displ. norm   :     0.3561946 α      lambda       -0.5784702E-02
   maximum displ.:     0.0775031 α      in ANC's #55, #60, #143, ...

........................................................................
.............................. CYCLE   31 ..............................
........................................................................

 iter      E             dE          RMSdq      gap      omega  full diag
   1   -202.1069728 -0.202107E+03  0.779E-02    8.14       0.0  T
   2   -202.1069845 -0.117522E-04  0.472E-02    8.14       1.0  T
   3   -202.1069903 -0.577836E-05  0.595E-03    8.14       1.5  T
   4   -202.1069906 -0.311347E-06  0.280E-03    8.14       3.3  T
   5   -202.1069907 -0.692178E-07  0.948E-04    8.14       9.7  T
   6   -202.1069907 -0.104178E-07  0.213E-04    8.14      43.1  T
     SCC iter.                  ...        0 min,  0.048 sec
     gradient                   ...        0 min,  0.041 sec
 * total energy  :  -200.8495693 Eh     change       -0.3062698E-02 Eh
   gradient norm :     0.0301771 Eh/α   predicted    -0.3259320E-02 (   6.42%)
   displ. norm   :     0.5006500 α      lambda       -0.3247341E-02
   maximum displ.:     0.1074056 α      in ANC's #66, #16, #78, ...

........................................................................
.............................. CYCLE   32 ..............................
........................................................................

 iter      E             dE          RMSdq      gap      omega  full diag
   1   -202.1148240 -0.202115E+03  0.837E-02    8.14       0.0  T
   2   -202.1148344 -0.103496E-04  0.509E-02    8.14       1.0  T
   3   -202.1148404 -0.601541E-05  0.565E-03    8.14       1.6  T
   4   -202.1148406 -0.272144E-06  0.298E-03    8.14       3.1  T
   5   -202.1148407 -0.959045E-07  0.100E-03    8.14       9.2  T
   6   -202.1148408 -0.145136E-07  0.310E-04    8.14      29.7  T
   7   -202.1148408 -0.182402E-08  0.100E-04    8.14      91.7  T
     SCC iter.                  ...        0 min,  0.056 sec
     gradient                   ...        0 min,  0.041 sec
 * total energy  :  -200.8500208 Eh     change       -0.4514646E-03 Eh
   gradient norm :     0.0542187 Eh/α   predicted    -0.2030647E-02 ( 349.79%)
   displ. norm   :     0.4136967 α      lambda       -0.3929744E-02
   maximum displ.:     0.1153167 α      in ANC's #66, #16, #122, ...

........................................................................
.............................. CYCLE   33 ..............................
........................................................................

 iter      E             dE          RMSdq      gap      omega  full diag
   1   -202.1184453 -0.202118E+03  0.638E-02    8.15       0.0  T
   2   -202.1184522 -0.689960E-05  0.388E-02    8.15       1.0  T
   3   -202.1184556 -0.335850E-05  0.442E-03    8.15       2.1  T
   4   -202.1184558 -0.187693E-06  0.190E-03    8.15       4.8  T
   5   -202.1184558 -0.319079E-07  0.740E-04    8.15      12.4  T
   6   -202.1184558 -0.620699E-08  0.249E-04    8.15      37.0  T
     SCC iter.                  ...        0 min,  0.044 sec
     gradient                   ...        0 min,  0.039 sec
 * total energy  :  -200.8527429 Eh     change       -0.2722141E-02 Eh
   gradient norm :     0.0237136 Eh/α   predicted    -0.2301154E-02 ( -15.47%)
   displ. norm   :     0.6353295 α      lambda       -0.3932635E-02
   maximum displ.:     0.1614221 α      in ANC's #66, #16, #125, ...

........................................................................
.............................. CYCLE   34 ..............................
........................................................................

 iter      E             dE          RMSdq      gap      omega  full diag
   1   -202.0944922 -0.202094E+03  0.120E-01    8.13       0.0  T
   2   -202.0945136 -0.213662E-04  0.731E-02    8.13       1.0  T
   3   -202.0945252 -0.115700E-04  0.805E-03    8.13       1.1  T
   4   -202.0945257 -0.536920E-06  0.393E-03    8.13       2.3  T
   5   -202.0945259 -0.148449E-06  0.139E-03    8.13       6.6  T
   6   -202.0945259 -0.235871E-07  0.444E-04    8.13      20.7  T
   7   -202.0945259 -0.371213E-08  0.129E-04    8.13      71.3  T
     SCC iter.                  ...        0 min,  0.055 sec
     gradient                   ...        0 min,  0.040 sec
 * total energy  :  -200.8522918 Eh     change        0.4510985E-03 Eh
   gradient norm :     0.0712369 Eh/α   predicted    -0.2760012E-02 (-711.84%)
   displ. norm   :     0.3671706 α      lambda       -0.6852482E-02
   maximum displ.:     0.1029016 α      in ANC's #31, #28, #66, ...

........................................................................
.............................. CYCLE   35 ..............................
........................................................................

 iter      E             dE          RMSdq      gap      omega  full diag
   1   -202.1277949 -0.202128E+03  0.941E-02    8.13       0.0  T
   2   -202.1278145 -0.195990E-04  0.567E-02    8.13       1.0  T
   3   -202.1278243 -0.974854E-05  0.794E-03    8.13       1.2  T
   4   -202.1278248 -0.541717E-06  0.358E-03    8.13       2.6  T
   5   -202.1278249 -0.116523E-06  0.123E-03    8.13       7.5  T
   6   -202.1278249 -0.171832E-07  0.349E-04    8.13      26.4  T
   7   -202.1278249 -0.208007E-08  0.111E-04    8.13      83.2  T
     SCC iter.                  ...        0 min,  0.059 sec
     gradient                   ...        0 min,  0.040 sec
 * total energy  :  -200.8545198 Eh     change       -0.2227966E-02 Eh
   gradient norm :     0.0525020 Eh/α   predicted    -0.3888148E-02 (  74.52%)
   displ. norm   :     0.4945292 α      lambda       -0.6661057E-02
   maximum displ.:     0.1522886 α      in ANC's #79, #55, #120, ...

........................................................................
.............................. CYCLE   36 ..............................
........................................................................

 iter      E             dE          RMSdq      gap      omega  full diag
   1   -202.1209757 -0.202121E+03  0.131E-01    8.13       0.0  T
   2   -202.1210094 -0.337147E-04  0.793E-02    8.13       1.0  T
   3   -202.1210278 -0.184032E-04  0.990E-03    8.13       1.0  T
   4   -202.1210289 -0.113276E-05  0.385E-03    8.13       2.4  T
   5   -202.1210290 -0.144477E-06  0.176E-03    8.13       5.2  T
   6   -202.1210291 -0.466114E-07  0.397E-04    8.13      23.2  T
   7   -202.1210291 -0.259783E-08  0.165E-04    8.13      55.7  T
     SCC iter.                  ...        0 min,  0.056 sec
     gradient                   ...        0 min,  0.039 sec
 * total energy  :  -200.8529414 Eh     change        0.1578449E-02 Eh
   gradient norm :     0.0812513 Eh/α   predicted    -0.4145040E-02 (-362.60%)
   displ. norm   :     0.3398314 α      lambda       -0.8260253E-02
   maximum displ.:     0.0974932 α      in ANC's #55, #76, #48, ...

........................................................................
.............................. CYCLE   37 ..............................
........................................................................

 iter      E             dE          RMSdq      gap      omega  full diag
   1   -202.1206634 -0.202121E+03  0.947E-02    8.13       0.0  T
   2   -202.1206806 -0.172129E-04  0.573E-02    8.13       1.0  T
   3   -202.1206898 -0.920631E-05  0.717E-03    8.13       1.3  T
   4   -202.1206903 -0.513829E-06  0.293E-03    8.13       3.1  T
   5   -202.1206904 -0.809007E-07  0.122E-03    8.13       7.5  T
   6   -202.1206904 -0.207891E-07  0.316E-04    8.13      29.1  T
   7   -202.1206904 -0.191247E-08  0.111E-04    8.13      83.3  T
     SCC iter.                  ...        0 min,  0.059 sec
     gradient                   ...        0 min,  0.041 sec
 * total energy  :  -200.8566614 Eh     change       -0.3720090E-02 Eh
   gradient norm :     0.0339432 Eh/α   predicted    -0.4607093E-02 (  23.84%)
   displ. norm   :     0.5429195 α      lambda       -0.6221487E-02
   maximum displ.:     0.1905714 α      in ANC's #79, #31, #114, ...

........................................................................
.............................. CYCLE   38 ..............................
........................................................................

 iter      E             dE          RMSdq      gap      omega  full diag
   1   -202.1121282 -0.202112E+03  0.156E-01    8.12       0.0  T
   2   -202.1121821 -0.538970E-04  0.939E-02    8.12       1.0  T
   3   -202.1122099 -0.277618E-04  0.129E-02    8.12       1.0  T
   4   -202.1122116 -0.176070E-05  0.509E-03    8.12       1.8  T
   5   -202.1122119 -0.227439E-06  0.215E-03    8.12       4.3  T
   6   -202.1122119 -0.567360E-07  0.433E-04    8.12      21.2  T
   7   -202.1122119 -0.309950E-08  0.176E-04    8.12      52.3  T
     SCC iter.                  ...        0 min,  0.055 sec
     gradient                   ...        0 min,  0.044 sec
 * total energy  :  -200.8506025 Eh     change        0.6058915E-02 Eh
   gradient norm :     0.1097318 Eh/α   predicted    -0.4027674E-02 (-166.48%)
   displ. norm   :     0.3209348 α      lambda       -0.1543122E-01
   maximum displ.:     0.1260503 α      in ANC's #31, #61, #79, ...

........................................................................
.............................. CYCLE   39 ..............................
........................................................................

 iter      E             dE          RMSdq      gap      omega  full diag
   1   -202.1202657 -0.202120E+03  0.114E-01    8.12       0.0  T
   2   -202.1202971 -0.313996E-04  0.687E-02    8.12       1.0  T
   3   -202.1203129 -0.157880E-04  0.980E-03    8.12       1.0  T
   4   -202.1203139 -0.100153E-05  0.281E-03    8.12       3.3  T
   5   -202.1203140 -0.548310E-07  0.147E-03    8.12       6.3  T
   6   -202.1203140 -0.242638E-07  0.224E-04    8.12      41.1  T
   7   -202.1203140 -0.730239E-09  0.122E-04    8.12      75.7  T
     SCC iter.                  ...        0 min,  0.054 sec
     gradient                   ...        0 min,  0.042 sec
 * total energy  :  -200.8581175 Eh     change       -0.7514962E-02 Eh
   gradient norm :     0.0321283 Eh/α   predicted    -0.8510309E-02 (  13.24%)
   displ. norm   :     0.5164809 α      lambda       -0.5574159E-02
   maximum displ.:     0.1482540 α      in ANC's #83, #87, #115, ...

........................................................................
.............................. CYCLE   40 ..............................
........................................................................

 iter      E             dE          RMSdq      gap      omega  full diag
   1   -202.1309124 -0.202131E+03  0.144E-01    8.13       0.0  T
   2   -202.1309628 -0.504358E-04  0.872E-02    8.13       1.0  T
   3   -202.1309901 -0.272797E-04  0.121E-02    8.13       1.0  T
   4   -202.1309917 -0.159135E-05  0.444E-03    8.13       2.1  T
   5   -202.1309919 -0.161424E-06  0.205E-03    8.13       4.5  T
   6   -202.1309919 -0.548183E-07  0.386E-04    8.13      23.8  T
   7   -202.1309919 -0.248588E-08  0.168E-04    8.13      54.7  T
     SCC iter.                  ...        0 min,  0.057 sec
     gradient                   ...        0 min,  0.040 sec
 * total energy  :  -200.8503424 Eh     change        0.7775101E-02 Eh
   gradient norm :     0.1240254 Eh/α   predicted    -0.3530536E-02 (-145.41%)
   displ. norm   :     0.3107877 α      lambda       -0.1574081E-01
   maximum displ.:     0.0940152 α      in ANC's #83, #61, #120, ...

........................................................................
.............................. CYCLE   41 ..............................
........................................................................

 iter      E             dE          RMSdq      gap      omega  full diag
   1   -202.1184942 -0.202118E+03  0.104E-01    8.11       0.0  T
   2   -202.1185233 -0.291203E-04  0.629E-02    8.12       1.0  T
   3   -202.1185385 -0.152003E-04  0.914E-03    8.12       1.0  T
   4   -202.1185395 -0.960066E-06  0.303E-03    8.12       3.0  T
   5   -202.1185395 -0.774548E-07  0.146E-03    8.12       6.3  T
   6   -202.1185396 -0.275287E-07  0.307E-04    8.12      30.0  T
   7   -202.1185396 -0.139443E-08  0.137E-04    8.12      67.3  T
     SCC iter.                  ...        0 min,  0.058 sec
     gradient                   ...        0 min,  0.045 sec
 * total energy  :  -200.8592622 Eh     change       -0.8919794E-02 Eh
   gradient norm :     0.0206919 Eh/α   predicted    -0.8630609E-02 (  -3.24%)
   displ. norm   :     0.4988787 α      lambda       -0.2772732E-02
   maximum displ.:     0.1547312 α      in ANC's #66, #5, #83, ...

........................................................................
.............................. CYCLE   42 ..............................
........................................................................

 iter      E             dE          RMSdq      gap      omega  full diag
   1   -202.1274618 -0.202127E+03  0.104E-01    8.13       0.0  T
   2   -202.1274876 -0.258150E-04  0.630E-02    8.13       1.0  T
   3   -202.1274991 -0.114558E-04  0.892E-03    8.13       1.0  T
   4   -202.1274998 -0.729764E-06  0.378E-03    8.13       2.4  T
   5   -202.1274999 -0.118259E-06  0.140E-03    8.13       6.6  T
   6   -202.1275000 -0.195142E-07  0.278E-04    8.13      33.1  T
   7   -202.1275000 -0.118760E-08  0.109E-04    8.13      84.5  T
     SCC iter.                  ...        0 min,  0.058 sec
     gradient                   ...        0 min,  0.043 sec
 * total energy  :  -200.8570047 Eh     change        0.2257492E-02 Eh
   gradient norm :     0.0767960 Eh/α   predicted    -0.1731402E-02 (-176.70%)
   displ. norm   :     0.3081306 α      lambda       -0.7954415E-02
   maximum displ.:     0.1033540 α      in ANC's #71, #91, #83, ...
 * RMSD in coord.:     0.5629263 α      energy gain  -0.3296546E-01 Eh

generating ANC from model Hessian ...
Using Lindh-Hessian (1995)
 Shifting diagonal of input Hessian by    1.0125310823309919E-002
 Lowest  eigenvalues of input Hessian
    0.010000    0.010022    0.010053    0.010061    0.010071    0.010080
    0.010092    0.010097    0.010103    0.010108    0.010109    0.010111
    0.010115    0.010117    0.010119    0.010121    0.010121    0.010122
 Highest eigenvalues
    1.454210    1.455863    1.456720    1.457548    1.464595    1.484957


........................................................................
.............................. CYCLE   43 ..............................
........................................................................

 iter      E             dE          RMSdq      gap      omega  full diag
   1   -202.1286092 -0.202129E+03  0.924E-02    8.12       0.0  T
   2   -202.1286305 -0.212909E-04  0.559E-02    8.12       1.0  T
   3   -202.1286415 -0.110230E-04  0.794E-03    8.12       1.2  T
   4   -202.1286421 -0.644631E-06  0.296E-03    8.12       3.1  T
   5   -202.1286422 -0.680367E-07  0.125E-03    8.12       7.4  T
   6   -202.1286422 -0.176755E-07  0.260E-04    8.12      35.4  T
   7   -202.1286422 -0.103313E-08  0.110E-04    8.12      83.6  T
     SCC iter.                  ...        0 min,  0.055 sec
     gradient                   ...        0 min,  0.040 sec
 * total energy  :  -200.8600116 Eh     change       -0.3006920E-02 Eh
   gradient norm :     0.0427798 Eh/α   predicted     0.0000000E+00 (-100.00%)
   displ. norm   :     0.3484528 α      lambda       -0.3229803E-02
   maximum displ.:     0.1968057 α      in ANC's #62, #106, #130, ...

........................................................................
.............................. CYCLE   44 ..............................
........................................................................

 iter      E             dE          RMSdq      gap      omega  full diag
   1   -202.1237649 -0.202124E+03  0.100E-01    8.11       0.0  T
   2   -202.1237736 -0.869911E-05  0.618E-02    8.11       1.0  T
   3   -202.1237786 -0.493984E-05  0.382E-03    8.11       2.4  T
   4   -202.1237787 -0.979075E-07  0.145E-03    8.11       6.3  T
   5   -202.1237787 -0.882204E-08  0.552E-04    8.11      16.7  T
   6   -202.1237787 -0.225680E-08  0.190E-04    8.11      48.4  T
     SCC iter.                  ...        0 min,  0.047 sec
     gradient                   ...        0 min,  0.043 sec
 * total energy  :  -200.8623583 Eh     change       -0.2346706E-02 Eh
   gradient norm :     0.0232550 Eh/α   predicted    -0.1811166E-02 ( -22.82%)
   displ. norm   :     0.4200624 α      lambda       -0.2203650E-02
   maximum displ.:     0.1076760 α      in ANC's #39, #72, #67, ...

........................................................................
.............................. CYCLE   45 ..............................
........................................................................

 iter      E             dE          RMSdq      gap      omega  full diag
   1   -202.1166104 -0.202117E+03  0.984E-02    8.11       0.0  T
   2   -202.1166212 -0.108431E-04  0.607E-02    8.11       1.0  T
   3   -202.1166273 -0.602474E-05  0.469E-03    8.10       2.0  T
   4   -202.1166274 -0.160214E-06  0.182E-03    8.10       5.1  T
   5   -202.1166275 -0.181160E-07  0.729E-04    8.11      12.6  T
   6   -202.1166275 -0.371080E-08  0.255E-04    8.11      36.1  T
     SCC iter.                  ...        0 min,  0.050 sec
     gradient                   ...        0 min,  0.044 sec
 * total energy  :  -200.8632651 Eh     change       -0.9067696E-03 Eh
   gradient norm :     0.0334732 Eh/α   predicted    -0.1296335E-02 (  42.96%)
   displ. norm   :     0.3562689 α      lambda       -0.1970418E-02
   maximum displ.:     0.1267962 α      in ANC's #62, #106, #67, ...

........................................................................
.............................. CYCLE   46 ..............................
........................................................................

 iter      E             dE          RMSdq      gap      omega  full diag
   1   -202.1179305 -0.202118E+03  0.757E-02    8.10       0.0  T
   2   -202.1179365 -0.599484E-05  0.465E-02    8.10       1.0  T
   3   -202.1179397 -0.319413E-05  0.364E-03    8.10       2.5  T
   4   -202.1179398 -0.953137E-07  0.162E-03    8.10       5.7  T
   5   -202.1179398 -0.142944E-07  0.550E-04    8.10      16.8  T
   6   -202.1179398 -0.205543E-08  0.175E-04    8.10      52.5  T
     SCC iter.                  ...        0 min,  0.048 sec
     gradient                   ...        0 min,  0.039 sec
 * total energy  :  -200.8645477 Eh     change       -0.1282627E-02 Eh
   gradient norm :     0.0274612 Eh/α   predicted    -0.1110265E-02 ( -13.44%)
   displ. norm   :     0.4609932 α      lambda       -0.1938904E-02
   maximum displ.:     0.1384827 α      in ANC's #72, #67, #106, ...

........................................................................
.............................. CYCLE   47 ..............................
........................................................................

 iter      E             dE          RMSdq      gap      omega  full diag
   1   -202.1278482 -0.202128E+03  0.701E-02    8.11       0.0  T
   2   -202.1278531 -0.491232E-05  0.427E-02    8.11       1.0  T
   3   -202.1278556 -0.251799E-05  0.353E-03    8.11       2.6  T
   4   -202.1278557 -0.106837E-06  0.158E-03    8.11       5.8  T
   5   -202.1278557 -0.179664E-07  0.606E-04    8.11      15.2  T
   6   -202.1278557 -0.378989E-08  0.168E-04    8.11      54.9  T
     SCC iter.                  ...        0 min,  0.053 sec
     gradient                   ...        0 min,  0.043 sec
 * total energy  :  -200.8657979 Eh     change       -0.1250207E-02 Eh
   gradient norm :     0.0216550 Eh/α   predicted    -0.1175485E-02 (  -5.98%)
   displ. norm   :     0.6206471 α      lambda       -0.2082281E-02
   maximum displ.:     0.1849471 α      in ANC's #67, #61, #59, ...

........................................................................
.............................. CYCLE   48 ..............................
........................................................................

 iter      E             dE          RMSdq      gap      omega  full diag
   1   -202.1241964 -0.202124E+03  0.940E-02    8.11       0.0  T
   2   -202.1242049 -0.849421E-05  0.576E-02    8.11       1.0  T
   3   -202.1242094 -0.455845E-05  0.437E-03    8.11       2.1  T
   4   -202.1242096 -0.162860E-06  0.196E-03    8.11       4.7  T
   5   -202.1242096 -0.270128E-07  0.744E-04    8.11      12.4  T
   6   -202.1242096 -0.580386E-08  0.230E-04    8.11      40.0  T
     SCC iter.                  ...        0 min,  0.051 sec
     gradient                   ...        0 min,  0.040 sec
 * total energy  :  -200.8669219 Eh     change       -0.1123943E-02 Eh
   gradient norm :     0.0385549 Eh/α   predicted    -0.1442201E-02 (  28.32%)
   displ. norm   :     0.5311192 α      lambda       -0.3166376E-02
   maximum displ.:     0.1651544 α      in ANC's #67, #61, #59, ...

........................................................................
.............................. CYCLE   49 ..............................
........................................................................

 iter      E             dE          RMSdq      gap      omega  full diag
   1   -202.1336791 -0.202134E+03  0.807E-02    8.11       0.0  T
   2   -202.1336918 -0.127211E-04  0.491E-02    8.11       1.0  T
   3   -202.1336986 -0.674534E-05  0.584E-03    8.11       1.6  T
   4   -202.1336989 -0.355534E-06  0.209E-03    8.11       4.4  T
   5   -202.1336990 -0.348250E-07  0.966E-04    8.11       9.5  T
   6   -202.1336990 -0.107673E-07  0.329E-04    8.11      28.0  T
     SCC iter.                  ...        0 min,  0.046 sec
     gradient                   ...        0 min,  0.045 sec
 * total energy  :  -200.8676794 Eh     change       -0.7575725E-03 Eh
   gradient norm :     0.0434485 Eh/α   predicted    -0.2029786E-02 ( 167.93%)
   displ. norm   :     0.4675038 α      lambda       -0.4222488E-02
   maximum displ.:     0.1417402 α      in ANC's #62, #104, #72, ...

........................................................................
.............................. CYCLE   50 ..............................
........................................................................

 iter      E             dE          RMSdq      gap      omega  full diag
   1   -202.1263743 -0.202126E+03  0.119E-01    8.11       0.0  T
   2   -202.1264024 -0.280882E-04  0.721E-02    8.11       1.0  T
   3   -202.1264160 -0.136552E-04  0.913E-03    8.11       1.0  T
   4   -202.1264168 -0.752946E-06  0.324E-03    8.11       2.8  T
   5   -202.1264168 -0.728961E-07  0.135E-03    8.11       6.8  T
   6   -202.1264169 -0.160721E-07  0.445E-04    8.11      20.7  T
   7   -202.1264169 -0.292690E-08  0.114E-04    8.11      81.0  T
     SCC iter.                  ...        0 min,  0.058 sec
     gradient                   ...        0 min,  0.043 sec
 * total energy  :  -200.8669046 Eh     change        0.7748764E-03 Eh
   gradient norm :     0.0674683 Eh/α   predicted    -0.2572682E-02 (-432.01%)
   displ. norm   :     0.3679519 α      lambda       -0.7394737E-02
   maximum displ.:     0.1439919 α      in ANC's #110, #111, #109, ...

........................................................................
.............................. CYCLE   51 ..............................
........................................................................

 iter      E             dE          RMSdq      gap      omega  full diag
   1   -202.1433964 -0.202143E+03  0.118E-01    8.11       0.0  T
   2   -202.1434292 -0.328065E-04  0.710E-02    8.11       1.0  T
   3   -202.1434449 -0.157160E-04  0.993E-03    8.11       1.0  T
   4   -202.1434458 -0.861053E-06  0.279E-03    8.11       3.3  T
   5   -202.1434458 -0.384792E-07  0.132E-03    8.11       7.0  T
   6   -202.1434458 -0.142916E-07  0.241E-04    8.11      38.3  T
   7   -202.1434458 -0.748003E-09  0.106E-04    8.11      86.4  T
     SCC iter.                  ...        0 min,  0.059 sec
     gradient                   ...        0 min,  0.038 sec
 * total energy  :  -200.8671432 Eh     change       -0.2386089E-03 Eh
   gradient norm :     0.0696278 Eh/α   predicted    -0.4197951E-02 (1659.34%)
   displ. norm   :     0.4726207 α      lambda       -0.8259124E-02
   maximum displ.:     0.1713166 α      in ANC's #33, #48, #34, ...

........................................................................
.............................. CYCLE   52 ..............................
........................................................................

 iter      E             dE          RMSdq      gap      omega  full diag
   1   -202.1135728 -0.202114E+03  0.162E-01    8.11       0.0  T
   2   -202.1136299 -0.570380E-04  0.981E-02    8.11       1.0  T
   3   -202.1136583 -0.284233E-04  0.133E-02    8.11       1.0  T
   4   -202.1136600 -0.171455E-05  0.526E-03    8.11       1.8  T
   5   -202.1136603 -0.244318E-06  0.211E-03    8.11       4.4  T
   6   -202.1136603 -0.537433E-07  0.441E-04    8.11      20.9  T
   7   -202.1136603 -0.340637E-08  0.173E-04    8.11      53.1  T
     SCC iter.                  ...        0 min,  0.054 sec
     gradient                   ...        0 min,  0.040 sec
 * total energy  :  -200.8654321 Eh     change        0.1711112E-02 Eh
   gradient norm :     0.0856762 Eh/α   predicted    -0.5051985E-02 (-395.25%)
   displ. norm   :     0.3722436 α      lambda       -0.1159136E-01
   maximum displ.:     0.1532509 α      in ANC's #48, #33, #34, ...

........................................................................
.............................. CYCLE   53 ..............................
........................................................................

 iter      E             dE          RMSdq      gap      omega  full diag
   1   -202.1465373 -0.202147E+03  0.130E-01    8.11       0.0  T
   2   -202.1465718 -0.345223E-04  0.787E-02    8.11       1.0  T
   3   -202.1465898 -0.180476E-04  0.102E-02    8.11       1.0  T
   4   -202.1465908 -0.974389E-06  0.337E-03    8.11       2.7  T
   5   -202.1465909 -0.765274E-07  0.153E-03    8.11       6.0  T
   6   -202.1465909 -0.262804E-07  0.245E-04    8.11      37.6  T
   7   -202.1465909 -0.871381E-09  0.135E-04    8.11      68.3  T
     SCC iter.                  ...        0 min,  0.058 sec
     gradient                   ...        0 min,  0.047 sec
 * total energy  :  -200.8688732 Eh     change       -0.3441101E-02 Eh
   gradient norm :     0.0478360 Eh/α   predicted    -0.6598757E-02 (  91.76%)
   displ. norm   :     0.4967922 α      lambda       -0.6217096E-02
   maximum displ.:     0.2230729 α      in ANC's #72, #126, #110, ...

........................................................................
.............................. CYCLE   54 ..............................
........................................................................

 iter      E             dE          RMSdq      gap      omega  full diag
   1   -202.1195226 -0.202120E+03  0.156E-01    8.11       0.0  T
   2   -202.1195688 -0.462223E-04  0.950E-02    8.11       1.0  T
   3   -202.1195929 -0.240579E-04  0.116E-02    8.11       1.0  T
   4   -202.1195942 -0.132586E-05  0.400E-03    8.11       2.3  T
   5   -202.1195943 -0.124492E-06  0.181E-03    8.11       5.1  T
   6   -202.1195944 -0.371973E-07  0.556E-04    8.11      16.5  T
   7   -202.1195944 -0.539686E-08  0.154E-04    8.11      59.8  T
     SCC iter.                  ...        0 min,  0.058 sec
     gradient                   ...        0 min,  0.042 sec
 * total energy  :  -200.8663105 Eh     change        0.2562645E-02 Eh
   gradient norm :     0.0861102 Eh/α   predicted    -0.3875749E-02 (-251.24%)
   displ. norm   :     0.3188838 α      lambda       -0.9503033E-02
   maximum displ.:     0.0992600 α      in ANC's #72, #126, #42, ...

........................................................................
.............................. CYCLE   55 ..............................
........................................................................

 iter      E             dE          RMSdq      gap      omega  full diag
   1   -202.1367801 -0.202137E+03  0.110E-01    8.11       0.0  T
   2   -202.1368053 -0.251714E-04  0.664E-02    8.11       1.0  T
   3   -202.1368179 -0.126217E-04  0.868E-03    8.11       1.1  T
   4   -202.1368186 -0.709288E-06  0.270E-03    8.11       3.4  T
   5   -202.1368186 -0.496842E-07  0.127E-03    8.11       7.2  T
   6   -202.1368186 -0.161511E-07  0.331E-04    8.11      27.8  T
   7   -202.1368187 -0.169695E-08  0.112E-04    8.11      82.0  T
     SCC iter.                  ...        0 min,  0.057 sec
     gradient                   ...        0 min,  0.043 sec
 * total energy  :  -200.8697729 Eh     change       -0.3462344E-02 Eh
   gradient norm :     0.0480113 Eh/α   predicted    -0.5234689E-02 (  51.19%)
   displ. norm   :     0.5200701 α      lambda       -0.7270356E-02
   maximum displ.:     0.1368612 α      in ANC's #49, #85, #130, ...

........................................................................
.............................. CYCLE   56 ..............................
........................................................................

 iter      E             dE          RMSdq      gap      omega  full diag
   1   -202.1324846 -0.202132E+03  0.170E-01    8.10       0.0  T
   2   -202.1325425 -0.578814E-04  0.103E-01    8.10       1.0  T
   3   -202.1325752 -0.327857E-04  0.129E-02    8.10       1.0  T
   4   -202.1325770 -0.179991E-05  0.536E-03    8.10       1.7  T
   5   -202.1325773 -0.297436E-06  0.221E-03    8.10       4.2  T
   6   -202.1325774 -0.792553E-07  0.424E-04    8.10      21.7  T
   7   -202.1325774 -0.305332E-08  0.212E-04    8.10      43.5  T
[...]
    25   8 O        1.607    -0.661    26.706     6.975
    26   8 O        1.609    -0.671    26.955     7.007
    27   8 O        1.607    -0.692    27.505     7.078
    28   8 O        1.608    -0.654    26.506     6.948
    29   8 O        1.608    -0.665    26.800     6.987
    30   8 O        1.607    -0.665    26.789     6.986
    31   8 O        1.608    -0.676    27.072     7.022
    32   1 H        0.802     0.366     0.552     1.167
    33   1 H        0.805     0.319     0.667     1.283
    34   1 H        0.805     0.321     0.662     1.278
    35   1 H        0.805     0.372     0.539     1.153
    36   1 H        0.805     0.316     0.674     1.290
    37   1 H        0.804     0.359     0.567     1.183
    38   1 H        0.805     0.322     0.657     1.274
    39   1 H        0.804     0.371     0.541     1.155
    40   1 H        0.805     0.320     0.664     1.280
    41   1 H        0.803     0.365     0.555     1.171
    42   1 H        0.802     0.382     0.520     1.133
    43   1 H        0.805     0.367     0.551     1.166
    44   1 H        0.805     0.316     0.674     1.289
    45   1 H        0.803     0.374     0.536     1.150
    46   1 H        0.805     0.309     0.694     1.308
    47   1 H        0.802     0.362     0.560     1.176
    48   1 H        0.805     0.315     0.677     1.293
    49   1 H        0.803     0.365     0.555     1.170
    50   1 H        0.804     0.351     0.587     1.203
    51   1 H        0.804     0.354     0.578     1.194
    52   1 H        0.805     0.323     0.656     1.272
    53   1 H        0.804     0.352     0.583     1.199
    54   1 H        0.805     0.315     0.677     1.293
    55   1 H        0.803     0.362     0.560     1.176
    56   8 O        1.611    -0.688    27.403     7.065
    57   1 H        0.805     0.340     0.611     1.228
    58   1 H        0.805     0.366     0.551     1.166
    59   8 O        1.610    -0.740    28.783     7.241
    60   1 H        0.805     0.386     0.511     1.123
    61   1 H        0.805     0.353     0.580     1.196
    62   8 O        1.610    -0.730    28.514     7.207
    63   1 H        0.805     0.386     0.511     1.123
    64   1 H        0.805     0.344     0.602     1.219
    65   8 O        1.610    -0.746    28.950     7.262
    66   1 H        0.805     0.365     0.554     1.169
    67   1 H        0.805     0.380     0.522     1.135
    68   8 O        1.611    -0.689    27.419     7.067
    69   1 H        0.805     0.355     0.576     1.192
    70   1 H        0.805     0.349     0.590     1.207
    71   8 O        1.610    -0.737    28.711     7.232
    72   1 H        0.805     0.360     0.565     1.180
    73   1 H        0.805     0.377     0.530     1.143
    74   8 O        1.610    -0.710    27.983     7.140
    75   1 H        0.805     0.361     0.563     1.178
    76   1 H        0.805     0.349     0.590     1.207
    77   8 O        1.610    -0.722    28.309     7.181
    78   1 H        0.805     0.382     0.520     1.132
    79   1 H        0.805     0.341     0.610     1.227
    80   8 O        1.611    -0.690    27.443     7.070
    81   1 H        0.805     0.361     0.564     1.179
    82   1 H        0.805     0.344     0.602     1.219
    83   8 O        1.609    -0.692    27.501     7.078
    84   1 H        0.803     0.358     0.569     1.185
    85   1 H        0.806     0.336     0.622     1.239
    86   8 O        1.611    -0.690    27.441     7.070
    87   1 H        0.805     0.346     0.599     1.215
    88   1 H        0.805     0.359     0.568     1.184
    89   8 O        1.610    -0.716    28.139     7.159
    90   1 H        0.805     0.341     0.609     1.226
    91   1 H        0.805     0.375     0.533     1.147
    92   8 O        1.611    -0.690    27.432     7.069
    93   1 H        0.805     0.352     0.582     1.199
    94   1 H        0.805     0.352     0.583     1.199
    95   8 O        1.611    -0.690    27.439     7.070
    96   1 H        0.805     0.354     0.579     1.195
    97   1 H        0.805     0.350     0.587     1.204
    98   8 O        1.611    -0.693    27.522     7.081
    99   1 H        0.805     0.348     0.593     1.209
   100   1 H        0.805     0.363     0.558     1.173
   101   8 O        1.611    -0.690    27.450     7.071
   102   1 H        0.805     0.342     0.607     1.224
   103   1 H        0.805     0.367     0.550     1.165
   104   8 O        1.611    -0.692    27.487     7.076
   105   1 H        0.805     0.350     0.589     1.205
   106   1 H        0.805     0.357     0.572     1.188
   107   8 O        1.611    -0.687    27.367     7.061
   108   1 H        0.805     0.353     0.580     1.197
   109   1 H        0.805     0.353     0.582     1.198
   110   8 O        1.610    -0.744    28.915     7.257
   111   1 H        0.805     0.379     0.525     1.138
   112   1 H        0.805     0.365     0.554     1.169
   113   8 O        1.610    -0.711    28.006     7.142
   114   1 H        0.805     0.350     0.587     1.203
   115   1 H        0.805     0.361     0.564     1.179
   116   8 O        1.610    -0.720    28.257     7.174
   117   1 H        0.805     0.347     0.595     1.212
   118   1 H        0.805     0.373     0.536     1.150

 Mol. C6AA /au·bohr⁶  :      69061.477293
 Mol. C8AA /au·bohr⁸  :    1271548.218059
 Mol. α(0) /au        :        374.157127


Wiberg/Mayer (AO) data.
largest (>0.10) Wiberg bond orders for each atom

 ---------------------------------------------------------------------------
     #   Z sym  total        # sym  WBO       # sym  WBO       # sym  WBO
 ---------------------------------------------------------------------------
     1  26 Fe   1.749 --     2 O    0.275     3 O    0.272     4 O    0.259
                             7 O    0.243     6 O    0.242     5 O    0.205
                            23 O    0.184
     2   8 O    1.928 --    12 H    0.800    13 H    0.789     1 Fe   0.275
     3   8 O    1.920 --    16 H    0.803    17 H    0.776     1 Fe   0.272
     4   8 O    1.919 --    15 H    0.800    14 H    0.794     1 Fe   0.259
     5   8 O    1.930 --    19 H    0.855    18 H    0.774     1 Fe   0.205
     6   8 O    1.916 --     9 H    0.801     8 H    0.800     1 Fe   0.242
     7   8 O    1.911 --    10 H    0.800    11 H    0.790     1 Fe   0.243
     8   1 H    0.851 --     6 O    0.800
     9   1 H    0.856 --     6 O    0.801
    10   1 H    0.855 --     7 O    0.800
    11   1 H    0.854 --     7 O    0.790
    12   1 H    0.851 --     2 O    0.800
    13   1 H    0.844 --     2 O    0.789
    14   1 H    0.850 --     4 O    0.794
    15   1 H    0.852 --     4 O    0.800
    16   1 H    0.849 --     3 O    0.803
    17   1 H    0.850 --     3 O    0.776
    18   1 H    0.849 --     5 O    0.774
    19   1 H    0.860 --     5 O    0.855
    20   8 O    1.852 --    34 H    0.865    35 H    0.852
    21   8 O    1.863 --    54 H    0.871    55 H    0.819
    22   8 O    1.901 --    40 H    0.862    41 H    0.810
    23   8 O    1.938 --    43 H    0.855    42 H    0.777     1 Fe   0.184
    24   8 O    1.867 --    36 H    0.870    37 H    0.828
    25   8 O    1.879 --    33 H    0.863    32 H    0.801
    26   8 O    1.818 --    52 H    0.866    53 H    0.852
    27   8 O    1.833 --    51 H    0.831    50 H    0.829
    28   8 O    1.868 --    48 H    0.871    49 H    0.817
    29   8 O    1.855 --    38 H    0.861    39 H    0.822
    30   8 O    1.847 --    46 H    0.873    47 H    0.805
    31   8 O    1.839 --    44 H    0.866    45 H    0.807
    32   1 H    0.866 --    25 O    0.801
    33   1 H    0.898 --    25 O    0.863
    34   1 H    0.897 --    20 O    0.865
    35   1 H    0.861 --    20 O    0.852
    36   1 H    0.900 --    24 O    0.870
    37   1 H    0.871 --    24 O    0.828
    38   1 H    0.896 --    29 O    0.861
    39   1 H    0.862 --    29 O    0.822
    40   1 H    0.898 --    22 O    0.862
    41   1 H    0.867 --    22 O    0.810
    42   1 H    0.853 --    23 O    0.777
    43   1 H    0.865 --    23 O    0.855
    44   1 H    0.900 --    31 O    0.866
    45   1 H    0.860 --    31 O    0.807
    46   1 H    0.904 --    30 O    0.873
    47   1 H    0.869 --    30 O    0.805
    48   1 H    0.901 --    28 O    0.871
    49   1 H    0.867 --    28 O    0.817
    50   1 H    0.877 --    27 O    0.829
    51   1 H    0.874 --    27 O    0.831
    52   1 H    0.896 --    26 O    0.866
    53   1 H    0.876 --    26 O    0.852
    54   1 H    0.901 --    21 O    0.871
    55   1 H    0.869 --    21 O    0.819
    56   8 O    1.783 --    57 H    0.882    58 H    0.864
    57   1 H    0.884 --    56 O    0.882
    58   1 H    0.866 --    56 O    0.864
    59   8 O    1.726 --    61 H    0.875    60 H    0.851
    60   1 H    0.851 --    59 O    0.851
    61   1 H    0.875 --    59 O    0.875
    62   8 O    1.733 --    64 H    0.882    63 H    0.851
    63   1 H    0.851 --    62 O    0.851
    64   1 H    0.882 --    62 O    0.882
    65   8 O    1.721 --    66 H    0.866    67 H    0.855
    66   1 H    0.867 --    65 O    0.866
    67   1 H    0.855 --    65 O    0.855
    68   8 O    1.776 --    70 H    0.875    69 H    0.870
    69   1 H    0.874 --    68 O    0.870
    70   1 H    0.878 --    68 O    0.875
    71   8 O    1.728 --    72 H    0.870    73 H    0.858
    72   1 H    0.870 --    71 O    0.870
    73   1 H    0.858 --    71 O    0.858
    74   8 O    1.748 --    76 H    0.878    75 H    0.870
    75   1 H    0.870 --    74 O    0.870
    76   1 H    0.878 --    74 O    0.878
    77   8 O    1.738 --    79 H    0.884    78 H    0.854
    78   1 H    0.854 --    77 O    0.854
    79   1 H    0.884 --    77 O    0.884
    80   8 O    1.775 --    82 H    0.878    81 H    0.867
    81   1 H    0.870 --    80 O    0.867
    82   1 H    0.882 --    80 O    0.878
    83   8 O    1.798 --    85 H    0.881    84 H    0.820
    84   1 H    0.872 --    83 O    0.820
    85   1 H    0.887 --    83 O    0.881
    86   8 O    1.775 --    87 H    0.878    88 H    0.868
    87   1 H    0.881 --    86 O    0.878
    88   1 H    0.871 --    86 O    0.868
    89   8 O    1.743 --    90 H    0.884    91 H    0.859
    90   1 H    0.884 --    89 O    0.884
    91   1 H    0.859 --    89 O    0.859
    92   8 O    1.776 --    94 H    0.873    93 H    0.873
    93   1 H    0.876 --    92 O    0.873
    94   1 H    0.876 --    92 O    0.873
    95   8 O    1.775 --    97 H    0.874    96 H    0.872
    96   1 H    0.875 --    95 O    0.872
    97   1 H    0.877 --    95 O    0.874
    98   8 O    1.778 --    99 H    0.876   100 H    0.865
    99   1 H    0.879 --    98 O    0.876
   100   1 H    0.868 --    98 O    0.865
   101   8 O    1.781 --   102 H    0.881   103 H    0.863
   102   1 H    0.883 --   101 O    0.881
   103   1 H    0.865 --   101 O    0.863
   104   8 O    1.774 --   105 H    0.875   106 H    0.869
   105   1 H    0.878 --   104 O    0.875
   106   1 H    0.872 --   104 O    0.869
   107   8 O    1.784 --   109 H    0.874   108 H    0.872
   108   1 H    0.875 --   107 O    0.872
   109   1 H    0.876 --   107 O    0.874
   110   8 O    1.722 --   112 H    0.866   111 H    0.856
   111   1 H    0.856 --   110 O    0.856
   112   1 H    0.867 --   110 O    0.866
   113   8 O    1.747 --   114 H    0.877   115 H    0.870
   114   1 H    0.877 --   113 O    0.877
   115   1 H    0.870 --   113 O    0.870
   116   8 O    1.740 --   117 H    0.880   118 H    0.860
   117   1 H    0.880 --   116 O    0.880
   118   1 H    0.861 --   116 O    0.860
 ---------------------------------------------------------------------------

Topologies differ in total number of bonds
Writing topology from bond orders to xtbtopo.mol

molecular dipole:
                 x           y           z       tot (Debye)
 q only:       -0.536       1.949      -1.295
   full:       -0.848       2.178      -2.058       7.917
molecular quadrupole (traceless):
                xx          xy          yy          xz          yz          zz
 q only:       -7.721     -12.852      21.909      12.075      36.650     -14.188
  q+dip:      -15.300     -17.395      32.125      13.104      47.351     -16.826
   full:      -16.460     -17.717      33.119      12.810      48.028     -16.659

           -------------------------------------------------
          |                Geometry Summary                 |
           -------------------------------------------------

      molecular mass/u    :      758.4413148
   center of mass at/Å    :        0.1504469       0.1427823       0.0380721
  moments of inertia/u·Å² :        0.1407259E+05   0.1623258E+05   0.1769641E+05
rotational constants/cm⁻¹ :        0.1197906E-02   0.1038506E-02   0.9526019E-03

 * 78 selected distances

     #   Z          #   Z                                           value/Å
     6   8 O        8   1 H                                       0.9757704
     6   8 O        9   1 H                                       0.9753267
     7   8 O       10   1 H                                       0.9770207
     7   8 O       11   1 H                                       0.9804545
     2   8 O       12   1 H                                       0.9723533
     2   8 O       13   1 H                                       0.9762351
     4   8 O       14   1 H                                       0.9752855
     4   8 O       15   1 H                                       0.9725722
     3   8 O       16   1 H                                       0.9739279
     3   8 O       17   1 H                                       0.9840886
     5   8 O       18   1 H                                       0.9855044
     5   8 O       19   1 H                                       0.9589413
    25   8 O       32   1 H                                       0.9856138
    25   8 O       33   1 H                                       0.9653075
    20   8 O       34   1 H                                       0.9636029
    20   8 O       35   1 H                                       0.9668852
    24   8 O       36   1 H                                       0.9633838
    24   8 O       37   1 H                                       0.9739810
    29   8 O       38   1 H                                       0.9651724
    29   8 O       39   1 H                                       0.9747149
    22   8 O       40   1 H                                       0.9652698
    22   8 O       41   1 H                                       0.9801704
    23   8 O       42   1 H                                       0.9858385 (max)
    23   8 O       43   1 H                                       0.9606145
    31   8 O       44   1 H                                       0.9626994
    31   8 O       45   1 H                                       0.9820900
    30   8 O       46   1 H                                       0.9621993
    30   8 O       47   1 H                                       0.9844504
    28   8 O       48   1 H                                       0.9631045
    28   8 O       49   1 H                                       0.9791727
    27   8 O       50   1 H                                       0.9736678
    27   8 O       51   1 H                                       0.9749380
    26   8 O       52   1 H                                       0.9664882
    26   8 O       53   1 H                                       0.9693424
    21   8 O       54   1 H                                       0.9629486
    21   8 O       55   1 H                                       0.9772963
    56   8 O       57   1 H                                       0.9587778
    56   8 O       58   1 H                                       0.9617286
    59   8 O       60   1 H                                       0.9652393
    59   8 O       61   1 H                                       0.9610119
    62   8 O       63   1 H                                       0.9651554
    62   8 O       64   1 H                                       0.9597680
    65   8 O       66   1 H                                       0.9627338
    65   8 O       67   1 H                                       0.9644501
    68   8 O       69   1 H                                       0.9607170
    68   8 O       70   1 H                                       0.9597950
    71   8 O       72   1 H                                       0.9620351
    71   8 O       73   1 H                                       0.9640733
    74   8 O       75   1 H                                       0.9622918
    74   8 O       76   1 H                                       0.9604373
    77   8 O       78   1 H                                       0.9647368
    77   8 O       79   1 H                                       0.9593473
    80   8 O       81   1 H                                       0.9614345
    80   8 O       82   1 H                                       0.9590353
    83   8 O       84   1 H                                       0.9797562
    83   8 O       85   1 H                                       0.9568579 (min)
    86   8 O       87   1 H                                       0.9593435
    86   8 O       88   1 H                                       0.9609729
    89   8 O       90   1 H                                       0.9592342
    89   8 O       91   1 H                                       0.9638149
    92   8 O       93   1 H                                       0.9602014
    92   8 O       94   1 H                                       0.9603267
    95   8 O       96   1 H                                       0.9606730
    95   8 O       97   1 H                                       0.9600717
    98   8 O       99   1 H                                       0.9595278
    98   8 O      100   1 H                                       0.9617297
   101   8 O      102   1 H                                       0.9587392
   101   8 O      103   1 H                                       0.9621221
   104   8 O      105   1 H                                       0.9598205
   104   8 O      106   1 H                                       0.9608425
   107   8 O      108   1 H                                       0.9602476
   107   8 O      109   1 H                                       0.9604962
   110   8 O      111   1 H                                       0.9642855
   110   8 O      112   1 H                                       0.9625580
   113   8 O      114   1 H                                       0.9605999
   113   8 O      115   1 H                                       0.9622900
   116   8 O      117   1 H                                       0.9600727
   116   8 O      118   1 H                                       0.9636222

 * 1 distinct bonds (by element types)

   Z      Z             #   av. dist./Å        max./Å        min./Å
   1 H    8 O          78     0.9667616     0.9858385     0.9568579


optimized geometry written to: xtbopt.xyz


           -------------------------------------------------
          | TOTAL ENERGY             -200.900154773852 Eh   |
          | GRADIENT NORM               0.000047887144 Eh/α |
          | HOMO-LUMO GAP               7.925598572948 eV   |
           -------------------------------------------------

------------------------------------------------------------------------
 * finished run on 2024/05/10 at 17:55:53.951     
------------------------------------------------------------------------
 total:
 * wall-time:     0 d,  0 h,  0 min, 48.801 sec
 *  cpu-time:     0 d,  0 h,  5 min, 49.796 sec
 * ratio c/w:     7.168 speedup
 SCF:
 * wall-time:     0 d,  0 h,  0 min,  0.184 sec
 *  cpu-time:     0 d,  0 h,  0 min,  1.366 sec
 * ratio c/w:     7.434 speedup
 ANC optimizer:
 * wall-time:     0 d,  0 h,  0 min, 48.410 sec
 *  cpu-time:     0 d,  0 h,  5 min, 46.881 sec
 * ratio c/w:     7.165 speedup

