      -----------------------------------------------------------      
     |                   =====================                   |     
     |                           x T B                           |     
     |                   =====================                   |     
     |                         S. Grimme                         |     
     |          Mulliken Center for Theoretical Chemistry        |     
     |                    University of Bonn                     |     
      -----------------------------------------------------------      

   * xtb version 6.6.0 (conda-forge) compiled by 'runner@Mac-1676020848589.local' on 2023-02-10

   xtb is free software: you can redistribute it and/or modify it under
   the terms of the GNU Lesser General Public License as published by
   the Free Software Foundation, either version 3 of the License, or
   (at your option) any later version.
   
   xtb is distributed in the hope that it will be useful,
   but WITHOUT ANY WARRANTY; without even the implied warranty of
   MERCHANTABILITY or FITNESS FOR A PARTICULAR PURPOSE.  See the
   GNU Lesser General Public License for more details.
   
   Cite this work as:
   * C. Bannwarth, E. Caldeweyher, S. Ehlert, A. Hansen, P. Pracht,
     J. Seibert, S. Spicher, S. Grimme, WIREs Comput. Mol. Sci., 2020, 11,
     e01493. DOI: 10.1002/wcms.1493
   
   for GFN2-xTB:
   * C. Bannwarth, S. Ehlert and S. Grimme., J. Chem. Theory Comput., 2019,
     15, 1652-1671. DOI: 10.1021/acs.jctc.8b01176
   for GFN1-xTB:
   * S. Grimme, C. Bannwarth, P. Shushkov, J. Chem. Theory Comput., 2017,
     13, 1989-2009. DOI: 10.1021/acs.jctc.7b00118
   for GFN0-xTB:
   * P. Pracht, E. Caldeweyher, S. Ehlert, S. Grimme, ChemRxiv, 2019, preprint.
     DOI: 10.26434/chemrxiv.8326202.v1
   for GFN-FF:
   * S. Spicher and S. Grimme, Angew. Chem. Int. Ed., 2020, 59, 15665-15673.
     DOI: 10.1002/anie.202004239
   
   for ALPB and GBSA implicit solvation:
   * S. Ehlert, M. Stahn, S. Spicher, S. Grimme, J. Chem. Theory Comput.,
     2021, 17, 4250-4261. DOI: 10.1021/acs.jctc.1c00471
   
   for DFT-D4:
   * E. Caldeweyher, C. Bannwarth and S. Grimme, J. Chem. Phys., 2017,
     147, 034112. DOI: 10.1063/1.4993215
   * E. Caldeweyher, S. Ehlert, A. Hansen, H. Neugebauer, S. Spicher,
     C. Bannwarth and S. Grimme, J. Chem. Phys., 2019, 150, 154122.
     DOI: 10.1063/1.5090222
   * E. Caldeweyher, J.-M. Mewes, S. Ehlert and S. Grimme, Phys. Chem. Chem. Phys.
     2020, 22, 8499-8512. DOI: 10.1039/D0CP00502A
   
   for sTDA-xTB:
   * S. Grimme and C. Bannwarth, J. Chem. Phys., 2016, 145, 054103.
     DOI: 10.1063/1.4959605
   
   in the mass-spec context:
   * V. Asgeirsson, C. Bauer and S. Grimme, Chem. Sci., 2017, 8, 4879.
     DOI: 10.1039/c7sc00601b
   * J. Koopman and S. Grimme, ACS Omega 2019, 4, 12, 15120-15133.
     DOI: 10.1021/acsomega.9b02011
   
   for metadynamics refer to:
   * S. Grimme, J. Chem. Theory Comput., 2019, 155, 2847-2862
     DOI: 10.1021/acs.jctc.9b00143
   
   for SPH calculations refer to:
   * S. Spicher and S. Grimme, J. Chem. Theory Comput., 2021, 17, 1701-1714
     DOI: 10.1021/acs.jctc.0c01306
   
   with help from (in alphabetical order)
   P. Atkinson, C. Bannwarth, F. Bohle, G. Brandenburg, E. Caldeweyher
   M. Checinski, S. Dohm, S. Ehlert, S. Ehrlich, I. Gerasimov, C. Hölzer
   A. Katbashev, J. Koopman, C. Lavigne, S. Lehtola, F. März, M. Müller,
   F. Musil, H. Neugebauer, J. Pisarek, C. Plett, P. Pracht, F. Pultar,
   J. Seibert, P. Shushkov, S. Spicher, M. Stahn, M. Steiner, T. Strunk,
   J. Stückrath, T. Rose, and J. Unsleber
   
 * started run on 2024/05/10 at 17:59:10.450     

           -------------------------------------------------
          |                Calculation Setup                |
           -------------------------------------------------

          program call               : xtb Fe_39H2O.xyz --opt extreme --gfn2 --chrg 0 --uhf 5 --alpb water
          coordinate file            : Fe_39H2O.xyz
          omp threads                :                     8

   ID    Z sym.   atoms
    1   26 Fe     1
    2    8 O      2-7, 20-31, 56, 59, 62, 65, 68, 71, 74, 77, 80, 83, 86, 89,
                  92, 95, 98, 101, 104, 107, 110, 113, 116
    3    1 H      8-19, 32-55, 57, 58, 60, 61, 63, 64, 66, 67, 69, 70, 72,
                  73, 75, 76, 78, 79, 81, 82, 84, 85, 87, 88, 90, 91, 93, 94,
                  96, 97, 99, 100, 102, 103, 105, 106, 108, 109, 111, 112,
                  114, 115, 117, 118

molecular fragmentation (1/2 indicates fragments):
111222222221222122222222222222222222222222222222222222222222222222222222
2222222222222222222222222222222222222222222222
# atoms in fragment 1/2:     5   113
 fragment masses (1/2) :       89.86      668.58
CMA distance (Bohr)    :   0.903
constraining FC (au)   :  0.0500

           -------------------------------------------------
          |                 G F N 2 - x T B                 |
           -------------------------------------------------

        Reference                      10.1021/acs.jctc.8b01176
      * Hamiltonian:
        H0-scaling (s, p, d)           1.850000    2.230000    2.230000
        zeta-weighting                 0.500000
      * Dispersion:
        s8                             2.700000
        a1                             0.520000
        a2                             5.000000
        s9                             5.000000
      * Repulsion:
        kExp                           1.500000    1.000000
        rExp                           1.000000
      * Coulomb:
        alpha                          2.000000
        third order                    shell-resolved
        anisotropic                    true
        a3                             3.000000
        a5                             4.000000
        cn-shift                       1.200000
        cn-exp                         4.000000
        max-rad                        5.000000

      * Solvation model:               ALPB
        Solvent                        water
        Parameter file                 internal GFN2-xTB/ALPB
        Dielectric constant                8.0200E+01
        Reference state                gsolv [1 M gas/solution]
        Free energy shift                  1.0808E-03 Eh       6.7819E-01 kcal/mol
        Temperature                        2.9815E+02 K
        Density                            1.0000E+00 kg/L
        Solvent mass                       1.8000E+01 g/mol
        Interaction kernel             P16
        Born radius scaling (c1)           1.4744E+00
        Born radii integrator          GBOBC
        Born offset                        0.0000E+00 a0       0.0000E+00 AA
        H-bond correction              true
        Ion screening                  false
        Surface tension                    1.0000E-05 Eh       1.5569E+01 dyn/cm
        Grid points                               230 per atom
q/qsh data taken from xtbrestart
CAMM data taken from xtbrestart

          ...................................................
          :                      SETUP                      :
          :.................................................:
          :  # basis functions                 244          :
          :  # atomic orbitals                 243          :
          :  # shells                          159          :
          :  # electrons                       320          :
          :  max. iterations                   250          :
          :  Hamiltonian                  GFN2-xTB          :
          :  restarted?                       true          :
          :  GBSA solvation                   true          :
          :  PC potential                    false          :
          :  electronic temp.          300.0000000     K    :
          :  accuracy                    1.0000000          :
          :  -> integral cutoff          0.2500000E+02      :
          :  -> integral neglect         0.1000000E-07      :
          :  -> SCF convergence          0.1000000E-05 Eh   :
          :  -> wf. convergence          0.1000000E-03 e    :
          :  Broyden damping             0.4000000          :
          ...................................................

 iter      E             dE          RMSdq      gap      omega  full diag
   1   -202.7628472 -0.202763E+03  0.250E+00    0.82       0.0  T
   2   -202.8038313 -0.409841E-01  0.148E+00    0.59       1.0  T
   3   -202.8138332 -0.100019E-01  0.545E-01    0.43       1.0  T
   4   -202.8149665 -0.113335E-02  0.166E-01    0.40       1.0  T
   5   -202.8153122 -0.345684E-03  0.748E-02    0.42       1.0  T
   6   -202.8153529 -0.407116E-04  0.395E-02    0.42       1.0  T
   7   -202.8153719 -0.189986E-04  0.147E-02    0.43       1.0  T
   8   -202.8153745 -0.260412E-05  0.574E-03    0.43       1.6  T
   9   -202.8153749 -0.414566E-06  0.358E-03    0.43       2.6  T
  10   -202.8153750 -0.114816E-06  0.131E-03    0.43       7.0  T
  11   -202.8153751 -0.177577E-07  0.415E-04    0.43      22.2  T
  12   -202.8153751 -0.251796E-08  0.101E-04    0.43      91.3  T

   *** convergence criteria satisfied after 12 iterations ***

         #    Occupation            Energy/Eh            Energy/eV
      -------------------------------------------------------------
         1        2.0000           -0.6794819             -18.4896
       ...           ...                  ...                  ...
       156        2.0000           -0.2984505              -8.1213
       157        1.9975           -0.0941273              -2.5613
       158        1.9654           -0.0916112              -2.4929
       159        1.0366           -0.0853426              -2.3223
       160        1.0005           -0.0812010              -2.2096
       161        1.0000           -0.0749405              -2.0392
       162        0.9997            0.0194789               0.5300 (HOMO)
       163        0.0003            0.0351138               0.9555 (LUMO)
       164                          0.0561888               1.5290
       165                          0.0663501               1.8055
       166                          0.0787074               2.1417
       167                          0.0936957               2.5496
       ...                                ...                  ...
       243                          1.1698266              31.8326
      -------------------------------------------------------------
                  HL-Gap            0.0156349 Eh            0.4254 eV
             Fermi-level           -0.0305762 Eh           -0.8320 eV

 SCC (total)                   0 d,  0 h,  0 min,  0.275 sec
 SCC setup                      ...        0 min,  0.006 sec (  2.020%)
 Dispersion                     ...        0 min,  0.002 sec (  0.901%)
 classical contributions        ...        0 min,  0.001 sec (  0.195%)
 integral evaluation            ...        0 min,  0.008 sec (  2.830%)
 iterations                     ...        0 min,  0.185 sec ( 67.372%)
 molecular gradient             ...        0 min,  0.072 sec ( 26.289%)
 printout                       ...        0 min,  0.001 sec (  0.383%)

         :::::::::::::::::::::::::::::::::::::::::::::::::::::
         ::                     SUMMARY                     ::
         :::::::::::::::::::::::::::::::::::::::::::::::::::::
         :: total energy            -201.008922589770 Eh    ::
         :: total w/o Gsasa/hb      -200.786375173628 Eh    ::
         :: gradient norm              0.595854594353 Eh/a0 ::
         :: HOMO-LUMO gap              0.425447128293 eV    ::
         ::.................................................::
         :: SCC energy              -202.815375067269 Eh    ::
         :: -> isotropic ES            1.486140316634 Eh    ::
         :: -> anisotropic ES         -0.059964649798 Eh    ::
         :: -> anisotropic XC         -0.028961851233 Eh    ::
         :: -> dispersion             -0.049268741843 Eh    ::
         :: -> Gsolv                  -0.370834739644 Eh    ::
         ::    -> Gelec               -0.148287323502 Eh    ::
         ::    -> Gsasa                0.033225391885 Eh    ::
         ::    -> Ghb                 -0.256853567725 Eh    ::
         ::    -> Gshift               0.001080759698 Eh    ::
         :: repulsion energy           1.803601666064 Eh    ::
         :: add. restraining           0.000000000000 Eh    ::
         :: total charge              -0.000003932787 e     ::
         :::::::::::::::::::::::::::::::::::::::::::::::::::::

      ----------------------------------------------------------- 
     |                   =====================                   |
     |                        A N C O P T                        |
     |                   =====================                   |
     |               Approximate Normal Coordinate               |
     |                Rational Function Optimizer                |
      ----------------------------------------------------------- 

          ...................................................
          :                      SETUP                      :
          :.................................................:
          :   optimization level           extreme          :
          :   max. optcycles                  2360          :
          :   ANC micro-cycles                  20          :
          :   degrees of freedom               348          :
          :.................................................:
          :   RF solver                   davidson          :
          :   write xtbopt.log                true          :
          :   linear?                        false          :
          :   energy convergence         0.5000000E-07 Eh   :
          :   grad. convergence          0.5000000E-04 Eh/α :
          :   maxmium RF displ.          1.0000000          :
          :   Hlow (freq-cutoff)         0.1000000E-01      :
          :   Hmax (freq-cutoff)         5.0000000          :
          :   S6 in model hess.         20.0000000          :
          ...................................................

generating ANC from model Hessian ...
Using Lindh-Hessian (1995)
 Shifting diagonal of input Hessian by    1.0485544178753669E-002
 Lowest  eigenvalues of input Hessian
    0.010000    0.010250    0.010269    0.010285    0.010313    0.010321
    0.010331    0.010350    0.010355    0.010367    0.010384    0.010406
    0.010410    0.010424    0.010426    0.010434    0.010445    0.010446
 Highest eigenvalues
    1.705046    1.705108    1.705271    1.706837    1.708880    1.734488


........................................................................
.............................. CYCLE    1 ..............................
........................................................................

 iter      E             dE          RMSdq      gap      omega  full diag
   1   -202.8153751 -0.202815E+03  0.468E-05    0.43       0.0  T
   2   -202.8153751 -0.135003E-10  0.275E-05    0.43     334.2  T
   3   -202.8153751 -0.429168E-11  0.186E-05    0.43     495.4  T
     SCC iter.                  ...        0 min,  0.041 sec
     gradient                   ...        0 min,  0.072 sec
 * total energy  :  -201.0089226 Eh     change       -0.1427907E-09 Eh
   gradient norm :     0.5958211 Eh/α   predicted     0.0000000E+00 (-100.00%)
   displ. norm   :     0.5911411 α      lambda       -0.2917023E+00
   maximum displ.:     0.1780082 α      in ANC's #228, #214, #252, ...

........................................................................
.............................. CYCLE    2 ..............................
........................................................................

 iter      E             dE          RMSdq      gap      omega  full diag
   1   -202.6027523 -0.202603E+03  0.295E-01    0.65       0.0  T
   2   -202.6039505 -0.119819E-02  0.173E-01    0.55       1.0  T
   3   -202.6041661 -0.215616E-03  0.965E-02    0.50       1.0  T
   4   -202.6042079 -0.417725E-04  0.399E-02    0.49       1.0  T
   5   -202.6042209 -0.129894E-04  0.190E-02    0.50       1.0  T
   6   -202.6042239 -0.304963E-05  0.838E-03    0.51       1.1  T
   7   -202.6042245 -0.609748E-06  0.405E-03    0.51       2.3  T
   8   -202.6042248 -0.271954E-06  0.161E-03    0.51       5.7  T
   9   -202.6042248 -0.610771E-07  0.575E-04    0.51      16.0  T
  10   -202.6042249 -0.609614E-08  0.217E-04    0.51      42.4  T
     SCC iter.                  ...        0 min,  0.136 sec
     gradient                   ...        0 min,  0.078 sec
 * total energy  :  -201.1999486 Eh     change       -0.1910260E+00 Eh
   gradient norm :     0.2677949 Eh/α   predicted    -0.1968459E+00 (   3.05%)
   displ. norm   :     0.6417380 α      lambda       -0.1258751E+00
   maximum displ.:     0.2060129 α      in ANC's #228, #214, #212, ...

........................................................................
.............................. CYCLE    3 ..............................
........................................................................

 iter      E             dE          RMSdq      gap      omega  full diag
   1   -202.4816265 -0.202482E+03  0.335E-01    1.12       0.0  T
   2   -202.4831121 -0.148561E-02  0.194E-01    1.07       1.0  T
   3   -202.4832804 -0.168283E-03  0.126E-01    1.06       1.0  T
   4   -202.4833584 -0.779771E-04  0.601E-02    1.04       1.0  T
   5   -202.4833745 -0.161019E-04  0.259E-02    1.04       1.0  T
   6   -202.4833782 -0.376507E-05  0.134E-02    1.04       1.0  T
   7   -202.4833792 -0.101789E-05  0.520E-03    1.05       1.8  T
   8   -202.4833795 -0.260939E-06  0.305E-03    1.05       3.0  T
   9   -202.4833796 -0.657536E-07  0.121E-03    1.05       7.6  T
  10   -202.4833796 -0.199541E-07  0.341E-04    1.05      27.0  T
  11   -202.4833796 -0.183206E-08  0.127E-04    1.05      72.6  T
     SCC iter.                  ...        0 min,  0.163 sec
     gradient                   ...        0 min,  0.091 sec
 * total energy  :  -201.2880282 Eh     change       -0.8807961E-01 Eh
   gradient norm :     0.1411386 Eh/α   predicted    -0.8886332E-01 (   0.89%)
   displ. norm   :     0.6591374 α      lambda       -0.6045703E-01
   maximum displ.:     0.2068511 α      in ANC's #228, #214, #215, ...

........................................................................
.............................. CYCLE    4 ..............................
........................................................................

 iter      E             dE          RMSdq      gap      omega  full diag
   1   -202.4708527 -0.202471E+03  0.374E-01    1.68       0.0  T
   2   -202.4717855 -0.932777E-03  0.286E-01    1.56       1.0  T
   3   -202.4720794 -0.293959E-03  0.131E-01    1.54       1.0  T
   4   -202.4721562 -0.768060E-04  0.760E-02    1.50       1.0  T
   5   -202.4721750 -0.187345E-04  0.280E-02    1.49       1.0  T
   6   -202.4721811 -0.617418E-05  0.110E-02    1.50       1.0  T
   7   -202.4721820 -0.862051E-06  0.405E-03    1.50       2.3  T
   8   -202.4721822 -0.242983E-06  0.269E-03    1.50       3.4  T
   9   -202.4721823 -0.470702E-07  0.115E-03    1.50       8.0  T
  10   -202.4721823 -0.206382E-07  0.626E-04    1.50      14.7  T
  11   -202.4721823 -0.467713E-08  0.196E-04    1.50      46.9  T
     SCC iter.                  ...        0 min,  0.172 sec
     gradient                   ...        0 min,  0.095 sec
 * total energy  :  -201.3388504 Eh     change       -0.5082218E-01 Eh
   gradient norm :     0.1766088 Eh/α   predicted    -0.4336242E-01 ( -14.68%)
   displ. norm   :     0.8103209 α      lambda       -0.7974517E-01
   maximum displ.:     0.2794467 α      in ANC's #228, #214, #208, ...

........................................................................
.............................. CYCLE    5 ..............................
........................................................................

 iter      E             dE          RMSdq      gap      omega  full diag
   1   -202.4113463 -0.202411E+03  0.131E+00    2.67       0.0  T
   2   -202.4866269 -0.752806E-01  0.904E-01    3.28       1.0  T
   3   -202.4930120 -0.638511E-02  0.437E-01    3.41       1.0  T
   4   -202.4943965 -0.138448E-02  0.294E-01    3.47       1.0  T
   5   -202.4953232 -0.926655E-03  0.223E-01    3.50       1.0  T
   6   -202.4208022  0.745210E-01  0.103E+00    2.98       1.0  T
   7   -202.4277456 -0.694343E-02  0.951E-01    3.18       1.0  T
   8   -202.4948628 -0.671172E-01  0.229E-01    3.53       1.0  T
   9   -202.4949384 -0.755991E-04  0.215E-01    3.54       1.0  T
  10   -202.4968559 -0.191745E-02  0.131E-01    3.45       1.0  T
  11   -202.4756261  0.212297E-01  0.535E-01    3.34       1.0  T
  12   -202.4955500 -0.199239E-01  0.184E-01    3.39       1.0  T
  13   -202.4983785 -0.282845E-02  0.204E-02    3.43       1.0  T
  14   -202.4981674  0.211068E-03  0.535E-02    3.44       1.0  T
  15   -202.4980398  0.127568E-03  0.637E-02    3.45       1.0  T
  16   -202.4983537 -0.313875E-03  0.200E-02    3.43       1.0  T
  17   -202.4983621 -0.842843E-05  0.161E-02    3.43       1.0  T
  18   -202.4983665 -0.437894E-05  0.140E-02    3.43       1.0  T
  19   -202.4983826 -0.161096E-04  0.111E-03    3.43       8.3  T
  20   -202.4983825  0.125138E-06  0.150E-03    3.43       6.2  T
  21   -202.4983826 -0.148296E-06  0.638E-04    3.43      14.4  T
  22   -202.4983827 -0.251146E-07  0.322E-04    3.43      28.6  T
     SCC iter.                  ...        0 min,  0.385 sec
     gradient                   ...        0 min,  0.108 sec
 * total energy  :  -201.3956085 Eh     change       -0.5675815E-01 Eh
   gradient norm :     0.2414150 Eh/α   predicted    -0.6605367E-01 (  16.38%)
   displ. norm   :     0.6109362 α      lambda       -0.7478824E-01
   maximum displ.:     0.2170282 α      in ANC's #288, #302, #228, ...

........................................................................
.............................. CYCLE    6 ..............................
........................................................................

 iter      E             dE          RMSdq      gap      omega  full diag
   1   -202.6248398 -0.202625E+03  0.100E+00    3.22       0.0  T
   2   -202.6416505 -0.168108E-01  0.624E-01    5.12       1.0  T
   3   -202.5628214  0.788291E-01  0.983E-01    5.79       1.0  T
   4   -202.6403377 -0.775163E-01  0.562E-01    5.00       1.0  T
   5   -202.5681443  0.721934E-01  0.104E+00    5.57       1.0  T
   6   -202.6481976 -0.800533E-01  0.291E-01    5.52       1.0  T
   7   -202.6564114 -0.821383E-02  0.644E-02    5.53       1.0  T
   8   -202.6455681  0.108434E-01  0.313E-01    5.44       1.0  T
   9   -202.5993582  0.462099E-01  0.720E-01    5.58       1.0  T
  10   -202.6563661 -0.570079E-01  0.393E-02    5.49       1.0  T
  11   -202.6516019  0.476421E-02  0.208E-01    5.46       1.0  T
  12   -202.6554286 -0.382667E-02  0.997E-02    5.48       1.0  T
  13   -202.6559092 -0.480593E-03  0.731E-02    5.49       1.0  T
  14   -202.6561126 -0.203463E-03  0.589E-02    5.49       1.0  T
  15   -202.6564728 -0.360161E-03  0.113E-02    5.50       1.0  T
  16   -202.6564744 -0.161349E-05  0.579E-03    5.50       1.6  T
  17   -202.6564711  0.328931E-05  0.539E-03    5.49       1.7  T
  18   -202.6564745 -0.342185E-05  0.686E-04    5.50      13.4  T
  19   -202.6564735  0.100623E-05  0.299E-03    5.49       3.1  T
  20   -202.6564740 -0.497067E-06  0.211E-03    5.49       4.4  T
  21   -202.6564745 -0.509438E-06  0.233E-04    5.50      39.6  T
  22   -202.6564745  0.211156E-08  0.269E-04    5.50      34.3  T
     SCC iter.                  ...        0 min,  0.412 sec
     gradient                   ...        0 min,  0.098 sec
 * total energy  :  -201.4759811 Eh     change       -0.8037257E-01 Eh
   gradient norm :     0.2699946 Eh/α   predicted    -0.5135140E-01 ( -36.11%)
   displ. norm   :     0.6731668 α      lambda       -0.1175801E+00
   maximum displ.:     0.3476836 α      in ANC's #302, #288, #177, ...

........................................................................
.............................. CYCLE    7 ..............................
........................................................................

 iter      E             dE          RMSdq      gap      omega  full diag
   1   -202.8595401 -0.202860E+03  0.473E-01    6.13       0.0  T
   2   -202.8642469 -0.470686E-02  0.278E-01    6.78       1.0  T
   3   -202.7344397  0.129807E+00  0.110E+00    7.06       1.0  T
   4   -202.8633352 -0.128895E+00  0.305E-01    6.57       1.0  T
   5   -202.8648450 -0.150981E-02  0.144E-01    6.84       1.0  T
   6   -202.7870271  0.778178E-01  0.860E-01    7.01       1.0  T
   7   -202.8645469 -0.775198E-01  0.160E-01    6.79       1.0  T
   8   -202.8645472 -0.278876E-06  0.152E-01    6.78       1.0  T
   9   -202.8645446  0.256935E-05  0.150E-01    6.78       1.0  T
  10   -202.8646418 -0.972023E-04  0.142E-01    6.81       1.0  T
  11   -202.8648350 -0.193185E-03  0.126E-01    6.85       1.0  T
  12   -202.8653800 -0.545022E-03  0.936E-02    6.89       1.0  T
  13   -202.8660030 -0.623031E-03  0.463E-02    6.93       1.0  T
  14   -202.8629061  0.309700E-02  0.174E-01    6.95       1.0  T
  15   -202.8661547 -0.324865E-02  0.212E-02    6.92       1.0  T
  16   -202.8658123  0.342426E-03  0.606E-02    6.91       1.0  T
  17   -202.8660984 -0.286108E-03  0.312E-02    6.92       1.0  T
  18   -202.8661952 -0.967985E-04  0.658E-03    6.93       1.4  T
  19   -202.8661920  0.320872E-05  0.771E-03    6.93       1.2  T
  20   -202.8661981 -0.609240E-05  0.134E-03    6.92       6.9  T
  21   -202.8661982 -0.127702E-06  0.691E-04    6.92      13.3  T
  22   -202.8661981  0.491510E-07  0.967E-04    6.93       9.5  T
     SCC iter.                  ...        0 min,  0.426 sec
     gradient                   ...        0 min,  0.095 sec
 * total energy  :  -201.5450622 Eh     change       -0.6908107E-01 Eh
   gradient norm :     0.2135301 Eh/α   predicted    -0.8543098E-01 (  23.67%)
   displ. norm   :     0.5689156 α      lambda       -0.5967394E-01
   maximum displ.:     0.1876714 α      in ANC's #302, #207, #166, ...

........................................................................
.............................. CYCLE    8 ..............................
........................................................................

 iter      E             dE          RMSdq      gap      omega  full diag
   1   -202.9429084 -0.202943E+03  0.234E-01    7.49       0.0  T
   2   -202.9436862 -0.777782E-03  0.151E-01    7.62       1.0  T
   3   -202.9438293 -0.143096E-03  0.131E-01    7.65       1.0  T
   4   -202.9434600  0.369359E-03  0.764E-02    7.67       1.0  T
   5   -202.9438455 -0.385591E-03  0.451E-02    7.63       1.0  T
   6   -202.9439041 -0.585401E-04  0.163E-02    7.66       1.0  T
   7   -202.9438888  0.152896E-04  0.191E-02    7.64       1.0  T
   8   -202.9439148 -0.260177E-04  0.462E-03    7.65       2.0  T
   9   -202.9439143  0.503617E-06  0.440E-03    7.66       2.1  T
  10   -202.9439159 -0.157799E-05  0.114E-03    7.65       8.1  T
  11   -202.9439158  0.132100E-06  0.144E-03    7.65       6.4  T
  12   -202.9439159 -0.180870E-06  0.214E-04    7.65      42.9  T
  13   -202.9439159 -0.174580E-08  0.787E-05    7.65     116.9  T
     SCC iter.                  ...        0 min,  0.215 sec
     gradient                   ...        0 min,  0.098 sec
 * total energy  :  -201.5861693 Eh     change       -0.4110711E-01 Eh
   gradient norm :     0.1988646 Eh/α   predicted    -0.3949416E-01 (  -3.92%)
   displ. norm   :     0.6468910 α      lambda       -0.7404967E-01
   maximum displ.:     0.2276863 α      in ANC's #302, #348, #212, ...

........................................................................
.............................. CYCLE    9 ..............................
........................................................................

 iter      E             dE          RMSdq      gap      omega  full diag
   1   -202.9376560 -0.202938E+03  0.269E-01    7.28       0.0  T
   2   -202.9379568 -0.300741E-03  0.224E-01    7.30       1.0  T
   3   -202.9380965 -0.139788E-03  0.134E-01    7.30       1.0  T
   4   -202.9381725 -0.760026E-04  0.637E-02    7.31       1.0  T
   5   -202.9381862 -0.136521E-04  0.248E-02    7.30       1.0  T
   6   -202.9381908 -0.464775E-05  0.120E-02    7.30       1.0  T
   7   -202.9381919 -0.100515E-05  0.423E-03    7.30       2.2  T
   8   -202.9381920 -0.184005E-06  0.183E-03    7.30       5.0  T
   9   -202.9381921 -0.321128E-07  0.442E-04    7.30      20.8  T
  10   -202.9381921 -0.234937E-08  0.262E-04    7.30      35.2  T
     SCC iter.                  ...        0 min,  0.172 sec
     gradient                   ...        0 min,  0.102 sec
 * total energy  :  -201.6173928 Eh     change       -0.3122348E-01 Eh
   gradient norm :     0.2032324 Eh/α   predicted    -0.5251855E-01 (  68.20%)
   displ. norm   :     0.5926401 α      lambda       -0.5520570E-01
   maximum displ.:     0.1485611 α      in ANC's #159, #249, #169, ...

........................................................................
.............................. CYCLE   10 ..............................
........................................................................

 iter      E             dE          RMSdq      gap      omega  full diag
   1   -202.8553076 -0.202855E+03  0.233E-01    7.22       0.0  T
   2   -202.8556265 -0.318925E-03  0.186E-01    7.22       1.0  T
   3   -202.8557360 -0.109484E-03  0.114E-01    7.23       1.0  T
   4   -202.8558003 -0.643245E-04  0.578E-02    7.23       1.0  T
   5   -202.8558123 -0.120150E-04  0.261E-02    7.23       1.0  T
   6   -202.8558160 -0.365267E-05  0.134E-02    7.23       1.0  T
   7   -202.8558173 -0.134268E-05  0.406E-03    7.23       2.3  T
   8   -202.8558174 -0.977824E-07  0.192E-03    7.23       4.8  T
   9   -202.8558174 -0.250557E-07  0.362E-04    7.23      25.5  T
  10   -202.8558174 -0.115020E-08  0.170E-04    7.23      54.2  T
     SCC iter.                  ...        0 min,  0.164 sec
     gradient                   ...        0 min,  0.093 sec
 * total energy  :  -201.6420601 Eh     change       -0.2466737E-01 Eh
   gradient norm :     0.1070708 Eh/α   predicted    -0.3729759E-01 (  51.20%)
   displ. norm   :     0.5876638 α      lambda       -0.2852513E-01
   maximum displ.:     0.1227960 α      in ANC's #212, #151, #159, ...

........................................................................
.............................. CYCLE   11 ..............................
........................................................................

 iter      E             dE          RMSdq      gap      omega  full diag
   1   -202.8823315 -0.202882E+03  0.231E-01    7.29       0.0  T
   2   -202.8823724 -0.408633E-04  0.230E-01    7.30       1.0  T
   3   -202.8825170 -0.144600E-03  0.862E-02    7.30       1.0  T
   4   -202.8825365 -0.195416E-04  0.495E-02    7.31       1.0  T
   5   -202.8825422 -0.563801E-05  0.223E-02    7.31       1.0  T
   6   -202.8825442 -0.199516E-05  0.877E-03    7.31       1.0  T
   7   -202.8825446 -0.410616E-06  0.289E-03    7.31       3.2  T
   8   -202.8825446 -0.250954E-07  0.142E-03    7.31       6.5  T
   9   -202.8825446 -0.114514E-07  0.457E-04    7.31      20.1  T
  10   -202.8825446 -0.915037E-09  0.187E-04    7.31      49.2  T
     SCC iter.                  ...        0 min,  0.170 sec
     gradient                   ...        0 min,  0.095 sec
 * total energy  :  -201.6491349 Eh     change       -0.7074790E-02 Eh
   gradient norm :     0.1274728 Eh/α   predicted    -0.1918815E-01 ( 171.22%)
   displ. norm   :     0.4814371 α      lambda       -0.2601198E-01
   maximum displ.:     0.1094841 α      in ANC's #170, #151, #302, ...

........................................................................
.............................. CYCLE   12 ..............................
........................................................................

 iter      E             dE          RMSdq      gap      omega  full diag
   1   -202.9158013 -0.202916E+03  0.130E-01    7.25       0.0  T
   2   -202.9158576 -0.563116E-04  0.110E-01    7.24       1.0  T
   3   -202.9158839 -0.263109E-04  0.713E-02    7.24       1.0  T
   4   -202.9159018 -0.178573E-04  0.242E-02    7.24       1.0  T
   5   -202.9159034 -0.162565E-05  0.150E-02    7.24       1.0  T
   6   -202.9159044 -0.999166E-06  0.624E-03    7.24       1.5  T
   7   -202.9159047 -0.235300E-06  0.237E-03    7.24       3.9  T
   8   -202.9159047 -0.221931E-07  0.944E-04    7.24       9.8  T
   9   -202.9159047 -0.669328E-08  0.221E-04    7.24      41.7  T
     SCC iter.                  ...        0 min,  0.152 sec
     gradient                   ...        0 min,  0.126 sec
 * total energy  :  -201.6632286 Eh     change       -0.1409373E-01 Eh
   gradient norm :     0.0731128 Eh/α   predicted    -0.1602054E-01 (  13.67%)
   displ. norm   :     0.6609332 α      lambda       -0.2674840E-01
   maximum displ.:     0.1807833 α      in ANC's #302, #166, #180, ...

........................................................................
.............................. CYCLE   13 ..............................
........................................................................

 iter      E             dE          RMSdq      gap      omega  full diag
   1   -202.9429718 -0.202943E+03  0.283E-01    7.18       0.0  T
   2   -202.9430670 -0.952463E-04  0.277E-01    7.17       1.0  T
   3   -202.9432517 -0.184668E-03  0.118E-01    7.17       1.0  T
   4   -202.9432894 -0.376901E-04  0.643E-02    7.17       1.0  T
   5   -202.9433041 -0.147341E-04  0.184E-02    7.17       1.0  T
   6   -202.9433055 -0.137391E-05  0.110E-02    7.17       1.0  T
   7   -202.9433061 -0.634543E-06  0.428E-03    7.17       2.2  T
   8   -202.9433062 -0.629260E-07  0.147E-03    7.17       6.3  T
   9   -202.9433062 -0.155279E-07  0.336E-04    7.17      27.4  T
  10   -202.9433062 -0.112038E-08  0.139E-04    7.17      66.4  T
     SCC iter.                  ...        0 min,  0.162 sec
     gradient                   ...        0 min,  0.099 sec
 * total energy  :  -201.6673868 Eh     change       -0.4158151E-02 Eh
   gradient norm :     0.1385457 Eh/α   predicted    -0.1921649E-01 ( 362.14%)
   displ. norm   :     0.5180635 α      lambda       -0.2633195E-01
   maximum displ.:     0.0955026 α      in ANC's #151, #168, #160, ...

........................................................................
.............................. CYCLE   14 ..............................
........................................................................

 iter      E             dE          RMSdq      gap      omega  full diag
   1   -202.9071586 -0.202907E+03  0.187E-01    7.20       0.0  T
   2   -202.9072314 -0.727277E-04  0.183E-01    7.21       1.0  T
   3   -202.9073176 -0.862553E-04  0.789E-02    7.21       1.0  T
   4   -202.9073359 -0.182836E-04  0.465E-02    7.21       1.0  T
   5   -202.9073430 -0.709816E-05  0.200E-02    7.21       1.0  T
   6   -202.9073449 -0.187530E-05  0.817E-03    7.21       1.1  T
   7   -202.9073454 -0.557066E-06  0.250E-03    7.21       3.7  T
   8   -202.9073455 -0.270774E-07  0.119E-03    7.21       7.7  T
   9   -202.9073455 -0.113824E-07  0.306E-04    7.21      30.0  T
  10   -202.9073455 -0.558799E-09  0.116E-04    7.21      79.4  T
     SCC iter.                  ...        0 min,  0.162 sec
     gradient                   ...        0 min,  0.094 sec
 * total energy  :  -201.6813122 Eh     change       -0.1392544E-01 Eh
   gradient norm :     0.0588051 Eh/α   predicted    -0.1669958E-01 (  19.92%)
   displ. norm   :     0.6372796 α      lambda       -0.1799608E-01
   maximum displ.:     0.1191078 α      in ANC's #42, #57, #151, ...

........................................................................
.............................. CYCLE   15 ..............................
........................................................................

 iter      E             dE          RMSdq      gap      omega  full diag
   1   -202.9242754 -0.202924E+03  0.168E-01    7.16       0.0  T
   2   -202.9243186 -0.431821E-04  0.168E-01    7.18       1.0  T
   3   -202.9243912 -0.725604E-04  0.751E-02    7.18       1.0  T
   4   -202.9244060 -0.148738E-04  0.367E-02    7.19       1.0  T
   5   -202.9244103 -0.423303E-05  0.152E-02    7.19       1.0  T
   6   -202.9244115 -0.124802E-05  0.586E-03    7.19       1.6  T
   7   -202.9244118 -0.270041E-06  0.195E-03    7.19       4.7  T
   8   -202.9244118 -0.219241E-07  0.823E-04    7.19      11.2  T
   9   -202.9244118 -0.466741E-08  0.221E-04    7.19      41.7  T
     SCC iter.                  ...        0 min,  0.150 sec
     gradient                   ...        0 min,  0.112 sec
 * total energy  :  -201.6862932 Eh     change       -0.4980998E-02 Eh
   gradient norm :     0.0815213 Eh/α   predicted    -0.1265237E-01 ( 154.01%)
   displ. norm   :     0.5764139 α      lambda       -0.1737959E-01
   maximum displ.:     0.1169264 α      in ANC's #41, #302, #122, ...

........................................................................
.............................. CYCLE   16 ..............................
........................................................................

 iter      E             dE          RMSdq      gap      omega  full diag
   1   -202.9382898 -0.202938E+03  0.132E-01    7.26       0.0  T
   2   -202.9383277 -0.379557E-04  0.114E-01    7.26       1.0  T
   3   -202.9383526 -0.248399E-04  0.766E-02    7.26       1.0  T
   4   -202.9383726 -0.200485E-04  0.201E-02    7.26       1.0  T
   5   -202.9383740 -0.137398E-05  0.719E-03    7.26       1.3  T
   6   -202.9383743 -0.340766E-06  0.624E-03    7.26       1.5  T
   7   -202.9383745 -0.186598E-06  0.178E-03    7.26       5.2  T
   8   -202.9383745 -0.217680E-07  0.879E-04    7.26      10.5  T
   9   -202.9383745 -0.758712E-08  0.172E-04    7.26      53.6  T
     SCC iter.                  ...        0 min,  0.153 sec
     gradient                   ...        0 min,  0.096 sec
 * total energy  :  -201.6958980 Eh     change       -0.9604768E-02 Eh
   gradient norm :     0.0647787 Eh/α   predicted    -0.1157700E-01 (  20.53%)
   displ. norm   :     0.7259575 α      lambda       -0.1944840E-01
   maximum displ.:     0.2278067 α      in ANC's #1, #166, #138, ...

........................................................................
.............................. CYCLE   17 ..............................
........................................................................

 iter      E             dE          RMSdq      gap      omega  full diag
   1   -202.9371259 -0.202937E+03  0.185E-01    7.36       0.0  T
   2   -202.9372967 -0.170796E-03  0.119E-01    7.36       1.0  T
   3   -202.9373065 -0.980520E-05  0.126E-01    7.35       1.0  T
   4   -202.9373546 -0.481184E-04  0.249E-02    7.36       1.0  T
   5   -202.9373576 -0.297379E-05  0.150E-02    7.36       1.0  T
   6   -202.9373587 -0.119609E-05  0.856E-03    7.36       1.1  T
   7   -202.9373591 -0.353334E-06  0.281E-03    7.36       3.3  T
   8   -202.9373592 -0.507322E-07  0.715E-04    7.36      12.9  T
   9   -202.9373592 -0.355891E-08  0.219E-04    7.36      41.9  T
     SCC iter.                  ...        0 min,  0.152 sec
     gradient                   ...        0 min,  0.096 sec
 * total energy  :  -201.6964146 Eh     change       -0.5165924E-03 Eh
   gradient norm :     0.1101427 Eh/α   predicted    -0.1484901E-01 (2774.42%)
   displ. norm   :     0.5289253 α      lambda       -0.2639217E-01
   maximum displ.:     0.1914542 α      in ANC's #1, #122, #138, ...

........................................................................
.............................. CYCLE   18 ..............................
........................................................................

 iter      E             dE          RMSdq      gap      omega  full diag
   1   -202.9671553 -0.202967E+03  0.180E-01    7.29       0.0  T
   2   -202.9672497 -0.943510E-04  0.125E-01    7.29       1.0  T
   3   -202.9672573 -0.766310E-05  0.124E-01    7.29       1.0  T
   4   -202.9673060 -0.486976E-04  0.220E-02    7.29       1.0  T
   5   -202.9673080 -0.192659E-05  0.136E-02    7.29       1.0  T
   6   -202.9673089 -0.913881E-06  0.825E-03    7.29       1.1  T
   7   -202.9673092 -0.295167E-06  0.207E-03    7.29       4.4  T
   8   -202.9673092 -0.207895E-07  0.872E-04    7.29      10.6  T
   9   -202.9673092 -0.451121E-08  0.200E-04    7.29      46.1  T
     SCC iter.                  ...        0 min,  0.156 sec
     gradient                   ...        0 min,  0.094 sec
 * total energy  :  -201.7022171 Eh     change       -0.5802497E-02 Eh
   gradient norm :     0.1116327 Eh/α   predicted    -0.1688784E-01 ( 191.04%)
   displ. norm   :     0.6315001 α      lambda       -0.3285329E-01
   maximum displ.:     0.1429936 α      in ANC's #166, #221, #188, ...

........................................................................
.............................. CYCLE   19 ..............................
........................................................................

 iter      E             dE          RMSdq      gap      omega  full diag
   1   -202.9245645 -0.202925E+03  0.207E-01    7.10       0.0  T
   2   -202.9246914 -0.126877E-03  0.159E-01    7.12       1.0  T
   3   -202.9247401 -0.487726E-04  0.114E-01    7.12       1.0  T
   4   -202.9247909 -0.507935E-04  0.257E-02    7.13       1.0  T
   5   -202.9247946 -0.362275E-05  0.998E-03    7.13       1.0  T
   6   -202.9247955 -0.920371E-06  0.509E-03    7.13       1.8  T
   7   -202.9247955 -0.576838E-07  0.399E-03    7.13       2.3  T
   8   -202.9247956 -0.683493E-07  0.151E-03    7.13       6.1  T
   9   -202.9247956 -0.155933E-07  0.327E-04    7.13      28.1  T
  10   -202.9247956 -0.110947E-08  0.147E-04    7.13      62.4  T
     SCC iter.                  ...        0 min,  0.164 sec
     gradient                   ...        0 min,  0.096 sec
 * total energy  :  -201.7028582 Eh     change       -0.6410936E-03 Eh
   gradient norm :     0.1353969 Eh/α   predicted    -0.2297748E-01 (3484.11%)
   displ. norm   :     0.4301604 α      lambda       -0.2737105E-01
   maximum displ.:     0.0885875 α      in ANC's #166, #138, #302, ...

........................................................................
.............................. CYCLE   20 ..............................
........................................................................

 iter      E             dE          RMSdq      gap      omega  full diag
   1   -202.9565012 -0.202957E+03  0.122E-01    7.33       0.0  T
   2   -202.9565704 -0.692702E-04  0.824E-02    7.33       1.0  T
   3   -202.9565747 -0.423415E-05  0.861E-02    7.32       1.0  T
   4   -202.9565992 -0.245276E-04  0.179E-02    7.32       1.0  T
   5   -202.9566005 -0.132189E-05  0.916E-03    7.32       1.0  T
   6   -202.9566010 -0.458124E-06  0.687E-03    7.32       1.3  T
   7   -202.9566012 -0.244506E-06  0.190E-03    7.32       4.8  T
   8   -202.9566013 -0.294403E-07  0.481E-04    7.32      19.1  T
   9   -202.9566013 -0.189098E-08  0.188E-04    7.32      49.0  T
     SCC iter.                  ...        0 min,  0.273 sec
     gradient                   ...        0 min,  0.092 sec
 * total energy  :  -201.7175292 Eh     change       -0.1467097E-01 Eh
   gradient norm :     0.0465834 Eh/α   predicted    -0.1621782E-01 (  10.54%)
   displ. norm   :     0.7206233 α      lambda       -0.1551219E-01
   maximum displ.:     0.1610699 α      in ANC's #302, #41, #141, ...
 * RMSD in coord.:     0.6500102 α      energy gain  -0.7086066E+00 Eh

generating ANC from model Hessian ...
Using Lindh-Hessian (1995)
 Shifting diagonal of input Hessian by    1.0315757106147487E-002
 Lowest  eigenvalues of input Hessian
    0.010000    0.010048    0.010092    0.010107    0.010157    0.010166
    0.010189    0.010196    0.010211    0.010219    0.010227    0.010239
    0.010248    0.010254    0.010257    0.010269    0.010270    0.010273
 Highest eigenvalues
    1.451493    1.453209    1.461353    1.498572    1.515009    1.625922


........................................................................
.............................. CYCLE   21 ..............................
........................................................................

 iter      E             dE          RMSdq      gap      omega  full diag
   1   -202.9574114 -0.202957E+03  0.196E-01    7.32       0.0  T
   2   -202.9575493 -0.137911E-03  0.123E-01    7.32       1.0  T
   3   -202.9575467  0.263446E-05  0.137E-01    7.32       1.0  T
   4   -202.9576078 -0.611191E-04  0.260E-02    7.32       1.0  T
   5   -202.9576106 -0.278380E-05  0.108E-02    7.32       1.0  T
   6   -202.9576116 -0.102218E-05  0.431E-03    7.32       2.1  T
   7   -202.9576116 -0.449894E-07  0.329E-03    7.32       2.8  T
   8   -202.9576117 -0.651099E-07  0.419E-04    7.32      22.0  T
   9   -202.9576117 -0.174944E-08  0.216E-04    7.32      42.7  T
     SCC iter.                  ...        0 min,  0.156 sec
     gradient                   ...        0 min,  0.091 sec
 * total energy  :  -201.7112005 Eh     change        0.6328685E-02 Eh
   gradient norm :     0.1447883 Eh/α   predicted     0.0000000E+00 (-100.00%)
   displ. norm   :     0.4497653 α      lambda       -0.2576062E-01
   maximum displ.:     0.1370116 α      in ANC's #45, #49, #114, ...

........................................................................
.............................. CYCLE   22 ..............................
........................................................................

 iter      E             dE          RMSdq      gap      omega  full diag
   1   -202.9678334 -0.202968E+03  0.124E-01    7.22       0.0  T
   2   -202.9678574 -0.240141E-04  0.901E-02    7.23       1.0  T
   3   -202.9678587 -0.133399E-05  0.828E-02    7.24       1.0  T
   4   -202.9678831 -0.244141E-04  0.186E-02    7.24       1.0  T
   5   -202.9678842 -0.108964E-05  0.951E-03    7.24       1.0  T
   6   -202.9678847 -0.447714E-06  0.281E-03    7.24       3.3  T
   7   -202.9678847 -0.351982E-07  0.120E-03    7.24       7.7  T
   8   -202.9678847 -0.109122E-07  0.421E-04    7.24      21.9  T
   9   -202.9678847 -0.124788E-08  0.148E-04    7.24      62.2  T
     SCC iter.                  ...        0 min,  0.157 sec
     gradient                   ...        0 min,  0.099 sec
 * total energy  :  -201.7282706 Eh     change       -0.1707015E-01 Eh
   gradient norm :     0.0637924 Eh/α   predicted    -0.1549194E-01 (  -9.25%)
   displ. norm   :     0.6865468 α      lambda       -0.2892106E-01
   maximum displ.:     0.1845300 α      in ANC's #213, #215, #114, ...

........................................................................
.............................. CYCLE   23 ..............................
........................................................................

 iter      E             dE          RMSdq      gap      omega  full diag
   1   -202.9720253 -0.202972E+03  0.245E-01    7.46       0.0  T
   2   -202.9719762  0.491742E-04  0.277E-01    7.45       1.0  T
   3   -202.9721956 -0.219432E-03  0.111E-01    7.44       1.0  T
   4   -202.9722272 -0.316294E-04  0.542E-02    7.43       1.0  T
   5   -202.9722358 -0.859821E-05  0.122E-02    7.43       1.0  T
   6   -202.9722363 -0.450878E-06  0.101E-02    7.43       1.0  T
   7   -202.9722368 -0.568408E-06  0.304E-03    7.44       3.0  T
   8   -202.9722369 -0.466715E-07  0.116E-03    7.44       7.9  T
   9   -202.9722369 -0.149659E-07  0.302E-04    7.44      30.5  T
  10   -202.9722369 -0.916231E-09  0.131E-04    7.44      70.5  T
     SCC iter.                  ...        0 min,  0.230 sec
     gradient                   ...        0 min,  0.092 sec
 * total energy  :  -201.7238311 Eh     change        0.4439550E-02 Eh
   gradient norm :     0.1255443 Eh/α   predicted    -0.2127658E-01 (-579.25%)
   displ. norm   :     0.3895584 α      lambda       -0.2305006E-01
   maximum displ.:     0.0992870 α      in ANC's #36, #213, #114, ...

........................................................................
.............................. CYCLE   24 ..............................
........................................................................

 iter      E             dE          RMSdq      gap      omega  full diag
   1   -202.9671868 -0.202967E+03  0.139E-01    7.36       0.0  T
   2   -202.9671832  0.365466E-05  0.149E-01    7.37       1.0  T
   3   -202.9672401 -0.569668E-04  0.626E-02    7.37       1.0  T
   4   -202.9672494 -0.923809E-05  0.341E-02    7.38       1.0  T
   5   -202.9672525 -0.313331E-05  0.125E-02    7.38       1.0  T
   6   -202.9672533 -0.749710E-06  0.488E-03    7.38       1.9  T
   7   -202.9672534 -0.184857E-06  0.159E-03    7.37       5.8  T
   8   -202.9672535 -0.141697E-07  0.754E-04    7.37      12.2  T
   9   -202.9672535 -0.633619E-08  0.182E-04    7.37      50.7  T
     SCC iter.                  ...        0 min,  0.152 sec
     gradient                   ...        0 min,  0.092 sec
 * total energy  :  -201.7387172 Eh     change       -0.1488609E-01 Eh
   gradient norm :     0.0513928 Eh/α   predicted    -0.1327403E-01 ( -10.83%)
   displ. norm   :     0.6508117 α      lambda       -0.1396978E-01
   maximum displ.:     0.2571104 α      in ANC's #41, #36, #46, ...

........................................................................
.............................. CYCLE   25 ..............................
........................................................................

 iter      E             dE          RMSdq      gap      omega  full diag
   1   -202.9862737 -0.202986E+03  0.170E-01    7.22       0.0  T
   2   -202.9862897 -0.159258E-04  0.148E-01    7.22       1.0  T
   3   -202.9863307 -0.410915E-04  0.890E-02    7.23       1.0  T
   4   -202.9863466 -0.158202E-04  0.430E-02    7.23       1.0  T
   5   -202.9863504 -0.381038E-05  0.151E-02    7.23       1.0  T
   6   -202.9863514 -0.106612E-05  0.499E-03    7.23       1.8  T
   7   -202.9863516 -0.193633E-06  0.137E-03    7.23       6.7  T
   8   -202.9863516 -0.121609E-07  0.677E-04    7.23      13.6  T
   9   -202.9863516 -0.470021E-08  0.165E-04    7.23      55.8  T
     SCC iter.                  ...        0 min,  0.138 sec
     gradient                   ...        0 min,  0.094 sec
 * total energy  :  -201.7427310 Eh     change       -0.4013803E-02 Eh
   gradient norm :     0.0621481 Eh/α   predicted    -0.9943417E-02 ( 147.73%)
   displ. norm   :     0.5275274 α      lambda       -0.9938092E-02
   maximum displ.:     0.1603174 α      in ANC's #49, #45, #36, ...

........................................................................
.............................. CYCLE   26 ..............................
........................................................................

 iter      E             dE          RMSdq      gap      omega  full diag
   1   -202.9799540 -0.202980E+03  0.113E-01    7.28       0.0  T
   2   -202.9799528  0.126412E-05  0.966E-02    7.28       1.0  T
   3   -202.9799679 -0.151295E-04  0.693E-02    7.28       1.0  T
   4   -202.9799791 -0.112169E-04  0.207E-02    7.28       1.0  T
   5   -202.9799801 -0.101615E-05  0.533E-03    7.28       1.7  T
   6   -202.9799802 -0.105904E-06  0.295E-03    7.28       3.1  T
   7   -202.9799803 -0.503734E-07  0.749E-04    7.28      12.3  T
   8   -202.9799803 -0.386359E-08  0.376E-04    7.28      24.5  T
     SCC iter.                  ...        0 min,  0.130 sec
     gradient                   ...        0 min,  0.092 sec
 * total energy  :  -201.7506982 Eh     change       -0.7967265E-02 Eh
   gradient norm :     0.0368286 Eh/α   predicted    -0.6351874E-02 ( -20.28%)
   displ. norm   :     0.8516768 α      lambda       -0.1211808E-01
   maximum displ.:     0.2866521 α      in ANC's #49, #36, #46, ...

........................................................................
.............................. CYCLE   27 ..............................
........................................................................

 iter      E             dE          RMSdq      gap      omega  full diag
   1   -202.9782258 -0.202978E+03  0.180E-01    7.30       0.0  T
   2   -202.9782933 -0.674263E-04  0.129E-01    7.30       1.0  T
   3   -202.9782898  0.344626E-05  0.129E-01    7.30       1.0  T
   4   -202.9783499 -0.600757E-04  0.200E-02    7.29       1.0  T
   5   -202.9783514 -0.149266E-05  0.147E-02    7.29       1.0  T
   6   -202.9783525 -0.109525E-05  0.675E-03    7.30       1.4  T
   7   -202.9783527 -0.221047E-06  0.207E-03    7.30       4.4  T
   8   -202.9783527 -0.292412E-07  0.804E-04    7.30      11.5  T
   9   -202.9783527 -0.482646E-08  0.167E-04    7.30      55.0  T
     SCC iter.                  ...        0 min,  0.144 sec
     gradient                   ...        0 min,  0.096 sec
 * total energy  :  -201.7508700 Eh     change       -0.1717574E-03 Eh
   gradient norm :     0.1074956 Eh/α   predicted    -0.1045399E-01 (5986.49%)
   displ. norm   :     0.4524493 α      lambda       -0.2098757E-01
   maximum displ.:     0.1718305 α      in ANC's #46, #41, #114, ...

........................................................................
.............................. CYCLE   28 ..............................
........................................................................

 iter      E             dE          RMSdq      gap      omega  full diag
   1   -202.9961158 -0.202996E+03  0.131E-01    7.30       0.0  T
   2   -202.9961551 -0.392895E-04  0.795E-02    7.30       1.0  T
   3   -202.9961572 -0.217016E-05  0.725E-02    7.30       1.0  T
   4   -202.9961747 -0.174622E-04  0.102E-02    7.30       1.0  T
   5   -202.9961754 -0.719381E-06  0.570E-03    7.30       1.6  T
   6   -202.9961755 -0.117443E-06  0.279E-03    7.30       3.3  T
   7   -202.9961756 -0.279731E-07  0.148E-03    7.30       6.2  T
   8   -202.9961756 -0.139738E-07  0.317E-04    7.30      29.0  T
   9   -202.9961756 -0.682405E-09  0.900E-05    7.30     102.3  T
     SCC iter.                  ...        0 min,  0.148 sec
     gradient                   ...        0 min,  0.093 sec
 * total energy  :  -201.7621735 Eh     change       -0.1130348E-01 Eh
   gradient norm :     0.0371802 Eh/α   predicted    -0.1264196E-01 (  11.84%)
   displ. norm   :     0.7873398 α      lambda       -0.9302845E-02
   maximum displ.:     0.2306704 α      in ANC's #114, #36, #41, ...

........................................................................
.............................. CYCLE   29 ..............................
........................................................................

 iter      E             dE          RMSdq      gap      omega  full diag
   1   -202.9841763 -0.202984E+03  0.114E-01    7.28       0.0  T
   2   -202.9841930 -0.166529E-04  0.775E-02    7.28       1.0  T
   3   -202.9841843  0.868385E-05  0.790E-02    7.29       1.0  T
   4   -202.9842084 -0.240968E-04  0.115E-02    7.29       1.0  T
   5   -202.9842088 -0.390128E-06  0.764E-03    7.29       1.2  T
   6   -202.9842091 -0.286706E-06  0.236E-03    7.29       3.9  T
   7   -202.9842091 -0.250755E-07  0.944E-04    7.29       9.8  T
   8   -202.9842091 -0.686899E-08  0.365E-04    7.29      25.2  T
     SCC iter.                  ...        0 min,  0.131 sec
     gradient                   ...        0 min,  0.092 sec
 * total energy  :  -201.7681463 Eh     change       -0.5972871E-02 Eh
   gradient norm :     0.0687763 Eh/α   predicted    -0.7534856E-02 (  26.15%)
   displ. norm   :     0.7133374 α      lambda       -0.1341085E-01
   maximum displ.:     0.2257397 α      in ANC's #36, #114, #41, ...

........................................................................
.............................. CYCLE   30 ..............................
........................................................................

 iter      E             dE          RMSdq      gap      omega  full diag
   1   -203.0101153 -0.203010E+03  0.106E-01    7.29       0.0  T
   2   -203.0101392 -0.238682E-04  0.656E-02    7.29       1.0  T
   3   -203.0101335  0.567036E-05  0.668E-02    7.30       1.0  T
   4   -203.0101519 -0.183301E-04  0.861E-03    7.30       1.1  T
   5   -203.0101523 -0.386626E-06  0.486E-03    7.30       1.9  T
   6   -203.0101524 -0.142503E-06  0.286E-03    7.30       3.2  T
   7   -203.0101524 -0.259615E-07  0.126E-03    7.30       7.3  T
   8   -203.0101524 -0.985426E-08  0.453E-04    7.30      20.3  T
   9   -203.0101524 -0.155237E-08  0.965E-05    7.30      95.4  T
     SCC iter.                  ...        0 min,  0.152 sec
     gradient                   ...        0 min,  0.091 sec
 * total energy  :  -201.7769395 Eh     change       -0.8793125E-02 Eh
   gradient norm :     0.0406915 Eh/α   predicted    -0.1011748E-01 (  15.06%)
   displ. norm   :     0.8016000 α      lambda       -0.1059285E-01
   maximum displ.:     0.3290375 α      in ANC's #114, #36, #101, ...

........................................................................
.............................. CYCLE   31 ..............................
........................................................................

 iter      E             dE          RMSdq      gap      omega  full diag
   1   -203.0318909 -0.203032E+03  0.102E-01    7.27       0.0  T
   2   -203.0319109 -0.200781E-04  0.654E-02    7.27       1.0  T
   3   -203.0319063  0.460204E-05  0.662E-02    7.28       1.0  T
   4   -203.0319216 -0.153106E-04  0.144E-02    7.28       1.0  T
   5   -203.0319225 -0.903273E-06  0.625E-03    7.28       1.5  T
   6   -203.0319227 -0.143864E-06  0.426E-03    7.28       2.2  T
   7   -203.0319228 -0.922410E-07  0.116E-03    7.28       7.9  T
   8   -203.0319228 -0.723918E-08  0.575E-04    7.28      16.0  T
   9   -203.0319228 -0.318306E-08  0.115E-04    7.28      80.3  T
     SCC iter.                  ...        0 min,  0.146 sec
     gradient                   ...        0 min,  0.097 sec
 * total energy  :  -201.7833995 Eh     change       -0.6460084E-02 Eh
   gradient norm :     0.0632548 Eh/α   predicted    -0.8699703E-02 (  34.67%)
   displ. norm   :     0.6977648 α      lambda       -0.1320519E-01
   maximum displ.:     0.1964002 α      in ANC's #36, #129, #101, ...

........................................................................
.............................. CYCLE   32 ..............................
........................................................................

 iter      E             dE          RMSdq      gap      omega  full diag
   1   -203.0533026 -0.203053E+03  0.156E-01    7.23       0.0  T
   2   -203.0533708 -0.681207E-04  0.943E-02    7.23       1.0  T
   3   -203.0533839 -0.131305E-04  0.708E-02    7.24       1.0  T
   4   -203.0534018 -0.179167E-04  0.198E-02    7.24       1.0  T
   5   -203.0534036 -0.180989E-05  0.768E-03    7.24       1.2  T
   6   -203.0534041 -0.500385E-06  0.255E-03    7.24       3.6  T
   7   -203.0534041 -0.242539E-07  0.190E-03    7.24       4.9  T
   8   -203.0534042 -0.134115E-07  0.124E-03    7.24       7.5  T
   9   -203.0534042 -0.102188E-07  0.210E-04    7.24      43.8  T
  10   -203.0534042 -0.483510E-09  0.116E-04    7.24      79.4  T
     SCC iter.                  ...        0 min,  0.159 sec
     gradient                   ...        0 min,  0.094 sec
 * total energy  :  -201.7811064 Eh     change        0.2293131E-02 Eh
   gradient norm :     0.1278954 Eh/α   predicted    -0.9817241E-02 (-528.12%)
   displ. norm   :     0.4855012 α      lambda       -0.2169739E-01
   maximum displ.:     0.1666360 α      in ANC's #129, #126, #128, ...

........................................................................
.............................. CYCLE   33 ..............................
........................................................................

 iter      E             dE          RMSdq      gap      omega  full diag
   1   -202.9949091 -0.202995E+03  0.160E-01    7.24       0.0  T
   2   -202.9949748 -0.656710E-04  0.984E-02    7.24       1.0  T
   3   -202.9949671  0.773294E-05  0.971E-02    7.24       1.0  T
   4   -202.9950088 -0.417552E-04  0.141E-02    7.24       1.0  T
   5   -202.9950100 -0.117191E-05  0.920E-03    7.24       1.0  T
   6   -202.9950104 -0.370413E-06  0.687E-03    7.24       1.3  T
   7   -202.9950106 -0.181273E-06  0.196E-03    7.24       4.7  T
   8   -202.9950106 -0.335862E-07  0.783E-04    7.24      11.8  T
   9   -202.9950106 -0.657118E-08  0.198E-04    7.24      46.4  T
     SCC iter.                  ...        0 min,  0.149 sec
     gradient                   ...        0 min,  0.097 sec
 * total energy  :  -201.7883311 Eh     change       -0.7224657E-02 Eh
   gradient norm :     0.0813033 Eh/α   predicted    -0.1340586E-01 (  85.56%)
   displ. norm   :     0.5578863 α      lambda       -0.1487998E-01
   maximum displ.:     0.2059789 α      in ANC's #114, #74, #123, ...

........................................................................
.............................. CYCLE   34 ..............................
........................................................................

 iter      E             dE          RMSdq      gap      omega  full diag
   1   -203.0110558 -0.203011E+03  0.174E-01    7.29       0.0  T
   2   -203.0111320 -0.762267E-04  0.105E-01    7.29       1.0  T
   3   -203.0111722 -0.402563E-04  0.363E-02    7.29       1.0  T
   4   -203.0111777 -0.546903E-05  0.125E-02    7.29       1.0  T
   5   -203.0111787 -0.988784E-06  0.137E-02    7.29       1.0  T
   6   -203.0111796 -0.909444E-06  0.325E-03    7.29       2.8  T
   7   -203.0111797 -0.112105E-06  0.221E-03    7.29       4.2  T
   8   -203.0111798 -0.371554E-07  0.151E-03    7.29       6.1  T
   9   -203.0111798 -0.158505E-07  0.266E-04    7.29      34.6  T
  10   -203.0111798 -0.753232E-09  0.113E-04    7.29      81.6  T
     SCC iter.                  ...        0 min,  0.196 sec
     gradient                   ...        0 min,  0.098 sec
 * total energy  :  -201.7810765 Eh     change        0.7254592E-02 Eh
   gradient norm :     0.1195284 Eh/α   predicted    -0.9755588E-02 (-234.47%)
   displ. norm   :     0.4649077 α      lambda       -0.2596839E-01
   maximum displ.:     0.1883035 α      in ANC's #114, #74, #115, ...

........................................................................
.............................. CYCLE   35 ..............................
........................................................................

 iter      E             dE          RMSdq      gap      omega  full diag
   1   -203.0567615 -0.203057E+03  0.151E-01    7.29       0.0  T
   2   -203.0568172 -0.557460E-04  0.944E-02    7.29       1.0  T
   3   -203.0568235 -0.623799E-05  0.975E-02    7.29       1.0  T
   4   -203.0568566 -0.331211E-04  0.131E-02    7.29       1.0  T
   5   -203.0568576 -0.107379E-05  0.110E-02    7.29       1.0  T
   6   -203.0568584 -0.789757E-06  0.607E-03    7.29       1.5  T
   7   -203.0568587 -0.267777E-06  0.188E-03    7.29       4.9  T
   8   -203.0568588 -0.554097E-07  0.570E-04    7.29      16.1  T
   9   -203.0568588 -0.352458E-08  0.205E-04    7.29      45.0  T
     SCC iter.                  ...        0 min,  0.145 sec
     gradient                   ...        0 min,  0.090 sec
 * total energy  :  -201.7891562 Eh     change       -0.8079711E-02 Eh
   gradient norm :     0.0872480 Eh/α   predicted    -0.1579060E-01 (  95.44%)
   displ. norm   :     0.5954504 α      lambda       -0.2024078E-01
   maximum displ.:     0.1796420 α      in ANC's #123, #40, #71, ...

........................................................................
.............................. CYCLE   36 ..............................
........................................................................

 iter      E             dE          RMSdq      gap      omega  full diag
   1   -203.0007422 -0.203001E+03  0.224E-01    7.19       0.0  T
   2   -203.0008830 -0.140875E-03  0.137E-01    7.20       1.0  T
   3   -203.0008867 -0.365126E-05  0.128E-01    7.20       1.0  T
   4   -203.0009459 -0.592494E-04  0.231E-02    7.20       1.0  T
   5   -203.0009486 -0.266922E-05  0.116E-02    7.20       1.0  T
   6   -203.0009493 -0.658461E-06  0.879E-03    7.20       1.0  T
   7   -203.0009496 -0.304626E-06  0.274E-03    7.20       3.4  T
   8   -203.0009496 -0.478175E-07  0.101E-03    7.20       9.1  T
   9   -203.0009496 -0.836400E-08  0.260E-04    7.20      35.4  T
  10   -203.0009496 -0.768978E-09  0.139E-04    7.20      66.2  T
     SCC iter.                  ...        0 min,  0.160 sec
     gradient                   ...        0 min,  0.097 sec
 * total energy  :  -201.7836972 Eh     change        0.5458963E-02 Eh
   gradient norm :     0.1326049 Eh/α   predicted    -0.1370870E-01 (-351.12%)
   displ. norm   :     0.4118407 α      lambda       -0.2477376E-01
   maximum displ.:     0.1620644 α      in ANC's #123, #40, #71, ...

........................................................................
.............................. CYCLE   37 ..............................
........................................................................

 iter      E             dE          RMSdq      gap      omega  full diag
   1   -203.0157717 -0.203016E+03  0.158E-01    7.26       0.0  T
   2   -203.0158370 -0.653153E-04  0.947E-02    7.26       1.0  T
   3   -203.0158574 -0.204195E-04  0.511E-02    7.26       1.0  T
   4   -203.0158668 -0.941873E-05  0.157E-02    7.26       1.0  T
   5   -203.0158682 -0.136722E-05  0.813E-03    7.26       1.1  T
   6   -203.0158685 -0.279604E-06  0.478E-03    7.26       1.9  T
   7   -203.0158685 -0.826103E-07  0.176E-03    7.26       5.2  T
   8   -203.0158686 -0.248164E-07  0.451E-04    7.26      20.4  T
   9   -203.0158686 -0.156390E-08  0.155E-04    7.26      59.6  T
     SCC iter.                  ...        0 min,  0.147 sec
     gradient                   ...        0 min,  0.107 sec
 * total energy  :  -201.7934826 Eh     change       -0.9785345E-02 Eh
   gradient norm :     0.0639512 Eh/α   predicted    -0.1448785E-01 (  48.06%)
   displ. norm   :     0.6345846 α      lambda       -0.1786024E-01
   maximum displ.:     0.3331551 α      in ANC's #70, #137, #119, ...

........................................................................
.............................. CYCLE   38 ..............................
........................................................................

 iter      E             dE          RMSdq      gap      omega  full diag
   1   -203.0690145 -0.203069E+03  0.239E-01    7.34       0.0  T
   2   -203.0691560 -0.141544E-03  0.150E-01    7.34       1.0  T
   3   -203.0691375  0.184701E-04  0.168E-01    7.33       1.0  T
   4   -203.0692295 -0.919888E-04  0.287E-02    7.33       1.0  T
   5   -203.0692321 -0.257804E-05  0.137E-02    7.33       1.0  T
   6   -203.0692328 -0.659559E-06  0.118E-02    7.33       1.0  T
   7   -203.0692334 -0.680287E-06  0.255E-03    7.33       3.6  T
   8   -203.0692335 -0.429276E-07  0.112E-03    7.33       8.2  T
   9   -203.0692335 -0.949399E-08  0.308E-04    7.33      29.9  T
  10   -203.0692335 -0.114491E-08  0.147E-04    7.33      62.5  T
     SCC iter.                  ...        0 min,  0.165 sec
     gradient                   ...        0 min,  0.098 sec
 * total energy  :  -201.7767144 Eh     change        0.1676819E-01 Eh
   gradient norm :     0.1880218 Eh/α   predicted    -0.1252625E-01 (-174.70%)
   displ. norm   :     0.3421879 α      lambda       -0.3195281E-01
   maximum displ.:     0.2227568 α      in ANC's #70, #124, #121, ...

........................................................................
.............................. CYCLE   39 ..............................
........................................................................

 iter      E             dE          RMSdq      gap      omega  full diag
   1   -203.0254122 -0.203025E+03  0.152E-01    7.26       0.0  T
   2   -203.0254854 -0.732639E-04  0.915E-02    7.27       1.0  T
   3   -203.0254930 -0.760586E-05  0.853E-02    7.27       1.0  T
   4   -203.0255159 -0.228524E-04  0.155E-02    7.27       1.0  T
   5   -203.0255171 -0.120998E-05  0.897E-03    7.27       1.0  T
   6   -203.0255175 -0.352217E-06  0.614E-03    7.27       1.5  T
   7   -203.0255176 -0.177157E-06  0.171E-03    7.27       5.4  T
   8   -203.0255177 -0.210826E-07  0.512E-04    7.27      18.0  T
   9   -203.0255177 -0.189942E-08  0.146E-04    7.27      63.3  T
     SCC iter.                  ...        0 min,  0.144 sec
     gradient                   ...        0 min,  0.094 sec
 * total energy  :  -201.7947478 Eh     change       -0.1803343E-01 Eh
   gradient norm :     0.0643670 Eh/α   predicted    -0.1784713E-01 (  -1.03%)
   displ. norm   :     0.6608901 α      lambda       -0.1944233E-01
   maximum displ.:     0.1812280 α      in ANC's #124, #111, #126, ...

........................................................................
.............................. CYCLE   40 ..............................
........................................................................

 iter      E             dE          RMSdq      gap      omega  full diag
   1   -203.0250872 -0.203025E+03  0.239E-01    7.24       0.0  T
   2   -203.0252354 -0.148166E-03  0.147E-01    7.24       1.0  T
   3   -203.0252419 -0.651320E-05  0.143E-01    7.25       1.0  T
   4   -203.0253106 -0.687426E-04  0.284E-02    7.25       1.0  T
   5   -203.0253136 -0.293040E-05  0.136E-02    7.25       1.0  T
   6   -203.0253145 -0.919082E-06  0.117E-02    7.25       1.0  T
   7   -203.0253152 -0.681577E-06  0.303E-03    7.25       3.0  T
   8   -203.0253153 -0.738750E-07  0.144E-03    7.25       6.4  T
   9   -203.0253153 -0.250395E-07  0.336E-04    7.25      27.4  T
  10   -203.0253153 -0.138505E-08  0.184E-04    7.25      50.0  T
     SCC iter.                  ...        0 min,  0.159 sec
     gradient                   ...        0 min,  0.097 sec
 * total energy  :  -201.7743990 Eh     change        0.2034878E-01 Eh
   gradient norm :     0.2040355 Eh/α   predicted    -0.1396714E-01 (-168.64%)
   displ. norm   :     0.3598789 α      lambda       -0.3909497E-01
   maximum displ.:     0.1151018 α      in ANC's #129, #70, #130, ...

........................................................................
.............................. CYCLE   41 ..............................
........................................................................

 iter      E             dE          RMSdq      gap      omega  full diag
   1   -203.0317543 -0.203032E+03  0.152E-01    7.27       0.0  T
   2   -203.0318231 -0.687971E-04  0.922E-02    7.27       1.0  T
   3   -203.0318317 -0.863280E-05  0.814E-02    7.27       1.0  T
   4   -203.0318551 -0.233619E-04  0.154E-02    7.27       1.0  T
   5   -203.0318562 -0.115820E-05  0.913E-03    7.27       1.0  T
   6   -203.0318567 -0.421193E-06  0.674E-03    7.27       1.4  T
   7   -203.0318569 -0.208878E-06  0.199E-03    7.27       4.6  T
   8   -203.0318569 -0.331179E-07  0.811E-04    7.27      11.3  T
   9   -203.0318569 -0.674891E-08  0.181E-04    7.27      50.9  T
     SCC iter.                  ...        0 min,  0.154 sec
     gradient                   ...        0 min,  0.099 sec
 * total energy  :  -201.7966435 Eh     change       -0.2224449E-01 Eh
   gradient norm :     0.0500922 Eh/α   predicted    -0.2207914E-01 (  -0.74%)
   displ. norm   :     0.6453526 α      lambda       -0.1254515E-01
   maximum displ.:     0.2429325 α      in ANC's #124, #70, #115, ...

........................................................................
.............................. CYCLE   42 ..............................
........................................................................

 iter      E             dE          RMSdq      gap      omega  full diag
   1   -203.0182765 -0.203018E+03  0.180E-01    7.21       0.0  T
   2   -203.0183770 -0.100504E-03  0.109E-01    7.22       1.0  T
   3   -203.0183946 -0.175232E-04  0.867E-02    7.22       1.0  T
   4   -203.0184300 -0.354521E-04  0.238E-02    7.22       1.0  T
   5   -203.0184327 -0.268427E-05  0.106E-02    7.22       1.0  T
   6   -203.0184338 -0.110267E-05  0.877E-03    7.22       1.1  T
   7   -203.0184341 -0.329426E-06  0.270E-03    7.22       3.4  T
   8   -203.0184342 -0.113405E-06  0.431E-04    7.22      21.3  T
   9   -203.0184343 -0.232862E-08  0.228E-04    7.22      40.3  T
     SCC iter.                  ...        0 min,  0.147 sec
     gradient                   ...        0 min,  0.092 sec
 * total energy  :  -201.7875861 Eh     change        0.9057412E-02 Eh
   gradient norm :     0.1498983 Eh/α   predicted    -0.8885018E-02 (-198.10%)
   displ. norm   :     0.3487532 α      lambda       -0.2106904E-01
   maximum displ.:     0.1234907 α      in ANC's #70, #210, #37, ...
 * RMSD in coord.:     0.6534907 α      energy gain  -0.7005696E-01 Eh

generating ANC from model Hessian ...
Using Lindh-Hessian (1995)
 Shifting diagonal of input Hessian by    1.1486689809733764E-002
 Lowest  eigenvalues of input Hessian
    0.010000    0.011249    0.011321    0.011388    0.011405    0.011411
    0.011427    0.011439    0.011448    0.011455    0.011456    0.011461
    0.011470    0.011473    0.011476    0.011477    0.011482    0.011482
 Highest eigenvalues
    1.433123    1.435946    1.436918    1.442320    1.444731    1.454372


........................................................................
.............................. CYCLE   43 ..............................
........................................................................

 iter      E             dE          RMSdq      gap      omega  full diag
   1   -203.0222125 -0.203022E+03  0.121E-01    7.26       0.0  T
   2   -203.0222603 -0.477732E-04  0.728E-02    7.26       1.0  T
   3   -203.0222775 -0.172384E-04  0.415E-02    7.26       1.0  T
   4   -203.0222844 -0.688813E-05  0.198E-02    7.26       1.0  T
   5   -203.0222859 -0.151472E-05  0.690E-03    7.26       1.3  T
   6   -203.0222864 -0.458128E-06  0.300E-03    7.26       3.1  T
   7   -203.0222864 -0.332324E-07  0.188E-03    7.26       4.9  T
   8   -203.0222865 -0.305546E-07  0.254E-04    7.26      36.3  T
   9   -203.0222865 -0.846455E-09  0.150E-04    7.26      61.6  T
     SCC iter.                  ...        0 min,  0.154 sec
     gradient                   ...        0 min,  0.094 sec
 * total energy  :  -201.7988795 Eh     change       -0.1129335E-01 Eh
   gradient norm :     0.0575242 Eh/α   predicted     0.0000000E+00 (-100.00%)
   displ. norm   :     0.4271353 α      lambda       -0.6101293E-02
   maximum displ.:     0.1073396 α      in ANC's #46, #68, #36, ...

........................................................................
.............................. CYCLE   44 ..............................
........................................................................

 iter      E             dE          RMSdq      gap      omega  full diag
   1   -203.0309866 -0.203031E+03  0.114E-01    7.28       0.0  T
   2   -203.0309972 -0.106636E-04  0.736E-02    7.28       1.0  T
   3   -203.0309860  0.112347E-04  0.805E-02    7.28       1.0  T
   4   -203.0310057 -0.197094E-04  0.741E-03    7.28       1.2  T
   5   -203.0310059 -0.223511E-06  0.318E-03    7.28       2.9  T
   6   -203.0310060 -0.281421E-07  0.264E-03    7.28       3.5  T
   7   -203.0310060 -0.370215E-07  0.582E-04    7.28      15.8  T
   8   -203.0310060 -0.332764E-08  0.265E-04    7.28      34.7  T
     SCC iter.                  ...        0 min,  0.138 sec
     gradient                   ...        0 min,  0.112 sec
 * total energy  :  -201.8034679 Eh     change       -0.4588409E-02 Eh
   gradient norm :     0.0295976 Eh/α   predicted    -0.3608260E-02 ( -21.36%)
   displ. norm   :     0.5864949 α      lambda       -0.5711935E-02
   maximum displ.:     0.1209912 α      in ANC's #68, #37, #59, ...

........................................................................
.............................. CYCLE   45 ..............................
........................................................................

 iter      E             dE          RMSdq      gap      omega  full diag
   1   -203.0271611 -0.203027E+03  0.144E-01    7.16       0.0  T
   2   -203.0271671 -0.604770E-05  0.118E-01    7.16       1.0  T
   3   -203.0271879 -0.207808E-04  0.812E-02    7.17       1.0  T
   4   -203.0272018 -0.139094E-04  0.315E-02    7.17       1.0  T
   5   -203.0272039 -0.206808E-05  0.106E-02    7.17       1.0  T
   6   -203.0272044 -0.534078E-06  0.334E-03    7.17       2.8  T
   7   -203.0272045 -0.922821E-07  0.131E-03    7.17       7.0  T
   8   -203.0272045 -0.142656E-07  0.541E-04    7.17      17.0  T
   9   -203.0272046 -0.529701E-08  0.152E-04    7.17      60.7  T
     SCC iter.                  ...        0 min,  0.152 sec
     gradient                   ...        0 min,  0.093 sec
 * total energy  :  -201.8036670 Eh     change       -0.1991368E-03 Eh
   gradient norm :     0.0683475 Eh/α   predicted    -0.3838356E-02 (1827.50%)
   displ. norm   :     0.3806331 α      lambda       -0.9564688E-02
   maximum displ.:     0.0639920 α      in ANC's #209, #210, #215, ...

........................................................................
.............................. CYCLE   46 ..............................
........................................................................

 iter      E             dE          RMSdq      gap      omega  full diag
   1   -203.0381801 -0.203038E+03  0.106E-01    7.29       0.0  T
   2   -203.0381714  0.870771E-05  0.115E-01    7.28       1.0  T
   3   -203.0382087 -0.373299E-04  0.441E-02    7.28       1.0  T
   4   -203.0382126 -0.384744E-05  0.248E-02    7.28       1.0  T
   5   -203.0382137 -0.109782E-05  0.107E-02    7.28       1.0  T
   6   -203.0382142 -0.531339E-06  0.321E-03    7.28       2.9  T
   7   -203.0382143 -0.670877E-07  0.115E-03    7.28       8.0  T
   8   -203.0382143 -0.100482E-07  0.418E-04    7.28      22.0  T
   9   -203.0382143 -0.248482E-08  0.114E-04    7.28      80.6  T
     SCC iter.                  ...        0 min,  0.147 sec
     gradient                   ...        0 min,  0.100 sec
 * total energy  :  -201.8077515 Eh     change       -0.4084542E-02 Eh
   gradient norm :     0.0518467 Eh/α   predicted    -0.5475214E-02 (  34.05%)
   displ. norm   :     0.4937299 α      lambda       -0.6342877E-02
   maximum displ.:     0.2553164 α      in ANC's #113, #114, #112, ...

........................................................................
.............................. CYCLE   47 ..............................
........................................................................

 iter      E             dE          RMSdq      gap      omega  full diag
   1   -203.0368951 -0.203037E+03  0.115E-01    7.30       0.0  T
   2   -203.0369252 -0.300871E-04  0.733E-02    7.30       1.0  T
   3   -203.0369233  0.188628E-05  0.818E-02    7.30       1.0  T
   4   -203.0369459 -0.226377E-04  0.948E-03    7.30       1.0  T
   5   -203.0369465 -0.592391E-06  0.729E-03    7.30       1.3  T
   6   -203.0369469 -0.330694E-06  0.421E-03    7.30       2.2  T
   7   -203.0369470 -0.114038E-06  0.136E-03    7.30       6.8  T
   8   -203.0369470 -0.278017E-07  0.360E-04    7.30      25.6  T
   9   -203.0369470 -0.142754E-08  0.150E-04    7.30      61.3  T
     SCC iter.                  ...        0 min,  0.142 sec
     gradient                   ...        0 min,  0.103 sec
 * total energy  :  -201.8068701 Eh     change        0.8814980E-03 Eh
[...]
    24   8 O        0.826    -0.929    35.822     8.024
    25   8 O        1.607    -0.650    26.411     6.936
    26   8 O        1.608    -0.665    26.787     6.985
    27   8 O        1.605    -0.699    27.689     7.102
    28   8 O        1.608    -0.656    26.562     6.956
    29   8 O        1.608    -0.663    26.743     6.980
    30   8 O        1.607    -0.667    26.857     6.994
    31   8 O        1.609    -0.646    26.307     6.922
    32   1 H        0.803     0.341     0.611     1.228
    33   1 H        0.804     0.326     0.647     1.263
    34   1 H        0.803     0.336     0.622     1.239
    35   1 H        0.000    -1.000  3074.319   101.384
    36   1 H        0.806     0.220     1.021     1.587
    37   1 H        0.801     0.308     0.699     1.314
    38   1 H        0.805     0.318     0.670     1.286
    39   1 H        0.804     0.361     0.564     1.180
    40   1 H        0.805     0.313     0.684     1.299
    41   1 H        0.802     0.311     0.688     1.303
    42   1 H        0.804     0.345     0.600     1.217
    43   1 H        0.805     0.354     0.578     1.194
    44   1 H        0.804     0.328     0.643     1.259
    45   1 H        0.804     0.332     0.631     1.248
    46   1 H        0.805     0.317     0.673     1.289
    47   1 H        0.803     0.352     0.583     1.200
    48   1 H        0.805     0.319     0.666     1.282
    49   1 H        0.803     0.355     0.578     1.194
    50   1 H        0.803     0.346     0.597     1.214
    51   1 H        0.802     0.358     0.570     1.186
    52   1 H        0.804     0.350     0.587     1.204
    53   1 H        0.804     0.352     0.584     1.200
    54   1 H        0.805     0.333     0.630     1.247
    55   1 H        0.803     0.345     0.601     1.218
    56   8 O        1.607    -0.699    27.696     7.103
    57   1 H        0.806     0.337     0.620     1.237
    58   1 H        0.802     0.368     0.549     1.164
    59   8 O        1.610    -0.732    28.564     7.213
    60   1 H        0.805     0.371     0.542     1.156
    61   1 H        0.805     0.361     0.563     1.179
    62   8 O        1.610    -0.707    27.886     7.127
    63   1 H        0.805     0.369     0.545     1.160
    64   1 H        0.805     0.337     0.619     1.235
    65   8 O        1.608    -0.733    28.593     7.217
    66   1 H        0.805     0.345     0.599     1.216
    67   1 H        0.802     0.347     0.595     1.212
    68   8 O        1.607    -0.736    28.674     7.227
    69   1 H        0.802     0.336     0.623     1.240
    70   1 H        0.805     0.355     0.576     1.192
    71   8 O        1.610    -0.729    28.504     7.206
    72   1 H        0.805     0.366     0.552     1.167
    73   1 H        0.805     0.364     0.557     1.173
    74   8 O        1.610    -0.733    28.595     7.217
    75   1 H        0.805     0.367     0.550     1.165
    76   1 H        0.805     0.366     0.553     1.168
    77   8 O        1.610    -0.710    27.990     7.140
    78   1 H        0.805     0.369     0.545     1.159
    79   1 H        0.805     0.341     0.609     1.226
    80   8 O        1.608    -0.708    27.920     7.132
    81   1 H        0.805     0.337     0.619     1.236
    82   1 H        0.803     0.352     0.584     1.200
    83   8 O        1.607    -0.686    27.343     7.057
    84   1 H        0.802     0.353     0.581     1.198
    85   1 H        0.806     0.344     0.603     1.220
    86   8 O        1.611    -0.690    27.445     7.071
    87   1 H        0.805     0.357     0.571     1.187
    88   1 H        0.805     0.353     0.582     1.198
    89   8 O        1.610    -0.698    27.658     7.098
    90   1 H        0.805     0.353     0.581     1.197
    91   1 H        0.805     0.365     0.555     1.170
    92   8 O        1.597    -0.748    29.018     7.270
    93   1 H        0.803     0.312     0.686     1.301
    94   1 H        0.805     0.322     0.657     1.273
    95   8 O        1.610    -0.696    27.606     7.091
    96   1 H        0.805     0.359     0.567     1.183
    97   1 H        0.805     0.356     0.575     1.191
    98   8 O        1.610    -0.704    27.805     7.117
    99   1 H        0.805     0.364     0.556     1.172
   100   1 H        0.805     0.363     0.558     1.174
   101   8 O        1.611    -0.688    27.391     7.064
   102   1 H        0.805     0.354     0.578     1.194
   103   1 H        0.805     0.354     0.578     1.194
   104   8 O        1.610    -0.699    27.672     7.100
   105   1 H        0.805     0.361     0.562     1.178
   106   1 H        0.805     0.361     0.563     1.178
   107   8 O        1.610    -0.704    27.819     7.119
   108   1 H        0.805     0.371     0.542     1.156
   109   1 H        0.805     0.350     0.587     1.204
   110   8 O        1.610    -0.736    28.678     7.228
   111   1 H        0.805     0.375     0.534     1.147
   112   1 H        0.805     0.361     0.563     1.179
   113   8 O        1.610    -0.733    28.589     7.217
   114   1 H        0.805     0.375     0.534     1.148
   115   1 H        0.805     0.358     0.570     1.186
   116   8 O        1.610    -0.729    28.505     7.206
   117   1 H        0.805     0.377     0.530     1.143
   118   1 H        0.805     0.353     0.581     1.198

 Mol. C6AA /au·bohr⁶  :     111350.390408
 Mol. C8AA /au·bohr⁸  :    2171711.705360
 Mol. α(0) /au        :        528.044924


Wiberg/Mayer (AO) data.
largest (>0.10) Wiberg bond orders for each atom

 ---------------------------------------------------------------------------
     #   Z sym  total        # sym  WBO       # sym  WBO       # sym  WBO
 ---------------------------------------------------------------------------
     1  26 Fe   1.382 --     4 O    0.210     7 O    0.201     3 O    0.192
                             2 O    0.191     6 O    0.188    23 O    0.171
                             5 O    0.161
     2   8 O    1.932 --    13 H    0.851    12 H    0.840     1 Fe   0.191
     3   8 O    1.960 --    16 H    0.816    17 H    0.797     1 Fe   0.192
     4   8 O    1.943 --    15 H    0.847    14 H    0.840     1 Fe   0.210
     5   8 O    1.939 --    19 H    0.858    18 H    0.833     1 Fe   0.161
     6   8 O    1.934 --     9 H    0.847     8 H    0.847     1 Fe   0.188
     7   8 O    1.928 --    11 H    0.834    10 H    0.831     1 Fe   0.201
     8   1 H    0.889 --     6 O    0.847
     9   1 H    0.881 --     6 O    0.847
    10   1 H    0.874 --     7 O    0.831
    11   1 H    0.872 --     7 O    0.834
    12   1 H    0.879 --     2 O    0.840
    13   1 H    0.886 --     2 O    0.851
    14   1 H    0.870 --     4 O    0.840
    15   1 H    0.877 --     4 O    0.847
    16   1 H    0.870 --     3 O    0.816
    17   1 H    0.865 --     3 O    0.797
    18   1 H    0.879 --     5 O    0.833
    19   1 H    0.870 --     5 O    0.858
    20   8 O    1.853 --    34 H    0.837    37 H    0.791
    21   8 O    1.852 --    54 H    0.863    55 H    0.821
    22   8 O    1.862 --    40 H    0.872    41 H    0.776
    23   8 O    1.908 --    43 H    0.864    42 H    0.829     1 Fe   0.171
    24   8 O    1.493 --    36 H    0.949    93 H    0.146    41 H    0.121
                            37 H    0.109
    25   8 O    1.889 --    33 H    0.854    32 H    0.823
    26   8 O    1.868 --    53 H    0.854    52 H    0.841
    27   8 O    1.855 --    50 H    0.815    51 H    0.809
    28   8 O    1.867 --    48 H    0.861    49 H    0.820
    29   8 O    1.843 --    38 H    0.862    39 H    0.826
    30   8 O    1.842 --    46 H    0.865    47 H    0.817
    31   8 O    1.860 --    45 H    0.857    44 H    0.854
    32   1 H    0.884 --    25 O    0.823
    33   1 H    0.893 --    25 O    0.854
    34   1 H    0.887 --    20 O    0.837
    35   1 H    0.000
    36   1 H    0.952 --    24 O    0.949
    37   1 H    0.905 --    20 O    0.791    24 O    0.109
    38   1 H    0.899 --    29 O    0.862
    39   1 H    0.870 --    29 O    0.826
    40   1 H    0.902 --    22 O    0.872
    41   1 H    0.903 --    22 O    0.776    24 O    0.121
    42   1 H    0.881 --    23 O    0.829
    43   1 H    0.874 --    23 O    0.864
    44   1 H    0.892 --    31 O    0.854
    45   1 H    0.889 --    31 O    0.857
    46   1 H    0.900 --    30 O    0.865
    47   1 H    0.876 --    30 O    0.817
    48   1 H    0.898 --    28 O    0.861
    49   1 H    0.874 --    28 O    0.820
    50   1 H    0.880 --    27 O    0.815
    51   1 H    0.872 --    27 O    0.809
    52   1 H    0.877 --    26 O    0.841
    53   1 H    0.876 --    26 O    0.854
    54   1 H    0.889 --    21 O    0.863
    55   1 H    0.881 --    21 O    0.821
    56   8 O    1.805 --    57 H    0.877    58 H    0.798
    57   1 H    0.887 --    56 O    0.877
    58   1 H    0.865 --    56 O    0.798
    59   8 O    1.732 --    61 H    0.870    60 H    0.862
    60   1 H    0.863 --    59 O    0.862
    61   1 H    0.870 --    59 O    0.870
    62   8 O    1.750 --    64 H    0.886    63 H    0.864
    63   1 H    0.864 --    62 O    0.864
    64   1 H    0.886 --    62 O    0.886
    65   8 O    1.731 --    66 H    0.881    67 H    0.823
    66   1 H    0.881 --    65 O    0.881
    67   1 H    0.880 --    65 O    0.823
    68   8 O    1.729 --    70 H    0.873    69 H    0.826
    69   1 H    0.887 --    68 O    0.826
    70   1 H    0.874 --    68 O    0.873
    71   8 O    1.734 --    73 H    0.868    72 H    0.866
    72   1 H    0.866 --    71 O    0.866
    73   1 H    0.868 --    71 O    0.868
    74   8 O    1.731 --    76 H    0.866    75 H    0.865
    75   1 H    0.865 --    74 O    0.865
    76   1 H    0.866 --    74 O    0.866
    77   8 O    1.747 --    79 H    0.884    78 H    0.864
    78   1 H    0.864 --    77 O    0.864
    79   1 H    0.884 --    77 O    0.884
    80   8 O    1.762 --    81 H    0.884    82 H    0.832
    81   1 H    0.886 --    80 O    0.884
    82   1 H    0.876 --    80 O    0.832
    83   8 O    1.828 --    85 H    0.874    84 H    0.809
    84   1 H    0.875 --    83 O    0.809
    85   1 H    0.882 --    83 O    0.874
    86   8 O    1.784 --    88 H    0.874    87 H    0.870
    87   1 H    0.872 --    86 O    0.870
    88   1 H    0.876 --    86 O    0.874
    89   8 O    1.777 --    90 H    0.873    91 H    0.865
    90   1 H    0.875 --    89 O    0.873
    91   1 H    0.867 --    89 O    0.865
    92   8 O    1.715 --    94 H    0.895    93 H    0.753
    93   1 H    0.903 --    92 O    0.753    24 O    0.146
    94   1 H    0.896 --    92 O    0.895
    95   8 O    1.777 --    97 H    0.871    96 H    0.869
    96   1 H    0.871 --    95 O    0.869
    97   1 H    0.873 --    95 O    0.871
    98   8 O    1.778 --   100 H    0.866    99 H    0.866
    99   1 H    0.867 --    98 O    0.866
   100   1 H    0.868 --    98 O    0.866
   101   8 O    1.788 --   103 H    0.873   102 H    0.872
   102   1 H    0.874 --   101 O    0.872
   103   1 H    0.874 --   101 O    0.873
   104   8 O    1.782 --   106 H    0.868   105 H    0.867
   105   1 H    0.869 --   104 O    0.867
   106   1 H    0.870 --   104 O    0.868
   107   8 O    1.768 --   109 H    0.875   108 H    0.859
   108   1 H    0.862 --   107 O    0.859
   109   1 H    0.877 --   107 O    0.875
   110   8 O    1.729 --   112 H    0.869   111 H    0.859
   111   1 H    0.860 --   110 O    0.859
   112   1 H    0.870 --   110 O    0.869
   113   8 O    1.731 --   115 H    0.872   114 H    0.859
   114   1 H    0.860 --   113 O    0.859
   115   1 H    0.872 --   113 O    0.872
   116   8 O    1.733 --   118 H    0.875   117 H    0.858
   117   1 H    0.858 --   116 O    0.858
   118   1 H    0.876 --   116 O    0.875
 ---------------------------------------------------------------------------

Topologies differ in total number of bonds
Writing topology from bond orders to xtbtopo.mol

molecular dipole:
                 x           y           z       tot (Debye)
 q only:       12.967     -22.061     -10.402
   full:       12.215     -20.762     -10.802      67.103
molecular quadrupole (traceless):
                xx          xy          yy          xz          yz          zz
 q only:      176.293     164.872    -283.955      39.093    -243.632     107.662
  q+dip:      189.217     159.331    -277.859      37.416    -231.768      88.642
   full:      188.744     158.787    -276.495      37.584    -231.835      87.751

           -------------------------------------------------
          |                Geometry Summary                 |
           -------------------------------------------------

      molecular mass/u    :      758.4413148
   center of mass at/Å    :        0.1302623      -0.0103222      -0.0246447
  moments of inertia/u·Å² :        0.1435375E+05   0.1580406E+05   0.1620048E+05
rotational constants/cm⁻¹ :        0.1174441E-02   0.1066665E-02   0.1040564E-02

 * 73 selected distances

     #   Z          #   Z                                           value/Å
     6   8 O        8   1 H                                       0.9688676
     6   8 O        9   1 H                                       0.9661834
     7   8 O       10   1 H                                       0.9710152
     7   8 O       11   1 H                                       0.9683400
     2   8 O       12   1 H                                       0.9679055
     2   8 O       13   1 H                                       0.9650120
     4   8 O       14   1 H                                       0.9658251
     4   8 O       15   1 H                                       0.9647493
     3   8 O       16   1 H                                       0.9722855
     3   8 O       17   1 H                                       0.9777074
     5   8 O       18   1 H                                       0.9736839
     5   8 O       19   1 H                                       0.9603954
    25   8 O       32   1 H                                       0.9817988
    25   8 O       33   1 H                                       0.9696722
    20   8 O       34   1 H                                       0.9787225
    29   8 O       38   1 H                                       0.9664817
    29   8 O       39   1 H                                       0.9744571
    22   8 O       40   1 H                                       0.9668355
    23   8 O       42   1 H                                       0.9738738
    23   8 O       43   1 H                                       0.9601154
    31   8 O       44   1 H                                       0.9705414
    31   8 O       45   1 H                                       0.9691601
    30   8 O       46   1 H                                       0.9656484
    30   8 O       47   1 H                                       0.9815690
    28   8 O       48   1 H                                       0.9660576
    28   8 O       49   1 H                                       0.9793135
    27   8 O       50   1 H                                       0.9819065
    27   8 O       51   1 H                                       0.9832303
    26   8 O       52   1 H                                       0.9717661
    26   8 O       53   1 H                                       0.9684682
    21   8 O       54   1 H                                       0.9649121
    21   8 O       55   1 H                                       0.9789444
    56   8 O       57   1 H                                       0.9568746 (min)
    56   8 O       58   1 H                                       0.9867005 (max)
    59   8 O       60   1 H                                       0.9635662
    59   8 O       61   1 H                                       0.9621841
    62   8 O       63   1 H                                       0.9633364
    62   8 O       64   1 H                                       0.9597016
    65   8 O       66   1 H                                       0.9607541
    65   8 O       67   1 H                                       0.9837321
    68   8 O       69   1 H                                       0.9852645
    68   8 O       70   1 H                                       0.9623870
    71   8 O       72   1 H                                       0.9627877
    71   8 O       73   1 H                                       0.9625103
    74   8 O       75   1 H                                       0.9629149
    74   8 O       76   1 H                                       0.9626635
    77   8 O       78   1 H                                       0.9635888
    77   8 O       79   1 H                                       0.9600518
    80   8 O       81   1 H                                       0.9586989
    80   8 O       82   1 H                                       0.9791978
    83   8 O       84   1 H                                       0.9857679
    83   8 O       85   1 H                                       0.9585005
    86   8 O       87   1 H                                       0.9611559
    86   8 O       88   1 H                                       0.9607955
    89   8 O       90   1 H                                       0.9605982
    89   8 O       91   1 H                                       0.9621151
    92   8 O       94   1 H                                       0.9603393
    95   8 O       96   1 H                                       0.9617657
    95   8 O       97   1 H                                       0.9610264
    98   8 O       99   1 H                                       0.9623346
    98   8 O      100   1 H                                       0.9621641
   101   8 O      102   1 H                                       0.9608221
   101   8 O      103   1 H                                       0.9612155
   104   8 O      105   1 H                                       0.9619015
   104   8 O      106   1 H                                       0.9615963
   107   8 O      108   1 H                                       0.9631197
   107   8 O      109   1 H                                       0.9603496
   110   8 O      111   1 H                                       0.9637640
   110   8 O      112   1 H                                       0.9621137
   113   8 O      114   1 H                                       0.9638089
   113   8 O      115   1 H                                       0.9619163
   116   8 O      117   1 H                                       0.9639502
   116   8 O      118   1 H                                       0.9610819

 * 1 distinct bonds (by element types)

   Z      Z             #   av. dist./Å        max./Å        min./Å
   1 H    8 O          73     0.9673228     0.9867005     0.9568746


optimized geometry written to: xtbopt.xyz


           -------------------------------------------------
          | TOTAL ENERGY             -201.888750932141 Eh   |
          | GRADIENT NORM               0.000051268727 Eh/α |
          | HOMO-LUMO GAP               7.109958164438 eV   |
           -------------------------------------------------
########################################################################
[WARNING] Runtime exception occurred
-1- restart_readRestart: Number of electron missmatch in restart file.
########################################################################

------------------------------------------------------------------------
 * finished run on 2024/05/10 at 18:00:49.001     
------------------------------------------------------------------------
 total:
 * wall-time:     0 d,  0 h,  1 min, 38.551 sec
 *  cpu-time:     0 d,  0 h, 10 min, 56.378 sec
 * ratio c/w:     6.660 speedup
 SCF:
 * wall-time:     0 d,  0 h,  0 min,  0.275 sec
 *  cpu-time:     0 d,  0 h,  0 min,  1.759 sec
 * ratio c/w:     6.389 speedup
 ANC optimizer:
 * wall-time:     0 d,  0 h,  1 min, 37.889 sec
 *  cpu-time:     0 d,  0 h, 10 min, 52.971 sec
 * ratio c/w:     6.670 speedup

