 Entering Gaussian System
 *********************************************
 Gaussian 98:
 frequency output generated by the xtb code
 *********************************************
                         Standard orientation:
 --------------------------------------------------------------------
  Center     Atomic     Atomic              Coordinates (Angstroms)
  Number     Number      Type              X           Y           Z
 --------------------------------------------------------------------
    1         26             0        0.117352   -0.717259    0.215924
    2          8             0       -1.070062   -1.435684    2.252852
    3          8             0        1.695108    0.639247    1.539902
    4          8             0        1.926614   -0.514414   -1.407219
    5          8             0       -1.154985   -0.032253   -1.845896
    6          8             0       -1.045852    1.352460    0.891236
    7          8             0        1.217985   -2.796814    1.002501
    8          1             0       -2.001816    1.397719    1.042198
    9          1             0       -0.845842    1.985717    0.189458
   10          1             0        1.443642   -2.653154    1.935941
   11          1             0        2.052305   -3.018755    0.563941
   12          1             0       -0.686832   -0.873366    2.941165
   13          1             0       -2.023447   -1.286983    2.266760
   14          1             0        2.692088    0.054115   -1.253460
   15          1             0        2.248926   -1.249405   -1.942610
   16          1             0        1.811579    1.503869    1.110714
   17          1             0        2.568757    0.201006    1.515525
   18          1             0       -2.119709    0.052996   -1.745393
   19          1             0       -1.012048   -0.839101   -2.346820
   20          8             0       -3.777336    1.420251    1.428718
   21          8             0        3.688578   -3.046626   -0.164181
   22          8             0       -3.900677   -0.051113   -1.826790
   23          8             0       -0.929851   -2.694649   -0.906331
   24          8             0       -5.445076    1.555314   -0.546485
   25          8             0       -3.588581   -2.312014   -0.392845
   26          8             0        2.296960   -1.881207    3.379806
   27          8             0        3.996217   -0.751765    1.234023
   28          8             0        2.148818    2.808084   -0.015683
   29          8             0       -0.090185    2.472958   -1.491167
   30          8             0        4.137294    1.116878   -0.692775
   31          8             0        3.311504   -2.540284   -2.804447
   32          1             0       -3.736305   -1.501285   -0.926535
   33          1             0       -4.141783   -3.008446   -0.779128
   34          1             0       -3.829441    0.473080    1.669654
   35          1             0       -2.283039   10.710958    5.091338
   36          1             0       -6.189748    1.019024   -0.270457
   37          1             0       -4.409847    1.526022    0.656570
   38          1             0       -0.489455    3.079880   -2.128596
   39          1             0       -0.318692    1.568975   -1.774304
   40          1             0       -4.260935   -0.092316   -2.723054
   41          1             0       -4.486778    0.605988   -1.332161
   42          1             0       -1.869541   -2.628086   -0.659387
   43          1             0       -0.537205   -3.356300   -0.331989
   44          1             0        4.067822   -2.236466   -3.331351
   45          1             0        3.082162   -3.420655   -3.138544
   46          1             0        4.969039    1.585630   -0.837513
   47          1             0        3.475151    1.799115   -0.448652
   48          1             0        2.228824    3.758554    0.137524
   49          1             0        1.378043    2.677511   -0.605524
   50          1             0        4.180384   -0.074975    0.546871
   51          1             0        3.684671   -1.531479    0.722431
   52          1             0        1.660923   -1.206008    3.669447
   53          1             0        2.953097   -1.414957    2.841266
   54          1             0        4.623050   -3.207428    0.014598
   55          1             0        3.600320   -2.834132   -1.115700
   56          8             0        0.493900    0.199417    3.865878
   57          1             0        0.280846    0.969427    4.392472
   58          1             0        0.858498    0.524904    3.008729
   59          8             0       -2.066553   -3.451243    6.961476
   60          1             0       -1.148337   -3.470843    6.670006
   61          1             0       -2.378249   -2.549591    6.836308
   62          8             0        0.290835    5.804830    4.991534
   63          1             0       -0.495282    5.488346    4.533414
   64          1             0        0.100122    6.696355    5.291266
   65          8             0        3.471974   -3.277205    5.424485
   66          1             0        3.246379   -4.189866    5.226484
   67          1             0        3.043765   -2.744488    4.716969
   68          8             0       -4.639129    2.810421    3.612279
   69          1             0       -4.346783    2.358324    2.787119
   70          1             0       -4.044312    2.494801    4.299858
   71          8             0        5.250036    2.940301    4.508386
   72          1             0        5.273662    2.031800    4.826236
   73          1             0        4.348537    3.254637    4.630527
   74          8             0       -1.997632   -6.656737    2.699778
   75          1             0       -1.117269   -6.425077    3.013625
   76          1             0       -2.566435   -5.907377    2.903849
   77          8             0       -2.751619    7.314804    0.665613
   78          1             0       -3.220028    6.514888    0.928733
   79          1             0       -2.893391    7.966872    1.355835
   80          8             0        6.217409   -2.452967    1.052754
   81          1             0        6.579595   -2.751790    1.888595
   82          1             0        5.600191   -1.723100    1.265274
   83          8             0       -3.853441   -1.260683    2.056089
   84          1             0       -3.778698   -1.694779    1.174209
   85          1             0       -4.547139   -1.712412    2.539253
   86          8             0        2.433468    5.598730    0.415222
   87          1             0        3.024419    5.912810    1.105114
   88          1             0        1.632344    6.126880    0.464065
   89          8             0        3.004636   -5.280070   -3.430719
   90          1             0        3.818643   -5.782047   -3.521057
   91          1             0        2.389137   -5.821071   -2.926591
   92          8             0       -6.641425    3.619004   -1.455979
   93          1             0       -6.132016    2.796606   -1.114857
   94          1             0       -6.808068    4.144480   -0.669622
   95          8             0        6.528793    2.639978   -0.744962
   96          1             0        7.004290    2.599965    0.090080
   97          1             0        6.566268    3.548747   -1.055293
   98          8             0       -4.864867   -4.490890   -1.611635
   99          1             0       -4.629736   -5.351620   -1.251155
  100          1             0       -4.789525   -4.550242   -2.569007
  101          8             0       -1.372414    4.336501   -3.211992
  102          1             0       -1.131122    5.264634   -3.152609
  103          1             0       -2.323505    4.283949   -3.083151
  104          8             0        5.570019   -1.631933   -4.209394
  105          1             0        6.399038   -1.592357   -3.723166
  106          1             0        5.496432   -0.817883   -4.715926
  107          8             0       -4.846402   -0.133517   -4.534096
  108          1             0       -4.520683   -0.695923   -5.244875
  109          1             0       -5.154068    0.684552   -4.932060
  110          8             0        3.695215    4.104067   -4.952486
  111          1             0        3.251072    3.258235   -4.825416
  112          1             0        3.380526    4.687136   -4.254872
  113          8             0       -1.621048   -4.209155   -6.243646
  114          1             0       -1.136936   -4.241764   -5.410880
  115          1             0       -1.184401   -3.550878   -6.792548
  116          8             0       -0.611528    1.130290   -7.407034
  117          1             0       -0.429114    1.026156   -6.466246
  118          1             0       -0.541477    2.068884   -7.601491
 --------------------------------------------------------------------
     1 basis functions        1 primitive gaussians
     1 alpha electrons        1 beta electrons

 Harmonic frequencies (cm**-1), IR intensities (km*mol⁻¹),
 Raman scattering activities (A**4/amu), Raman depolarization ratios,
 reduced masses (AMU), force constants (mDyne/A) and normal coordinates:
                      1                      2                      3
                        a                      a                      a 
 Frequencies --   -15.3741                13.5014                16.1098
 Red. masses --    13.7999                14.8258                14.0214
 Frc consts  --     0.0000                 0.0000                 0.0000
 IR Inten    --    16.4389                 2.7065                 4.5713
 Raman Activ --     0.0000                 0.0000                 0.0000
 Depolar     --     0.0000                 0.0000                 0.0000
 Atom AN      X      Y      Z        X      Y      Z        X      Y      Z
   1  26    -0.03  -0.01   0.02    -0.04  -0.02   0.11     0.04  -0.03   0.01
   2   8    -0.01   0.00   0.02    -0.03  -0.01   0.06     0.03  -0.01   0.01
   3   8    -0.00  -0.00  -0.01    -0.00   0.00   0.02     0.01   0.02  -0.01
   4   8    -0.03  -0.05  -0.01    -0.06   0.01   0.02     0.02  -0.03   0.00
   5   8    -0.05  -0.02   0.03    -0.02  -0.04   0.05     0.01  -0.00   0.02
   6   8    -0.02  -0.01   0.02    -0.01   0.00   0.03     0.02  -0.01  -0.01
   7   8    -0.01  -0.00   0.02    -0.02  -0.01   0.05     0.02  -0.02  -0.00
   8   1    -0.00  -0.00   0.00    -0.00   0.00   0.00     0.00  -0.00   0.00
   9   1    -0.00  -0.00   0.00    -0.00  -0.00   0.00    -0.00  -0.00  -0.00
  10   1    -0.00   0.00   0.01     0.00  -0.00   0.01     0.00  -0.00   0.00
  11   1    -0.00  -0.00   0.01    -0.01  -0.00   0.01     0.01  -0.00   0.00
  12   1    -0.00   0.00   0.00    -0.00  -0.00   0.01     0.00   0.00   0.00
  13   1    -0.00  -0.00   0.01    -0.01   0.00   0.01     0.01  -0.01   0.00
  14   1    -0.01  -0.01  -0.01    -0.01  -0.00   0.00     0.00  -0.00  -0.00
  15   1    -0.01  -0.02   0.00    -0.02   0.01  -0.00     0.01  -0.01   0.00
  16   1    -0.00  -0.00  -0.01    -0.00  -0.00   0.00    -0.00   0.00  -0.01
  17   1    -0.00  -0.00  -0.00    -0.00  -0.00  -0.00     0.00   0.01  -0.00
  18   1    -0.01  -0.00   0.01    -0.01  -0.01   0.01     0.00   0.00   0.01
  19   1    -0.01  -0.01   0.01    -0.00  -0.01   0.02    -0.00  -0.00   0.01
  20   8    -0.02  -0.01   0.01    -0.02   0.01  -0.01     0.03  -0.02   0.05
  21   8    -0.01  -0.03   0.03    -0.08   0.00  -0.06     0.04   0.01   0.04
  22   8    -0.05  -0.03   0.01    -0.02  -0.02   0.00     0.02   0.07   0.04
  23   8    -0.03  -0.01   0.03    -0.02  -0.02   0.07     0.01  -0.00  -0.01
  24   8    -0.02  -0.02   0.02    -0.02  -0.01  -0.01     0.00   0.02   0.07
  25   8    -0.02  -0.02   0.03    -0.03  -0.01   0.03    -0.00   0.02  -0.04
  26   8    -0.00   0.01   0.01     0.05   0.02   0.01    -0.00   0.02  -0.00
  27   8    -0.01  -0.00  -0.02    -0.02  -0.02  -0.03     0.02   0.03  -0.00
  28   8    -0.02  -0.02  -0.04    -0.00  -0.01   0.00    -0.02   0.01  -0.04
  29   8    -0.05  -0.01   0.00     0.00  -0.03   0.01    -0.03   0.00  -0.03
  30   8    -0.03  -0.03  -0.05    -0.01  -0.01  -0.02    -0.01   0.02  -0.02
  31   8    -0.02  -0.07   0.02    -0.16   0.01  -0.05     0.06  -0.02   0.03
  32   1    -0.01  -0.01   0.01    -0.01  -0.01   0.00     0.00   0.01  -0.00
  33   1     0.01  -0.01   0.00    -0.00  -0.01   0.00    -0.02   0.02  -0.00
  34   1    -0.00  -0.00   0.00    -0.00   0.00  -0.00     0.01  -0.01   0.01
  35   1     0.02   0.01  -0.01    -0.00   0.00  -0.03    -0.03  -0.01  -0.02
  36   1    -0.01  -0.00   0.01    -0.00  -0.00  -0.00     0.00   0.00   0.02
  37   1    -0.00  -0.00   0.00    -0.00   0.00  -0.00     0.00  -0.00   0.01
  38   1    -0.01  -0.00   0.00     0.00  -0.01  -0.00    -0.01  -0.00  -0.01
  39   1    -0.01  -0.00   0.00     0.00  -0.01   0.01    -0.00  -0.00  -0.00
  40   1    -0.01  -0.01   0.00     0.01   0.00  -0.00     0.01   0.03   0.01
  41   1    -0.01  -0.01   0.00    -0.01  -0.01  -0.00     0.00   0.01   0.01
  42   1    -0.01  -0.00   0.01    -0.01  -0.00   0.01     0.00  -0.01  -0.01
  43   1    -0.01  -0.00   0.01    -0.01  -0.00   0.02     0.00  -0.00  -0.01
  44   1    -0.01  -0.02   0.00    -0.04   0.00  -0.02     0.01  -0.00   0.01
  45   1    -0.00  -0.02   0.01    -0.04   0.00  -0.01     0.02  -0.01   0.01
  46   1    -0.01  -0.01  -0.02    -0.00  -0.01  -0.00    -0.00   0.01  -0.01
  47   1    -0.01  -0.01  -0.01    -0.00  -0.00  -0.00    -0.00   0.00  -0.01
  48   1    -0.00  -0.00  -0.01    -0.00  -0.00  -0.00    -0.01   0.00  -0.01
  49   1    -0.01  -0.00  -0.01    -0.00  -0.00   0.00    -0.01   0.00  -0.01
  50   1    -0.00  -0.00  -0.01    -0.01  -0.00  -0.01     0.00   0.01  -0.00
  51   1    -0.00  -0.00  -0.00    -0.01  -0.00  -0.01     0.01   0.00   0.00
  52   1    -0.00   0.00   0.00     0.01   0.00   0.00    -0.00   0.00  -0.00
  53   1    -0.00   0.00   0.00     0.01   0.00  -0.00    -0.00   0.00  -0.00
  54   1    -0.00  -0.01   0.01    -0.02   0.00  -0.02     0.01   0.00   0.01
  55   1    -0.00  -0.01   0.01    -0.03   0.00  -0.01     0.01  -0.00   0.01
  56   8    -0.00   0.02  -0.01     0.01  -0.01   0.02     0.01   0.03  -0.01
  57   1     0.00   0.00  -0.00    -0.00  -0.00   0.01     0.01   0.01  -0.00
  58   1    -0.00   0.00  -0.00     0.00  -0.00   0.01     0.00   0.01  -0.00
  59   8     0.00   0.04   0.03     0.22  -0.05   0.13    -0.06  -0.25  -0.19
  60   1     0.00   0.01   0.01     0.05  -0.01   0.03    -0.01  -0.06  -0.04
  61   1     0.00   0.01   0.01     0.05  -0.01   0.03    -0.02  -0.06  -0.04
  62   8     0.04   0.02  -0.02    -0.03  -0.01  -0.04    -0.02   0.03  -0.05
  63   1     0.01   0.01  -0.00    -0.01  -0.00  -0.01    -0.01   0.00  -0.01
  64   1     0.01   0.01  -0.01    -0.01  -0.00  -0.01    -0.01   0.01  -0.01
  65   8    -0.00   0.02   0.02     0.18   0.11  -0.00     0.01   0.04   0.00
  66   1    -0.00   0.01   0.00     0.04   0.02   0.01     0.01   0.01   0.00
  67   1    -0.00   0.00   0.00     0.03   0.02   0.00     0.00   0.01   0.00
  68   8    -0.00   0.01   0.01    -0.03   0.01  -0.01     0.02  -0.06   0.06
  69   1    -0.00   0.00   0.00    -0.01   0.00  -0.00     0.01  -0.01   0.01
  70   1     0.00   0.01   0.00    -0.01   0.00  -0.00     0.01  -0.01   0.01
  71   8     0.03   0.01  -0.05    -0.01   0.01  -0.00     0.01   0.07  -0.06
  72   1     0.01   0.00  -0.01    -0.00   0.00  -0.00     0.00   0.02  -0.02
  73   1     0.01   0.00  -0.01    -0.00   0.00   0.00     0.00   0.02  -0.01
  74   8     0.00   0.01   0.05    -0.09   0.03   0.11    -0.06  -0.12  -0.23
  75   1     0.00   0.00   0.01    -0.02   0.01   0.03    -0.02  -0.04  -0.05
  76   1    -0.00   0.00   0.01    -0.02   0.01   0.03    -0.01  -0.03  -0.06
  77   8     0.00  -0.00   0.00    -0.02  -0.03  -0.07    -0.07  -0.06  -0.06
  78   1    -0.00   0.00   0.00    -0.00  -0.01  -0.01    -0.01  -0.02  -0.01
  79   1     0.00   0.00  -0.00    -0.00  -0.01  -0.02    -0.02  -0.01  -0.02
  80   8    -0.01  -0.01   0.01    -0.04  -0.04  -0.14     0.04   0.06   0.04
  81   1    -0.00   0.00   0.00    -0.00  -0.02  -0.04     0.01   0.02   0.01
  82   1    -0.00  -0.00  -0.00    -0.01  -0.01  -0.02     0.01   0.01   0.01
  83   8    -0.01  -0.01   0.03    -0.02   0.02   0.02     0.04  -0.03  -0.01
  84   1    -0.01  -0.00   0.01    -0.01   0.00   0.01     0.01  -0.00  -0.01
  85   1    -0.00  -0.00   0.01    -0.01   0.01   0.00     0.01  -0.01  -0.00
  86   8     0.00  -0.02  -0.05    -0.01  -0.01  -0.01    -0.05   0.01  -0.06
  87   1     0.00  -0.01  -0.02    -0.01  -0.00  -0.00    -0.01   0.01  -0.02
  88   1     0.00  -0.00  -0.01    -0.00  -0.00  -0.01    -0.01   0.00  -0.02
  89   8     0.04  -0.10   0.12    -0.16   0.00  -0.04     0.11  -0.03   0.06
  90   1     0.01  -0.02   0.02    -0.04  -0.00  -0.01     0.03  -0.00  -0.00
  91   1     0.02  -0.03   0.05    -0.04   0.00  -0.01     0.04  -0.01   0.03
  92   8    -0.02  -0.02   0.02    -0.02  -0.02  -0.04    -0.05   0.01   0.10
  93   1    -0.01  -0.00   0.00    -0.00  -0.00  -0.01    -0.01   0.00   0.02
  94   1    -0.00  -0.00   0.01    -0.01  -0.00  -0.01    -0.02  -0.01   0.03
  95   8    -0.04  -0.03  -0.09    -0.01  -0.03   0.00    -0.03   0.04  -0.07
  96   1    -0.01  -0.01  -0.02    -0.00  -0.01   0.00    -0.00   0.01  -0.02
  97   1    -0.01  -0.01  -0.03    -0.00  -0.01   0.00    -0.01   0.01  -0.02
  98   8     0.20  -0.09  -0.07     0.06  -0.03  -0.02    -0.40   0.20   0.06
  99   1     0.05  -0.02  -0.01     0.02  -0.01  -0.01    -0.12   0.05   0.01
 100   1     0.07  -0.02  -0.02     0.02  -0.00  -0.01    -0.12   0.05   0.01
 101   8    -0.04  -0.00   0.02    -0.00  -0.08  -0.04    -0.06  -0.04  -0.05
 102   1    -0.01  -0.00   0.00    -0.00  -0.02  -0.01    -0.01  -0.01  -0.02
 103   1    -0.01   0.00   0.00    -0.00  -0.02  -0.01    -0.01  -0.01  -0.01
 104   8    -0.02  -0.11   0.00    -0.20   0.03  -0.11     0.06  -0.02   0.03
 105   1    -0.01  -0.02  -0.00    -0.05   0.01  -0.03     0.01  -0.00   0.01
 106   1    -0.01  -0.03  -0.00    -0.06   0.01  -0.02     0.01  -0.01   0.01
 107   8    -0.06  -0.01   0.00     0.15   0.07  -0.06     0.05   0.19   0.02
 108   1    -0.05  -0.02  -0.00     0.05   0.02  -0.02    -0.01   0.04   0.00
 109   1    -0.02  -0.00  -0.00     0.04   0.02  -0.01     0.02   0.05   0.00
 110   8    -0.13  -0.27  -0.15     0.02   0.29   0.10    -0.08  -0.06  -0.10
 111   1    -0.05  -0.06  -0.03     0.02   0.06   0.02    -0.01  -0.02  -0.02
 112   1    -0.02  -0.06  -0.04    -0.00   0.06   0.03    -0.02  -0.02  -0.02
 113   8     0.32   0.38  -0.00    -0.03   0.00  -0.16    -0.07  -0.01   0.41
 114   1     0.09   0.03  -0.01    -0.01   0.02  -0.04    -0.02  -0.06   0.10
 115   1     0.11   0.11   0.03    -0.00  -0.02  -0.06     0.02  -0.00   0.13
 116   8     0.16   0.54  -0.06     0.61  -0.07   0.05     0.34   0.01  -0.03
 117   1    -0.11   0.00  -0.00     0.09  -0.04   0.02     0.00  -0.04   0.00
 118   1     0.18   0.15   0.11     0.20  -0.02   0.04     0.16   0.01   0.03
                      4                      5                      6
                        a                      a                      a 
 Frequencies --    18.5524                20.2352                22.8679
 Red. masses --    14.4385                15.0367                14.6468
 Frc consts  --     0.0000                 0.0000                 0.0000
 IR Inten    --     0.5691                 0.5689                 8.7574
 Raman Activ --     0.0000                 0.0000                 0.0000
 Depolar     --     0.0000                 0.0000                 0.0000
 Atom AN      X      Y      Z        X      Y      Z        X      Y      Z
   1  26    -0.02  -0.02   0.05     0.01  -0.09  -0.12     0.06  -0.09   0.02
   2   8    -0.06  -0.04  -0.01    -0.01  -0.07  -0.08     0.03  -0.03   0.02
   3   8    -0.01  -0.01   0.02    -0.02  -0.08   0.00     0.01  -0.02   0.02
   4   8    -0.02  -0.01   0.01     0.01   0.04  -0.05     0.05  -0.02   0.04
   5   8     0.01   0.01   0.02    -0.02  -0.06  -0.05     0.04  -0.07  -0.00
   6   8    -0.01  -0.00   0.01     0.00  -0.05  -0.04     0.03  -0.05  -0.02
   7   8     0.01   0.01   0.06     0.05  -0.03  -0.08     0.02  -0.04   0.04
   8   1    -0.00   0.00  -0.01     0.00  -0.01  -0.01     0.01  -0.01   0.00
   9   1     0.01  -0.00   0.00     0.00  -0.01  -0.01     0.00  -0.01  -0.01
  10   1     0.01   0.00   0.01     0.01  -0.01  -0.02     0.01  -0.01   0.01
  11   1    -0.00   0.00   0.01     0.01  -0.00  -0.02     0.01  -0.01   0.01
  12   1    -0.01  -0.02   0.00     0.01  -0.03  -0.02     0.01  -0.01   0.00
  13   1    -0.01  -0.00  -0.01    -0.00  -0.00  -0.02     0.01  -0.01   0.00
  14   1    -0.00  -0.00   0.00    -0.00   0.01  -0.00     0.01  -0.00   0.01
  15   1    -0.01  -0.00   0.00     0.01   0.02  -0.02     0.02  -0.00   0.01
  16   1    -0.00  -0.00   0.01    -0.01  -0.02   0.01    -0.00  -0.00   0.00
  17   1    -0.00  -0.00   0.00    -0.00  -0.01  -0.00     0.00  -0.00   0.01
  18   1     0.00   0.01  -0.01    -0.00  -0.01  -0.01     0.01  -0.01   0.00
  19   1     0.01   0.01   0.00    -0.02  -0.02  -0.01     0.00  -0.02   0.00
  20   8    -0.03   0.03  -0.11     0.01   0.03  -0.01     0.05   0.01   0.07
  21   8    -0.02  -0.00  -0.00     0.05   0.04  -0.08     0.02  -0.02   0.04
  22   8     0.01   0.03  -0.11    -0.02   0.02  -0.00     0.04   0.03   0.06
  23   8     0.02  -0.01   0.00    -0.02  -0.06  -0.02     0.01  -0.05   0.03
  24   8    -0.00   0.05  -0.13    -0.00   0.04   0.00     0.04   0.01   0.08
  25   8     0.01   0.04  -0.11     0.00   0.03   0.02     0.02   0.02   0.05
  26   8     0.09   0.02   0.03     0.04  -0.10  -0.06     0.03  -0.00   0.03
  27   8    -0.00   0.00  -0.01     0.02  -0.00  -0.02     0.02  -0.01   0.03
  28   8     0.00  -0.00   0.05    -0.06  -0.04   0.05    -0.01  -0.02   0.01
  29   8     0.02   0.00   0.02    -0.01  -0.06  -0.04     0.01  -0.05  -0.03
  30   8    -0.01   0.00  -0.01    -0.01   0.04   0.02     0.02   0.00   0.05
  31   8    -0.04  -0.02   0.00     0.10   0.11  -0.07     0.08   0.01   0.03
  32   1     0.00   0.01  -0.03    -0.00   0.01   0.00     0.01   0.01   0.01
  33   1    -0.01   0.01  -0.02    -0.01   0.01   0.01     0.01   0.01   0.01
  34   1    -0.01   0.01  -0.03    -0.00   0.01  -0.00     0.01   0.00   0.02
  35   1    -0.02  -0.02   0.04    -0.03  -0.04   0.03    -0.04   0.03  -0.06
  36   1    -0.00   0.01  -0.04    -0.00   0.01   0.00     0.01  -0.00   0.02
  37   1    -0.00   0.01  -0.03     0.00   0.01  -0.00     0.01   0.00   0.02
  38   1     0.01   0.00   0.01    -0.00  -0.01  -0.01    -0.00  -0.02  -0.01
  39   1     0.00   0.00   0.00     0.00  -0.01  -0.01     0.01  -0.02  -0.01
  40   1    -0.00   0.00  -0.03    -0.01   0.01   0.00     0.01   0.01   0.02
  41   1     0.00   0.01  -0.03    -0.00   0.01  -0.00     0.01   0.01   0.02
  42   1     0.00   0.00  -0.01    -0.00  -0.01  -0.00     0.00  -0.01   0.01
  43   1    -0.00  -0.00   0.01    -0.00  -0.02  -0.01     0.00  -0.01   0.01
  44   1    -0.01  -0.01  -0.00     0.03   0.03  -0.01     0.03  -0.00   0.01
  45   1    -0.01  -0.01   0.01     0.03   0.03  -0.02     0.01   0.01  -0.01
  46   1    -0.00  -0.00   0.00    -0.00   0.02   0.01     0.00   0.00   0.02
  47   1    -0.00  -0.00   0.00    -0.01   0.00   0.01     0.00   0.00   0.01
  48   1     0.00  -0.00   0.01    -0.02  -0.01   0.01    -0.01  -0.00  -0.00
  49   1     0.00   0.00   0.01    -0.01  -0.01   0.00    -0.00  -0.01  -0.00
  50   1    -0.00   0.00  -0.00     0.00   0.00  -0.00     0.00  -0.00   0.01
  51   1    -0.00   0.00  -0.00     0.01   0.00  -0.01     0.00  -0.00   0.01
  52   1     0.02  -0.00   0.01     0.01  -0.03  -0.01     0.01  -0.00   0.01
  53   1     0.01   0.01  -0.00     0.01  -0.02  -0.01     0.00  -0.00   0.01
  54   1    -0.00   0.00  -0.00     0.01   0.01  -0.02     0.00  -0.01   0.01
  55   1    -0.01  -0.00  -0.00     0.02   0.02  -0.02     0.01  -0.00   0.01
  56   8    -0.03  -0.09   0.00    -0.00  -0.15  -0.01     0.00  -0.01   0.02
  57   1    -0.01  -0.03   0.00    -0.01  -0.04  -0.00    -0.00  -0.00   0.00
  58   1    -0.01  -0.02   0.00    -0.00  -0.03  -0.00     0.00  -0.00   0.00
  59   8     0.42  -0.24   0.12     0.07   0.35   0.24     0.07  -0.17  -0.04
  60   1     0.10  -0.05   0.02     0.02   0.07   0.06     0.02  -0.04  -0.01
  61   1     0.09  -0.06   0.03     0.03   0.09   0.05     0.02  -0.04  -0.01
  62   8    -0.09  -0.10   0.02    -0.14  -0.17  -0.01    -0.24   0.04  -0.18
  63   1    -0.02  -0.02  -0.00    -0.03  -0.04  -0.01    -0.06  -0.00  -0.04
  64   1    -0.03  -0.03   0.01    -0.04  -0.04   0.00    -0.07   0.01  -0.05
  65   8     0.36   0.21   0.01    -0.06  -0.24  -0.09     0.09   0.07   0.04
  66   1     0.09   0.05   0.02    -0.02  -0.05  -0.03     0.03   0.01   0.02
  67   1     0.07   0.04   0.00    -0.00  -0.05  -0.02     0.02   0.01   0.01
  68   8    -0.05   0.03  -0.12     0.04   0.05  -0.01     0.17   0.15   0.02
  69   1    -0.01   0.01  -0.03     0.01   0.01  -0.00     0.03   0.02   0.01
  70   1    -0.02   0.00  -0.03    -0.01  -0.01   0.00     0.00  -0.01   0.02
  71   8    -0.07  -0.04   0.11    -0.10  -0.07   0.09    -0.17   0.15   0.07
  72   1    -0.02  -0.01   0.03    -0.03  -0.02   0.02    -0.05   0.04   0.01
  73   1    -0.02  -0.01   0.03    -0.03  -0.02   0.02    -0.04   0.04   0.02
  74   8    -0.18   0.05   0.00     0.00   0.16   0.31    -0.08  -0.07  -0.05
  75   1    -0.04   0.01  -0.00    -0.00   0.05   0.07    -0.02  -0.02  -0.01
  76   1    -0.04   0.01   0.01    -0.01   0.04   0.07    -0.02  -0.01  -0.01
  77   8     0.04   0.06   0.02     0.01   0.03  -0.04    -0.08   0.13  -0.26
  78   1     0.00   0.02  -0.01     0.00   0.01  -0.02    -0.01   0.03  -0.05
  79   1     0.01   0.01   0.01    -0.00   0.00  -0.00    -0.01   0.04  -0.07
  80   8     0.02   0.03  -0.08     0.04   0.02  -0.03     0.02  -0.02   0.05
  81   1     0.02   0.01  -0.03     0.01   0.00  -0.01     0.01  -0.00   0.01
  82   1     0.00   0.00  -0.01     0.01   0.00  -0.01     0.00  -0.00   0.01
  83   8    -0.06   0.03  -0.12    -0.02   0.04   0.00     0.02   0.00   0.06
  84   1    -0.01   0.01  -0.03    -0.00   0.01   0.00     0.00   0.00   0.01
  85   1    -0.03   0.01  -0.04    -0.01   0.01  -0.00     0.01  -0.00   0.02
  86   8     0.02  -0.00   0.07    -0.07  -0.04   0.05    -0.06  -0.00  -0.05
  87   1     0.00  -0.00   0.02    -0.02  -0.01   0.02    -0.02   0.00  -0.01
  88   1     0.01  -0.00   0.02    -0.02  -0.01   0.00    -0.02  -0.00  -0.02
  89   8     0.03  -0.05   0.08     0.12   0.12  -0.13    -0.15   0.08  -0.16
  90   1     0.01  -0.01   0.00     0.03   0.03  -0.05    -0.04   0.00   0.00
  91   1     0.02  -0.01   0.04     0.04   0.03  -0.02    -0.07   0.03  -0.07
  92   8     0.04   0.06  -0.16    -0.00   0.04   0.01    -0.02  -0.00   0.13
  93   1     0.01   0.01  -0.04    -0.00   0.01   0.00     0.00   0.00   0.03
  94   1     0.01   0.02  -0.04    -0.01   0.01   0.00    -0.01  -0.01   0.04
  95   8    -0.01   0.00   0.08    -0.03   0.10   0.10     0.01   0.03   0.11
  96   1    -0.01  -0.00   0.02    -0.01   0.02   0.03    -0.00   0.01   0.03
  97   1     0.00   0.00   0.02    -0.01   0.03   0.03     0.00   0.01   0.03
  98   8    -0.15   0.07  -0.00    -0.15   0.06   0.15     0.05   0.04  -0.03
  99   1    -0.04   0.02   0.01    -0.04   0.02   0.04     0.01   0.01  -0.01
 100   1    -0.04   0.01   0.00    -0.04   0.01   0.04     0.01   0.01  -0.01
 101   8     0.08   0.05   0.02    -0.00  -0.05  -0.03    -0.01  -0.07  -0.04
 102   1     0.02   0.01   0.01     0.00  -0.01  -0.01     0.00  -0.02  -0.02
 103   1     0.02   0.01  -0.00    -0.00  -0.01  -0.01    -0.00  -0.01   0.00
 104   8    -0.05  -0.03  -0.02     0.14   0.11  -0.00     0.13  -0.03   0.09
 105   1    -0.01  -0.01  -0.01     0.03   0.03   0.00     0.03  -0.01   0.03
 106   1    -0.01  -0.01  -0.01     0.04   0.03  -0.00     0.04  -0.01   0.02
 107   8    -0.08  -0.06  -0.08    -0.05   0.03   0.00     0.02   0.11   0.07
 108   1    -0.03  -0.02  -0.02    -0.02   0.00  -0.00    -0.02   0.02   0.01
 109   1    -0.02  -0.02  -0.02    -0.02   0.01   0.00     0.01   0.03   0.02
 110   8     0.04  -0.14   0.01    -0.02  -0.12  -0.00     0.03  -0.22  -0.03
 111   1    -0.02  -0.02  -0.01    -0.02  -0.02  -0.01    -0.00  -0.05  -0.01
 112   1     0.02  -0.03   0.00     0.00  -0.03   0.00     0.01  -0.05  -0.01
 113   8     0.08   0.01   0.19    -0.07   0.02   0.16    -0.28   0.12  -0.35
 114   1     0.01  -0.02   0.05    -0.02  -0.04   0.04    -0.06   0.05  -0.09
 115   1     0.03   0.01   0.07     0.01   0.01   0.06    -0.08   0.02  -0.11
 116   8    -0.26   0.08   0.01     0.18   0.07  -0.07    -0.08   0.12  -0.02
 117   1    -0.05   0.01  -0.00    -0.02  -0.03  -0.01    -0.03   0.01  -0.01
 118   1    -0.08   0.02   0.01     0.11   0.02   0.02    -0.01   0.03   0.01
                      7                      8                      9
                        a                      a                      a 
 Frequencies --    24.2057                26.4016                26.5280
 Red. masses --    14.4847                14.3953                15.1770
 Frc consts  --     0.0000                 0.0000                 0.0000
 IR Inten    --     5.6990                23.0221                23.2931
 Raman Activ --     0.0000                 0.0000                 0.0000
 Depolar     --     0.0000                 0.0000                 0.0000
 Atom AN      X      Y      Z        X      Y      Z        X      Y      Z
   1  26     0.04   0.01   0.01     0.09  -0.03  -0.07    -0.02  -0.14  -0.07
   2   8    -0.01   0.00  -0.02     0.04  -0.00  -0.03    -0.06  -0.07  -0.06
   3   8     0.00   0.03  -0.00     0.05  -0.02  -0.04    -0.06  -0.04  -0.02
   4   8     0.03   0.03   0.02     0.06  -0.11  -0.03     0.02  -0.09   0.00
   5   8     0.03  -0.02  -0.01     0.08   0.03  -0.04     0.01  -0.05  -0.05
   6   8    -0.00  -0.01  -0.00     0.05  -0.01  -0.03    -0.02  -0.08  -0.05
   7   8     0.02   0.02   0.05     0.02  -0.02   0.00     0.02  -0.04   0.01
   8   1    -0.00  -0.00  -0.00     0.01  -0.00  -0.00    -0.00  -0.02  -0.01
   9   1     0.00  -0.00  -0.00     0.01  -0.00  -0.01    -0.01  -0.02  -0.01
  10   1     0.00   0.01   0.01     0.00  -0.00  -0.00    -0.00  -0.01   0.00
  11   1     0.00   0.00   0.01     0.00  -0.01   0.00     0.01  -0.01   0.01
  12   1    -0.01   0.00  -0.00     0.01   0.00  -0.01    -0.01  -0.02  -0.01
  13   1    -0.00  -0.00  -0.01     0.01  -0.00  -0.01    -0.01  -0.01  -0.02
  14   1     0.01   0.01   0.01     0.02  -0.03  -0.01    -0.00  -0.01   0.00
  15   1     0.01   0.01   0.01     0.01  -0.04   0.00     0.02  -0.02   0.01
  16   1     0.00   0.01  -0.00     0.01  -0.01  -0.01    -0.02  -0.01  -0.00
  17   1     0.00   0.01   0.00     0.01  -0.01  -0.01    -0.01  -0.00  -0.00
  18   1     0.01  -0.00  -0.01     0.02   0.01  -0.01     0.00  -0.01  -0.01
  19   1     0.01  -0.01  -0.00     0.02   0.01  -0.02    -0.00  -0.01  -0.02
  20   8    -0.02  -0.06  -0.04     0.07  -0.01   0.04    -0.00   0.01  -0.00
  21   8     0.02   0.03   0.05     0.03  -0.12   0.03     0.10  -0.02   0.13
  22   8     0.03   0.01  -0.07     0.09   0.11   0.01     0.01   0.03   0.00
  23   8     0.03  -0.02   0.03     0.03  -0.01  -0.03    -0.04  -0.07   0.00
  24   8     0.00  -0.02  -0.05     0.05   0.03   0.06    -0.01   0.02   0.01
  25   8     0.00  -0.01  -0.10     0.04   0.07  -0.06    -0.03   0.01  -0.02
  26   8     0.01   0.07   0.05     0.03   0.01  -0.01    -0.00  -0.01   0.01
  27   8     0.01   0.04   0.04     0.03  -0.06  -0.04    -0.00   0.05   0.03
  28   8     0.02   0.03  -0.00     0.04  -0.03  -0.06    -0.09  -0.01  -0.01
  29   8     0.02  -0.01   0.01     0.02   0.04  -0.04    -0.07  -0.02  -0.04
  30   8     0.03   0.03   0.02     0.02  -0.07  -0.05    -0.07   0.02  -0.00
  31   8     0.06   0.04   0.04    -0.03  -0.20   0.02     0.14  -0.07   0.12
  32   1     0.00  -0.00  -0.02     0.02   0.02  -0.01    -0.00   0.00  -0.00
  33   1    -0.01   0.00  -0.02     0.00   0.02  -0.02    -0.00   0.00  -0.02
  34   1     0.00  -0.02  -0.02     0.02  -0.00   0.00    -0.01   0.00   0.00
  35   1     0.04  -0.02  -0.02    -0.14  -0.05   0.01     0.01  -0.04   0.11
  36   1     0.00  -0.01  -0.02     0.02  -0.00   0.01    -0.00   0.00   0.00
  37   1    -0.00  -0.01  -0.01     0.01   0.00   0.01    -0.00   0.00   0.00
  38   1     0.01  -0.00   0.00     0.00   0.01  -0.01    -0.02  -0.00  -0.01
  39   1     0.01  -0.00  -0.00     0.00   0.01  -0.01    -0.01  -0.01  -0.01
  40   1     0.01   0.01  -0.02     0.03   0.04  -0.00     0.01   0.01  -0.00
  41   1     0.00  -0.00  -0.02     0.02   0.02   0.01     0.00   0.01   0.00
  42   1     0.00  -0.00  -0.00     0.01   0.01  -0.01    -0.01  -0.01   0.00
  43   1     0.00   0.00   0.02    -0.00  -0.00  -0.00    -0.02  -0.02   0.00
  44   1     0.02   0.00   0.01    -0.01  -0.05  -0.00     0.03  -0.01   0.03
  45   1     0.00   0.02   0.00    -0.01  -0.05   0.01     0.04  -0.02   0.03
  46   1     0.01   0.01  -0.00     0.01  -0.02  -0.01    -0.02   0.01  -0.01
  47   1     0.01   0.01   0.00     0.01  -0.02  -0.01    -0.02   0.00  -0.00
  48   1     0.00   0.01  -0.00     0.00  -0.01  -0.00    -0.02  -0.00  -0.00
  49   1     0.01   0.01   0.00     0.01  -0.00  -0.01    -0.02  -0.00  -0.01
  50   1     0.01   0.01   0.01     0.01  -0.02  -0.01    -0.01   0.01   0.00
  51   1     0.00   0.01   0.01     0.01  -0.02  -0.00     0.01   0.00   0.01
  52   1    -0.00   0.02   0.00     0.01   0.00  -0.01    -0.01  -0.01   0.00
  53   1     0.00   0.02   0.01     0.01  -0.00  -0.00    -0.00   0.00   0.00
  54   1     0.00   0.01   0.01     0.01  -0.02   0.01     0.03   0.00   0.04
  55   1     0.01   0.01   0.01     0.00  -0.04   0.01     0.03  -0.01   0.03
  56   8    -0.02   0.03  -0.02     0.03   0.02  -0.05    -0.06  -0.09  -0.04
  57   1     0.01   0.01   0.00     0.01   0.00  -0.01    -0.00  -0.02  -0.00
  58   1    -0.01   0.01  -0.00     0.01   0.00  -0.01    -0.02  -0.02  -0.01
  59   8     0.02   0.14   0.07     0.01   0.24   0.06     0.07  -0.01   0.06
  60   1     0.00   0.03   0.02     0.00   0.05   0.02     0.02  -0.00   0.01
  61   1     0.01   0.04   0.01     0.01   0.06   0.01     0.02  -0.00   0.01
  62   8     0.20  -0.02   0.15    -0.23   0.00   0.01     0.10  -0.11   0.04
  63   1     0.04   0.01   0.04    -0.06  -0.01   0.00     0.03  -0.02   0.00
  64   1     0.06  -0.00   0.04    -0.06  -0.00   0.00     0.03  -0.03   0.02
  65   8     0.05   0.20   0.11     0.00   0.02   0.01     0.04   0.05   0.03
  66   1     0.02   0.05   0.04    -0.00   0.00   0.01     0.02   0.01   0.01
  67   1     0.01   0.04   0.02     0.00   0.00  -0.00     0.01   0.01   0.01
  68   8    -0.23  -0.33   0.05    -0.04  -0.18   0.10     0.13   0.14  -0.03
  69   1    -0.04  -0.06   0.00    -0.00  -0.03   0.02     0.02   0.02  -0.00
  70   1    -0.00  -0.03  -0.01    -0.00  -0.04   0.02     0.01   0.01  -0.00
  71   8     0.15  -0.03  -0.07    -0.11   0.10  -0.01     0.09  -0.05  -0.14
  72   1     0.04  -0.01  -0.01    -0.03   0.02  -0.01     0.04  -0.01  -0.03
  73   1     0.04  -0.01  -0.02    -0.03   0.03   0.01     0.02  -0.02  -0.03
  74   8    -0.10   0.05   0.12     0.00   0.07   0.13    -0.28   0.04   0.07
  75   1    -0.03   0.02   0.03    -0.00   0.03   0.04    -0.07   0.02   0.02
  76   1    -0.03   0.01   0.02    -0.01   0.02   0.02    -0.07   0.01   0.02
  77   8    -0.07  -0.33   0.15    -0.25  -0.14  -0.03     0.15   0.20   0.18
  78   1    -0.02  -0.08   0.05    -0.05  -0.04   0.00     0.03   0.04   0.00
  79   1    -0.02  -0.07   0.03    -0.06  -0.03  -0.01     0.02   0.02   0.07
  80   8     0.02   0.04   0.08     0.03  -0.06  -0.02     0.10   0.20   0.16
  81   1     0.00   0.01   0.02     0.01  -0.01  -0.00     0.03   0.07   0.05
  82   1     0.00   0.01   0.02     0.01  -0.01  -0.01     0.01   0.04   0.03
  83   8    -0.01  -0.05  -0.09     0.03  -0.01  -0.02    -0.07   0.01  -0.02
  84   1    -0.00  -0.01  -0.02     0.01   0.00  -0.01    -0.02   0.00  -0.01
  85   1    -0.01  -0.00  -0.03     0.00  -0.00  -0.01    -0.02   0.01  -0.01
  86   8     0.01   0.03   0.01    -0.10  -0.02   0.03    -0.04  -0.02  -0.04
  87   1     0.01   0.01  -0.00    -0.03   0.00   0.01    -0.01  -0.01  -0.01
  88   1     0.00   0.01   0.01    -0.03  -0.01   0.01    -0.01  -0.00  -0.01
  89   8    -0.14   0.10  -0.11    -0.04  -0.23   0.13     0.09  -0.06   0.10
  90   1    -0.04   0.01   0.01    -0.01  -0.06   0.05     0.02  -0.02   0.06
  91   1    -0.06   0.04  -0.05    -0.01  -0.05   0.03    -0.00  -0.01   0.01
  92   8    -0.03  -0.04  -0.05    -0.10  -0.04   0.08    -0.01   0.07   0.14
  93   1    -0.00  -0.01  -0.01    -0.01  -0.00   0.02    -0.00   0.01   0.02
  94   1    -0.01  -0.01  -0.01    -0.05  -0.02   0.02     0.01   0.01   0.04
  95   8     0.03   0.02  -0.07     0.02  -0.07   0.01    -0.11   0.06  -0.18
  96   1     0.01   0.00  -0.02     0.00  -0.02   0.00    -0.02   0.02  -0.05
  97   1     0.00   0.01  -0.02     0.00  -0.02   0.00    -0.04   0.02  -0.05
  98   8    -0.15   0.05  -0.04    -0.02   0.14  -0.08     0.11   0.01  -0.16
  99   1    -0.04   0.01  -0.00    -0.01   0.04  -0.02     0.03   0.00  -0.04
 100   1    -0.04   0.01  -0.01    -0.00   0.04  -0.02     0.04   0.01  -0.04
 101   8     0.03  -0.00   0.03    -0.04   0.04  -0.01    -0.13  -0.00   0.00
 102   1     0.01  -0.00   0.01    -0.01   0.01  -0.01    -0.04   0.00   0.02
 103   1     0.01   0.00   0.01    -0.01   0.01   0.01    -0.03  -0.01  -0.01
 104   8     0.12  -0.04   0.08    -0.12  -0.12  -0.06     0.10   0.02   0.11
 105   1     0.03  -0.01   0.02    -0.03  -0.03  -0.02     0.02   0.01   0.03
 106   1     0.04  -0.01   0.01    -0.04  -0.03  -0.01     0.02   0.00   0.03
 107   8     0.01   0.07  -0.07     0.17   0.24  -0.01     0.10   0.14  -0.02
 108   1    -0.02   0.01  -0.02     0.03   0.05  -0.00     0.02   0.04  -0.01
 109   1     0.00   0.02  -0.02     0.06   0.07  -0.00     0.03   0.04  -0.00
 110   8    -0.03  -0.22  -0.11     0.08   0.23   0.08    -0.21   0.22  -0.06
 111   1    -0.01  -0.05  -0.02     0.04   0.05   0.02     0.00   0.03   0.01
 112   1     0.00  -0.05  -0.03     0.00   0.05   0.02    -0.06   0.04  -0.01
 113   8    -0.27   0.05  -0.22     0.06   0.08   0.05     0.02  -0.05  -0.11
 114   1    -0.07   0.03  -0.05     0.02   0.00   0.01     0.03  -0.00  -0.04
 115   1    -0.06  -0.00  -0.07     0.01   0.03   0.02    -0.02  -0.00  -0.04
 116   8     0.04   0.05  -0.04    -0.20   0.10  -0.00    -0.01  -0.11  -0.04
 117   1    -0.03  -0.00  -0.00     0.03   0.05  -0.01     0.03   0.02  -0.01
 118   1     0.04   0.01   0.00    -0.12   0.03  -0.02    -0.03  -0.03  -0.05
                     10                     11                     12
                        a                      a                      a 
 Frequencies --    28.4705                29.2740                31.2576
 Red. masses --    12.8567                15.9420                14.1495
 Frc consts  --     0.0000                 0.0000                 0.0000
 IR Inten    --    73.6868                 7.4861                65.9208
 Raman Activ --     0.0000                 0.0000                 0.0000
 Depolar     --     0.0000                 0.0000                 0.0000
 Atom AN      X      Y      Z        X      Y      Z        X      Y      Z
   1  26     0.06   0.00   0.00    -0.10   0.05  -0.17     0.03   0.11   0.02
   2   8     0.03   0.01   0.00    -0.05   0.02  -0.09     0.05   0.06   0.03
   3   8     0.04   0.01  -0.02    -0.07   0.02  -0.06     0.05   0.01   0.02
   4   8     0.02  -0.04  -0.02    -0.02  -0.05  -0.06     0.01   0.03   0.00
   5   8     0.03   0.01   0.00    -0.06   0.01  -0.09     0.00   0.04   0.01
   6   8     0.02  -0.01   0.02    -0.07   0.01  -0.08     0.05   0.08   0.00
   7   8     0.02  -0.00   0.02    -0.04   0.04  -0.06    -0.01   0.03  -0.03
   8   1     0.00  -0.01  -0.00    -0.02   0.00  -0.00     0.01   0.02   0.00
   9   1     0.01  -0.00   0.01    -0.03   0.00  -0.02     0.01   0.02  -0.00
  10   1     0.00   0.00   0.01    -0.01   0.01  -0.01    -0.00   0.01  -0.01
  11   1     0.00  -0.01   0.01    -0.01   0.01  -0.01    -0.00   0.01  -0.01
  12   1     0.00   0.01  -0.00    -0.01   0.00  -0.02     0.02   0.01   0.01
  13   1     0.01  -0.00  -0.00    -0.01   0.00  -0.01     0.01   0.02   0.01
  14   1     0.01  -0.01  -0.01    -0.01  -0.01  -0.02     0.00   0.01  -0.00
  15   1     0.00  -0.01  -0.00    -0.00  -0.02  -0.01    -0.00   0.01  -0.00
  16   1     0.01   0.00  -0.01    -0.02   0.00  -0.02     0.01   0.00   0.01
  17   1     0.01   0.00  -0.00    -0.02   0.00  -0.01     0.01   0.00   0.00
  18   1     0.01  -0.00  -0.01    -0.01   0.01  -0.01     0.00   0.01   0.00
  19   1     0.02   0.00  -0.00    -0.02  -0.00  -0.02    -0.00   0.00   0.01
  20   8     0.01  -0.04  -0.09    -0.04   0.00   0.12     0.04   0.10   0.02
  21   8    -0.01  -0.05  -0.00    -0.01  -0.03   0.01    -0.00   0.02  -0.01
  22   8     0.03  -0.06  -0.08    -0.05   0.07   0.09    -0.00   0.06   0.04
  23   8     0.07  -0.01  -0.02    -0.05   0.02  -0.07    -0.03   0.07   0.03
  24   8     0.01  -0.07  -0.09    -0.01   0.10   0.11     0.03   0.09   0.03
  25   8     0.05  -0.05  -0.06    -0.01   0.06   0.06    -0.02   0.08   0.06
  26   8    -0.00   0.05   0.01    -0.04   0.04  -0.05     0.04  -0.04  -0.03
  27   8     0.02  -0.03  -0.02    -0.07   0.02  -0.05     0.04   0.01  -0.01
  28   8     0.05   0.02  -0.00    -0.06  -0.02  -0.08     0.02   0.02   0.01
  29   8     0.02   0.01   0.05    -0.06   0.01  -0.08     0.03   0.02  -0.02
  30   8     0.01  -0.04  -0.03    -0.04  -0.00  -0.06     0.02   0.01  -0.01
  31   8    -0.04  -0.09  -0.01     0.02  -0.08   0.00    -0.01  -0.00  -0.01
  32   1     0.01  -0.01  -0.02    -0.01   0.02   0.02    -0.00   0.02   0.01
  33   1     0.00  -0.01  -0.01     0.01   0.01   0.01     0.01   0.01   0.01
  34   1     0.00  -0.01  -0.02    -0.01   0.00   0.03     0.02   0.03   0.00
  35   1    -0.22  -0.10   0.26    -0.04  -0.04   0.03    -0.19  -0.10   0.12
  36   1     0.00  -0.02  -0.02    -0.01   0.03   0.02     0.01   0.02   0.01
  37   1     0.00  -0.01  -0.02    -0.01   0.01   0.03     0.01   0.02   0.01
  38   1     0.00   0.01   0.02    -0.00   0.00  -0.03     0.01   0.01  -0.00
  39   1     0.00   0.01   0.01    -0.02   0.00  -0.02     0.01   0.01  -0.01
  40   1     0.01  -0.02  -0.02    -0.02   0.02   0.02    -0.01   0.01   0.01
  41   1     0.01  -0.02  -0.02    -0.01   0.02   0.02     0.00   0.02   0.01
  42   1     0.02  -0.01  -0.01    -0.01   0.01  -0.00    -0.01   0.02   0.01
  43   1     0.02   0.00   0.00    -0.01   0.01  -0.02    -0.01   0.02   0.00
  44   1    -0.01  -0.02  -0.00     0.01  -0.02   0.00     0.00  -0.01  -0.00
  45   1    -0.02  -0.02  -0.00     0.01  -0.02   0.00    -0.01  -0.00   0.01
  46   1     0.00  -0.01  -0.01    -0.01   0.00   0.00     0.00   0.00  -0.01
  47   1     0.01  -0.01  -0.01    -0.01  -0.00  -0.02     0.01   0.00  -0.00
  48   1     0.01   0.00   0.01    -0.02  -0.01  -0.01    -0.00   0.00   0.01
  49   1     0.01   0.00   0.00    -0.02  -0.00  -0.02     0.01   0.00  -0.00
  50   1     0.00  -0.01  -0.01    -0.02   0.00  -0.02     0.01   0.00  -0.00
  51   1     0.00  -0.01  -0.00    -0.01   0.00  -0.01     0.01   0.00  -0.00
  52   1     0.00   0.01  -0.00    -0.01   0.01  -0.01     0.02  -0.01   0.00
  53   1     0.00   0.01   0.00    -0.01   0.01  -0.02     0.01  -0.01  -0.00
  54   1    -0.00  -0.01  -0.00    -0.00  -0.00   0.01    -0.00   0.00  -0.00
  55   1    -0.00  -0.02  -0.00     0.00  -0.01   0.00    -0.00   0.00  -0.00
  56   8    -0.00   0.06  -0.03    -0.07   0.00  -0.07     0.09   0.01   0.04
  57   1    -0.00   0.02  -0.01    -0.02  -0.00  -0.01     0.01   0.00   0.00
  58   1     0.00   0.01  -0.01    -0.02   0.00  -0.02     0.02   0.00   0.01
  59   8    -0.07   0.10  -0.04     0.10   0.00  -0.04     0.07  -0.12   0.00
  60   1    -0.02   0.02  -0.01     0.03   0.00  -0.01     0.02  -0.03  -0.00
  61   1    -0.01   0.03  -0.01     0.02  -0.00  -0.01     0.01  -0.03   0.00
  62   8    -0.17   0.06   0.16     0.02  -0.03   0.15    -0.13   0.00   0.14
  63   1    -0.04   0.01   0.04     0.00  -0.00   0.04    -0.03  -0.00   0.03
  64   1    -0.06   0.01   0.06     0.01  -0.01   0.04    -0.05  -0.00   0.04
  65   8    -0.01   0.11   0.06     0.12   0.25  -0.01    -0.03  -0.32  -0.16
  66   1    -0.00   0.02   0.02     0.04   0.06   0.02    -0.02  -0.07  -0.07
  67   1    -0.00   0.02   0.01     0.01   0.04  -0.01    -0.00  -0.05  -0.02
  68   8     0.08   0.12  -0.16    -0.04  -0.05   0.15    -0.08  -0.09   0.10
  69   1     0.02   0.01  -0.03    -0.01  -0.01   0.03    -0.01  -0.00   0.02
  70   1    -0.01   0.00  -0.03    -0.00  -0.01   0.03    -0.00  -0.01   0.02
  71   8    -0.10   0.11  -0.01    -0.12  -0.14   0.18    -0.04   0.15  -0.06
  72   1    -0.02   0.03  -0.01    -0.04  -0.03   0.05    -0.00   0.04  -0.02
  73   1    -0.02   0.03   0.01    -0.03  -0.03   0.03    -0.01   0.04  -0.00
  74   8     0.26  -0.05   0.01     0.32  -0.04  -0.05    -0.35   0.11  -0.09
  75   1     0.06  -0.01   0.01     0.08  -0.01  -0.01    -0.08   0.01  -0.03
  76   1     0.06  -0.01  -0.01     0.08  -0.01  -0.01    -0.08   0.03   0.00
  77   8     0.04   0.37   0.35     0.09  -0.11   0.04    -0.16  -0.05   0.13
  78   1    -0.01   0.08   0.02     0.04  -0.04   0.01    -0.03  -0.03   0.02
  79   1    -0.03   0.05   0.12     0.01  -0.03   0.01    -0.06  -0.03   0.04
  80   8    -0.01  -0.07  -0.01    -0.01   0.10   0.01     0.02  -0.02  -0.04
  81   1    -0.01  -0.02  -0.00     0.01   0.04   0.00     0.01  -0.01  -0.01
  82   1     0.00  -0.01  -0.00    -0.01   0.02  -0.00     0.01  -0.00  -0.01
  83   8     0.04  -0.04  -0.06    -0.07  -0.02   0.08     0.05   0.12   0.05
  84   1     0.01  -0.01  -0.02    -0.02  -0.00   0.02     0.01   0.03   0.01
  85   1     0.02  -0.02  -0.02    -0.01  -0.02   0.03     0.00   0.04   0.01
  86   8    -0.06   0.02   0.11    -0.05  -0.04   0.04    -0.12   0.03   0.06
  87   1    -0.01   0.01   0.02    -0.01  -0.01   0.01    -0.03   0.01   0.01
  88   1    -0.02  -0.00   0.05    -0.01  -0.01   0.01    -0.03  -0.00   0.03
  89   8    -0.12  -0.07  -0.05     0.04  -0.09   0.07    -0.02  -0.02   0.08
  90   1    -0.03  -0.02   0.00     0.01  -0.02   0.03    -0.01  -0.01   0.02
  91   1    -0.04  -0.01  -0.02     0.00  -0.02   0.02    -0.00  -0.00   0.02
  92   8     0.03  -0.02   0.01     0.15   0.20   0.11     0.00   0.03  -0.08
  93   1     0.00  -0.01  -0.01     0.02   0.04   0.03     0.00   0.01  -0.01
  94   1     0.02  -0.01   0.01     0.02   0.03   0.03    -0.01   0.01  -0.03
  95   8    -0.01  -0.03  -0.06    -0.04   0.02   0.19    -0.01   0.05  -0.07
  96   1    -0.00  -0.00  -0.01    -0.02  -0.00   0.05     0.00   0.01  -0.02
  97   1    -0.01  -0.01  -0.01     0.00   0.00   0.05    -0.01   0.02  -0.01
  98   8    -0.11  -0.02   0.08     0.20  -0.01  -0.02     0.20   0.00  -0.05
  99   1    -0.03  -0.00   0.02     0.06  -0.00  -0.01     0.05  -0.00  -0.02
 100   1    -0.04  -0.01   0.02     0.05   0.00  -0.00     0.05   0.00  -0.01
 101   8    -0.00   0.07   0.14     0.04   0.03  -0.11     0.03   0.04  -0.00
 102   1    -0.01   0.02   0.05     0.02   0.00  -0.02     0.01   0.01   0.00
 103   1    -0.00   0.01   0.02     0.01   0.01  -0.02     0.01   0.01  -0.01
 104   8    -0.05  -0.11  -0.03     0.04  -0.08   0.03     0.03  -0.09  -0.00
 105   1    -0.01  -0.03  -0.01     0.01  -0.01   0.01     0.01  -0.02   0.00
 106   1    -0.01  -0.03  -0.01     0.01  -0.02   0.01     0.01  -0.03  -0.01
 107   8    -0.03  -0.05  -0.06    -0.04   0.08   0.09    -0.03  -0.10   0.05
 108   1    -0.01  -0.01  -0.02     0.00   0.03   0.02     0.01  -0.02   0.02
 109   1    -0.01  -0.01  -0.01    -0.01   0.02   0.02    -0.02  -0.03   0.01
 110   8    -0.10  -0.10  -0.09     0.12  -0.17  -0.01    -0.04  -0.25  -0.14
 111   1    -0.01  -0.03  -0.01     0.00  -0.03  -0.02    -0.01  -0.06  -0.03
 112   1    -0.02  -0.02  -0.02     0.04  -0.04  -0.01    -0.00  -0.06  -0.04
 113   8    -0.15  -0.02  -0.04    -0.01  -0.05  -0.01     0.09  -0.11  -0.08
 114   1    -0.05   0.00  -0.00     0.02  -0.02  -0.02     0.03   0.01  -0.02
 115   1    -0.03  -0.01  -0.01    -0.02  -0.01  -0.01     0.00  -0.03  -0.04
 116   8     0.16  -0.02  -0.02     0.14  -0.18  -0.12     0.11  -0.25  -0.06
 117   1    -0.02   0.00   0.01     0.01  -0.01  -0.02    -0.01  -0.02  -0.00
 118   1     0.08  -0.01  -0.01     0.04  -0.05  -0.06     0.04  -0.07  -0.05
                     13                     14                     15
                        a                      a                      a 
 Frequencies --    32.2686                33.8767                35.3381
 Red. masses --    14.8666                14.7589                12.5755
 Frc consts  --     0.0000                 0.0000                 0.0000
 IR Inten    --    16.6108                37.2875                98.7064
 Raman Activ --     0.0000                 0.0000                 0.0000
 Depolar     --     0.0000                 0.0000                 0.0000
 Atom AN      X      Y      Z        X      Y      Z        X      Y      Z
   1  26     0.04  -0.13  -0.03     0.13   0.02  -0.01    -0.03  -0.03   0.03
   2   8     0.03  -0.02   0.00     0.05  -0.03  -0.04    -0.05  -0.06  -0.02
   3   8     0.02  -0.00  -0.08     0.04   0.03   0.02    -0.02  -0.00   0.01
   4   8     0.01   0.01  -0.03     0.03   0.01  -0.05    -0.04   0.04   0.00
   5   8     0.00  -0.08  -0.00     0.03  -0.04  -0.00    -0.05  -0.06   0.02
   6   8     0.01  -0.07  -0.02     0.06   0.01  -0.02    -0.03  -0.02   0.01
   7   8    -0.01  -0.08  -0.00     0.09   0.02  -0.00     0.05   0.03   0.04
   8   1     0.00  -0.01  -0.00     0.02  -0.00  -0.00    -0.01  -0.01   0.00
   9   1     0.00  -0.02  -0.00     0.01  -0.00  -0.01    -0.01  -0.01   0.00
  10   1    -0.00  -0.02  -0.00     0.02   0.01   0.00     0.02   0.01   0.01
  11   1    -0.00  -0.01  -0.00     0.02   0.01   0.00     0.01   0.01   0.01
  12   1     0.00   0.01  -0.01     0.01  -0.01  -0.01    -0.01  -0.02  -0.00
  13   1     0.01  -0.01   0.00     0.01  -0.01  -0.01    -0.01  -0.02  -0.00
  14   1     0.00   0.00  -0.01     0.01   0.01  -0.02    -0.01   0.01   0.01
  15   1     0.00   0.01  -0.02     0.01  -0.01  -0.00    -0.01   0.01   0.00
  16   1     0.01  -0.00  -0.02     0.00   0.01   0.01    -0.00  -0.00   0.00
  17   1     0.01  -0.00  -0.02     0.01   0.01  -0.00    -0.00  -0.00   0.00
  18   1     0.00  -0.02   0.01     0.01  -0.01   0.00    -0.01  -0.01   0.01
  19   1    -0.01  -0.02   0.00     0.01  -0.01   0.00    -0.01  -0.02   0.01
  20   8     0.03  -0.02   0.06     0.07  -0.03  -0.00    -0.02  -0.07   0.01
  21   8    -0.07   0.01  -0.13     0.11   0.06   0.02     0.04   0.08   0.01
  22   8     0.01  -0.06   0.08     0.03  -0.07   0.00    -0.05  -0.03   0.02
  23   8    -0.04  -0.07   0.04     0.00  -0.01   0.10     0.01  -0.05   0.05
  24   8     0.02  -0.03   0.06     0.06  -0.05   0.00     0.01   0.04   0.00
  25   8    -0.04  -0.07   0.06    -0.04  -0.07   0.01    -0.01  -0.05  -0.02
  26   8    -0.03   0.08  -0.05     0.07   0.02  -0.01     0.04   0.01   0.05
  27   8     0.00  -0.03  -0.07     0.05   0.12  -0.08     0.02   0.05   0.05
  28   8     0.03   0.00  -0.06    -0.02   0.03   0.01     0.02  -0.03  -0.03
  29   8     0.03  -0.08  -0.01     0.02  -0.03  -0.04     0.02  -0.07  -0.00
  30   8     0.05   0.01  -0.04    -0.00   0.10  -0.11     0.03  -0.01  -0.00
  31   8     0.03   0.10  -0.14    -0.13  -0.12   0.03    -0.04   0.05   0.01
  32   1    -0.00  -0.02   0.02    -0.00  -0.02   0.00    -0.01  -0.01  -0.00
  33   1    -0.01  -0.02   0.01    -0.01  -0.01   0.00    -0.00  -0.01  -0.01
  34   1     0.01  -0.00   0.01     0.02  -0.01   0.00    -0.01  -0.02  -0.00
  35   1    -0.10  -0.03   0.07     0.11   0.04  -0.06    -0.31  -0.19   0.17
  36   1     0.00  -0.01   0.02     0.01  -0.01   0.00    -0.01   0.03  -0.01
  37   1     0.01  -0.01   0.01     0.02  -0.01  -0.00    -0.00  -0.01   0.00
  38   1     0.01  -0.02  -0.00     0.01  -0.01  -0.01     0.01  -0.02  -0.01
  39   1     0.01  -0.02  -0.00     0.01  -0.01  -0.01     0.00  -0.02   0.00
  40   1     0.00  -0.02   0.02     0.00  -0.02   0.00    -0.01  -0.00   0.00
  41   1     0.00  -0.01   0.02     0.01  -0.02   0.00    -0.01  -0.00   0.00
  42   1    -0.01  -0.02   0.02    -0.00  -0.00   0.02     0.00  -0.01   0.01
  43   1    -0.01  -0.02   0.00     0.00   0.01   0.03     0.00  -0.01   0.02
  44   1     0.01   0.03  -0.03    -0.05  -0.03  -0.01    -0.02   0.02  -0.00
  45   1     0.01   0.02  -0.03    -0.04  -0.03   0.02    -0.01   0.01   0.01
  46   1     0.01   0.00  -0.00    -0.00   0.03  -0.02     0.01  -0.00  -0.00
  47   1     0.01   0.00  -0.01    -0.01   0.02  -0.02     0.01  -0.00  -0.00
  48   1    -0.00   0.00  -0.01    -0.01   0.01   0.01     0.01  -0.01  -0.02
  49   1     0.01  -0.00  -0.01    -0.00   0.01  -0.00     0.01  -0.01  -0.01
  50   1     0.01  -0.01  -0.02     0.00   0.03  -0.03     0.00   0.01   0.01
  51   1    -0.01  -0.00  -0.02     0.02   0.02  -0.01     0.01   0.01   0.01
  52   1    -0.01   0.02  -0.02     0.01   0.00  -0.00     0.00  -0.00   0.01
  53   1    -0.01   0.01  -0.02     0.02   0.01  -0.00     0.01   0.01   0.02
  54   1    -0.02  -0.00  -0.03     0.03   0.02  -0.01     0.01   0.02  -0.00
  55   1    -0.01   0.01  -0.03     0.01  -0.00   0.00     0.00   0.02   0.00
  56   8    -0.01   0.11  -0.08     0.02  -0.04  -0.01    -0.04  -0.07  -0.01
  57   1     0.00   0.03  -0.03     0.00  -0.02   0.01    -0.01  -0.02   0.00
  58   1    -0.00   0.02  -0.02     0.00  -0.00   0.00    -0.01  -0.01  -0.00
  59   8    -0.16   0.15  -0.14    -0.18   0.08  -0.16    -0.06  -0.06   0.01
  60   1    -0.04   0.03  -0.03    -0.04   0.02  -0.03    -0.01  -0.01   0.00
  61   1    -0.03   0.04  -0.03    -0.04   0.02  -0.03    -0.02  -0.02   0.00
  62   8     0.00   0.13   0.12    -0.00  -0.11   0.10     0.01   0.01  -0.13
  63   1    -0.00   0.03   0.04     0.00  -0.02   0.01     0.00  -0.03  -0.02
  64   1    -0.00   0.03   0.04     0.01  -0.02   0.02    -0.03  -0.01  -0.02
  65   8     0.02   0.39   0.12    -0.06  -0.05   0.02    -0.06  -0.11   0.03
  66   1     0.01   0.09   0.07    -0.02  -0.01  -0.00    -0.01  -0.02  -0.01
  67   1     0.00   0.07   0.01    -0.00  -0.01  -0.00    -0.01  -0.02   0.01
  68   8     0.07   0.00   0.06     0.09   0.00  -0.02    -0.10  -0.13   0.01
  69   1     0.01  -0.00   0.02     0.02  -0.00  -0.00    -0.02  -0.03   0.00
  70   1     0.01  -0.00   0.02     0.01  -0.01   0.00    -0.01  -0.02   0.00
  71   8    -0.05   0.00   0.02    -0.01  -0.10   0.24    -0.21   0.35  -0.13
  72   1    -0.02   0.00   0.00    -0.01  -0.03   0.06    -0.03   0.09  -0.04
  73   1    -0.01   0.01   0.00    -0.00  -0.02   0.04    -0.05   0.07  -0.01
  74   8    -0.44   0.01   0.01    -0.19  -0.03  -0.02     0.00  -0.04   0.06
  75   1    -0.11   0.00  -0.01    -0.05  -0.00  -0.01    -0.00   0.00   0.02
  76   1    -0.11   0.00   0.01    -0.05  -0.01  -0.00    -0.01  -0.01   0.00
  77   8     0.01   0.03   0.09     0.08  -0.01  -0.08     0.28  -0.14   0.05
  78   1     0.01  -0.00   0.01     0.03  -0.00  -0.00     0.06  -0.05  -0.04
  79   1    -0.01   0.00   0.03     0.03   0.00  -0.02     0.02  -0.05   0.02
  80   8    -0.09  -0.18  -0.12     0.14   0.30   0.01     0.05   0.12   0.03
  81   1    -0.03  -0.06  -0.03     0.03   0.09   0.01     0.01   0.03   0.01
  82   1    -0.00  -0.03  -0.03     0.01   0.06  -0.01     0.01   0.02   0.01
  83   8     0.01  -0.01   0.05     0.05  -0.02   0.00    -0.06  -0.07  -0.02
  84   1    -0.00  -0.01   0.01     0.00  -0.01   0.00    -0.01  -0.02  -0.01
  85   1    -0.00   0.01   0.01     0.01   0.00   0.01    -0.02  -0.02  -0.01
  86   8    -0.06   0.01   0.03    -0.03   0.02   0.09     0.11  -0.03  -0.17
  87   1    -0.01   0.00   0.00    -0.02   0.00   0.03     0.04  -0.01  -0.05
  88   1    -0.02  -0.00   0.02    -0.01   0.01   0.01     0.03  -0.01  -0.02
  89   8     0.14   0.09  -0.11    -0.21  -0.13   0.13    -0.02   0.05   0.02
  90   1     0.04   0.03  -0.06    -0.05  -0.04   0.05    -0.00   0.02   0.00
  91   1     0.06   0.02  -0.00    -0.06  -0.03   0.03     0.00   0.01   0.01
  92   8     0.06  -0.00   0.09     0.12  -0.02  -0.02     0.30   0.24   0.05
  93   1     0.01  -0.00   0.02     0.02  -0.01  -0.00     0.05   0.04   0.01
  94   1     0.01  -0.00   0.02     0.04  -0.00  -0.01     0.03   0.03   0.02
  95   8     0.05   0.01   0.09    -0.07   0.26   0.15     0.06  -0.06  -0.07
  96   1     0.01  -0.00   0.02    -0.03   0.06   0.04     0.01  -0.01  -0.02
  97   1     0.01   0.00   0.03    -0.01   0.07   0.04     0.02  -0.02  -0.02
  98   8     0.02  -0.06  -0.04    -0.11  -0.04   0.01    -0.02  -0.04  -0.03
  99   1     0.00  -0.02  -0.01    -0.03  -0.01   0.00    -0.00  -0.01  -0.01
 100   1     0.01  -0.01  -0.01    -0.03  -0.01   0.00    -0.01  -0.01  -0.01
 101   8     0.03  -0.07   0.02     0.05  -0.03  -0.05     0.13  -0.07  -0.09
 102   1     0.01  -0.02   0.01     0.01  -0.01  -0.01     0.03  -0.02  -0.01
 103   1     0.01  -0.02   0.01     0.01  -0.01  -0.01     0.03  -0.02  -0.04
 104   8     0.08   0.09  -0.07    -0.28  -0.04  -0.13    -0.09   0.06  -0.06
 105   1     0.02   0.02  -0.01    -0.07   0.00  -0.04    -0.02   0.01  -0.02
 106   1     0.03   0.03  -0.01    -0.08  -0.01  -0.03    -0.02   0.01  -0.01
 107   8     0.00  -0.08   0.09    -0.07  -0.14   0.03    -0.08   0.01   0.03
 108   1     0.01  -0.02   0.02    -0.02  -0.03   0.01    -0.01   0.01   0.01
 109   1    -0.00  -0.02   0.02    -0.03  -0.04   0.01    -0.02   0.01   0.01
 110   8     0.09   0.01   0.04    -0.00   0.02  -0.03     0.09   0.09   0.04
 111   1     0.00   0.01  -0.00    -0.02   0.01  -0.02     0.01   0.03   0.00
 112   1     0.02   0.00   0.01     0.02  -0.00   0.00     0.02   0.03   0.01
 113   8     0.14  -0.03   0.09    -0.07   0.03  -0.06    -0.05   0.04   0.01
 114   1     0.03  -0.03   0.02    -0.03   0.01  -0.01    -0.00  -0.01  -0.00
 115   1     0.04   0.00   0.04    -0.00  -0.00  -0.01    -0.01   0.01   0.01
 116   8    -0.04   0.02   0.02     0.00   0.06  -0.03    -0.06   0.10   0.07
 117   1    -0.00  -0.01   0.00    -0.03  -0.02  -0.00     0.01  -0.02   0.01
 118   1    -0.01   0.01   0.02     0.03   0.02   0.02    -0.02   0.03   0.06
                     16                     17                     18
                        a                      a                      a 
 Frequencies --    36.2326                37.3575                38.3630
 Red. masses --    15.5695                14.9635                12.2891
 Frc consts  --     0.0000                 0.0000                 0.0000
 IR Inten    --     6.3828                 2.8456               108.1913
 Raman Activ --     0.0000                 0.0000                 0.0000
 Depolar     --     0.0000                 0.0000                 0.0000
 Atom AN      X      Y      Z        X      Y      Z        X      Y      Z
   1  26    -0.07  -0.17   0.02     0.00  -0.05   0.11    -0.03  -0.05   0.04
   2   8     0.12   0.04   0.16    -0.04  -0.00   0.04    -0.01  -0.03   0.03
   3   8    -0.05  -0.02  -0.05    -0.01  -0.03   0.08    -0.01   0.01  -0.01
   4   8     0.01  -0.13   0.06    -0.01   0.02   0.05    -0.03   0.05   0.01
   5   8     0.04  -0.07  -0.04     0.06  -0.05   0.02    -0.01  -0.04   0.02
   6   8    -0.06  -0.07  -0.08     0.03   0.01  -0.02    -0.04  -0.05   0.04
   7   8    -0.05  -0.11  -0.04    -0.01  -0.01   0.11     0.00  -0.02   0.01
   8   1    -0.01  -0.01  -0.01     0.01   0.00   0.00    -0.01  -0.01   0.00
   9   1    -0.01  -0.02  -0.02     0.00  -0.00  -0.01    -0.01  -0.01   0.01
  10   1    -0.02  -0.02  -0.01     0.01  -0.00   0.03     0.00   0.00   0.00
  11   1    -0.01  -0.02  -0.00    -0.01  -0.00   0.02    -0.00   0.00  -0.00
  12   1     0.03   0.03   0.03    -0.01  -0.01   0.01    -0.01  -0.00   0.00
  13   1     0.03   0.01   0.03    -0.01   0.00   0.01    -0.00  -0.01   0.00
  14   1    -0.01  -0.02   0.00    -0.00   0.00   0.01    -0.01   0.01   0.00
  15   1     0.01  -0.03   0.02    -0.01   0.01   0.00    -0.01   0.02  -0.01
  16   1    -0.02  -0.01  -0.02    -0.01  -0.01   0.02    -0.00   0.00  -0.00
  17   1    -0.01  -0.00  -0.01    -0.00  -0.00   0.01    -0.00   0.00  -0.00
  18   1     0.01  -0.02  -0.01     0.01  -0.00  -0.00    -0.00  -0.01   0.00
  19   1     0.01  -0.02  -0.01     0.01  -0.01   0.01    -0.00  -0.01   0.00
  20   8    -0.04   0.03  -0.01     0.05   0.02   0.02    -0.04  -0.08   0.00
  21   8     0.01  -0.08   0.05    -0.10   0.04  -0.06    -0.04   0.08  -0.07
  22   8     0.04  -0.03  -0.03     0.07   0.07  -0.01     0.01  -0.05  -0.02
  23   8    -0.00  -0.07  -0.05     0.10  -0.05   0.00    -0.01  -0.03   0.04
  24   8     0.03  -0.00  -0.07     0.10   0.10  -0.02    -0.01  -0.06  -0.02
  25   8     0.05   0.02   0.06     0.13   0.07  -0.01    -0.05  -0.08  -0.05
  26   8    -0.10   0.01  -0.07     0.05  -0.02   0.09     0.01   0.03  -0.01
  27   8    -0.05  -0.02  -0.04    -0.01  -0.00   0.01     0.00   0.04  -0.01
  28   8    -0.08  -0.02  -0.04    -0.09  -0.02   0.06    -0.00   0.04   0.03
  29   8    -0.04  -0.05  -0.07    -0.01  -0.03  -0.06    -0.00  -0.05   0.06
  30   8    -0.06   0.01  -0.03    -0.05   0.04   0.03    -0.01   0.05  -0.00
  31   8     0.06  -0.08   0.05    -0.09   0.05  -0.07    -0.09   0.05  -0.07
  32   1     0.01   0.00   0.01     0.03   0.02   0.00    -0.01  -0.02  -0.01
  33   1     0.00   0.01   0.03     0.03   0.02  -0.00    -0.01  -0.02  -0.02
  34   1    -0.00   0.01   0.00     0.00   0.00   0.00    -0.01  -0.02  -0.00
  35   1    -0.03   0.03  -0.02    -0.01  -0.04  -0.02     0.31   0.20  -0.15
  36   1    -0.00   0.01  -0.03     0.02   0.03  -0.01    -0.01  -0.01  -0.01
  37   1    -0.01   0.00  -0.01     0.02   0.01   0.00    -0.01  -0.02  -0.00
  38   1    -0.00  -0.01  -0.02    -0.00  -0.01  -0.02     0.00  -0.01   0.01
  39   1    -0.01  -0.01  -0.01     0.00  -0.01  -0.01     0.00  -0.01   0.01
  40   1     0.01  -0.01  -0.01     0.02   0.02  -0.00     0.02   0.02  -0.02
  41   1     0.01  -0.00  -0.01     0.02   0.02  -0.00     0.00  -0.01  -0.00
  42   1     0.00  -0.02  -0.01     0.02  -0.01  -0.00    -0.01  -0.01   0.00
  43   1     0.00  -0.02  -0.02     0.02  -0.01   0.01    -0.01  -0.01   0.01
  44   1     0.01  -0.01   0.01    -0.02   0.01  -0.01    -0.02   0.01  -0.02
  45   1     0.02  -0.01  -0.00    -0.02   0.01  -0.01    -0.02   0.01  -0.01
  46   1    -0.01   0.01   0.00    -0.02   0.02  -0.01    -0.00   0.01  -0.00
  47   1    -0.02  -0.00  -0.01    -0.01   0.01   0.01    -0.00   0.01   0.00
  48   1    -0.03  -0.00  -0.00    -0.03  -0.01   0.02    -0.01   0.01   0.00
  49   1    -0.02  -0.01  -0.01    -0.01  -0.01   0.01    -0.00   0.00   0.01
  50   1    -0.02  -0.01  -0.01    -0.00   0.00   0.01     0.00   0.01  -0.00
  51   1    -0.01  -0.01  -0.01    -0.01   0.01  -0.00    -0.00   0.01  -0.01
  52   1    -0.01   0.01  -0.01     0.01  -0.01   0.02     0.00   0.01  -0.00
  53   1    -0.02  -0.00  -0.02     0.01  -0.00   0.02     0.00   0.01   0.00
  54   1     0.00  -0.01   0.02    -0.03   0.01  -0.01    -0.01   0.01  -0.02
  55   1     0.01  -0.02   0.01    -0.03   0.01  -0.01    -0.02   0.02  -0.02
  56   8     0.06   0.22   0.04     0.01  -0.08   0.08    -0.02   0.03  -0.01
  57   1     0.00   0.07  -0.02     0.01  -0.02   0.03    -0.00   0.01  -0.01
  58   1     0.02   0.03  -0.00    -0.00  -0.01   0.02    -0.00   0.00  -0.01
  59   8     0.12  -0.12   0.10    -0.15  -0.04  -0.02     0.02   0.00   0.05
  60   1     0.03  -0.03   0.02    -0.04  -0.01  -0.00     0.00   0.00   0.01
  61   1     0.02  -0.03   0.02    -0.04  -0.01  -0.00     0.00   0.00   0.01
  62   8     0.14   0.33   0.27    -0.14  -0.21   0.18     0.10   0.08   0.14
  63   1     0.02   0.09   0.08    -0.03  -0.03   0.02     0.02   0.03   0.04
  64   1     0.05   0.08   0.07    -0.03  -0.05   0.05     0.05   0.03   0.02
  65   8    -0.05  -0.12  -0.19    -0.03   0.07   0.20    -0.04  -0.13  -0.09
  66   1    -0.01  -0.03  -0.06    -0.00   0.01   0.06    -0.02  -0.03  -0.04
  67   1    -0.02  -0.02  -0.03     0.00   0.01   0.04    -0.01  -0.02  -0.01
  68   8    -0.05   0.03  -0.00     0.07   0.01   0.03     0.02  -0.01  -0.02
  69   1    -0.01   0.01  -0.00     0.02   0.00   0.01    -0.00  -0.01  -0.00
  70   1     0.01   0.03  -0.01     0.00  -0.02   0.01     0.01  -0.00  -0.01
  71   8     0.01   0.02  -0.07     0.19  -0.06  -0.15    -0.18   0.26  -0.04
  72   1    -0.01   0.00  -0.02     0.06  -0.01  -0.03    -0.04   0.06  -0.02
  73   1     0.01   0.01  -0.02     0.05  -0.03  -0.03    -0.04   0.06   0.00
  74   8    -0.00  -0.00   0.02     0.14  -0.05   0.03     0.03  -0.05   0.11
  75   1     0.00  -0.01   0.00     0.03  -0.01   0.01     0.00   0.00   0.03
  76   1     0.01   0.01   0.01     0.04  -0.01  -0.01    -0.00  -0.01   0.00
  77   8    -0.01  -0.00   0.00    -0.02  -0.03  -0.19     0.05   0.09   0.08
  78   1     0.04  -0.02   0.02     0.05  -0.03  -0.03     0.01   0.03   0.05
  79   1    -0.01  -0.00   0.00    -0.00  -0.02  -0.04     0.04   0.04   0.01
  80   8     0.01   0.08   0.04    -0.13  -0.16  -0.06    -0.03  -0.01  -0.09
  81   1     0.01   0.04   0.01    -0.04  -0.06  -0.02    -0.01  -0.01  -0.03
  82   1    -0.01   0.01   0.00    -0.01  -0.03  -0.01    -0.00   0.00  -0.02
  83   8     0.13   0.05   0.05    -0.04   0.01  -0.01    -0.01  -0.09  -0.03
  84   1     0.03   0.01   0.01     0.01   0.01  -0.00    -0.01  -0.02  -0.01
  85   1     0.03   0.01   0.01    -0.01  -0.01  -0.01    -0.00  -0.02  -0.01
  86   8    -0.18  -0.02   0.04    -0.19  -0.02   0.11    -0.05   0.06   0.00
  87   1    -0.03   0.00  -0.00    -0.05   0.00   0.03     0.00   0.02  -0.02
  88   1    -0.05  -0.01   0.02    -0.05  -0.01   0.02    -0.01   0.02   0.02
  89   8     0.02  -0.04  -0.10     0.00   0.04  -0.05     0.01   0.01   0.06
  90   1     0.01  -0.01  -0.01     0.00   0.02  -0.03     0.01   0.01  -0.01
  91   1    -0.01  -0.01  -0.04     0.02   0.00   0.00     0.02  -0.01   0.03
  92   8     0.19   0.04  -0.17     0.24   0.14  -0.12     0.06   0.03   0.10
  93   1     0.03   0.01  -0.03     0.05   0.03  -0.02     0.01  -0.00   0.01
  94   1     0.06   0.03  -0.05     0.05   0.04  -0.03     0.03   0.00   0.03
  95   8    -0.08   0.06   0.08    -0.12   0.15  -0.19    -0.01   0.08   0.06
  96   1    -0.01   0.01   0.01    -0.01   0.03  -0.06    -0.00   0.02   0.01
  97   1    -0.02   0.02   0.03    -0.05   0.04  -0.04    -0.00   0.02   0.02
  98   8    -0.08   0.04   0.17     0.11   0.08   0.03     0.04  -0.06  -0.18
  99   1    -0.03   0.01   0.05     0.02   0.02   0.01     0.02  -0.02  -0.06
 100   1    -0.02   0.00   0.04     0.02   0.02   0.01     0.01  -0.00  -0.05
 101   8     0.05  -0.02  -0.12     0.06  -0.04  -0.16     0.05  -0.01   0.08
 102   1     0.01  -0.01  -0.02     0.01  -0.01  -0.03     0.02  -0.00   0.02
 103   1     0.01  -0.01  -0.04     0.01  -0.01  -0.07     0.01   0.01   0.04
 104   8     0.02   0.05   0.06    -0.06   0.04  -0.04    -0.07  -0.03  -0.08
 105   1     0.00   0.01   0.01    -0.02   0.01  -0.01    -0.02  -0.00  -0.02
 106   1     0.00   0.01   0.02    -0.01   0.01  -0.01    -0.01  -0.01  -0.02
 107   8     0.05  -0.05  -0.04     0.11   0.07  -0.02     0.31   0.35  -0.13
 108   1     0.01  -0.02  -0.01     0.01   0.00  -0.00     0.01   0.05  -0.03
 109   1     0.01  -0.01  -0.01     0.04   0.02  -0.01     0.12   0.10  -0.04
 110   8     0.07   0.13   0.08    -0.17  -0.01  -0.12     0.04  -0.27  -0.04
 111   1     0.01   0.03   0.00    -0.02  -0.01  -0.01    -0.02  -0.05  -0.01
 112   1     0.01   0.03   0.02    -0.03  -0.01  -0.02     0.02  -0.05  -0.02
 113   8    -0.05   0.04  -0.06     0.05  -0.03   0.02     0.04  -0.08   0.09
 114   1    -0.03  -0.01  -0.01     0.01  -0.01   0.00     0.03  -0.02   0.01
 115   1     0.01   0.01  -0.00     0.01  -0.01   0.01    -0.01  -0.01   0.02
 116   8    -0.05   0.18  -0.02    -0.11   0.00  -0.02    -0.08  -0.11  -0.00
 117   1     0.00   0.00  -0.01    -0.01  -0.02  -0.01    -0.01  -0.00  -0.00
 118   1    -0.01   0.06   0.04    -0.02   0.00   0.02    -0.04  -0.03  -0.02
                     19                     20                     21
                        a                      a                      a 
 Frequencies --    38.9267                40.7625                41.4394
 Red. masses --    12.9709                15.2737                13.4798
 Frc consts  --     0.0000                 0.0000                 0.0000
 IR Inten    --   129.5878                 5.6458                91.0779
 Raman Activ --     0.0000                 0.0000                 0.0000
 Depolar     --     0.0000                 0.0000                 0.0000
 Atom AN      X      Y      Z        X      Y      Z        X      Y      Z
   1  26     0.02   0.04   0.09     0.00  -0.12   0.10    -0.06   0.08  -0.04
   2   8     0.05   0.06   0.08    -0.01  -0.11   0.04    -0.00   0.04  -0.01
   3   8     0.01   0.01   0.07    -0.06   0.09  -0.02    -0.02   0.02  -0.02
   4   8     0.01   0.00   0.04    -0.01  -0.08   0.04    -0.04   0.10  -0.03
   5   8     0.04  -0.01   0.01     0.10   0.03   0.04    -0.08  -0.02  -0.00
   6   8     0.02   0.06  -0.04    -0.11  -0.13   0.09     0.00   0.05  -0.01
   7   8    -0.03  -0.01   0.03     0.00  -0.11  -0.06    -0.02   0.05  -0.03
   8   1     0.01   0.01  -0.01    -0.03  -0.02   0.02    -0.00   0.01  -0.00
   9   1     0.00   0.01  -0.02    -0.02  -0.02   0.04    -0.00   0.01  -0.01
  10   1    -0.00  -0.00   0.01    -0.00  -0.03  -0.01    -0.01   0.01  -0.01
  11   1    -0.01   0.00   0.00     0.00  -0.02  -0.02    -0.00   0.01  -0.00
  12   1     0.01   0.01   0.02    -0.00  -0.02   0.00    -0.01   0.01  -0.00
  13   1     0.01   0.01   0.02    -0.00  -0.02   0.01    -0.00   0.00  -0.00
  14   1     0.00  -0.00   0.00    -0.01  -0.01  -0.01    -0.01   0.02   0.00
  15   1    -0.01   0.00   0.00    -0.00  -0.01   0.00    -0.01   0.02  -0.00
  16   1    -0.00   0.00   0.01    -0.01   0.02  -0.00    -0.00   0.00  -0.01
  17   1     0.00   0.00   0.01    -0.02   0.02  -0.01    -0.00   0.01  -0.00
  18   1     0.01  -0.01   0.00     0.02   0.01   0.01    -0.02  -0.01   0.01
  19   1     0.02  -0.00   0.00     0.02   0.01   0.01    -0.02  -0.01   0.00
  20   8     0.02   0.02  -0.04    -0.10   0.01   0.12     0.01  -0.05   0.00
  21   8    -0.07   0.02  -0.04     0.03  -0.01  -0.06     0.01   0.08   0.02
  22   8     0.06  -0.02  -0.02     0.11   0.06   0.07    -0.07  -0.12   0.03
  23   8     0.05   0.01   0.02    -0.01  -0.01  -0.02    -0.11   0.03   0.09
  24   8     0.01  -0.05  -0.03     0.02   0.01   0.02    -0.03  -0.08   0.03
  25   8     0.05  -0.01   0.01     0.03   0.07   0.09    -0.17  -0.14   0.03
  26   8    -0.00  -0.01   0.02    -0.08   0.00  -0.10    -0.03   0.02  -0.02
  27   8    -0.02   0.01  -0.02    -0.12   0.04  -0.10     0.00   0.05   0.04
  28   8    -0.05  -0.06  -0.04     0.07   0.14   0.04    -0.00   0.01  -0.02
  29   8    -0.05   0.02  -0.08     0.02   0.04   0.18     0.02  -0.05  -0.04
  30   8     0.02   0.03  -0.02    -0.08   0.02  -0.10     0.03   0.02   0.03
  31   8    -0.06   0.02  -0.04     0.02  -0.01  -0.06    -0.04   0.08   0.03
  32   1     0.01  -0.00  -0.00     0.02   0.02   0.02    -0.03  -0.04   0.01
  33   1     0.01  -0.00   0.01     0.01   0.02   0.02    -0.04  -0.03   0.00
  34   1     0.01   0.01  -0.01    -0.02   0.00   0.03     0.00  -0.01   0.00
  35   1    -0.30  -0.17   0.17    -0.08  -0.04   0.04    -0.25  -0.16   0.15
  36   1     0.01  -0.02  -0.00     0.00   0.00  -0.01    -0.01  -0.01   0.01
  37   1     0.00  -0.00  -0.01    -0.01   0.00   0.02    -0.00  -0.01   0.00
  38   1    -0.02  -0.00  -0.02     0.02   0.01   0.04     0.01  -0.01  -0.01
  39   1    -0.01   0.00  -0.01     0.02   0.01   0.04    -0.00  -0.01  -0.01
  40   1     0.03   0.01  -0.01     0.04   0.01   0.01    -0.00  -0.01   0.00
  41   1     0.01  -0.01  -0.01     0.02   0.01   0.01    -0.02  -0.03   0.01
  42   1     0.01  -0.00   0.00    -0.00   0.00   0.01    -0.03  -0.00   0.02
  43   1     0.02   0.00   0.00    -0.00  -0.01  -0.02    -0.02   0.01   0.02
  44   1    -0.01   0.00  -0.01     0.00   0.00  -0.02    -0.01   0.01   0.01
  45   1    -0.01   0.00  -0.01     0.00  -0.00  -0.02    -0.01   0.02   0.02
  46   1    -0.00   0.02   0.01    -0.01  -0.01  -0.03     0.01  -0.00   0.00
  47   1    -0.01  -0.00  -0.01    -0.01   0.01  -0.01     0.01   0.01   0.00
  48   1    -0.00  -0.02  -0.02     0.03   0.03   0.00    -0.01   0.00  -0.00
  49   1    -0.01  -0.01  -0.01     0.01   0.04   0.02     0.00  -0.00  -0.01
  50   1    -0.00   0.00  -0.00    -0.03   0.01  -0.03     0.00   0.01   0.01
  51   1    -0.01   0.01  -0.01    -0.02   0.01  -0.02     0.01   0.01   0.01
  52   1     0.00  -0.00   0.01    -0.02  -0.00  -0.02    -0.01   0.01  -0.00
  53   1    -0.00  -0.00   0.00    -0.02   0.00  -0.03    -0.01   0.00  -0.00
  54   1    -0.02   0.00  -0.01     0.01   0.01  -0.01     0.00   0.01  -0.00
  55   1    -0.02   0.00  -0.01     0.01  -0.00  -0.01    -0.00   0.02   0.00
  56   8     0.04   0.04   0.09    -0.06  -0.02  -0.03     0.01   0.04  -0.00
  57   1    -0.00   0.01   0.02    -0.02  -0.02   0.00     0.01   0.01   0.00
  58   1     0.01   0.01   0.02    -0.02   0.01  -0.00     0.00   0.01  -0.00
  59   8    -0.01  -0.04   0.03    -0.07   0.01   0.03     0.05  -0.01  -0.02
  60   1    -0.00  -0.01   0.01    -0.02   0.00   0.01     0.01  -0.00  -0.00
  61   1    -0.00  -0.01   0.01    -0.02   0.00   0.01     0.01  -0.00  -0.00
  62   8     0.15   0.16  -0.17    -0.09  -0.04  -0.20    -0.09  -0.01  -0.01
  63   1     0.04   0.01  -0.03    -0.02  -0.02  -0.05    -0.02  -0.00  -0.00
  64   1     0.01   0.03  -0.03    -0.04  -0.01  -0.05    -0.03  -0.01   0.02
  65   8    -0.02  -0.06  -0.00    -0.08   0.08  -0.05     0.02  -0.03  -0.08
  66   1    -0.01  -0.01  -0.01    -0.02   0.02  -0.00     0.00  -0.01  -0.03
  67   1    -0.00  -0.01   0.00    -0.02   0.01  -0.02    -0.00  -0.00  -0.01
  68   8    -0.06   0.01  -0.07    -0.10   0.04   0.09     0.10   0.05  -0.02
  69   1    -0.01   0.00  -0.02    -0.03   0.01   0.02     0.02   0.00  -0.00
  70   1     0.00   0.03  -0.02    -0.03   0.01   0.02     0.01  -0.01   0.00
  71   8    -0.00  -0.19   0.32    -0.04  -0.16   0.04     0.39  -0.24  -0.13
  72   1    -0.03  -0.05   0.08    -0.02  -0.04   0.01     0.10  -0.06  -0.03
  73   1     0.00  -0.03   0.05    -0.01  -0.03   0.01     0.09  -0.07  -0.05
  74   8    -0.01   0.02   0.00    -0.01  -0.03   0.02     0.04  -0.03   0.06
  75   1    -0.00   0.00   0.00    -0.00  -0.01   0.00     0.01   0.00   0.02
  76   1     0.00   0.01  -0.00    -0.00  -0.01   0.01     0.00  -0.01  -0.00
  77   8     0.20  -0.10   0.06    -0.07   0.01   0.01    -0.16   0.13  -0.09
  78   1     0.02  -0.02  -0.04    -0.03   0.01  -0.01     0.00   0.01  -0.02
  79   1     0.01  -0.04   0.02    -0.02   0.00   0.00    -0.05   0.02  -0.01
  80   8    -0.08  -0.08  -0.06     0.01   0.29  -0.00     0.05   0.12   0.02
  81   1    -0.02  -0.03  -0.02     0.01   0.10   0.01     0.02   0.04   0.01
  82   1    -0.01  -0.01  -0.01    -0.03   0.05  -0.01     0.00   0.02   0.01
  83   8     0.06   0.03  -0.00    -0.02   0.00   0.11    -0.00  -0.05   0.03
  84   1     0.02   0.01   0.00    -0.00   0.01   0.02    -0.02  -0.02   0.01
  85   1     0.01   0.01  -0.00    -0.00  -0.00   0.02     0.01  -0.01   0.02
  86   8     0.12  -0.10  -0.12     0.20   0.15   0.02    -0.10   0.02   0.04
  87   1     0.02  -0.04  -0.02     0.04   0.03   0.01    -0.03   0.00   0.02
  88   1     0.03  -0.02  -0.05     0.05   0.04   0.00    -0.03   0.00   0.01
  89   8    -0.01   0.01  -0.03     0.04  -0.00  -0.12    -0.05   0.07   0.11
  90   1    -0.00   0.01  -0.01     0.01   0.00  -0.03    -0.01   0.02   0.02
  91   1     0.01   0.00   0.00     0.01  -0.00  -0.03    -0.01   0.01   0.03
  92   8    -0.14  -0.10   0.06     0.08  -0.05  -0.19     0.05  -0.05   0.01
  93   1    -0.02  -0.02   0.01     0.02  -0.01  -0.03     0.00  -0.02   0.00
  94   1    -0.03  -0.03   0.02     0.00  -0.00  -0.06     0.01  -0.01   0.00
  95   8    -0.06   0.20   0.18    -0.02  -0.11  -0.13     0.08  -0.06  -0.01
  96   1    -0.03   0.06   0.05    -0.02  -0.03  -0.03     0.03  -0.03  -0.01
  97   1    -0.00   0.04   0.03     0.01  -0.03  -0.04     0.02  -0.01   0.01
  98   8     0.04   0.01  -0.00     0.00   0.10   0.09    -0.11  -0.13  -0.09
  99   1     0.01  -0.00  -0.01    -0.01   0.02   0.03    -0.01  -0.03  -0.03
 100   1     0.01   0.01  -0.00     0.01   0.02   0.02    -0.02  -0.02  -0.02
 101   8    -0.16  -0.05  -0.09     0.15   0.07   0.12     0.04  -0.06  -0.05
 102   1    -0.05  -0.01  -0.01     0.03   0.02   0.03     0.01  -0.02  -0.01
 103   1    -0.04  -0.02  -0.03     0.04   0.02   0.02     0.01  -0.01  -0.00
 104   8    -0.03   0.02   0.00    -0.01  -0.01  -0.12    -0.01  -0.01   0.01
 105   1    -0.01   0.01   0.00    -0.00  -0.00  -0.03    -0.00  -0.00   0.00
 106   1    -0.00   0.00  -0.00    -0.00  -0.00  -0.03    -0.00  -0.01   0.00
 107   8     0.24   0.19  -0.08     0.26   0.01   0.02     0.18   0.17  -0.06
 108   1     0.01   0.02  -0.02     0.04  -0.02   0.01     0.01   0.02  -0.02
 109   1     0.08   0.05  -0.03     0.07   0.00  -0.01     0.07   0.05  -0.02
 110   8    -0.19  -0.05  -0.15    -0.05  -0.11  -0.11     0.29  -0.16   0.14
 111   1    -0.02  -0.02  -0.02    -0.02  -0.02  -0.02     0.02  -0.02   0.00
 112   1    -0.04  -0.02  -0.03     0.01  -0.02  -0.03     0.06  -0.03   0.02
 113   8     0.01  -0.02   0.02     0.09  -0.08  -0.07    -0.00   0.01   0.03
 114   1     0.00  -0.00   0.00    -0.00   0.01  -0.00    -0.00  -0.00   0.01
 115   1     0.00  -0.00   0.00     0.02  -0.02  -0.02     0.00   0.00   0.01
 116   8    -0.11  -0.00  -0.05    -0.02  -0.01   0.09    -0.06   0.05   0.02
 117   1    -0.01  -0.01  -0.02    -0.00   0.01   0.02     0.01  -0.01  -0.00
 118   1    -0.03  -0.00  -0.01    -0.01  -0.00   0.01    -0.04   0.02   0.03
                     22                     23                     24
                        a                      a                      a 
 Frequencies --    43.3824                43.8066                44.8768
 Red. masses --    15.2668                14.9796                15.0479
 Frc consts  --     0.0000                 0.0000                 0.0000
 IR Inten    --     9.2997                 7.3895                19.9266
 Raman Activ --     0.0000                 0.0000                 0.0000
 Depolar     --     0.0000                 0.0000                 0.0000
 Atom AN      X      Y      Z        X      Y      Z        X      Y      Z
   1  26     0.03  -0.10   0.11     0.03   0.09   0.04     0.03  -0.12   0.05
   2   8     0.09  -0.02   0.12    -0.03   0.03  -0.01    -0.04  -0.04   0.01
   3   8     0.03  -0.01  -0.01     0.04   0.04  -0.01    -0.05   0.03   0.01
   4   8    -0.03  -0.02   0.01     0.01  -0.02   0.01     0.05  -0.02   0.08
   5   8    -0.06  -0.01   0.11     0.01   0.11   0.05     0.12  -0.00  -0.02
   6   8    -0.00  -0.06   0.07     0.07   0.07   0.06    -0.00  -0.07  -0.02
   7   8     0.03  -0.07  -0.01    -0.08  -0.03  -0.04    -0.05  -0.09   0.05
   8   1    -0.00  -0.01   0.00     0.02   0.00   0.01    -0.00  -0.02  -0.00
   9   1     0.01  -0.01   0.02     0.01   0.02   0.02    -0.00  -0.01  -0.00
  10   1     0.00  -0.01  -0.00    -0.02  -0.01  -0.01    -0.01  -0.02   0.01
  11   1     0.01  -0.01   0.00    -0.02  -0.01  -0.01    -0.01  -0.02   0.01
  12   1     0.01   0.01   0.02    -0.02   0.01  -0.00    -0.02  -0.01   0.00
  13   1     0.02  -0.01   0.02    -0.01  -0.01  -0.01    -0.01  -0.02  -0.00
[...]
 116   8     0.00  -0.00   0.00     0.00   0.00  -0.00     0.00   0.00  -0.00
 117   1    -0.00   0.00  -0.01     0.00   0.00   0.00     0.00  -0.00   0.00
 118   1     0.00   0.01  -0.00    -0.00  -0.00   0.00    -0.00  -0.00   0.00
                    343                    344                    345
                        a                      a                      a 
 Frequencies --  3649.1897              3656.4251              3660.9758
 Red. masses --     1.8406                 1.8444                 1.8429
 Frc consts  --     0.0000                 0.0000                 0.0000
 IR Inten    --    57.7885                82.8810                61.0125
 Raman Activ --     0.0000                 0.0000                 0.0000
 Depolar     --     0.0000                 0.0000                 0.0000
 Atom AN      X      Y      Z        X      Y      Z        X      Y      Z
   1  26    -0.00   0.00   0.00     0.00  -0.00   0.00    -0.00  -0.00   0.00
   2   8    -0.01   0.00   0.00    -0.00  -0.00  -0.00     0.00  -0.00  -0.00
   3   8     0.00   0.00  -0.00    -0.00   0.00  -0.00     0.00  -0.00  -0.00
   4   8     0.00  -0.00  -0.00    -0.00   0.00   0.00     0.00   0.00  -0.00
   5   8     0.00  -0.00  -0.00    -0.00   0.00   0.00     0.00  -0.00  -0.00
   6   8     0.00   0.00  -0.00    -0.00   0.00  -0.00     0.00   0.00  -0.00
   7   8     0.00  -0.00   0.00    -0.00   0.00  -0.00     0.00  -0.00  -0.00
   8   1    -0.00  -0.00   0.00     0.00  -0.00  -0.00    -0.00   0.00   0.00
   9   1    -0.00  -0.00   0.00    -0.00  -0.00   0.00    -0.00  -0.00   0.00
  10   1    -0.00  -0.00  -0.00     0.00  -0.00   0.00     0.00   0.00   0.00
  11   1    -0.00   0.00   0.00     0.00  -0.00  -0.00    -0.00   0.00   0.00
  12   1    -0.00  -0.00  -0.00     0.00   0.00   0.00     0.00   0.00   0.00
  13   1     0.03  -0.00  -0.00     0.00  -0.00   0.00    -0.00   0.00  -0.00
  14   1    -0.00  -0.00  -0.00     0.00   0.00   0.00    -0.00  -0.00  -0.00
  15   1    -0.00   0.00   0.00     0.00  -0.00  -0.00    -0.00   0.00   0.00
  16   1    -0.00  -0.00   0.00     0.00  -0.00   0.00    -0.00   0.00   0.00
  17   1    -0.00   0.00  -0.00     0.00  -0.00   0.00    -0.00   0.00   0.00
  18   1    -0.00  -0.00   0.00     0.00  -0.00  -0.00    -0.00   0.00   0.00
  19   1    -0.00   0.00   0.00     0.00  -0.00  -0.00    -0.00   0.00   0.00
  20   8    -0.00  -0.00   0.00     0.00   0.00  -0.00     0.00   0.00  -0.00
  21   8     0.00  -0.00   0.00    -0.00   0.00  -0.00    -0.00   0.00  -0.00
  22   8    -0.00   0.00  -0.00     0.00   0.00   0.00     0.00  -0.00  -0.00
  23   8     0.00  -0.00   0.00    -0.00   0.00  -0.00    -0.00   0.00  -0.00
  24   8     0.00   0.00  -0.00    -0.00  -0.00   0.00     0.00   0.00  -0.00
  25   8    -0.00  -0.00   0.00     0.00   0.00  -0.00     0.00   0.00  -0.00
  26   8     0.00  -0.00   0.00     0.00  -0.00  -0.00     0.00   0.00  -0.00
  27   8     0.00  -0.00   0.00    -0.00   0.00  -0.00    -0.00   0.00  -0.00
  28   8     0.00   0.00   0.00    -0.00  -0.00  -0.00     0.00  -0.00  -0.00
  29   8     0.00   0.00  -0.00    -0.00   0.00  -0.00     0.00  -0.00   0.00
  30   8     0.00  -0.00  -0.00    -0.00   0.00   0.00    -0.00  -0.00  -0.00
  31   8     0.00  -0.00  -0.00    -0.00   0.00   0.00     0.00   0.00   0.00
  32   1     0.00  -0.00   0.00     0.00  -0.00   0.00    -0.00  -0.00   0.00
  33   1     0.00   0.00   0.00    -0.00  -0.00  -0.00    -0.00  -0.00  -0.00
  34   1     0.00   0.02  -0.01    -0.00  -0.00   0.00    -0.00  -0.00   0.00
  35   1     0.00   0.00  -0.00     0.00   0.01   0.01    -0.00  -0.00  -0.00
  36   1    -0.00  -0.00   0.00     0.00   0.00  -0.00    -0.00  -0.00   0.00
  37   1     0.00  -0.00   0.00     0.00  -0.00   0.00     0.00   0.00   0.00
  38   1     0.00  -0.00   0.00     0.00  -0.00   0.00    -0.00   0.00  -0.00
  39   1    -0.00  -0.00  -0.00    -0.00  -0.00  -0.00    -0.00   0.00   0.00
  40   1     0.00   0.00   0.00    -0.00  -0.00  -0.00     0.00   0.00   0.00
  41   1     0.00  -0.00  -0.00     0.00  -0.00  -0.00    -0.00   0.00   0.00
  42   1    -0.00   0.00   0.00     0.00  -0.00  -0.00    -0.00   0.00   0.00
  43   1    -0.00   0.01  -0.00     0.00  -0.00   0.00     0.00  -0.00   0.00
  44   1    -0.00  -0.00   0.00     0.00  -0.00  -0.00    -0.00  -0.00  -0.00
  45   1     0.00   0.00   0.00    -0.00  -0.00  -0.00    -0.00  -0.00  -0.00
  46   1    -0.00  -0.00   0.00     0.00   0.00  -0.00     0.00   0.00  -0.00
  47   1    -0.00   0.00   0.00     0.00  -0.00  -0.00    -0.00   0.00   0.00
  48   1    -0.00  -0.00  -0.00     0.00   0.00   0.00     0.00   0.00   0.00
  49   1    -0.00  -0.00  -0.00     0.00   0.00   0.00    -0.00   0.00   0.00
  50   1    -0.00   0.00  -0.00     0.00  -0.00   0.00     0.00   0.00  -0.00
  51   1    -0.00  -0.00  -0.00     0.00   0.00   0.00    -0.00   0.00   0.00
  52   1    -0.00   0.00   0.00    -0.00   0.00   0.00    -0.00   0.00   0.00
  53   1     0.00   0.00  -0.00    -0.00  -0.00   0.00    -0.00  -0.00   0.00
  54   1    -0.00   0.00   0.00     0.00  -0.00   0.00     0.02  -0.00   0.01
  55   1    -0.00   0.00  -0.00     0.00  -0.00   0.00    -0.00   0.00  -0.00
  56   8     0.00  -0.00   0.00    -0.00   0.00   0.00    -0.00   0.00   0.00
  57   1    -0.00   0.00   0.00     0.00  -0.00  -0.00     0.00  -0.00  -0.00
  58   1     0.00   0.00  -0.00    -0.00  -0.00   0.00    -0.00  -0.00   0.00
  59   8    -0.00   0.00   0.00     0.00  -0.00  -0.00    -0.00   0.00   0.00
  60   1     0.01  -0.00  -0.00    -0.00   0.00   0.00     0.00  -0.00  -0.00
  61   1     0.00  -0.00   0.00    -0.00   0.00  -0.00     0.00  -0.00   0.00
  62   8     0.00  -0.00   0.00    -0.00   0.00   0.00    -0.00   0.00   0.00
  63   1    -0.00  -0.00  -0.00    -0.00  -0.00  -0.00     0.00   0.00   0.00
  64   1     0.00   0.00   0.00     0.00  -0.01  -0.00     0.00  -0.00  -0.00
  65   8    -0.00  -0.00  -0.00    -0.00  -0.00  -0.00    -0.00   0.00   0.00
  66   1     0.00   0.00   0.00     0.00   0.00   0.00    -0.00  -0.00  -0.00
  67   1    -0.00   0.00  -0.00     0.00  -0.00   0.00    -0.00  -0.00   0.00
  68   8    -0.00   0.00   0.00    -0.00   0.00  -0.00    -0.00   0.00  -0.00
  69   1     0.00  -0.00  -0.00    -0.00   0.00   0.00    -0.00   0.00   0.00
  70   1     0.00   0.00   0.00     0.00  -0.00   0.00     0.00  -0.00   0.00
  71   8    -0.00   0.00   0.00     0.00  -0.00   0.00    -0.00   0.00  -0.00
  72   1     0.00   0.00  -0.00    -0.00   0.00  -0.00     0.00  -0.00   0.00
  73   1     0.00  -0.00  -0.00    -0.00   0.00   0.00     0.00  -0.00  -0.00
  74   8     0.00  -0.00  -0.00     0.00  -0.00  -0.00    -0.00   0.00  -0.00
  75   1     0.01   0.00   0.00    -0.00  -0.00  -0.00     0.00   0.00   0.00
  76   1    -0.01   0.01   0.00    -0.00   0.00   0.00     0.00  -0.00  -0.00
  77   8     0.00  -0.00  -0.00    -0.03   0.17   0.16     0.00  -0.00  -0.00
  78   1    -0.00  -0.00   0.00    -0.01   0.00   0.02     0.00  -0.00  -0.00
  79   1    -0.00   0.00   0.00     0.13  -0.68  -0.69    -0.00   0.00   0.00
  80   8     0.00  -0.00   0.00     0.00  -0.00   0.00     0.09  -0.07   0.20
  81   1    -0.00   0.00  -0.00    -0.00   0.00  -0.01    -0.38   0.32  -0.83
  82   1    -0.00   0.00   0.00     0.00  -0.00   0.00     0.02  -0.02   0.02
  83   8     0.17   0.11  -0.12     0.00   0.00  -0.00    -0.00  -0.00   0.00
  84   1     0.02   0.00  -0.03     0.00   0.00   0.00    -0.00   0.00   0.00
  85   1    -0.70  -0.45   0.50    -0.00  -0.00   0.00     0.00   0.00  -0.00
  86   8     0.00   0.00   0.00    -0.00   0.00  -0.00    -0.00  -0.00  -0.00
  87   1    -0.00  -0.00  -0.00     0.00   0.00   0.00     0.00   0.00   0.00
  88   1     0.00  -0.00  -0.00     0.00  -0.00  -0.00    -0.00   0.00   0.00
  89   8     0.00   0.00  -0.00    -0.00   0.00  -0.00     0.00   0.00  -0.00
  90   1    -0.00   0.00   0.00     0.00  -0.00  -0.00     0.00  -0.00  -0.00
  91   1    -0.00  -0.00   0.00    -0.00  -0.00   0.00    -0.00  -0.00   0.00
  92   8    -0.00   0.00   0.00     0.00  -0.00  -0.00    -0.00   0.00   0.00
  93   1     0.00   0.00   0.00    -0.00  -0.00  -0.00    -0.00   0.00  -0.00
  94   1     0.00  -0.01  -0.01    -0.00   0.00   0.00     0.00  -0.00  -0.00
  95   8    -0.00  -0.00   0.00    -0.00   0.00  -0.00    -0.00  -0.00  -0.00
  96   1     0.00  -0.00   0.00     0.00  -0.00   0.00     0.00  -0.00   0.00
  97   1     0.00   0.00  -0.00     0.00  -0.00   0.00     0.00   0.00  -0.00
  98   8     0.00  -0.00   0.00     0.00   0.00  -0.00    -0.00   0.00  -0.00
  99   1    -0.00   0.00  -0.00     0.00  -0.00   0.00     0.00  -0.00   0.00
 100   1     0.00  -0.00  -0.00    -0.00   0.00   0.00    -0.00   0.00   0.00
 101   8     0.00   0.00  -0.00    -0.00   0.00   0.00     0.00   0.00   0.00
 102   1    -0.00  -0.00   0.00    -0.00  -0.00  -0.00    -0.00  -0.00  -0.00
 103   1    -0.00  -0.00   0.00     0.00   0.00  -0.00     0.00   0.00  -0.00
 104   8    -0.00  -0.00   0.00    -0.00   0.00  -0.00     0.00  -0.00   0.00
 105   1     0.00  -0.00   0.00     0.00   0.00   0.00    -0.00  -0.00  -0.00
 106   1    -0.00   0.00  -0.00     0.00  -0.00   0.00    -0.00   0.00  -0.00
 107   8    -0.00   0.00  -0.00    -0.00   0.00   0.00     0.00  -0.00  -0.00
 108   1    -0.00   0.00   0.00     0.00  -0.00  -0.00    -0.00   0.00   0.00
 109   1     0.00  -0.00   0.00     0.00  -0.00   0.00     0.00  -0.00   0.00
 110   8     0.00   0.00  -0.00    -0.00   0.00   0.00    -0.00  -0.00  -0.00
 111   1    -0.00  -0.00   0.00     0.00   0.00  -0.00     0.00   0.00  -0.00
 112   1    -0.00   0.00   0.00     0.00  -0.00  -0.00    -0.00   0.00   0.00
 113   8    -0.00   0.00  -0.00     0.00   0.00  -0.00     0.00   0.00   0.00
 114   1     0.00  -0.00   0.00     0.00  -0.00   0.00    -0.00   0.00  -0.00
 115   1    -0.00  -0.00   0.00    -0.00  -0.00   0.00    -0.00  -0.00   0.00
 116   8    -0.00   0.00  -0.00     0.00   0.00   0.00     0.00  -0.00   0.00
 117   1     0.00  -0.00   0.00    -0.00   0.00  -0.00    -0.00   0.00  -0.00
 118   1    -0.00  -0.00   0.00    -0.00  -0.00   0.00     0.00   0.00   0.00
                    346                    347                    348
                        a                      a                      a 
 Frequencies --  3666.7076              3682.9182              3703.2428
 Red. masses --     1.8351                 1.8366                 1.8777
 Frc consts  --     0.0000                 0.0000                 0.0000
 IR Inten    --    72.4024                52.7541                 0.7130
 Raman Activ --     0.0000                 0.0000                 0.0000
 Depolar     --     0.0000                 0.0000                 0.0000
 Atom AN      X      Y      Z        X      Y      Z        X      Y      Z
   1  26     0.00  -0.00  -0.00    -0.00   0.00  -0.00     0.00  -0.00   0.00
   2   8     0.00   0.00   0.00    -0.00  -0.00  -0.00     0.00  -0.00  -0.00
   3   8    -0.00   0.00   0.00     0.00  -0.00  -0.00    -0.00   0.00  -0.00
   4   8    -0.00   0.00   0.00    -0.00   0.00   0.00    -0.00   0.00   0.00
   5   8     0.00   0.00   0.00     0.00  -0.00  -0.00    -0.00   0.00   0.00
   6   8     0.00  -0.00   0.00     0.00  -0.00   0.00     0.00   0.00  -0.00
   7   8    -0.00   0.00   0.00    -0.00   0.00   0.00    -0.00   0.00  -0.00
   8   1    -0.00  -0.00  -0.00    -0.00   0.00   0.00    -0.00  -0.00   0.00
   9   1     0.00   0.00  -0.00     0.00   0.00  -0.00     0.00  -0.00   0.00
  10   1    -0.00  -0.00  -0.00    -0.00  -0.00  -0.00     0.00  -0.00   0.00
  11   1     0.00  -0.00  -0.00     0.00  -0.00  -0.00     0.00  -0.00  -0.00
  12   1    -0.00  -0.00  -0.00     0.01   0.02   0.02     0.00   0.00   0.00
  13   1    -0.00  -0.00  -0.00    -0.00   0.00  -0.00    -0.00   0.00   0.00
  14   1    -0.00  -0.00  -0.00     0.00   0.00   0.00     0.00   0.00   0.00
  15   1     0.00  -0.00  -0.00     0.00  -0.00  -0.00     0.00  -0.00  -0.00
  16   1     0.00  -0.00   0.00    -0.00   0.00  -0.00     0.00  -0.00   0.00
  17   1     0.00  -0.00  -0.00     0.00  -0.00   0.00     0.00  -0.00   0.00
  18   1    -0.00   0.00  -0.00    -0.00   0.00   0.00     0.00  -0.00  -0.00
  19   1     0.00  -0.00  -0.00    -0.00   0.00   0.00     0.00  -0.00  -0.00
  20   8     0.00   0.00   0.00    -0.00  -0.00  -0.00    -0.00   0.00  -0.00
  21   8    -0.00   0.00   0.00    -0.00   0.00   0.00    -0.00   0.00  -0.00
  22   8     0.00   0.00   0.00     0.00  -0.00   0.00    -0.00   0.00   0.00
  23   8     0.00  -0.00   0.00     0.00  -0.00   0.00     0.00   0.00  -0.00
  24   8     0.00   0.00  -0.00     0.00   0.00  -0.00    -0.19  -0.13   0.07
  25   8     0.00   0.00   0.00     0.00  -0.00   0.00     0.00   0.00  -0.00
  26   8    -0.00   0.00   0.00     0.00  -0.00  -0.00     0.00   0.00  -0.00
  27   8    -0.00   0.00   0.00    -0.00  -0.00   0.00    -0.00   0.00  -0.00
  28   8     0.00  -0.00   0.00    -0.00  -0.00  -0.00    -0.00  -0.00  -0.00
  29   8     0.00  -0.00   0.00     0.00  -0.00   0.00    -0.00   0.00   0.00
  30   8    -0.00   0.00   0.00    -0.00  -0.00   0.00    -0.00   0.00   0.00
  31   8    -0.00  -0.00   0.00    -0.00   0.00   0.00     0.00   0.00   0.00
  32   1    -0.00  -0.00  -0.00    -0.00   0.00  -0.00    -0.00  -0.00   0.00
  33   1    -0.00  -0.00  -0.00    -0.00  -0.00  -0.00    -0.00   0.00  -0.00
  34   1    -0.00  -0.00  -0.00     0.00   0.00  -0.00    -0.00  -0.00  -0.00
  35   1    -0.01   0.01  -0.00    -0.00   0.00  -0.00    -0.00  -0.00  -0.00
  36   1    -0.00  -0.00   0.00    -0.00  -0.00   0.00     0.76   0.54  -0.28
  37   1    -0.00   0.00  -0.00     0.00  -0.00   0.00     0.00  -0.00   0.01
  38   1    -0.00   0.00  -0.00    -0.00   0.00  -0.00     0.00   0.00  -0.00
  39   1    -0.00  -0.00  -0.00     0.00   0.00   0.00     0.00  -0.00  -0.00
  40   1    -0.00  -0.00  -0.00    -0.00  -0.00  -0.00    -0.00  -0.00   0.00
  41   1    -0.00   0.00  -0.00    -0.00   0.00   0.00     0.00  -0.01  -0.00
  42   1     0.00  -0.00  -0.00    -0.00  -0.00   0.00    -0.00  -0.00   0.00
  43   1    -0.00   0.00  -0.00    -0.00   0.00  -0.00     0.00  -0.00   0.00
  44   1     0.00  -0.00  -0.00     0.00   0.00  -0.00    -0.00  -0.00   0.00
  45   1     0.00   0.00   0.00     0.00  -0.00  -0.00    -0.00  -0.00  -0.00
  46   1     0.00   0.00  -0.00     0.00   0.00  -0.00    -0.00  -0.00   0.00
  47   1     0.00  -0.00  -0.00    -0.00   0.00   0.00     0.00  -0.00  -0.00
  48   1     0.00   0.00  -0.00     0.00   0.00   0.00     0.00   0.00   0.00
  49   1    -0.00  -0.00  -0.00    -0.00   0.00   0.00     0.00   0.00   0.00
  50   1     0.00   0.00  -0.00     0.00   0.00  -0.00     0.00  -0.00   0.00
  51   1    -0.00  -0.00  -0.00     0.00   0.00  -0.00    -0.00  -0.00  -0.00
  52   1     0.00  -0.00  -0.00    -0.01   0.01   0.01     0.00  -0.00   0.00
  53   1    -0.00  -0.00   0.00     0.00   0.00  -0.00    -0.00  -0.00   0.00
  54   1    -0.00  -0.00  -0.00     0.00  -0.00   0.00     0.00  -0.00   0.00
  55   1     0.00  -0.00  -0.00     0.00   0.00  -0.00     0.00  -0.00   0.00
  56   8     0.00  -0.01  -0.01    -0.05   0.19   0.13    -0.00   0.00  -0.00
  57   1    -0.01   0.03   0.02     0.22  -0.77  -0.54     0.00  -0.00  -0.00
  58   1     0.00  -0.00  -0.00    -0.01   0.01   0.03    -0.00  -0.00   0.00
  59   8     0.00   0.00  -0.00     0.00  -0.00  -0.00     0.00   0.00   0.00
  60   1    -0.00   0.00   0.00    -0.00   0.00   0.00     0.00  -0.00   0.00
  61   1     0.00  -0.00   0.00    -0.00   0.00  -0.00     0.00  -0.00   0.00
  62   8    -0.04   0.22   0.08    -0.00   0.01   0.00    -0.00   0.00   0.00
  63   1    -0.00   0.02   0.01     0.00   0.01   0.00     0.00   0.00   0.00
  64   1     0.18  -0.90  -0.31     0.01  -0.04  -0.01     0.00  -0.00  -0.00
  65   8    -0.00   0.00  -0.00    -0.00   0.00  -0.00     0.00   0.00  -0.00
  66   1    -0.00  -0.00  -0.00     0.00   0.00   0.00     0.00  -0.00  -0.00
  67   1     0.00  -0.00   0.00     0.00  -0.00   0.00     0.00  -0.00   0.00
  68   8     0.00  -0.00   0.00     0.00  -0.00   0.00    -0.00   0.00  -0.00
  69   1    -0.00   0.00   0.00     0.00   0.00   0.00    -0.00   0.00   0.00
  70   1    -0.00   0.00  -0.00    -0.01   0.00  -0.01     0.00  -0.00   0.00
  71   8    -0.00   0.00   0.00    -0.00   0.00   0.00     0.00  -0.00  -0.00
  72   1    -0.00  -0.00   0.00    -0.00   0.00  -0.00     0.00   0.00  -0.00
  73   1     0.01  -0.00  -0.00     0.01  -0.00  -0.00    -0.00   0.00   0.00
  74   8     0.00   0.00   0.00     0.00   0.00   0.00     0.00  -0.00  -0.00
  75   1    -0.00  -0.00  -0.00    -0.00  -0.00  -0.00     0.00  -0.00   0.00
  76   1     0.00  -0.00  -0.00    -0.00   0.00   0.00    -0.00   0.00   0.00
  77   8    -0.00  -0.00  -0.00     0.00  -0.00  -0.00    -0.00  -0.00  -0.00
  78   1     0.00   0.00  -0.00    -0.00  -0.00   0.00     0.00   0.00  -0.00
  79   1    -0.00   0.00   0.00    -0.00   0.00   0.00    -0.00   0.00   0.00
  80   8    -0.00   0.00  -0.00    -0.00   0.00  -0.00    -0.00   0.00   0.00
  81   1     0.00  -0.00   0.00     0.00  -0.00   0.00    -0.00   0.00  -0.00
  82   1     0.00  -0.00  -0.00     0.00  -0.00  -0.00     0.00  -0.00  -0.00
  83   8     0.00   0.00   0.00     0.00   0.00  -0.00     0.00   0.00  -0.00
  84   1    -0.00  -0.00  -0.00    -0.00   0.00   0.00     0.00   0.00   0.00
  85   1    -0.00  -0.00   0.00    -0.00  -0.00   0.00    -0.00  -0.00   0.00
  86   8     0.00  -0.00  -0.00     0.00  -0.00  -0.00    -0.00   0.00  -0.00
  87   1     0.00   0.00   0.00     0.00   0.00   0.00     0.00   0.00   0.00
  88   1    -0.00   0.00   0.00    -0.00   0.00   0.00     0.00  -0.00   0.00
  89   8    -0.00   0.00   0.00    -0.00  -0.00   0.00    -0.00   0.00  -0.00
  90   1     0.00  -0.00  -0.00     0.00  -0.00  -0.00     0.00  -0.00  -0.00
  91   1     0.00   0.00  -0.00     0.00   0.00  -0.00    -0.00  -0.00   0.00
  92   8     0.00  -0.00   0.00     0.00  -0.00  -0.00     0.00  -0.00   0.00
  93   1    -0.00   0.00  -0.00    -0.00  -0.00  -0.00    -0.01   0.01  -0.00
  94   1    -0.00   0.00  -0.00    -0.00   0.00   0.00    -0.00   0.00   0.00
  95   8     0.00  -0.00   0.00    -0.00  -0.00   0.00     0.00   0.00   0.00
  96   1    -0.00   0.00  -0.00    -0.00   0.00  -0.00    -0.00   0.00  -0.00
  97   1     0.00   0.00  -0.00     0.00   0.00  -0.00     0.00  -0.00   0.00
  98   8     0.00  -0.00   0.00     0.00  -0.00   0.00    -0.00   0.00  -0.00
  99   1    -0.00   0.00  -0.00    -0.00   0.00  -0.00     0.00  -0.00   0.00
 100   1    -0.00  -0.00   0.00    -0.00  -0.00   0.00    -0.00   0.00   0.00
 101   8    -0.00  -0.00   0.00     0.00  -0.00  -0.00    -0.00  -0.00   0.00
 102   1     0.00   0.00   0.00     0.00   0.00   0.00    -0.00  -0.00  -0.00
 103   1     0.00   0.00  -0.00    -0.00  -0.00   0.00     0.01   0.00  -0.00
 104   8     0.00   0.00  -0.00     0.00  -0.00   0.00     0.00   0.00   0.00
 105   1    -0.00  -0.00  -0.00    -0.00  -0.00  -0.00    -0.00   0.00  -0.00
 106   1     0.00  -0.00   0.00    -0.00   0.00  -0.00     0.00  -0.00   0.00
 107   8     0.00  -0.00   0.00     0.00  -0.00   0.00    -0.00   0.00   0.00
 108   1     0.00  -0.00  -0.00     0.00  -0.00  -0.00     0.00  -0.00  -0.00
 109   1    -0.00   0.00  -0.00    -0.00   0.00  -0.00     0.00  -0.00   0.00
 110   8    -0.00  -0.00   0.00    -0.00  -0.00  -0.00    -0.00   0.00   0.00
 111   1     0.00   0.00  -0.00     0.00   0.00  -0.00     0.00   0.00  -0.00
 112   1     0.00  -0.00  -0.00    -0.00   0.00   0.00     0.00  -0.00  -0.00
 113   8     0.00   0.00   0.00     0.00  -0.00   0.00     0.00   0.00  -0.00
 114   1    -0.00   0.00  -0.00    -0.00   0.00  -0.00     0.00  -0.00   0.00
 115   1    -0.00  -0.00   0.00    -0.00  -0.00   0.00    -0.00  -0.00   0.00
 116   8     0.00  -0.00   0.00     0.00  -0.00   0.00     0.00   0.00   0.00
 117   1    -0.00   0.00  -0.00    -0.00   0.00  -0.00    -0.00   0.00  -0.00
 118   1     0.00   0.00  -0.00     0.00   0.00  -0.00    -0.00  -0.00   0.00
